<event>
 8    1  0.1408247E-005  0.1073572E+04  0.7818608E-02  0.8708378E-01
          2   -1    0    0  502    0  0.00000000000E+00  0.00000000000E+00  0.11788337692E+04  0.11788337692E+04  0.00000000000E+00 0. -1.
         -2   -1    0    0    0  501 -0.00000000000E+00 -0.00000000000E+00 -0.10095000770E+04  0.10095000770E+04  0.00000000000E+00 0.  1.
    9000010    2    1    2  502    0  0.29906943421E+03 -0.22113634976E+03  0.27906060360E+03  0.11124737754E+04  0.10106331030E+04 0.  0.
   -9000010    2    1    2    0  501 -0.29906943421E+03  0.22113634976E+03 -0.10972691143E+03  0.10758600708E+04  0.10035392793E+04 0.  0.
        -13    1    3    3    0    0 -0.76404086082E+02 -0.55199230729E+03  0.42329033577E+02  0.55886031343E+03  0.10566000000E+00 0.  1.
          4    1    3    3  502    0  0.37547352029E+03  0.33085595753E+03  0.23673157002E+03  0.55361346201E+03  0.00000000000E+00 0.  1.
         13    1    4    4    0    0  0.32628187036E+03  0.29129099353E+03 -0.17776116843E+01  0.43739395618E+03  0.10566000000E+00 0. -1.
         -4    1    4    4    0  501 -0.62535130457E+03 -0.70154643772E+02 -0.10794929975E+03  0.63846611459E+03  0.00000000000E+00 0. -1.
<mgrwt>
<rscale>  2 0.10735720E+04</rscale>
<asrwt>0</asrwt>
<pdfrwt beam="1">  1        2 0.18135904E+00 0.10735720E+04</pdfrwt>
<pdfrwt beam="2">  1       -2 0.15530770E+00 0.10735720E+04</pdfrwt>
<totfact> 0.72296210E+00</totfact>
</mgrwt>
</event>
<event>
 8    1  0.1408247E-005  0.1574105E+04  0.7818608E-02  0.8368084E-01
         -2   -1    0    0    0  501 -0.00000000000E+00  0.00000000000E+00  0.10894400816E+04  0.10894400816E+04  0.00000000000E+00 0. -1.
          2   -1    0    0  502    0  0.00000000000E+00 -0.00000000000E+00 -0.24225472453E+04  0.24225472453E+04  0.00000000000E+00 0.  1.
    9000010    2    1    2  502    0 -0.51429791862E+03  0.11300851725E+04 -0.11019769535E+04  0.19239139216E+04  0.97236655916E+03 0.  0.
   -9000010    2    1    2    0  501  0.51429791862E+03 -0.11300851725E+04 -0.23113021018E+03  0.15880734053E+04  0.96278820118E+03 0.  0.
        -13    1    3    3    0    0  0.10777975665E+03  0.45896878160E+03 -0.85454386294E+03  0.97596825936E+03  0.10566000000E+00 0.  1.
          4    1    3    3  502    0 -0.62207767527E+03  0.67111639091E+03 -0.24743309056E+03  0.94794566222E+03  0.00000000000E+00 0.  1.
         13    1    4    4    0    0 -0.86078384788E+02 -0.70298783799E+03  0.19803366848E+03  0.73540378956E+03  0.10566000000E+00 0. -1.
         -4    1    4    4    0  501  0.60037630341E+03 -0.42709733452E+03 -0.42916387866E+03  0.85266961573E+03  0.00000000000E+00 0. -1.
<mgrwt>
<rscale>  2 0.15741050E+04</rscale>
<asrwt>0</asrwt>
<pdfrwt beam="2">  1        2 0.37269957E+00 0.15741050E+04</pdfrwt>
<pdfrwt beam="1">  1       -2 0.16760617E+00 0.15741050E+04</pdfrwt>
<totfact> 0.11110590E+00</totfact>
</mgrwt>
</event>
<event>
 8    1  0.1408247E-005  0.1133386E+04  0.7818608E-02  0.8658486E-01
         -1   -1    0    0    0  501 -0.00000000000E+00  0.00000000000E+00  0.10005803760E+04  0.10005803760E+04  0.00000000000E+00 0. -1.
          1   -1    0    0  502    0  0.00000000000E+00 -0.00000000000E+00 -0.13701801676E+04  0.13701801676E+04  0.00000000000E+00 0.  1.
    9000010    2    1    2  502    0 -0.18983817545E+03 -0.33856105090E+03  0.11539225830E+03  0.10820403476E+04  0.10034110935E+04 0.  0.
   -9000010    2    1    2    0  501  0.18983817545E+03  0.33856105090E+03 -0.48499204993E+03  0.12887201960E+04  0.11291237032E+04 0.  0.
        -13    1    3    3    0    0 -0.18956309076E+03  0.28213679158E+03 -0.19094283608E+03  0.38986473597E+03  0.10566000000E+00 0.  1.
          4    1    3    3  502    0 -0.27508468634E+00 -0.62069784247E+03  0.30633509438E+03  0.69217561166E+03  0.00000000000E+00 0.  1.
         13    1    4    4    0    0 -0.31642063182E+03  0.54254179845E+03 -0.14147106964E+03  0.64380718699E+03  0.10566000000E+00 0. -1.
         -4    1    4    4    0  501  0.50625880726E+03 -0.20398074756E+03 -0.34352098029E+03  0.64491300902E+03  0.00000000000E+00 0. -1.
<mgrwt>
<rscale>  2 0.11333863E+04</rscale>
<asrwt>0</asrwt>
<pdfrwt beam="2">  1        1 0.21079695E+00 0.11333863E+04</pdfrwt>
<pdfrwt beam="1">  1       -1 0.15393544E+00 0.11333863E+04</pdfrwt>
<totfact> 0.37463385E+00</totfact>
</mgrwt>
</event>
<event>
 8    1  0.1408247E-005  0.1245622E+04  0.7818608E-02  0.8572977E-01
         -1   -1    0    0    0  501 -0.00000000000E+00  0.00000000000E+00  0.12014683775E+04  0.12014683775E+04  0.00000000000E+00 0. -1.
          1   -1    0    0  502    0  0.00000000000E+00 -0.00000000000E+00 -0.15626231092E+04  0.15626231092E+04  0.00000000000E+00 0.  1.
    9000010    2    1    2  502    0 -0.53324345231E+03  0.50578339976E+03  0.39450539930E+03  0.13119347581E+04  0.10126069685E+04 0.  0.
   -9000010    2    1    2    0  501  0.53324345231E+03 -0.50578339976E+03 -0.75566013100E+03  0.14521567286E+04  0.99878501382E+03 0.  0.
        -13    1    3    3    0    0 -0.70222969542E+02 -0.32869200371E+02  0.57407084660E+03  0.57928317589E+03  0.10566000000E+00 0.  1.
          4    1    3    3  502    0 -0.46302048277E+03  0.53865260013E+03 -0.17956544731E+03  0.73265158224E+03  0.00000000000E+00 0.  1.
         13    1    4    4    0    0  0.54592686449E+03  0.16350439979E+03 -0.37288395238E+03  0.68103765185E+03  0.10566000000E+00 0. -1.
         -4    1    4    4    0  501 -0.12683412176E+02 -0.66928779955E+03 -0.38277617862E+03  0.77111907672E+03  0.00000000000E+00 0. -1.
<mgrwt>
<rscale>  2 0.12456225E+04</rscale>
<asrwt>0</asrwt>
<pdfrwt beam="2">  1        1 0.24040355E+00 0.12456225E+04</pdfrwt>
<pdfrwt beam="1">  1       -1 0.18484129E+00 0.12456225E+04</pdfrwt>
<totfact> 0.14294249E+00</totfact>
</mgrwt>
</event>
<event>
 8    1  0.1408247E-005  0.1100915E+04  0.7818608E-02  0.8685161E-01
         -2   -1    0    0    0  501 -0.00000000000E+00  0.00000000000E+00  0.12053058949E+04  0.12053058949E+04  0.00000000000E+00 0. -1.
          2   -1    0    0  502    0  0.00000000000E+00 -0.00000000000E+00 -0.11203226401E+04  0.11203226401E+04  0.00000000000E+00 0.  1.
    9000010    2    1    2  502    0 -0.97436913937E+02 -0.44580064962E+03 -0.32902681527E+03  0.11607670068E+04  0.10153271529E+04 0.  0.
   -9000010    2    1    2    0  501  0.97436913937E+02  0.44580064962E+03  0.41401007001E+03  0.11648615282E+04  0.98856758520E+03 0.  0.
        -13    1    3    3    0    0  0.40524569570E+02 -0.36179134514E+03 -0.68172438428E+03  0.77284109974E+03  0.10566000000E+00 0.  1.
          4    1    3    3  502    0 -0.13796148351E+03 -0.84009304482E+02  0.35269756901E+03  0.38792590704E+03  0.00000000000E+00 0.  1.
         13    1    4    4    0    0  0.38781160756E+03 -0.92019377821E+02 -0.44131514543E+02  0.40101497552E+03  0.10566000000E+00 0. -1.
         -4    1    4    4    0  501 -0.29037469362E+03  0.53782002744E+03  0.45814158456E+03  0.76384655273E+03  0.00000000000E+00 0. -1.
<mgrwt>
<rscale>  2 0.11009147E+04</rscale>
<asrwt>0</asrwt>
<pdfrwt beam="2">  1        2 0.17235733E+00 0.11009147E+04</pdfrwt>
<pdfrwt beam="1">  1       -2 0.18543168E+00 0.11009147E+04</pdfrwt>
<totfact> 0.43381494E+00</totfact>
</mgrwt>
</event>
<event>
 8    1  0.1408247E-005  0.1261499E+04  0.7818608E-02  0.8561637E-01
          2   -1    0    0  502    0  0.00000000000E+00  0.00000000000E+00  0.13816191629E+04  0.13816191629E+04  0.00000000000E+00 0.  1.
         -2   -1    0    0    0  501 -0.00000000000E+00 -0.00000000000E+00 -0.11723380951E+04  0.11723380951E+04  0.00000000000E+00 0. -1.
    9000010    2    1    2  502    0  0.65330630372E+03  0.43002849048E+03  0.27393953821E+03  0.12965929065E+04  0.99718436886E+03 0.  0.
   -9000010    2    1    2    0  501 -0.65330630372E+03 -0.43002849048E+03 -0.64658470435E+02  0.12573643515E+04  0.98236997391E+03 0.  0.
        -13    1    3    3    0    0  0.86662157841E+03  0.40937718732E+03  0.41029904655E+03  0.10425775561E+04  0.10566000000E+00 0.  1.
          4    1    3    3  502    0 -0.21331527469E+03  0.20651303154E+02 -0.13635950834E+03  0.25401535043E+03  0.00000000000E+00 0.  1.
         13    1    4    4    0    0 -0.24681638205E+03 -0.71634335712E+03 -0.16716652133E+02  0.75785591596E+03  0.10566000000E+00 0. -1.
         -4    1    4    4    0  501 -0.40648992167E+03  0.28631486664E+03 -0.47941818302E+02  0.49950843559E+03  0.00000000000E+00 0. -1.
<mgrwt>
<rscale>  2 0.12614990E+04</rscale>
<asrwt>0</asrwt>
<pdfrwt beam="1">  1        2 0.21255679E+00 0.12614990E+04</pdfrwt>
<pdfrwt beam="2">  1       -2 0.18035971E+00 0.12614990E+04</pdfrwt>
<totfact> 0.33433112E+00</totfact>
</mgrwt>
</event>
<event>
 8    1  0.1408247E-005  0.1353947E+04  0.7818608E-02  0.8498858E-01
         -2   -1    0    0    0  501 -0.00000000000E+00  0.00000000000E+00  0.15545431195E+04  0.15545431195E+04  0.00000000000E+00 0.  1.
          2   -1    0    0  502    0  0.00000000000E+00 -0.00000000000E+00 -0.11875166422E+04  0.11875166422E+04  0.00000000000E+00 0. -1.
    9000010    2    1    2  502    0 -0.73212001678E+03  0.52844804721E+03  0.29813713214E+03  0.13873569385E+04  0.10102556447E+04 0.  0.
   -9000010    2    1    2    0  501  0.73212001678E+03 -0.52844804721E+03  0.68889345184E+02  0.13547028232E+04  0.10075797437E+04 0.  0.
        -13    1    3    3    0    0  0.10279797353E+03 -0.92625730204E+01  0.37725902707E+03  0.39112351411E+03  0.10566000000E+00 0.  1.
          4    1    3    3  502    0 -0.83491799031E+03  0.53771062023E+03 -0.79121894938E+02  0.99623342441E+03  0.00000000000E+00 0.  1.
         13    1    4    4    0    0 -0.10527414021E+03 -0.75676231487E+02  0.34083332754E+03  0.36465998538E+03  0.10566000000E+00 0. -1.
         -4    1    4    4    0  501  0.83739415699E+03 -0.45277181572E+03 -0.27194398236E+03  0.99004283787E+03  0.00000000000E+00 0. -1.
<mgrwt>
<rscale>  2 0.13539467E+04</rscale>
<asrwt>0</asrwt>
<pdfrwt beam="2">  1        2 0.18269487E+00 0.13539467E+04</pdfrwt>
<pdfrwt beam="1">  1       -2 0.23916048E+00 0.13539467E+04</pdfrwt>
<totfact> 0.14077978E+00</totfact>
</mgrwt>
</event>
<event>
 8    1  0.1408247E-005  0.1736895E+04  0.7818608E-02  0.8284845E-01
         -2   -1    0    0    0  501 -0.00000000000E+00  0.00000000000E+00  0.37867630879E+04  0.37867630879E+04  0.00000000000E+00 0. -1.
          2   -1    0    0  502    0  0.00000000000E+00 -0.00000000000E+00 -0.10717826118E+04  0.10717826118E+04  0.00000000000E+00 0.  1.
    9000010    2    1    2  502    0 -0.14613321175E+04  0.40957862599E+02  0.25598327941E+04  0.30681105144E+04  0.85052283373E+03 0.  0.
   -9000010    2    1    2    0  501  0.14613321175E+04 -0.40957862599E+02  0.15514768195E+03  0.17904351853E+04  0.10219678299E+04 0.  0.
        -13    1    3    3    0    0 -0.45169288266E+03 -0.22479519291E+03  0.32149744183E+03  0.59826411832E+03  0.10566000000E+00 0.  1.
          4    1    3    3  502    0 -0.10096392349E+04  0.26575305551E+03  0.22383353523E+04  0.24698463961E+04  0.00000000000E+00 0.  1.
         13    1    4    4    0    0  0.28471727954E+03 -0.36947558695E+03  0.30848824734E+03  0.55923264259E+03  0.10566000000E+00 0. -1.
         -4    1    4    4    0  501  0.11766148380E+04  0.32851772435E+03 -0.15334056539E+03  0.12312025427E+04  0.00000000000E+00 0. -1.
<mgrwt>
<rscale>  2 0.17368954E+04</rscale>
<asrwt>0</asrwt>
<pdfrwt beam="2">  1        2 0.16488963E+00 0.17368954E+04</pdfrwt>
<pdfrwt beam="1">  1       -2 0.58257893E+00 0.17368954E+04</pdfrwt>
<totfact> 0.15602256E-01</totfact>
</mgrwt>
</event>
<event>
 8    1  0.1408247E-005  0.1217476E+04  0.7818608E-02  0.8593517E-01
          4   -1    0    0  502    0  0.00000000000E+00  0.00000000000E+00  0.83716212816E+03  0.83716212816E+03  0.00000000000E+00 0.  1.
         -4   -1    0    0    0  501 -0.00000000000E+00 -0.00000000000E+00 -0.34124848592E+04  0.34124848592E+04  0.00000000000E+00 0. -1.
    9000010    2    1    2  502    0 -0.75738761015E+03  0.20081221380E+03  0.21619284541E+03  0.11792278473E+04  0.85432864419E+03 0.  0.
   -9000010    2    1    2    0  501  0.75738761015E+03 -0.20081221380E+03 -0.27915155764E+04  0.30704191400E+04  0.10104221616E+04 0.  0.
        -13    1    3    3    0    0 -0.60868104120E+03  0.38014503446E+03  0.45170123813E+03  0.84796042174E+03  0.10566000000E+00 0.  1.
          4    1    3    3  502    0 -0.14870656895E+03 -0.17933282066E+03 -0.23550839272E+03  0.33126742559E+03  0.00000000000E+00 0.  1.
         13    1    4    4    0    0  0.39492964800E+03 -0.45877395989E+03 -0.67086245344E+03  0.90360357223E+03  0.10566000000E+00 0. -1.
         -4    1    4    4    0  501  0.36245796214E+03  0.25796174609E+03 -0.21206531230E+04  0.21668155678E+04  0.00000000000E+00 0. -1.
<mgrwt>
<rscale>  2 0.12174764E+04</rscale>
<asrwt>0</asrwt>
<pdfrwt beam="1">  1        4 0.12879418E+00 0.12174764E+04</pdfrwt>
<pdfrwt beam="2">  1       -4 0.52499766E+00 0.12174764E+04</pdfrwt>
<totfact> 0.24004515E-02</totfact>
</mgrwt>
</event>
<event>
 8    1  0.1408247E-005  0.1486632E+04  0.7818608E-02  0.8417234E-01
         -2   -1    0    0    0  501 -0.00000000000E+00  0.00000000000E+00  0.11981047150E+04  0.11981047150E+04  0.00000000000E+00 0. -1.
          2   -1    0    0  502    0  0.00000000000E+00 -0.00000000000E+00 -0.24328532363E+04  0.24328532363E+04  0.00000000000E+00 0.  1.
    9000010    2    1    2  502    0 -0.10132317490E+04  0.40979948288E+03  0.27376592105E+03  0.15164142234E+04  0.10148842910E+04 0.  0.
   -9000010    2    1    2    0  501  0.10132317490E+04 -0.40979948288E+03 -0.15085144423E+04  0.21145437279E+04  0.10005524281E+04 0.  0.
        -13    1    3    3    0    0 -0.39056506429E+03  0.61879802090E+03  0.41973799180E+03  0.84358286673E+03  0.10566000000E+00 0.  1.
          4    1    3    3  502    0 -0.62266668468E+03 -0.20899853802E+03 -0.14597207075E+03  0.67283135669E+03  0.00000000000E+00 0.  1.
         13    1    4    4    0    0  0.86971064565E+03 -0.71655846189E+03 -0.12832279019E+04  0.17077840893E+04  0.10566000000E+00 0. -1.
         -4    1    4    4    0  501  0.14352110331E+03  0.30675897901E+03 -0.22528654045E+03  0.40675963862E+03  0.00000000000E+00 0. -1.
<mgrwt>
<rscale>  2 0.14866320E+04</rscale>
<asrwt>0</asrwt>
<pdfrwt beam="2">  1        2 0.37428512E+00 0.14866320E+04</pdfrwt>
<pdfrwt beam="1">  1       -2 0.18432380E+00 0.14866320E+04</pdfrwt>
<totfact> 0.80139272E-01</totfact>
</mgrwt>
</event>
<event>
 8    1  0.1408247E-005  0.1083603E+04  0.7818608E-02  0.8699778E-01
         -2   -1    0    0    0  501 -0.00000000000E+00  0.00000000000E+00  0.85255052085E+03  0.85255052085E+03  0.00000000000E+00 0.  1.
          2   -1    0    0  502    0  0.00000000000E+00 -0.00000000000E+00 -0.14455450192E+04  0.14455450192E+04  0.00000000000E+00 0. -1.
    9000010    2    1    2  502    0 -0.38715048019E+03 -0.68573315161E+02 -0.43690140949E+02  0.10711678108E+04  0.99544153856E+03 0.  0.
   -9000010    2    1    2    0  501  0.38715048019E+03  0.68573315161E+02 -0.54930435741E+03  0.12269277292E+04  0.10242209634E+04 0.  0.
        -13    1    3    3    0    0 -0.23676227230E+03  0.12385062156E+03  0.44830477237E+03  0.52189321718E+03  0.10566000000E+00 0.  1.
          4    1    3    3  502    0 -0.15038820789E+03 -0.19242393672E+03 -0.49199491332E+03  0.54927459365E+03  0.00000000000E+00 0.  1.
         13    1    4    4    0    0  0.35363311047E+03 -0.35807322425E+02  0.24075170293E+03  0.42930168273E+03  0.10566000000E+00 0. -1.
         -4    1    4    4    0  501  0.33517369719E+02  0.10438063759E+03 -0.79005606034E+03  0.79762604650E+03  0.00000000000E+00 0. -1.
<mgrwt>
<rscale>  2 0.10836025E+04</rscale>
<asrwt>0</asrwt>
<pdfrwt beam="2">  1        2 0.22239154E+00 0.10836025E+04</pdfrwt>
<pdfrwt beam="1">  1       -2 0.13116162E+00 0.10836025E+04</pdfrwt>
<totfact> 0.84327758E+00</totfact>
</mgrwt>
</event>
<event>
 8    1  0.1408247E-005  0.1543530E+04  0.7818608E-02  0.8384879E-01
         -1   -1    0    0    0  501 -0.00000000000E+00  0.00000000000E+00  0.11353670838E+04  0.11353670838E+04  0.00000000000E+00 0. -1.
          1   -1    0    0  502    0  0.00000000000E+00 -0.00000000000E+00 -0.22100412709E+04  0.22100412709E+04  0.00000000000E+00 0.  1.
    9000010    2    1    2  502    0  0.10004719883E+04 -0.26760283616E+03 -0.14628692514E+03  0.14850012884E+04  0.10541695712E+04 0.  0.
   -9000010    2    1    2    0  501 -0.10004719883E+04  0.26760283616E+03 -0.92838726203E+03  0.18604070663E+04  0.12355792434E+04 0.  0.
        -13    1    3    3    0    0  0.10593647429E+04 -0.51093283698E+03  0.33763590652E+02  0.11766248398E+04  0.10566000000E+00 0.  1.
          4    1    3    3  502    0 -0.58892754561E+02  0.24333000082E+03 -0.18005051579E+03  0.30837644864E+03  0.00000000000E+00 0.  1.
         13    1    4    4    0    0 -0.48710430134E+03  0.75757701225E+03 -0.47451170674E+03  0.10180151771E+04  0.10566000000E+00 0. -1.
         -4    1    4    4    0  501 -0.51336768697E+03 -0.48997417609E+03 -0.45387555529E+03  0.84239188917E+03  0.00000000000E+00 0. -1.
<mgrwt>
<rscale>  2 0.15435300E+04</rscale>
<asrwt>0</asrwt>
<pdfrwt beam="2">  1        1 0.34000635E+00 0.15435300E+04</pdfrwt>
<pdfrwt beam="1">  1       -1 0.17467186E+00 0.15435300E+04</pdfrwt>
<totfact> 0.54159769E-01</totfact>
</mgrwt>
</event>
<event>
 8    1  0.1408247E-005  0.2197911E+04  0.7818608E-02  0.8092258E-01
         -2   -1    0    0    0  501 -0.00000000000E+00  0.00000000000E+00  0.27808208687E+04  0.27808208687E+04  0.00000000000E+00 0. -1.
          2   -1    0    0  502    0  0.00000000000E+00 -0.00000000000E+00 -0.17450337829E+04  0.17450337829E+04  0.00000000000E+00 0.  1.
    9000010    2    1    2  502    0 -0.38660060487E+03 -0.19237649696E+04  0.67039153182E+03  0.23012521466E+04  0.99800047617E+03 0.  0.
   -9000010    2    1    2    0  501  0.38660060487E+03  0.19237649696E+04  0.36539555394E+03  0.22246025050E+04  0.98234958581E+03 0.  0.
        -13    1    3    3    0    0  0.22106420018E+03 -0.13388202369E+04  0.44766590757E+03  0.14288855039E+04  0.10566000000E+00 0.  1.
          4    1    3    3  502    0 -0.60766480505E+03 -0.58494473270E+03  0.22272562425E+03  0.87236664271E+03  0.00000000000E+00 0.  1.
         13    1    4    4    0    0  0.35166618331E+03  0.11884056012E+04 -0.25091700245E+03  0.12644905420E+04  0.10566000000E+00 0. -1.
         -4    1    4    4    0  501  0.34934421566E+02  0.73535936835E+03  0.61631255639E+03  0.96011196305E+03  0.00000000000E+00 0. -1.
<mgrwt>
<rscale>  2 0.21979114E+04</rscale>
<asrwt>0</asrwt>
<pdfrwt beam="2">  1        2 0.26846674E+00 0.21979114E+04</pdfrwt>
<pdfrwt beam="1">  1       -2 0.42781860E+00 0.21979114E+04</pdfrwt>
<totfact> 0.41409910E-02</totfact>
</mgrwt>
</event>
<event>
 8    1  0.1408247E-005  0.1155390E+04  0.7818608E-02  0.8640934E-01
         -2   -1    0    0    0  501 -0.00000000000E+00  0.00000000000E+00  0.10488843598E+04  0.10488843598E+04  0.00000000000E+00 0. -1.
          2   -1    0    0  502    0  0.00000000000E+00 -0.00000000000E+00 -0.13785245087E+04  0.13785245087E+04  0.00000000000E+00 0.  1.
    9000010    2    1    2  502    0 -0.14478932284E+03  0.61835863067E+03  0.16762818309E+03  0.11900894593E+04  0.99241239878E+03 0.  0.
   -9000010    2    1    2    0  501  0.14478932284E+03 -0.61835863067E+03 -0.49726833201E+03  0.12373194092E+04  0.93827084693E+03 0.  0.
        -13    1    3    3    0    0 -0.55058988415E+03  0.23674359538E+03 -0.27213030528E+02  0.59994775662E+03  0.10566000000E+00 0.  1.
          4    1    3    3  502    0  0.40580056131E+03  0.38161503529E+03  0.19484121361E+03  0.59014170268E+03  0.00000000000E+00 0.  1.
         13    1    4    4    0    0  0.52300901425E+03 -0.28192809208E+03 -0.12038987962E+03  0.60623065938E+03  0.10566000000E+00 0. -1.
         -4    1    4    4    0  501 -0.37821969141E+03 -0.33643053858E+03 -0.37687845238E+03  0.63108874981E+03  0.00000000000E+00 0. -1.
<mgrwt>
<rscale>  2 0.11553899E+04</rscale>
<asrwt>0</asrwt>
<pdfrwt beam="2">  1        2 0.21208069E+00 0.11553899E+04</pdfrwt>
<pdfrwt beam="1">  1       -2 0.16136682E+00 0.11553899E+04</pdfrwt>
<totfact> 0.49028708E+00</totfact>
</mgrwt>
</event>
<event>
 8    1  0.1408247E-005  0.1105344E+04  0.7818608E-02  0.8681467E-01
         -4   -1    0    0    0  501 -0.00000000000E+00  0.00000000000E+00  0.72108529466E+03  0.72108529466E+03  0.00000000000E+00 0. -1.
          4   -1    0    0  502    0  0.00000000000E+00 -0.00000000000E+00 -0.20077865922E+04  0.20077865922E+04  0.00000000000E+00 0.  1.
    9000010    2    1    2  502    0  0.49359706783E+03 -0.30251580016E+03 -0.11500640811E+04  0.15573146743E+04  0.87602952541E+03 0.  0.
   -9000010    2    1    2    0  501 -0.49359706783E+03  0.30251580016E+03 -0.13663721652E+03  0.11715572126E+04  0.10093179374E+04 0.  0.
        -13    1    3    3    0    0  0.21816776326E+03  0.20753761149E+03 -0.38342873173E+02  0.30354442871E+03  0.10566000000E+00 0.  1.
          4    1    3    3  502    0  0.27542930456E+03 -0.51005341166E+03 -0.11117212079E+04  0.12537702456E+04  0.00000000000E+00 0.  1.
         13    1    4    4    0    0 -0.24812337452E+02  0.16217031049E+03 -0.52296549851E+03  0.54809468661E+03  0.10566000000E+00 0. -1.
         -4    1    4    4    0  501 -0.46878473038E+03  0.14034548968E+03  0.38632828199E+03  0.62346252604E+03  0.00000000000E+00 0. -1.
<mgrwt>
<rscale>  2 0.11053440E+04</rscale>
<asrwt>0</asrwt>
<pdfrwt beam="2">  1        4 0.30889024E+00 0.11053440E+04</pdfrwt>
<pdfrwt beam="1">  1       -4 0.11093620E+00 0.11053440E+04</pdfrwt>
<totfact> 0.23382083E-01</totfact>
</mgrwt>
</event>
<event>
 8    1  0.1408247E-005  0.1068154E+04  0.7818608E-02  0.8713064E-01
          2   -1    0    0  502    0  0.00000000000E+00  0.00000000000E+00  0.14046510799E+04  0.14046510799E+04  0.00000000000E+00 0. -1.
         -2   -1    0    0    0  501 -0.00000000000E+00 -0.00000000000E+00 -0.95206676419E+03  0.95206676419E+03  0.00000000000E+00 0.  1.
    9000010    2    1    2  502    0 -0.39030638801E+03 -0.94885641863E+02  0.67550173405E+03  0.12538696704E+04  0.97700777688E+03 0.  0.
   -9000010    2    1    2    0  501  0.39030638801E+03  0.94885641863E+02 -0.22291741831E+03  0.11028481737E+04  0.10026163560E+04 0.  0.
        -13    1    3    3    0    0  0.93302134165E+02 -0.43484590172E+03  0.17021409498E+03  0.47620278850E+03  0.10566000000E+00 0.  1.
          4    1    3    3  502    0 -0.48360852218E+03  0.33996025985E+03  0.50528763907E+03  0.77766688189E+03  0.00000000000E+00 0.  1.
         13    1    4    4    0    0 -0.30779393580E+03  0.19154864705E+02 -0.25464594320E+03  0.39993572398E+03  0.10566000000E+00 0. -1.
         -4    1    4    4    0  501  0.69810032382E+03  0.75730777158E+02  0.31728524896E+02  0.70291244975E+03  0.00000000000E+00 0. -1.
<mgrwt>
<rscale>  2 0.10681539E+04</rscale>
<asrwt>0</asrwt>
<pdfrwt beam="1">  1        2 0.21610017E+00 0.10681539E+04</pdfrwt>
<pdfrwt beam="2">  1       -2 0.14647181E+00 0.10681539E+04</pdfrwt>
<totfact> 0.64703639E+00</totfact>
</mgrwt>
</event>
<event>
 8    1  0.1408247E-005  0.1094305E+04  0.7818608E-02  0.8690709E-01
         -2   -1    0    0    0  501 -0.00000000000E+00  0.00000000000E+00  0.13618795342E+04  0.13618795342E+04  0.00000000000E+00 0.  1.
          2   -1    0    0  502    0  0.00000000000E+00 -0.00000000000E+00 -0.12863073357E+04  0.12863073357E+04  0.00000000000E+00 0. -1.
    9000010    2    1    2  502    0  0.42264085164E+03 -0.11314467131E+03 -0.70668128875E+03  0.13115014104E+04  0.10145001230E+04 0.  0.
   -9000010    2    1    2    0  501 -0.42264085164E+03  0.11314467131E+03  0.78225348719E+03  0.13366854595E+04  0.99165543067E+03 0.  0.
        -13    1    3    3    0    0  0.57058802747E+03  0.74210488426E+02 -0.85490292340E+03  0.10305032330E+04  0.10566000000E+00 0.  1.
          4    1    3    3  502    0 -0.14794717583E+03 -0.18735515974E+03  0.14822163465E+03  0.28099817739E+03  0.00000000000E+00 0.  1.
         13    1    4    4    0    0  0.21578056571E+02 -0.15208546015E+03  0.80430327301E+03  0.81884025662E+03  0.10566000000E+00 0. -1.
         -4    1    4    4    0  501 -0.44421890821E+03  0.26523013146E+03 -0.22049785820E+02  0.51784520284E+03  0.00000000000E+00 0. -1.
<mgrwt>
<rscale>  2 0.10943049E+04</rscale>
<asrwt>0</asrwt>
<pdfrwt beam="2">  1        2 0.19789344E+00 0.10943049E+04</pdfrwt>
<pdfrwt beam="1">  1       -2 0.20951993E+00 0.10943049E+04</pdfrwt>
<totfact> 0.22075131E+00</totfact>
</mgrwt>
</event>
<event>
 8    1  0.1408247E-005  0.1467616E+04  0.7818608E-02  0.8428384E-01
          4   -1    0    0  502    0  0.00000000000E+00  0.00000000000E+00  0.22133896491E+04  0.22133896491E+04  0.00000000000E+00 0.  1.
         -4   -1    0    0    0  501 -0.00000000000E+00 -0.00000000000E+00 -0.12149709812E+04  0.12149709812E+04  0.00000000000E+00 0. -1.
    9000010    2    1    2  502    0  0.10555109470E+04 -0.16837824705E+03  0.12643911303E+04  0.19382363471E+04  0.10077800422E+04 0.  0.
   -9000010    2    1    2    0  501 -0.10555109470E+04  0.16837824705E+03 -0.26597246246E+03  0.14901242831E+04  0.10036306267E+04 0.  0.
        -13    1    3    3    0    0  0.99483703125E+03 -0.40361596917E+03  0.59791606393E+03  0.12288654117E+04  0.10566000000E+00 0.  1.
          4    1    3    3  502    0  0.60673915778E+02  0.23523772212E+03  0.66647506641E+03  0.70937093548E+03  0.00000000000E+00 0.  1.
         13    1    4    4    0    0 -0.35691605637E+03 -0.32975971536E+03 -0.39015304389E+03  0.62317730221E+03  0.10566000000E+00 0. -1.
         -4    1    4    4    0  501 -0.69859489066E+03  0.49813796241E+03  0.12418058143E+03  0.86694698087E+03  0.00000000000E+00 0. -1.
<mgrwt>
<rscale>  2 0.14676165E+04</rscale>
<asrwt>0</asrwt>
<pdfrwt beam="1">  1        4 0.34052148E+00 0.14676165E+04</pdfrwt>
<pdfrwt beam="2">  1       -4 0.18691861E+00 0.14676165E+04</pdfrwt>
<totfact> 0.83487039E-02</totfact>
</mgrwt>
</event>
<event>
 8    1  0.1408247E-005  0.1066563E+04  0.7818608E-02  0.8714445E-01
          2   -1    0    0  502    0  0.00000000000E+00  0.00000000000E+00  0.26668757643E+04  0.26668757643E+04  0.00000000000E+00 0.  1.
         -2   -1    0    0    0  501 -0.00000000000E+00 -0.00000000000E+00 -0.42953027609E+03  0.42953027609E+03  0.00000000000E+00 0. -1.
    9000010    2    1    2  502    0 -0.40054630102E+03 -0.57613580520E+02  0.12450680796E+04  0.16378716133E+04  0.98421147876E+03 0.  0.
   -9000010    2    1    2    0  501  0.40054630102E+03  0.57613580520E+02  0.99227740863E+03  0.14585344271E+04  0.98941980747E+03 0.  0.
        -13    1    3    3    0    0 -0.47161930052E+02 -0.49734186645E+03  0.60867189312E+03  0.78743549857E+03  0.10566000000E+00 0.  1.
          4    1    3    3  502    0 -0.35338437097E+03  0.43972828593E+03  0.63639618643E+03  0.85043611470E+03  0.00000000000E+00 0.  1.
         13    1    4    4    0    0 -0.67959359839E+02  0.40876348653E+03  0.67647937147E+03  0.79330348146E+03  0.10566000000E+00 0. -1.
         -4    1    4    4    0  501  0.46850566086E+03 -0.35114990602E+03  0.31579803716E+03  0.66523094563E+03  0.00000000000E+00 0. -1.
<mgrwt>
<rscale>  2 0.10665631E+04</rscale>
<asrwt>0</asrwt>
<pdfrwt beam="1">  1        2 0.41028857E+00 0.10665631E+04</pdfrwt>
<pdfrwt beam="2">  1       -2 0.66081583E-01 0.10665631E+04</pdfrwt>
<totfact> 0.90837623E+00</totfact>
</mgrwt>
</event>
<event>
 8    1  0.1408247E-005  0.1162785E+04  0.7818608E-02  0.8635126E-01
         -2   -1    0    0    0  501 -0.00000000000E+00  0.00000000000E+00  0.92622307204E+03  0.92622307204E+03  0.00000000000E+00 0. -1.
          2   -1    0    0  502    0  0.00000000000E+00 -0.00000000000E+00 -0.14665721501E+04  0.14665721501E+04  0.00000000000E+00 0.  1.
    9000010    2    1    2  502    0  0.53208230449E+03  0.24831262914E+03 -0.18793193965E+03  0.11744007322E+04  0.99956386756E+03 0.  0.
   -9000010    2    1    2    0  501 -0.53208230449E+03 -0.24831262914E+03 -0.35241713837E+03  0.12183944899E+04  0.10077284123E+04 0.  0.
        -13    1    3    3    0    0  0.29352885323E+03 -0.15523034012E+03  0.33529640255E+03  0.47188911292E+03  0.10566000000E+00 0.  1.
          4    1    3    3  502    0  0.23855345126E+03  0.40354296926E+03 -0.52322834219E+03  0.70251161928E+03  0.00000000000E+00 0.  1.
         13    1    4    4    0    0 -0.61611471995E+03 -0.50492520879E+03 -0.29050840083E+02  0.79711403016E+03  0.10566000000E+00 0. -1.
         -4    1    4    4    0  501  0.84032415460E+02  0.25661257965E+03 -0.32336629829E+03  0.42128045973E+03  0.00000000000E+00 0. -1.
<mgrwt>
<rscale>  2 0.11627847E+04</rscale>
<asrwt>0</asrwt>
<pdfrwt beam="2">  1        2 0.22562648E+00 0.11627847E+04</pdfrwt>
<pdfrwt beam="1">  1       -2 0.14249586E+00 0.11627847E+04</pdfrwt>
<totfact> 0.64240690E+00</totfact>
</mgrwt>
</event>
<event>
 8    1  0.1408247E-005  0.1123466E+04  0.7818608E-02  0.8666536E-01
          1   -1    0    0  502    0  0.00000000000E+00  0.00000000000E+00  0.23798360343E+04  0.23798360343E+04  0.00000000000E+00 0.  1.
         -1   -1    0    0    0  501 -0.00000000000E+00 -0.00000000000E+00 -0.60439533335E+03  0.60439533335E+03  0.00000000000E+00 0. -1.
    9000010    2    1    2  502    0  0.21558783735E+03 -0.44498971269E+03  0.13988937788E+04  0.17846636298E+04  0.99177946508E+03 0.  0.
   -9000010    2    1    2    0  501 -0.21558783735E+03  0.44498971269E+03  0.37654692219E+03  0.11995677378E+04  0.10260025404E+04 0.  0.
        -13    1    3    3    0    0  0.51744577413E+03 -0.29272712444E+03  0.36668260567E+03  0.69849512741E+03  0.10566000000E+00 0.  1.
          4    1    3    3  502    0 -0.30185793678E+03 -0.15226258825E+03  0.10322111731E+04  0.10861685024E+04  0.00000000000E+00 0.  1.
         13    1    4    4    0    0  0.27728487824E+03  0.48568763159E+03 -0.28972031421E+02  0.56001675774E+03  0.10566000000E+00 0. -1.
         -4    1    4    4    0  501 -0.49287271560E+03 -0.40697918906E+02  0.40551895361E+03  0.63955098008E+03  0.00000000000E+00 0. -1.
<mgrwt>
<rscale>  2 0.11234659E+04</rscale>
<asrwt>0</asrwt>
<pdfrwt beam="1">  1        1 0.36612861E+00 0.11234659E+04</pdfrwt>
<pdfrwt beam="2">  1       -1 0.92983899E-01 0.11234659E+04</pdfrwt>
<totfact> 0.21998458E+00</totfact>
</mgrwt>
</event>
<event>
 8    1  0.1408247E-005  0.1134094E+04  0.7818608E-02  0.8657915E-01
         -2   -1    0    0    0  501 -0.00000000000E+00  0.00000000000E+00  0.40057995424E+03  0.40057995424E+03  0.00000000000E+00 0. -1.
          2   -1    0    0  502    0  0.00000000000E+00 -0.00000000000E+00 -0.32164211858E+04  0.32164211858E+04  0.00000000000E+00 0.  1.
    9000010    2    1    2  502    0 -0.43712698233E+03 -0.33005268056E+03 -0.14836031666E+04  0.18673491152E+04  0.99292476631E+03 0.  0.
   -9000010    2    1    2    0  501  0.43712698233E+03  0.33005268056E+03 -0.13322380650E+04  0.17496520248E+04  0.99318134077E+03 0.  0.
        -13    1    3    3    0    0 -0.56295501524E+02 -0.10023666726E+03  0.14159051178E+03  0.18238546309E+03  0.10566000000E+00 0.  1.
          4    1    3    3  502    0 -0.38083148081E+03 -0.22981601330E+03 -0.16251936784E+04  0.16849636522E+04  0.00000000000E+00 0.  1.
         13    1    4    4    0    0 -0.28807254668E+03  0.19853666536E+03 -0.68324977322E+03  0.76761504898E+03  0.10566000000E+00 0. -1.
         -4    1    4    4    0  501  0.72519952901E+03  0.13151601520E+03 -0.64898829175E+03  0.98203697586E+03  0.00000000000E+00 0. -1.
<mgrwt>
<rscale>  2 0.11340940E+04</rscale>
<asrwt>0</asrwt>
<pdfrwt beam="2">  1        2 0.49483405E+00 0.11340940E+04</pdfrwt>
<pdfrwt beam="1">  1       -2 0.61627682E-01 0.11340940E+04</pdfrwt>
<totfact> 0.48015012E+00</totfact>
</mgrwt>
</event>
<event>
 8    1  0.1408247E-005  0.1076478E+04  0.7818608E-02  0.8705876E-01
          2   -1    0    0  502    0  0.00000000000E+00  0.00000000000E+00  0.20764546522E+04  0.20764546522E+04  0.00000000000E+00 0. -1.
         -2   -1    0    0    0  501 -0.00000000000E+00 -0.00000000000E+00 -0.56709963735E+03  0.56709963735E+03  0.00000000000E+00 0.  1.
    9000010    2    1    2  502    0  0.26429804665E+03 -0.32805444827E+03  0.91438131333E+03  0.14050853960E+04  0.98015233786E+03 0.  0.
   -9000010    2    1    2    0  501 -0.26429804665E+03  0.32805444827E+03  0.59497370152E+03  0.12384688935E+04  0.10011684755E+04 0.  0.
        -13    1    3    3    0    0 -0.21089918498E+03  0.23056144415E+03  0.40778023963E+03  0.51373318051E+03  0.10566000000E+00 0.  1.
          4    1    3    3  502    0  0.47519723163E+03 -0.55861589242E+03  0.50660107370E+03  0.89135221550E+03  0.00000000000E+00 0.  1.
         13    1    4    4    0    0  0.10489231989E+03 -0.10144061079E+02  0.71571912426E+03  0.72343567560E+03  0.10566000000E+00 0. -1.
         -4    1    4    4    0  501 -0.36919036654E+03  0.33819850934E+03 -0.12074542274E+03  0.51503321794E+03  0.00000000000E+00 0. -1.
<mgrwt>
<rscale>  2 0.10764779E+04</rscale>
<asrwt>0</asrwt>
<pdfrwt beam="1">  1        2 0.31945456E+00 0.10764779E+04</pdfrwt>
<pdfrwt beam="2">  1       -2 0.87246099E-01 0.10764779E+04</pdfrwt>
<totfact> 0.10599852E+01</totfact>
</mgrwt>
</event>
<event>
 8    1  0.1408247E-005  0.1427217E+04  0.7818608E-02  0.8452658E-01
         -1   -1    0    0    0  501 -0.00000000000E+00  0.00000000000E+00  0.88089313678E+03  0.88089313678E+03  0.00000000000E+00 0. -1.
          1   -1    0    0  502    0  0.00000000000E+00 -0.00000000000E+00 -0.23196968962E+04  0.23196968962E+04  0.00000000000E+00 0.  1.
    9000010    2    1    2  502    0  0.31217758568E+03 -0.96828027847E+03 -0.80284675985E+03  0.16278071325E+04  0.98497289204E+03 0.  0.
   -9000010    2    1    2    0  501 -0.31217758568E+03  0.96828027847E+03 -0.63595699961E+03  0.15727829006E+04  0.10169479850E+04 0.  0.
        -13    1    3    3    0    0 -0.22701265453E+03 -0.67901431707E+03 -0.14708462842E+03  0.73090976678E+03  0.10566000000E+00 0.  1.
          4    1    3    3  502    0  0.53919024020E+03 -0.28926596140E+03 -0.65576213143E+03  0.89689736569E+03  0.00000000000E+00 0.  1.
         13    1    4    4    0    0 -0.35780018641E+03  0.11323229920E+04 -0.34661651849E+03  0.12370607720E+04  0.10566000000E+00 0. -1.
         -4    1    4    4    0  501  0.45622600736E+02 -0.16404271355E+03 -0.28934048112E+03  0.33572212852E+03  0.00000000000E+00 0. -1.
<mgrwt>
<rscale>  2 0.14272167E+04</rscale>
<asrwt>0</asrwt>
<pdfrwt beam="2">  1        1 0.35687644E+00 0.14272167E+04</pdfrwt>
<pdfrwt beam="1">  1       -1 0.13552202E+00 0.14272167E+04</pdfrwt>
<totfact> 0.97866856E-01</totfact>
</mgrwt>
</event>
<event>
 8    1  0.1408247E-005  0.1325448E+04  0.7818608E-02  0.8517646E-01
          2   -1    0    0  502    0  0.00000000000E+00  0.00000000000E+00  0.24217308030E+04  0.24217308030E+04  0.00000000000E+00 0.  1.
         -2   -1    0    0    0  501 -0.00000000000E+00 -0.00000000000E+00 -0.72548018569E+03  0.72548018569E+03  0.00000000000E+00 0. -1.
    9000010    2    1    2  502    0  0.40064747463E+03  0.75320701211E+03  0.84123622720E+03  0.15744081739E+04  0.10213929245E+04 0.  0.
   -9000010    2    1    2    0  501 -0.40064747463E+03 -0.75320701211E+03  0.85501439010E+03  0.15728028147E+04  0.10073826903E+04 0.  0.
        -13    1    3    3    0    0  0.21750133727E+03  0.81672396244E+03  0.10102859641E+04  0.13172025672E+04  0.10566000000E+00 0.  1.
          4    1    3    3  502    0  0.18314613736E+03 -0.63516950330E+02 -0.16904973688E+03  0.25720560676E+03  0.00000000000E+00 0.  1.
         13    1    4    4    0    0  0.52621435512E+02  0.25965279315E+02 -0.18641760295E+03  0.19543475908E+03  0.10566000000E+00 0. -1.
         -4    1    4    4    0  501 -0.45326891014E+03 -0.77917229143E+03  0.10414319930E+04  0.13773680557E+04  0.00000000000E+00 0. -1.
<mgrwt>
<rscale>  2 0.13254484E+04</rscale>
<asrwt>0</asrwt>
<pdfrwt beam="1">  1        2 0.37257396E+00 0.13254484E+04</pdfrwt>
<pdfrwt beam="2">  1       -2 0.11161234E+00 0.13254484E+04</pdfrwt>
<totfact> 0.36959446E+00</totfact>
</mgrwt>
</event>
<event>
 8    1  0.1408247E-005  0.1037919E+04  0.7818608E-02  0.8739757E-01
          2   -1    0    0  502    0  0.00000000000E+00  0.00000000000E+00  0.21999401341E+04  0.21999401341E+04  0.00000000000E+00 0. -1.
         -2   -1    0    0    0  501 -0.00000000000E+00 -0.00000000000E+00 -0.61621430761E+03  0.61621430761E+03  0.00000000000E+00 0.  1.
    9000010    2    1    2  502    0 -0.18814964139E+03  0.26255358796E+03  0.14217139738E+04  0.17526041433E+04  0.97263353106E+03 0.  0.
   -9000010    2    1    2    0  501  0.18814964139E+03 -0.26255358796E+03  0.16201185265E+03  0.10635502984E+04  0.10002783226E+04 0.  0.
        -13    1    3    3    0    0  0.37849921886E+03  0.24081220597E+03  0.74573063952E+03  0.87026799040E+03  0.10566000000E+00 0.  1.
          4    1    3    3  502    0 -0.56664886025E+03  0.21741381996E+02  0.67598333429E+03  0.88233615292E+03  0.00000000000E+00 0.  1.
         13    1    4    4    0    0  0.28582694377E+03 -0.49204859031E+03  0.41805818614E+03  0.70610304855E+03  0.10566000000E+00 0. -1.
         -4    1    4    4    0  501 -0.97677302378E+02  0.22949500234E+03 -0.25604633349E+03  0.35744724981E+03  0.00000000000E+00 0. -1.
<mgrwt>
<rscale>  2 0.10379190E+04</rscale>
<asrwt>0</asrwt>
<pdfrwt beam="1">  1        2 0.33845233E+00 0.10379190E+04</pdfrwt>
<pdfrwt beam="2">  1       -2 0.94802202E-01 0.10379190E+04</pdfrwt>
<totfact> 0.75237834E+00</totfact>
</mgrwt>
</event>
<event>
 8    1  0.1408247E-005  0.1481091E+04  0.7818608E-02  0.8420465E-01
         -1   -1    0    0    0  501 -0.00000000000E+00  0.00000000000E+00  0.14703969523E+04  0.14703969523E+04  0.00000000000E+00 0. -1.
          1   -1    0    0  502    0  0.00000000000E+00 -0.00000000000E+00 -0.15222094634E+04  0.15222094634E+04  0.00000000000E+00 0.  1.
    9000010    2    1    2  502    0 -0.87527142773E+03  0.50675283825E+03  0.17104128505E+03  0.15647778839E+04  0.11816836266E+04 0.  0.
   -9000010    2    1    2    0  501  0.87527142773E+03 -0.50675283825E+03 -0.22285379620E+03  0.14278285318E+04  0.98292013440E+03 0.  0.
        -13    1    3    3    0    0 -0.85780121765E+03  0.81563265546E+03 -0.49719269731E+02  0.11847158202E+04  0.10566000000E+00 0.  1.
          4    1    3    3  502    0 -0.17470210079E+02 -0.30887981721E+03  0.22076055478E+03  0.38006206370E+03  0.00000000000E+00 0.  1.
         13    1    4    4    0    0  0.96122857129E+01  0.23563215895E+03  0.78040738091E+02  0.24840547162E+03  0.10566000000E+00 0. -1.
         -4    1    4    4    0  501  0.86565914201E+03 -0.74238499720E+03 -0.30089453429E+03  0.11794230602E+04  0.00000000000E+00 0. -1.
<mgrwt>
<rscale>  2 0.14810907E+04</rscale>
<asrwt>0</asrwt>
<pdfrwt beam="2">  1        1 0.23418607E+00 0.14810907E+04</pdfrwt>
<pdfrwt beam="1">  1       -1 0.22621492E+00 0.14810907E+04</pdfrwt>
<totfact> 0.62783779E-01</totfact>
</mgrwt>
</event>
<event>
 8    1  0.1408247E-005  0.1093587E+04  0.7818608E-02  0.8691313E-01
          2   -1    0    0  502    0  0.00000000000E+00  0.00000000000E+00  0.52890985686E+04  0.52890985686E+04  0.00000000000E+00 0. -1.
         -2   -1    0    0    0  501 -0.00000000000E+00 -0.00000000000E+00 -0.23124769885E+03  0.23124769885E+03  0.00000000000E+00 0.  1.
    9000010    2    1    2  502    0  0.40264062975E+03 -0.19684595942E+03  0.20928647688E+04  0.23561312338E+04  0.98509067693E+03 0.  0.
   -9000010    2    1    2    0  501 -0.40264062975E+03  0.19684595942E+03  0.29649861010E+04  0.31642150337E+04  0.10100724687E+04 0.  0.
        -13    1    3    3    0    0  0.27493028880E+01  0.14251307185E+03  0.16868518856E+04  0.16928634999E+04  0.10566000000E+00 0.  1.
          4    1    3    3  502    0  0.39989132686E+03 -0.33935903127E+03  0.40601288318E+03  0.66326773381E+03  0.00000000000E+00 0.  1.
         13    1    4    4    0    0 -0.48628554900E+03 -0.26262551906E+03  0.98067732685E+03  0.11256881580E+04  0.10566000000E+00 0. -1.
         -4    1    4    4    0  501  0.83644919248E+02  0.45947147848E+03  0.19843087742E+04  0.20385268758E+04  0.00000000000E+00 0. -1.
<mgrwt>
<rscale>  2 0.10935873E+04</rscale>
<asrwt>0</asrwt>
<pdfrwt beam="1">  1        2 0.81370738E+00 0.10935873E+04</pdfrwt>
<pdfrwt beam="2">  1       -2 0.35576573E-01 0.10935873E+04</pdfrwt>
<totfact> 0.23946543E-01</totfact>
</mgrwt>
</event>
<event>
 8    1  0.1408247E-005  0.1429073E+04  0.7818608E-02  0.8451524E-01
         -2   -1    0    0    0  501 -0.00000000000E+00  0.00000000000E+00  0.10994940270E+04  0.10994940270E+04  0.00000000000E+00 0.  1.
          2   -1    0    0  502    0  0.00000000000E+00 -0.00000000000E+00 -0.18648176264E+04  0.18648176264E+04  0.00000000000E+00 0. -1.
    9000010    2    1    2  502    0 -0.17899349474E+03  0.10006018014E+04 -0.28959782385E+03  0.14585651771E+04  0.10051382194E+04 0.  0.
   -9000010    2    1    2    0  501  0.17899349474E+03 -0.10006018014E+04 -0.47572577556E+03  0.15057464763E+04  0.10038499894E+04 0.  0.
        -13    1    3    3    0    0  0.15891864499E+03  0.68875808499E+03 -0.58031576037E+03  0.91455411445E+03  0.10566000000E+00 0.  1.
          4    1    3    3  502    0 -0.33791213973E+03  0.31184371638E+03  0.29071793653E+03  0.54401106261E+03  0.00000000000E+00 0.  1.
         13    1    4    4    0    0 -0.89924416819E+02 -0.10852855012E+04 -0.19207423439E+03  0.11058135207E+04  0.10566000000E+00 0. -1.
         -4    1    4    4    0  501  0.26891791156E+03  0.84683699829E+02 -0.28365154117E+03  0.39993295560E+03  0.00000000000E+00 0. -1.
<mgrwt>
<rscale>  2 0.14290735E+04</rscale>
<asrwt>0</asrwt>
<pdfrwt beam="2">  1        2 0.28689502E+00 0.14290735E+04</pdfrwt>
<pdfrwt beam="1">  1       -2 0.16915293E+00 0.14290735E+04</pdfrwt>
<totfact> 0.22179377E+00</totfact>
</mgrwt>
</event>
<event>
 8    1  0.1408247E-005  0.1333039E+04  0.7818608E-02  0.8512594E-01
         -2   -1    0    0    0  501 -0.00000000000E+00  0.00000000000E+00  0.58450207007E+03  0.58450207007E+03  0.00000000000E+00 0. -1.
          2   -1    0    0  502    0  0.00000000000E+00 -0.00000000000E+00 -0.30712477149E+04  0.30712477149E+04  0.00000000000E+00 0.  1.
    9000010    2    1    2  502    0 -0.31398200774E+03  0.81099156271E+03 -0.14279010685E+04  0.19539505348E+04  0.10113007540E+04 0.  0.
   -9000010    2    1    2    0  501  0.31398200774E+03 -0.81099156271E+03 -0.10588445763E+04  0.17017992502E+04  0.10092952170E+04 0.  0.
        -13    1    3    3    0    0 -0.24709020949E+03  0.88560344296E+03 -0.15462022160E+04  0.17989130979E+04  0.10566000000E+00 0.  1.
          4    1    3    3  502    0 -0.66891798245E+02 -0.74611880247E+02  0.11830114750E+03  0.15503743691E+03  0.00000000000E+00 0.  1.
         13    1    4    4    0    0  0.56993773984E+03 -0.46372330508E+03 -0.10355903216E+04  0.12697699226E+04  0.10566000000E+00 0. -1.
         -4    1    4    4    0  501 -0.25595573210E+03 -0.34726825763E+03 -0.23254254770E+02  0.43202932762E+03  0.00000000000E+00 0. -1.
<mgrwt>
<rscale>  2 0.13330393E+04</rscale>
<asrwt>0</asrwt>
<pdfrwt beam="2">  1        2 0.47249965E+00 0.13330393E+04</pdfrwt>
<pdfrwt beam="1">  1       -2 0.89923394E-01 0.13330393E+04</pdfrwt>
<totfact> 0.25723909E+00</totfact>
</mgrwt>
</event>
<event>
 8    1  0.1408247E-005  0.1407814E+04  0.7818608E-02  0.8464611E-01
          2   -1    0    0  502    0  0.00000000000E+00  0.00000000000E+00  0.23432975836E+04  0.23432975836E+04  0.00000000000E+00 0. -1.
         -2   -1    0    0    0  501 -0.00000000000E+00 -0.00000000000E+00 -0.11199004010E+04  0.11199004010E+04  0.00000000000E+00 0.  1.
    9000010    2    1    2  502    0 -0.18417587339E+03 -0.97424927037E+03  0.14685414814E+04  0.20346828341E+04  0.10001188727E+04 0.  0.
   -9000010    2    1    2    0  501  0.18417587339E+03  0.97424927037E+03 -0.24514429876E+03  0.14285151506E+04  0.99873791114E+03 0.  0.
        -13    1    3    3    0    0 -0.34124222660E+03 -0.11332374415E+04  0.12665006052E+04  0.17334062277E+04  0.10566000000E+00 0.  1.
          4    1    3    3  502    0  0.15706635322E+03  0.15898817116E+03  0.20204087620E+03  0.30127660636E+03  0.00000000000E+00 0.  1.
         13    1    4    4    0    0  0.43017167217E+02 -0.10609129425E+03  0.21675121915E+03  0.24512637875E+03  0.10566000000E+00 0. -1.
         -4    1    4    4    0  501  0.14115870617E+03  0.10803405646E+04 -0.46189551791E+03  0.11833887719E+04  0.00000000000E+00 0. -1.
<mgrwt>
<rscale>  2 0.14078137E+04</rscale>
<asrwt>0</asrwt>
<pdfrwt beam="1">  1        2 0.36050732E+00 0.14078137E+04</pdfrwt>
<pdfrwt beam="2">  1       -2 0.17229237E+00 0.14078137E+04</pdfrwt>
<totfact> 0.11420612E+00</totfact>
</mgrwt>
</event>
<event>
 8    1  0.1408247E-005  0.1331968E+04  0.7818608E-02  0.8513305E-01
         -2   -1    0    0    0  501 -0.00000000000E+00  0.00000000000E+00  0.75544380816E+03  0.75544380816E+03  0.00000000000E+00 0. -1.
          2   -1    0    0  502    0  0.00000000000E+00 -0.00000000000E+00 -0.26089307273E+04  0.26089307273E+04  0.00000000000E+00 0.  1.
    9000010    2    1    2  502    0  0.10782255987E+02  0.87979210292E+03 -0.39852797492E+03  0.13952988946E+04  0.10069180985E+04 0.  0.
   -9000010    2    1    2    0  501 -0.10782255987E+02 -0.87979210292E+03 -0.14549589442E+04  0.19690756409E+04  0.99307751394E+03 0.  0.
        -13    1    3    3    0    0 -0.28311311605E+03 -0.59621088313E+02 -0.28216030945E+03  0.40413136730E+03  0.10566000000E+00 0.  1.
          4    1    3    3  502    0  0.29389537203E+03  0.93941319123E+03 -0.11636766548E+03  0.99116752728E+03  0.00000000000E+00 0.  1.
         13    1    4    4    0    0  0.19931164729E+03 -0.61080377314E+03 -0.20660206822E+03  0.67490059104E+03  0.10566000000E+00 0. -1.
         -4    1    4    4    0  501 -0.21009390328E+03 -0.26898832978E+03 -0.12483568760E+04  0.12941750498E+04  0.00000000000E+00 0. -1.
<mgrwt>
<rscale>  2 0.13319684E+04</rscale>
<asrwt>0</asrwt>
<pdfrwt beam="2">  1        2 0.40137396E+00 0.13319684E+04</pdfrwt>
<pdfrwt beam="1">  1       -2 0.11622212E+00 0.13319684E+04</pdfrwt>
<totfact> 0.26087093E+00</totfact>
</mgrwt>
</event>
<event>
 8    1  0.1408247E-005  0.1010597E+04  0.7818608E-02  0.8764698E-01
          2   -1    0    0  502    0  0.00000000000E+00  0.00000000000E+00  0.10487582504E+04  0.10487582504E+04  0.00000000000E+00 0. -1.
         -2   -1    0    0    0  501 -0.00000000000E+00 -0.00000000000E+00 -0.10342281051E+04  0.10342281051E+04  0.00000000000E+00 0.  1.
    9000010    2    1    2  502    0 -0.15797766872E+03  0.86455421282E+00 -0.24408916109E+03  0.10506792616E+04  0.10096483055E+04 0.  0.
   -9000010    2    1    2    0  501  0.15797766872E+03 -0.86455421282E+00  0.25861930638E+03  0.10323070940E+04  0.98682131076E+03 0.  0.
        -13    1    3    3    0    0  0.39780943431E+03  0.18059666503E+03 -0.82380190851E+02  0.44458296015E+03  0.10566000000E+00 0.  1.
          4    1    3    3  502    0 -0.55578710303E+03 -0.17973211081E+03 -0.16170897024E+03  0.60609630143E+03  0.00000000000E+00 0.  1.
         13    1    4    4    0    0  0.29601684312E+03 -0.32725233266E+03 -0.17288943111E+03  0.47393124733E+03  0.10566000000E+00 0. -1.
         -4    1    4    4    0  501 -0.13803917440E+03  0.32638777845E+03  0.43150873749E+03  0.55837584665E+03  0.00000000000E+00 0. -1.
<mgrwt>
<rscale>  2 0.10105971E+04</rscale>
<asrwt>0</asrwt>
<pdfrwt beam="1">  1        2 0.16134742E+00 0.10105971E+04</pdfrwt>
<pdfrwt beam="2">  1       -2 0.15911202E+00 0.10105971E+04</pdfrwt>
<totfact> 0.80252940E+00</totfact>
</mgrwt>
</event>
<event>
 8    1  0.1408247E-005  0.1052750E+04  0.7818608E-02  0.8726547E-01
         -2   -1    0    0    0  501 -0.00000000000E+00  0.00000000000E+00  0.70408017972E+03  0.70408017972E+03  0.00000000000E+00 0.  1.
          2   -1    0    0  502    0  0.00000000000E+00 -0.00000000000E+00 -0.15991196314E+04  0.15991196314E+04  0.00000000000E+00 0. -1.
    9000010    2    1    2  502    0  0.85103276609E+02 -0.32849514305E+03 -0.30419077839E+03  0.10975250561E+04  0.99843757568E+03 0.  0.
   -9000010    2    1    2    0  501 -0.85103276609E+02  0.32849514305E+03 -0.59084867334E+03  0.12056747550E+04  0.99468479097E+03 0.  0.
        -13    1    3    3    0    0  0.27917330315E+03  0.28073802608E+03 -0.16161724769E+02  0.39624838800E+03  0.10566000000E+00 0.  1.
          4    1    3    3  502    0 -0.19407002655E+03 -0.60923316913E+03 -0.28802905362E+03  0.70127666815E+03  0.00000000000E+00 0.  1.
         13    1    4    4    0    0 -0.17006512013E+03 -0.23529182465E+03  0.10261444608E+03  0.30791902108E+03  0.10566000000E+00 0. -1.
         -4    1    4    4    0  501  0.84961843519E+02  0.56378696771E+03 -0.69346311942E+03  0.89775573393E+03  0.00000000000E+00 0. -1.
<mgrwt>
<rscale>  2 0.10527502E+04</rscale>
<asrwt>0</asrwt>
<pdfrwt beam="2">  1        2 0.24601840E+00 0.10527502E+04</pdfrwt>
<pdfrwt beam="1">  1       -2 0.10832003E+00 0.10527502E+04</pdfrwt>
<totfact> 0.11536797E+01</totfact>
</mgrwt>
</event>
<event>
 8    1  0.1408247E-005  0.1318548E+04  0.7818608E-02  0.8522268E-01
         -2   -1    0    0    0  501 -0.00000000000E+00  0.00000000000E+00  0.10331678021E+04  0.10331678021E+04  0.00000000000E+00 0. -1.
          2   -1    0    0  502    0  0.00000000000E+00 -0.00000000000E+00 -0.19617148692E+04  0.19617148692E+04  0.00000000000E+00 0.  1.
    9000010    2    1    2  502    0 -0.15415447163E+02 -0.85639648709E+03 -0.10254635341E+04  0.16616616209E+04  0.98787210880E+03 0.  0.
   -9000010    2    1    2    0  501  0.15415447163E+02  0.85639648709E+03  0.96916467040E+02  0.13332210503E+04  0.10170707883E+04 0.  0.
        -13    1    3    3    0    0 -0.78685384896E+02 -0.62269964523E+03 -0.20543170492E+02  0.62798747677E+03  0.10566000000E+00 0.  1.
          4    1    3    3  502    0  0.63269937733E+02 -0.23369684186E+03 -0.10049203637E+04  0.10336741441E+04  0.00000000000E+00 0.  1.
         13    1    4    4    0    0 -0.32071509835E+03  0.69663851531E+02  0.31010720889E+03  0.45152820365E+03  0.10566000000E+00 0. -1.
         -4    1    4    4    0  501  0.33613054552E+03  0.78673263556E+03 -0.21319074185E+03  0.88169284669E+03  0.00000000000E+00 0. -1.
<mgrwt>
<rscale>  2 0.13185478E+04</rscale>
<asrwt>0</asrwt>
<pdfrwt beam="2">  1        2 0.30180229E+00 0.13185478E+04</pdfrwt>
<pdfrwt beam="1">  1       -2 0.15894889E+00 0.13185478E+04</pdfrwt>
<totfact> 0.24272279E+00</totfact>
</mgrwt>
</event>
<event>
 8    1  0.1408247E-005  0.1537047E+04  0.7818608E-02  0.8388492E-01
          2   -1    0    0  502    0  0.00000000000E+00  0.00000000000E+00  0.35497602693E+04  0.35497602693E+04  0.00000000000E+00 0.  1.
         -2   -1    0    0    0  501 -0.00000000000E+00 -0.00000000000E+00 -0.10578943517E+04  0.10578943517E+04  0.00000000000E+00 0. -1.
    9000010    2    1    2  502    0 -0.90478229440E+03 -0.72145282025E+03  0.26507530900E+04  0.30659215390E+04  0.10169846446E+04 0.  0.
   -9000010    2    1    2    0  501  0.90478229440E+03  0.72145282025E+03 -0.15888717236E+03  0.15417330819E+04  0.10062656659E+04 0.  0.
        -13    1    3    3    0    0 -0.11224449475E+04 -0.63996418925E+03  0.23879086481E+04  0.27150588478E+04  0.10566000000E+00 0.  1.
          4    1    3    3  502    0  0.21766265309E+03 -0.81488630999E+02  0.26284444183E+03  0.35086269128E+03  0.00000000000E+00 0.  1.
         13    1    4    4    0    0  0.81620061077E+03  0.96048202984E+03 -0.22024450057E+03  0.12795377360E+04  0.10566000000E+00 0. -1.
         -4    1    4    4    0  501  0.88581683634E+02 -0.23902920958E+03  0.61357328208E+02  0.26219534594E+03  0.00000000000E+00 0. -1.
<mgrwt>
<rscale>  2 0.15370473E+04</rscale>
<asrwt>0</asrwt>
<pdfrwt beam="1">  1        2 0.54611696E+00 0.15370473E+04</pdfrwt>
<pdfrwt beam="2">  1       -2 0.16275298E+00 0.15370473E+04</pdfrwt>
<totfact> 0.23796846E-01</totfact>
</mgrwt>
</event>
<event>
 8    1  0.1408247E-005  0.1074896E+04  0.7818608E-02  0.8707237E-01
         -1   -1    0    0    0  501 -0.00000000000E+00  0.00000000000E+00  0.87607142287E+03  0.87607142287E+03  0.00000000000E+00 0.  1.
          1   -1    0    0  502    0  0.00000000000E+00 -0.00000000000E+00 -0.13340244225E+04  0.13340244225E+04  0.00000000000E+00 0. -1.
    9000010    2    1    2  502    0  0.10546532659E+03 -0.41313535293E+03 -0.11068836585E+03  0.10785840683E+04  0.98452421152E+03 0.  0.
   -9000010    2    1    2    0  501 -0.10546532659E+03  0.41313535293E+03 -0.34726463373E+03  0.11315117770E+04  0.98889960097E+03 0.  0.
        -13    1    3    3    0    0  0.47053607996E+03 -0.47546698566E+03  0.58356049994E+02  0.67147486679E+03  0.10566000000E+00 0.  1.
          4    1    3    3  502    0 -0.36507075338E+03  0.62331632731E+02 -0.16904441585E+03  0.40710920149E+03  0.00000000000E+00 0.  1.
         13    1    4    4    0    0  0.29568067775E+03 -0.17970669970E+03 -0.26202585236E+02  0.34699877197E+03  0.10566000000E+00 0. -1.
         -4    1    4    4    0  501 -0.40114600434E+03  0.59284205262E+03 -0.32106204850E+03  0.78451300508E+03  0.00000000000E+00 0. -1.
<mgrwt>
<rscale>  2 0.10748957E+04</rscale>
<asrwt>0</asrwt>
<pdfrwt beam="2">  1        1 0.20523453E+00 0.10748957E+04</pdfrwt>
<pdfrwt beam="1">  1       -1 0.13478022E+00 0.10748957E+04</pdfrwt>
<totfact> 0.58857955E+00</totfact>
</mgrwt>
</event>
<event>
 8    1  0.1408247E-005  0.1327626E+04  0.7818608E-02  0.8516193E-01
          1   -1    0    0  502    0  0.00000000000E+00  0.00000000000E+00  0.21672715507E+04  0.21672715507E+04  0.00000000000E+00 0. -1.
         -1   -1    0    0    0  501 -0.00000000000E+00 -0.00000000000E+00 -0.91696081637E+03  0.91696081637E+03  0.00000000000E+00 0.  1.
    9000010    2    1    2  502    0 -0.56726051903E+03 -0.63714722982E+03  0.11244800405E+03  0.13458544684E+04  0.10348616370E+04 0.  0.
   -9000010    2    1    2    0  501  0.56726051903E+03  0.63714722982E+03  0.11378627303E+04  0.17383778986E+04  0.99974248515E+03 0.  0.
        -13    1    3    3    0    0 -0.86964830426E+03 -0.44779263012E+03  0.13943579869E+03  0.98805301771E+03  0.10566000000E+00 0.  1.
          4    1    3    3  502    0  0.30238778522E+03 -0.18935459970E+03 -0.26987794636E+02  0.35780145072E+03  0.00000000000E+00 0.  1.
         13    1    4    4    0    0  0.77084070445E+03  0.74428739260E+03  0.83721987836E+03  0.13598147853E+04  0.10566000000E+00 0. -1.
         -4    1    4    4    0  501 -0.20358018542E+03 -0.10714016278E+03  0.30064285191E+03  0.37856311334E+03  0.00000000000E+00 0. -1.
<mgrwt>
<rscale>  2 0.13276260E+04</rscale>
<asrwt>0</asrwt>
<pdfrwt beam="1">  1        1 0.33342639E+00 0.13276260E+04</pdfrwt>
<pdfrwt beam="2">  1       -1 0.14107089E+00 0.13276260E+04</pdfrwt>
<totfact> 0.11826098E+00</totfact>
</mgrwt>
</event>
<event>
 8    1  0.1408247E-005  0.1200716E+04  0.7818608E-02  0.8606024E-01
          1   -1    0    0  502    0  0.00000000000E+00  0.00000000000E+00  0.67409140655E+03  0.67409140655E+03  0.00000000000E+00 0.  1.
         -1   -1    0    0    0  501 -0.00000000000E+00 -0.00000000000E+00 -0.23768458266E+04  0.23768458266E+04  0.00000000000E+00 0. -1.
    9000010    2    1    2  502    0  0.25136218768E+03 -0.59596311754E+03 -0.35978778358E+03  0.12398542406E+04  0.99470412777E+03 0.  0.
   -9000010    2    1    2    0  501 -0.25136218768E+03  0.59596311754E+03 -0.13429666365E+04  0.18110829926E+04  0.10286433942E+04 0.  0.
        -13    1    3    3    0    0  0.40439410507E+03 -0.57798231817E+03  0.13798782263E+03  0.71877590575E+03  0.10566000000E+00 0.  1.
          4    1    3    3  502    0 -0.15303191739E+03 -0.17980799375E+02 -0.49777560622E+03  0.52107833483E+03  0.00000000000E+00 0.  1.
         13    1    4    4    0    0  0.31557606053E+03 -0.80727283393E+02 -0.44884190005E+03  0.55458471551E+03  0.10566000000E+00 0. -1.
         -4    1    4    4    0  501 -0.56693824822E+03  0.67669040094E+03 -0.89412473644E+03  0.12564982771E+04  0.00000000000E+00 0. -1.
<mgrwt>
<rscale>  2 0.12007156E+04</rscale>
<asrwt>0</asrwt>
<pdfrwt beam="1">  1        1 0.10370637E+00 0.12007156E+04</pdfrwt>
<pdfrwt beam="2">  1       -1 0.36566859E+00 0.12007156E+04</pdfrwt>
<totfact> 0.39650945E-01</totfact>
</mgrwt>
</event>
<event>
 8    1  0.1408247E-005  0.1119969E+04  0.7818608E-02  0.8669394E-01
         -1   -1    0    0    0  501 -0.00000000000E+00  0.00000000000E+00  0.96599286824E+03  0.96599286824E+03  0.00000000000E+00 0. -1.
          1   -1    0    0  502    0  0.00000000000E+00 -0.00000000000E+00 -0.14587506400E+04  0.14587506400E+04  0.00000000000E+00 0.  1.
    9000010    2    1    2  502    0  0.44461032249E+03 -0.33255539269E+03 -0.65030771282E+03  0.13051998813E+04  0.98609085824E+03 0.  0.
   -9000010    2    1    2    0  501 -0.44461032249E+03  0.33255539269E+03  0.15754994102E+03  0.11195436270E+04  0.95931460988E+03 0.  0.
        -13    1    3    3    0    0 -0.43243661129E+02 -0.28127719044E+03  0.18291881896E+03  0.33829894706E+03  0.10566000000E+00 0.  1.
          4    1    3    3  502    0  0.48785398362E+03 -0.51278202257E+02 -0.83322653178E+03  0.96690093423E+03  0.00000000000E+00 0.  1.
         13    1    4    4    0    0 -0.46029357426E+03  0.50357328352E+03  0.42347407206E+03  0.80298600689E+03  0.10566000000E+00 0. -1.
         -4    1    4    4    0  501  0.15683251767E+02 -0.17101789083E+03 -0.26592413104E+03  0.31655762010E+03  0.00000000000E+00 0. -1.
<mgrwt>
<rscale>  2 0.11199692E+04</rscale>
<asrwt>0</asrwt>
<pdfrwt beam="2">  1        1 0.22442317E+00 0.11199692E+04</pdfrwt>
<pdfrwt beam="1">  1       -1 0.14861429E+00 0.11199692E+04</pdfrwt>
<totfact> 0.35817935E+00</totfact>
</mgrwt>
</event>
<event>
 8    1  0.1408247E-005  0.1235904E+04  0.7818608E-02  0.8580005E-01
         -2   -1    0    0    0  501 -0.00000000000E+00  0.00000000000E+00  0.70448452222E+03  0.70448452222E+03  0.00000000000E+00 0.  1.
          2   -1    0    0  502    0  0.00000000000E+00 -0.00000000000E+00 -0.21699724208E+04  0.21699724208E+04  0.00000000000E+00 0. -1.
    9000010    2    1    2  502    0 -0.71536676394E+03  0.17953078084E+03 -0.77069975088E+03  0.14525041494E+04  0.98580388001E+03 0.  0.
   -9000010    2    1    2    0  501  0.71536676394E+03 -0.17953078084E+03 -0.69478814772E+03  0.14219527936E+04  0.99761629340E+03 0.  0.
        -13    1    3    3    0    0 -0.56588202722E+03  0.45636204766E+03 -0.12969126535E+03  0.73845014913E+03  0.10566000000E+00 0.  1.
          4    1    3    3  502    0 -0.14948473673E+03 -0.27683126682E+03 -0.64100848553E+03  0.71405400029E+03  0.00000000000E+00 0.  1.
         13    1    4    4    0    0 -0.12957721646E+03 -0.18555015666E+03 -0.50865269710E+03  0.55672856321E+03  0.10566000000E+00 0. -1.
         -4    1    4    4    0  501  0.84494398041E+03  0.60193758144E+01 -0.18613545062E+03  0.86522423041E+03  0.00000000000E+00 0. -1.
<mgrwt>
<rscale>  2 0.12359044E+04</rscale>
<asrwt>0</asrwt>
<pdfrwt beam="2">  1        2 0.33384191E+00 0.12359044E+04</pdfrwt>
<pdfrwt beam="1">  1       -2 0.10838223E+00 0.12359044E+04</pdfrwt>
<totfact> 0.55251534E+00</totfact>
</mgrwt>
</event>
<event>
 8    1  0.1408247E-005  0.1364760E+04  0.7818608E-02  0.8491853E-01
          1   -1    0    0  502    0  0.00000000000E+00  0.00000000000E+00  0.16412528346E+04  0.16412528346E+04  0.00000000000E+00 0. -1.
         -1   -1    0    0    0  501 -0.00000000000E+00 -0.00000000000E+00 -0.12040794962E+04  0.12040794962E+04  0.00000000000E+00 0.  1.
    9000010    2    1    2  502    0  0.28159041327E+03  0.86308337597E+03  0.56093135323E+03  0.14836948299E+04  0.10307765473E+04 0.  0.
   -9000010    2    1    2    0  501 -0.28159041327E+03 -0.86308337597E+03 -0.12375801476E+03  0.13616375009E+04  0.10072410650E+04 0.  0.
        -13    1    3    3    0    0 -0.18390522477E+03  0.42529582935E+02 -0.19752880906E+03  0.27321701757E+03  0.10566000000E+00 0.  1.
          4    1    3    3  502    0  0.46549563804E+03  0.82055379304E+03  0.75846016228E+03  0.12104778123E+04  0.00000000000E+00 0.  1.
         13    1    4    4    0    0  0.12473397563E+03  0.14219548825E+03  0.15220014658E+03  0.24278183074E+03  0.10566000000E+00 0. -1.
         -4    1    4    4    0  501 -0.40632438890E+03 -0.10052788642E+04 -0.27595816134E+03  0.11188556702E+04  0.00000000000E+00 0. -1.
<mgrwt>
<rscale>  2 0.13647597E+04</rscale>
<asrwt>0</asrwt>
<pdfrwt beam="1">  1        1 0.25250043E+00 0.13647597E+04</pdfrwt>
<pdfrwt beam="2">  1       -1 0.18524300E+00 0.13647597E+04</pdfrwt>
<totfact> 0.12207214E+00</totfact>
</mgrwt>
</event>
<event>
 8    1  0.1408247E-005  0.1330919E+04  0.7818608E-02  0.8514002E-01
          4   -1    0    0  502    0  0.00000000000E+00  0.00000000000E+00  0.17291762207E+04  0.17291762207E+04  0.00000000000E+00 0.  1.
         -4   -1    0    0    0  501 -0.00000000000E+00 -0.00000000000E+00 -0.15964576275E+04  0.15964576275E+04  0.00000000000E+00 0. -1.
    9000010    2    1    2  502    0 -0.82092385339E+03  0.36853664698E+03  0.10603153148E+04  0.16801077483E+04  0.94273975512E+03 0.  0.
   -9000010    2    1    2    0  501  0.82092385339E+03 -0.36853664698E+03 -0.92759672166E+03  0.16455260998E+04  0.10186192782E+04 0.  0.
        -13    1    3    3    0    0 -0.55659807738E+03  0.48307915096E+03  0.11608080847E+04  0.13750062933E+04  0.10566000000E+00 0.  1.
          4    1    3    3  502    0 -0.26432577602E+03 -0.11454250398E+03 -0.10049276988E+03  0.30510145506E+03  0.00000000000E+00 0.  1.
         13    1    4    4    0    0 -0.61587200955E+02  0.23156926397E+02 -0.63249061545E+03  0.63590377916E+03  0.10566000000E+00 0. -1.
         -4    1    4    4    0  501  0.88251105435E+03 -0.39169357338E+03 -0.29510610621E+03  0.10096223207E+04  0.00000000000E+00 0. -1.
<mgrwt>
<rscale>  2 0.13309187E+04</rscale>
<asrwt>0</asrwt>
<pdfrwt beam="1">  1        4 0.26602711E+00 0.13309187E+04</pdfrwt>
<pdfrwt beam="2">  1       -4 0.24560887E+00 0.13309187E+04</pdfrwt>
<totfact> 0.94161069E-02</totfact>
</mgrwt>
</event>
<event>
 8    1  0.1408247E-005  0.1080897E+04  0.7818608E-02  0.8702088E-01
          4   -1    0    0  502    0  0.00000000000E+00  0.00000000000E+00  0.18351996498E+04  0.18351996498E+04  0.00000000000E+00 0.  1.
         -4   -1    0    0    0  501 -0.00000000000E+00 -0.00000000000E+00 -0.73112170716E+03  0.73112170716E+03  0.00000000000E+00 0. -1.
    9000010    2    1    2  502    0  0.23544416470E+03 -0.32479631970E+03  0.10128265434E+04  0.14804220154E+04  0.10024495661E+04 0.  0.
   -9000010    2    1    2    0  501 -0.23544416470E+03  0.32479631970E+03  0.91251399200E+02  0.10858993416E+04  0.10049497292E+04 0.  0.
        -13    1    3    3    0    0 -0.31984282595E+03  0.11801998495E+03  0.17880437235E+03  0.38496644645E+03  0.10566000000E+00 0.  1.
          4    1    3    3  502    0  0.55528699065E+03 -0.44281630465E+03  0.83402217107E+03  0.10954555689E+04  0.00000000000E+00 0.  1.
         13    1    4    4    0    0 -0.62486765301E+03  0.29639804673E+03  0.57930729365E+02  0.69402259794E+03  0.10566000000E+00 0. -1.
         -4    1    4    4    0  501  0.38942348831E+03  0.28398272966E+02  0.33320669835E+02  0.39187674362E+03  0.00000000000E+00 0. -1.
<mgrwt>
<rscale>  2 0.10808971E+04</rscale>
<asrwt>0</asrwt>
<pdfrwt beam="1">  1        4 0.28233841E+00 0.10808971E+04</pdfrwt>
<pdfrwt beam="2">  1       -4 0.11248026E+00 0.10808971E+04</pdfrwt>
<totfact> 0.26916444E-01</totfact>
</mgrwt>
</event>
<event>
 8    1  0.1408247E-005  0.1038192E+04  0.7818608E-02  0.8739512E-01
          1   -1    0    0  502    0  0.00000000000E+00  0.00000000000E+00  0.36394090621E+03  0.36394090621E+03  0.00000000000E+00 0. -1.
         -1   -1    0    0    0  501 -0.00000000000E+00 -0.00000000000E+00 -0.29965388805E+04  0.29965388805E+04  0.00000000000E+00 0.  1.
    9000010    2    1    2  502    0 -0.21608543912E+03 -0.14319274468E+03 -0.11610752383E+04  0.15703035986E+04  0.10249685866E+04 0.  0.
   -9000010    2    1    2    0  501  0.21608543912E+03  0.14319274468E+03 -0.14715227360E+04  0.17901761882E+04  0.98597897699E+03 0.  0.
        -13    1    3    3    0    0 -0.52774951092E+03  0.10148971164E+03 -0.10140710507E+04  0.11476758318E+04  0.10566000000E+00 0.  1.
          4    1    3    3  502    0  0.31166407180E+03 -0.24468245632E+03 -0.14700418766E+03  0.42262776680E+03  0.00000000000E+00 0.  1.
         13    1    4    4    0    0  0.35958664415E+03 -0.11447229952E+03 -0.10431619733E+03  0.39152055143E+03  0.10566000000E+00 0. -1.
         -4    1    4    4    0  501 -0.14350120502E+03  0.25766504419E+03 -0.13672065387E+04  0.13986556368E+04  0.00000000000E+00 0. -1.
<mgrwt>
<rscale>  2 0.10381917E+04</rscale>
<asrwt>0</asrwt>
<pdfrwt beam="1">  1        1 0.55990908E-01 0.10381917E+04</pdfrwt>
<pdfrwt beam="2">  1       -1 0.46100599E+00 0.10381917E+04</pdfrwt>
<totfact> 0.10364588E+00</totfact>
</mgrwt>
</event>
<event>
 8    1  0.1408247E-005  0.1047179E+04  0.7818608E-02  0.8731482E-01
          1   -1    0    0  502    0  0.00000000000E+00  0.00000000000E+00  0.10376263076E+04  0.10376263076E+04  0.00000000000E+00 0. -1.
         -1   -1    0    0    0  501 -0.00000000000E+00 -0.00000000000E+00 -0.10724009234E+04  0.10724009234E+04  0.00000000000E+00 0.  1.
    9000010    2    1    2  502    0 -0.21957333423E+00  0.28611138738E+03 -0.14432858419E+03  0.10514326689E+04  0.10014090786E+04 0.  0.
   -9000010    2    1    2    0  501  0.21957333423E+00 -0.28611138738E+03  0.10955396839E+03  0.10585945621E+04  0.10132919622E+04 0.  0.
        -13    1    3    3    0    0 -0.40123273090E+03  0.28651759332E+03 -0.34623286868E+03  0.60245933153E+03  0.10566000000E+00 0.  1.
          4    1    3    3  502    0  0.40101315757E+03 -0.40620593591E+00  0.20190428449E+03  0.44897333734E+03  0.00000000000E+00 0.  1.
         13    1    4    4    0    0  0.35218602824E+03 -0.48157760512E+03 -0.99652544408E+02  0.60488232658E+03  0.10566000000E+00 0. -1.
         -4    1    4    4    0  501 -0.35196645490E+03  0.19546621774E+03  0.20920651280E+03  0.45371223551E+03  0.00000000000E+00 0. -1.
<mgrwt>
<rscale>  2 0.10471795E+04</rscale>
<asrwt>0</asrwt>
<pdfrwt beam="1">  1        1 0.15963482E+00 0.10471795E+04</pdfrwt>
<pdfrwt beam="2">  1       -1 0.16498476E+00 0.10471795E+04</pdfrwt>
<totfact> 0.54813548E+00</totfact>
</mgrwt>
</event>
<event>
 8    1  0.1408247E-005  0.1099055E+04  0.7818608E-02  0.8686718E-01
         -2   -1    0    0    0  501 -0.00000000000E+00  0.00000000000E+00  0.86920300812E+03  0.86920300812E+03  0.00000000000E+00 0. -1.
          2   -1    0    0  502    0  0.00000000000E+00 -0.00000000000E+00 -0.15566463629E+04  0.15566463629E+04  0.00000000000E+00 0.  1.
    9000010    2    1    2  502    0 -0.37333407900E+03  0.27338092094E+03  0.51710290058E+02  0.11065089300E+04  0.10037791568E+04 0.  0.
   -9000010    2    1    2    0  501  0.37333407900E+03 -0.27338092094E+03 -0.73915364481E+03  0.13193404410E+04  0.99004829488E+03 0.  0.
        -13    1    3    3    0    0  0.24933748135E+03  0.34969812317E+03 -0.13801416340E+03  0.45111625710E+03  0.10566000000E+00 0.  1.
          4    1    3    3  502    0 -0.62267156035E+03 -0.76317202233E+02  0.18972445346E+03  0.65539267288E+03  0.00000000000E+00 0.  1.
         13    1    4    4    0    0 -0.31625384724E+03  0.67548358434E+02 -0.20741158594E+03  0.38418596249E+03  0.10566000000E+00 0. -1.
         -4    1    4    4    0  501  0.68958792624E+03 -0.34092927937E+03 -0.53174205886E+03  0.93515447853E+03  0.00000000000E+00 0. -1.
<mgrwt>
<rscale>  2 0.10990551E+04</rscale>
<asrwt>0</asrwt>
<pdfrwt beam="2">  1        2 0.23948405E+00 0.10990551E+04</pdfrwt>
<pdfrwt beam="1">  1       -2 0.13372354E+00 0.10990551E+04</pdfrwt>
<totfact> 0.69326693E+00</totfact>
</mgrwt>
</event>
<event>
 8    1  0.1408247E-005  0.1427590E+04  0.7818608E-02  0.8452430E-01
         -2   -1    0    0    0  501 -0.00000000000E+00  0.00000000000E+00  0.11859063644E+04  0.11859063644E+04  0.00000000000E+00 0. -1.
          2   -1    0    0  502    0  0.00000000000E+00 -0.00000000000E+00 -0.23113971117E+04  0.23113971117E+04  0.00000000000E+00 0.  1.
    9000010    2    1    2  502    0  0.90825808108E+03 -0.33295190206E+03 -0.14364750680E+04  0.19997208948E+04  0.99981664593E+03 0.  0.
   -9000010    2    1    2    0  501 -0.90825808108E+03  0.33295190206E+03  0.31098432069E+03  0.14975825813E+04  0.11001148254E+04 0.  0.
        -13    1    3    3    0    0  0.61444879706E+02  0.31637038164E+03 -0.29116127326E+03  0.43432774472E+03  0.10566000000E+00 0.  1.
          4    1    3    3  502    0  0.84681320137E+03 -0.64932228370E+03 -0.11453137947E+04  0.15653931501E+04  0.00000000000E+00 0.  1.
         13    1    4    4    0    0 -0.70153378712E+03 -0.32628609360E+03  0.18054556534E+03  0.79448661516E+03  0.10566000000E+00 0. -1.
         -4    1    4    4    0  501 -0.20672429396E+03  0.65923799566E+03  0.13043875536E+03  0.70309596609E+03  0.00000000000E+00 0. -1.
<mgrwt>
<rscale>  2 0.14275902E+04</rscale>
<asrwt>0</asrwt>
<pdfrwt beam="2">  1        2 0.35559956E+00 0.14275902E+04</pdfrwt>
<pdfrwt beam="1">  1       -2 0.18244713E+00 0.14275902E+04</pdfrwt>
<totfact> 0.97583672E-01</totfact>
</mgrwt>
</event>
<event>
 8    1  0.1408247E-005  0.1423076E+04  0.7818608E-02  0.8455192E-01
          4   -1    0    0  502    0  0.00000000000E+00  0.00000000000E+00  0.27989015529E+04  0.27989015529E+04  0.00000000000E+00 0.  1.
         -4   -1    0    0    0  501 -0.00000000000E+00 -0.00000000000E+00 -0.80801965417E+03  0.80801965417E+03  0.00000000000E+00 0. -1.
    9000010    2    1    2  502    0  0.93343291137E+03 -0.46091717081E+03  0.15628631560E+04  0.20978742530E+04  0.93530396058E+03 0.  0.
   -9000010    2    1    2    0  501 -0.93343291137E+03  0.46091717081E+03  0.42801874267E+03  0.15090469540E+04  0.10051273685E+04 0.  0.
        -13    1    3    3    0    0  0.88022405406E+03 -0.50393836443E+03  0.16798733035E+04  0.19623258107E+04  0.10566000000E+00 0.  1.
          4    1    3    3  502    0  0.53208857308E+02  0.43021193624E+02 -0.11701014747E+03  0.13554844229E+03  0.00000000000E+00 0.  1.
         13    1    4    4    0    0 -0.39334325477E+03  0.19049520774E+03  0.71681992197E+03  0.83954639654E+03  0.10566000000E+00 0. -1.
         -4    1    4    4    0  501 -0.54008965659E+03  0.27042196307E+03 -0.28880117931E+03  0.66950055746E+03  0.00000000000E+00 0. -1.
<mgrwt>
<rscale>  2 0.14230763E+04</rscale>
<asrwt>0</asrwt>
<pdfrwt beam="1">  1        4 0.43060023E+00 0.14230763E+04</pdfrwt>
<pdfrwt beam="2">  1       -4 0.12431072E+00 0.14230763E+04</pdfrwt>
<totfact> 0.69190061E-02</totfact>
</mgrwt>
</event>
<event>
 8    1  0.1408247E-005  0.1303384E+04  0.7818608E-02  0.8532530E-01
          2   -1    0    0  502    0  0.00000000000E+00  0.00000000000E+00  0.30962867318E+04  0.30962867318E+04  0.00000000000E+00 0.  1.
         -2   -1    0    0    0  501 -0.00000000000E+00 -0.00000000000E+00 -0.71763587500E+03  0.71763587500E+03  0.00000000000E+00 0. -1.
    9000010    2    1    2  502    0 -0.35855125585E+03 -0.74918978286E+03  0.21187193300E+04  0.24906085295E+04  0.10120844402E+04 0.  0.
   -9000010    2    1    2    0  501  0.35855125585E+03  0.74918978286E+03  0.25993152683E+03  0.13233140773E+04  0.99687081147E+03 0.  0.
        -13    1    3    3    0    0  0.60119102442E+02 -0.79046707982E+03  0.89003165641E+03  0.11918929781E+04  0.10566000000E+00 0.  1.
          4    1    3    3  502    0 -0.41867035830E+03  0.41277296968E+02  0.12286876736E+04  0.12987155514E+04  0.00000000000E+00 0.  1.
         13    1    4    4    0    0  0.66099750373E+03  0.73396705556E+03  0.25636164721E+03  0.10204639356E+04  0.10566000000E+00 0. -1.
         -4    1    4    4    0  501 -0.30244624787E+03  0.15222727292E+02  0.35698796155E+01  0.30285014169E+03  0.00000000000E+00 0. -1.
<mgrwt>
<rscale>  2 0.13033836E+04</rscale>
<asrwt>0</asrwt>
<pdfrwt beam="1">  1        2 0.47635180E+00 0.13033836E+04</pdfrwt>
<pdfrwt beam="2">  1       -2 0.11040552E+00 0.13033836E+04</pdfrwt>
<totfact> 0.15186598E+00</totfact>
</mgrwt>
</event>
<event>
 8    1  0.1408247E-005  0.1185191E+04  0.7818608E-02  0.8617798E-01
          2   -1    0    0  502    0  0.00000000000E+00  0.00000000000E+00  0.16484541548E+04  0.16484541548E+04  0.00000000000E+00 0.  1.
         -2   -1    0    0    0  501 -0.00000000000E+00 -0.00000000000E+00 -0.88637003660E+03  0.88637003660E+03  0.00000000000E+00 0. -1.
    9000010    2    1    2  502    0 -0.14717576716E+03 -0.60813967511E+03  0.63231457432E+03  0.13497547379E+04  0.10151460785E+04 0.  0.
   -9000010    2    1    2    0  501  0.14717576716E+03  0.60813967511E+03  0.12976954384E+03  0.11850694535E+04  0.99802550276E+03 0.  0.
        -13    1    3    3    0    0  0.26554045302E+03  0.13807824030E+03  0.32876209574E+03  0.44459178961E+03  0.10566000000E+00 0.  1.
          4    1    3    3  502    0 -0.41271622017E+03 -0.74621791542E+03  0.30355247859E+03  0.90516294828E+03  0.00000000000E+00 0.  1.
         13    1    4    4    0    0 -0.34559407709E+03  0.55767189135E+03 -0.50319529423E+02  0.65800096560E+03  0.10566000000E+00 0. -1.
         -4    1    4    4    0  501  0.49276984425E+03  0.50467783763E+02  0.18008907326E+03  0.52706848787E+03  0.00000000000E+00 0. -1.
<mgrwt>
<rscale>  2 0.11851907E+04</rscale>
<asrwt>0</asrwt>
<pdfrwt beam="1">  1        2 0.25360833E+00 0.11851907E+04</pdfrwt>
<pdfrwt beam="2">  1       -2 0.13636462E+00 0.11851907E+04</pdfrwt>
<totfact> 0.57919426E+00</totfact>
</mgrwt>
</event>
<event>
 8    1  0.1408247E-005  0.1450671E+04  0.7818608E-02  0.8438467E-01
          2   -1    0    0  502    0  0.00000000000E+00  0.00000000000E+00  0.14327938170E+04  0.14327938170E+04  0.00000000000E+00 0.  1.
         -2   -1    0    0    0  501 -0.00000000000E+00 -0.00000000000E+00 -0.16679277138E+04  0.16679277138E+04  0.00000000000E+00 0. -1.
    9000010    2    1    2  502    0  0.12787579383E+03 -0.10296669453E+04  0.41893194191E+03  0.14969967863E+04  0.99444917892E+03 0.  0.
   -9000010    2    1    2    0  501 -0.12787579383E+03  0.10296669453E+04 -0.65406583863E+03  0.16037247445E+04  0.10332302251E+04 0.  0.
        -13    1    3    3    0    0  0.24883999170E+03  0.11360862112E+03  0.46369622957E+00  0.27354796004E+03  0.10566000000E+00 0.  1.
          4    1    3    3  502    0 -0.12096419787E+03 -0.11432755664E+04  0.41846824568E+03  0.12234488263E+04  0.00000000000E+00 0.  1.
         13    1    4    4    0    0 -0.17757006630E+03  0.11554381261E+04 -0.27451586375E+03  0.12008027991E+04  0.10566000000E+00 0. -1.
         -4    1    4    4    0  501  0.49694272463E+02 -0.12577118084E+03 -0.37954997488E+03  0.40292194539E+03  0.00000000000E+00 0. -1.
<mgrwt>
<rscale>  2 0.14506708E+04</rscale>
<asrwt>0</asrwt>
<pdfrwt beam="1">  1        2 0.22042982E+00 0.14506708E+04</pdfrwt>
<pdfrwt beam="2">  1       -2 0.25660426E+00 0.14506708E+04</pdfrwt>
<totfact> 0.74430358E-01</totfact>
</mgrwt>
</event>
<event>
 8    1  0.1408247E-005  0.1184647E+04  0.7818608E-02  0.8618214E-01
          1   -1    0    0  502    0  0.00000000000E+00  0.00000000000E+00  0.10887959074E+04  0.10887959074E+04  0.00000000000E+00 0.  1.
         -1   -1    0    0    0  501 -0.00000000000E+00 -0.00000000000E+00 -0.12905479555E+04  0.12905479555E+04  0.00000000000E+00 0. -1.
    9000010    2    1    2  502    0 -0.13846192448E+03 -0.64581209999E+03 -0.14231020397E+03  0.12045408508E+04  0.99720684622E+03 0.  0.
   -9000010    2    1    2    0  501  0.13846192448E+03  0.64581209999E+03 -0.59441844115E+02  0.11748030120E+04  0.96973388682E+03 0.  0.
        -13    1    3    3    0    0 -0.52898033719E+03 -0.32960080611E+03 -0.28038591399E+03  0.68342750928E+03  0.10566000000E+00 0.  1.
          4    1    3    3  502    0  0.39051841271E+03 -0.31621129388E+03  0.13807571001E+03  0.52111334155E+03  0.00000000000E+00 0.  1.
         13    1    4    4    0    0 -0.37146577267E+03  0.37244341435E+02  0.36286225653E+02  0.37508753988E+03  0.10566000000E+00 0. -1.
         -4    1    4    4    0  501  0.50992769715E+03  0.60856775855E+03 -0.95728069768E+02  0.79971547216E+03  0.00000000000E+00 0. -1.
<mgrwt>
<rscale>  2 0.11846466E+04</rscale>
<asrwt>0</asrwt>
<pdfrwt beam="1">  1        1 0.16750706E+00 0.11846466E+04</pdfrwt>
<pdfrwt beam="2">  1       -1 0.19854584E+00 0.11846466E+04</pdfrwt>
<totfact> 0.24941866E+00</totfact>
</mgrwt>
</event>
<event>
 8    1  0.1408247E-005  0.1053097E+04  0.7818608E-02  0.8726241E-01
         -2   -1    0    0    0  501 -0.00000000000E+00  0.00000000000E+00  0.37857867746E+03  0.37857867746E+03  0.00000000000E+00 0. -1.
          2   -1    0    0  502    0  0.00000000000E+00 -0.00000000000E+00 -0.38202365800E+04  0.38202365800E+04  0.00000000000E+00 0.  1.
    9000010    2    1    2  502    0  0.60931779184E+03 -0.63755918017E+02 -0.62156461219E+03  0.11597729101E+04  0.76380471810E+03 0.  0.
   -9000010    2    1    2    0  501 -0.60931779184E+03  0.63755918017E+02 -0.28200932903E+04  0.30390423473E+04  0.95263803941E+03 0.  0.
        -13    1    3    3    0    0  0.70779710217E+03 -0.21375788328E+03 -0.64196436498E+03  0.97917691332E+03  0.10566000000E+00 0.  1.
          4    1    3    3  502    0 -0.98479310333E+02  0.15000196527E+03  0.20399752791E+02  0.18059599680E+03  0.00000000000E+00 0.  1.
         13    1    4    4    0    0 -0.63188395243E+00  0.23448199993E+03 -0.11519370027E+03  0.26125046855E+03  0.10566000000E+00 0. -1.
         -4    1    4    4    0  501 -0.60868590788E+03 -0.17072608192E+03 -0.27048995901E+04  0.27777918788E+04  0.00000000000E+00 0. -1.
<mgrwt>
<rscale>  2 0.10530968E+04</rscale>
<asrwt>0</asrwt>
<pdfrwt beam="2">  1        2 0.58772872E+00 0.10530968E+04</pdfrwt>
<pdfrwt beam="1">  1       -2 0.58242872E-01 0.10530968E+04</pdfrwt>
<totfact> 0.19284218E+00</totfact>
</mgrwt>
</event>
<event>
 8    1  0.1408247E-005  0.1072761E+04  0.7818608E-02  0.8709078E-01
         -4   -1    0    0    0  501 -0.00000000000E+00  0.00000000000E+00  0.14068047219E+04  0.14068047219E+04  0.00000000000E+00 0. -1.
          4   -1    0    0  502    0  0.00000000000E+00 -0.00000000000E+00 -0.85180180772E+03  0.85180180772E+03  0.00000000000E+00 0.  1.
    9000010    2    1    2  502    0 -0.57129619417E+02 -0.39341711447E+03  0.50296270889E+03  0.11871151653E+04  0.99911466296E+03 0.  0.
   -9000010    2    1    2    0  501  0.57129619417E+02  0.39341711447E+03  0.52040205340E+02  0.10714913644E+04  0.99365222367E+03 0.  0.
        -13    1    3    3    0    0  0.21122096572E+03  0.26277053289E+03  0.29585080642E+03  0.44854248421E+03  0.10566000000E+00 0.  1.
          4    1    3    3  502    0 -0.26835058513E+03 -0.65618764736E+03  0.20711190246E+03  0.73857268108E+03  0.00000000000E+00 0.  1.
         13    1    4    4    0    0  0.12695611544E+03  0.44373274160E+01  0.47555410339E+03  0.49222887110E+03  0.10566000000E+00 0. -1.
         -4    1    4    4    0  501 -0.69826496027E+02  0.38897978706E+03 -0.42351389805E+03  0.57926249329E+03  0.00000000000E+00 0. -1.
<mgrwt>
<rscale>  2 0.10727606E+04</rscale>
<asrwt>0</asrwt>
<pdfrwt beam="2">  1        4 0.13104643E+00 0.10727606E+04</pdfrwt>
<pdfrwt beam="1">  1       -4 0.21643150E+00 0.10727606E+04</pdfrwt>
<totfact> 0.30077817E-01</totfact>
</mgrwt>
</event>
<event>
 8    1  0.1408247E-005  0.1053948E+04  0.7818608E-02  0.8725489E-01
         -1   -1    0    0    0  501 -0.00000000000E+00  0.00000000000E+00  0.13861040178E+04  0.13861040178E+04  0.00000000000E+00 0.  1.
          1   -1    0    0  502    0  0.00000000000E+00 -0.00000000000E+00 -0.81683822410E+03  0.81683822410E+03  0.00000000000E+00 0. -1.
    9000010    2    1    2  502    0  0.20784959612E+03 -0.29096350069E+03  0.13304300829E+03  0.10619228967E+04  0.99101896202E+03 0.  0.
   -9000010    2    1    2    0  501 -0.20784959612E+03  0.29096350069E+03  0.43622278542E+03  0.11410193452E+04  0.99185362547E+03 0.  0.
        -13    1    3    3    0    0  0.56827202761E+03  0.70555495902E+01 -0.23339678970E+02  0.56879489267E+03  0.10566000000E+00 0.  1.
          4    1    3    3  502    0 -0.36042243150E+03 -0.29801905028E+03  0.15638268726E+03  0.49312800400E+03  0.00000000000E+00 0.  1.
         13    1    4    4    0    0 -0.20095246809E+03  0.60223437355E+03  0.38662382014E+02  0.63605261265E+03  0.10566000000E+00 0. -1.
         -4    1    4    4    0  501 -0.68971280218E+01 -0.31127087286E+03  0.39756040341E+03  0.50496673259E+03  0.00000000000E+00 0. -1.
<mgrwt>
<rscale>  2 0.10539483E+04</rscale>
<asrwt>0</asrwt>
<pdfrwt beam="2">  1        1 0.12566742E+00 0.10539483E+04</pdfrwt>
<pdfrwt beam="1">  1       -1 0.21324677E+00 0.10539483E+04</pdfrwt>
<totfact> 0.31480342E+00</totfact>
</mgrwt>
</event>
<event>
 8    1  0.1408247E-005  0.1298587E+04  0.7818608E-02  0.8535805E-01
          2   -1    0    0  502    0  0.00000000000E+00  0.00000000000E+00  0.32247820141E+04  0.32247820141E+04  0.00000000000E+00 0.  1.
         -2   -1    0    0    0  501 -0.00000000000E+00 -0.00000000000E+00 -0.52302173111E+03  0.52302173111E+03  0.00000000000E+00 0. -1.
    9000010    2    1    2  502    0 -0.35932449842E+03  0.74374771274E+03  0.13780114897E+04  0.18949164702E+04  0.10047477335E+04 0.  0.
   -9000010    2    1    2    0  501  0.35932449842E+03 -0.74374771274E+03  0.13237487933E+04  0.18528872751E+04  0.99930257222E+03 0.  0.
        -13    1    3    3    0    0 -0.51552603661E+03  0.91924949717E+03  0.10199685501E+04  0.14666705789E+04  0.10566000000E+00 0.  1.
          4    1    3    3  502    0  0.15620153819E+03 -0.17550178443E+03  0.35804293955E+03  0.42824589131E+03  0.00000000000E+00 0.  1.
         13    1    4    4    0    0  0.39427850074E+02 -0.62061023843E+03  0.13723599432E+04  0.15066796104E+04  0.10566000000E+00 0. -1.
         -4    1    4    4    0  501  0.31989664834E+03 -0.12313747431E+03 -0.48611149869E+02  0.34620766470E+03  0.00000000000E+00 0. -1.
<mgrwt>
<rscale>  2 0.12985868E+04</rscale>
<asrwt>0</asrwt>
<pdfrwt beam="1">  1        2 0.49612030E+00 0.12985868E+04</pdfrwt>
<pdfrwt beam="2">  1       -2 0.80464884E-01 0.12985868E+04</pdfrwt>
<totfact> 0.26490141E+00</totfact>
</mgrwt>
</event>
<event>
 8    1  0.1408247E-005  0.1825114E+04  0.7818608E-02  0.8243570E-01
         -2   -1    0    0    0  501 -0.00000000000E+00  0.00000000000E+00  0.11946063379E+04  0.11946063379E+04  0.00000000000E+00 0.  1.
          2   -1    0    0  502    0  0.00000000000E+00 -0.00000000000E+00 -0.27888918063E+04  0.27888918063E+04  0.00000000000E+00 0. -1.
    9000010    2    1    2  502    0  0.12123011870E+04 -0.90496049286E+03 -0.78004018888E+03  0.19964527526E+04  0.10434238042E+04 0.  0.
   -9000010    2    1    2    0  501 -0.12123011870E+04  0.90496049286E+03 -0.81424527960E+03  0.19870453916E+04  0.99836183387E+03 0.  0.
        -13    1    3    3    0    0  0.73155668669E+03 -0.10714365985E+04 -0.38790295227E+03  0.13541123594E+04  0.10566000000E+00 0.  1.
          4    1    3    3  502    0  0.48074450035E+03  0.16647610560E+03 -0.39213723661E+03  0.64234039316E+03  0.00000000000E+00 0.  1.
         13    1    4    4    0    0 -0.10284322248E+04  0.45713172094E+03 -0.96234372407E+03  0.14807929314E+04  0.10566000000E+00 0. -1.
         -4    1    4    4    0  501 -0.18386896225E+03  0.44782877191E+03  0.14809844447E+03  0.50625246023E+03  0.00000000000E+00 0. -1.
<mgrwt>
<rscale>  2 0.18251136E+04</rscale>
<asrwt>0</asrwt>
<pdfrwt beam="2">  1        2 0.42906028E+00 0.18251136E+04</pdfrwt>
<pdfrwt beam="1">  1       -2 0.18378559E+00 0.18251136E+04</pdfrwt>
<totfact> 0.48696300E-01</totfact>
</mgrwt>
</event>
<event>
 8    1  0.1408247E-005  0.1065924E+04  0.7818608E-02  0.8715001E-01
          2   -1    0    0  502    0  0.00000000000E+00  0.00000000000E+00  0.10274386361E+04  0.10274386361E+04  0.00000000000E+00 0. -1.
         -2   -1    0    0    0  501 -0.00000000000E+00 -0.00000000000E+00 -0.11441331160E+04  0.11441331160E+04  0.00000000000E+00 0.  1.
    9000010    2    1    2  502    0  0.29069258430E+03 -0.11617186478E+03 -0.25415254389E+03  0.10725749311E+04  0.99389405196E+03 0.  0.
   -9000010    2    1    2    0  501 -0.29069258430E+03  0.11617186478E+03  0.13745806405E+03  0.10989968210E+04  0.10444621642E+04 0.  0.
        -13    1    3    3    0    0 -0.32522748336E+03  0.18828767110E+02  0.11072008045E+03  0.34407322736E+03  0.10566000000E+00 0.  1.
          4    1    3    3  502    0  0.61592006767E+03 -0.13500063189E+03 -0.36487262434E+03  0.72850170374E+03  0.00000000000E+00 0.  1.
         13    1    4    4    0    0 -0.48129095413E+03  0.20110847953E+03  0.47281748448E+03  0.70401845705E+03  0.10566000000E+00 0. -1.
         -4    1    4    4    0  501  0.19059836983E+03 -0.84936614756E+02 -0.33535942043E+03  0.39497836394E+03  0.00000000000E+00 0. -1.
<mgrwt>
<rscale>  2 0.10659236E+04</rscale>
<asrwt>0</asrwt>
<pdfrwt beam="1">  1        2 0.15806748E+00 0.10659236E+04</pdfrwt>
<pdfrwt beam="2">  1       -2 0.17602048E+00 0.10659236E+04</pdfrwt>
<totfact> 0.59124503E+00</totfact>
</mgrwt>
</event>
<event>
 8    1  0.1408247E-005  0.1108082E+04  0.7818608E-02  0.8679192E-01
          2   -1    0    0  502    0  0.00000000000E+00  0.00000000000E+00  0.21920881237E+04  0.21920881237E+04  0.00000000000E+00 0. -1.
         -2   -1    0    0    0  501 -0.00000000000E+00 -0.00000000000E+00 -0.56015747928E+03  0.56015747928E+03  0.00000000000E+00 0.  1.
    9000010    2    1    2  502    0 -0.41421607733E+03  0.17014236955E+03  0.81524359486E+03  0.13697675378E+04  0.10055434372E+04 0.  0.
   -9000010    2    1    2    0  501  0.41421607733E+03 -0.17014236955E+03  0.81668704952E+03  0.13824780651E+04  0.10216381351E+04 0.  0.
        -13    1    3    3    0    0  0.10463728975E+03  0.36584829956E+03  0.70970331123E+03  0.80527805250E+03  0.10566000000E+00 0.  1.
          4    1    3    3  502    0 -0.51885336708E+03 -0.19570593001E+03  0.10554028363E+03  0.56448948532E+03  0.00000000000E+00 0.  1.
         13    1    4    4    0    0  0.26194387282E+03 -0.53860839945E+03  0.16968440051E+03  0.62250012643E+03  0.10566000000E+00 0. -1.
         -4    1    4    4    0  501  0.15227220451E+03  0.36846602990E+03  0.64700264901E+03  0.75997793868E+03  0.00000000000E+00 0. -1.
<mgrwt>
<rscale>  2 0.11080822E+04</rscale>
<asrwt>0</asrwt>
<pdfrwt beam="1">  1        2 0.33724432E+00 0.11080822E+04</pdfrwt>
<pdfrwt beam="2">  1       -2 0.86178075E-01 0.11080822E+04</pdfrwt>
<totfact> 0.93926378E+00</totfact>
</mgrwt>
</event>
<event>
 8    1  0.1408247E-005  0.1182348E+04  0.7818608E-02  0.8619974E-01
         -2   -1    0    0    0  501 -0.00000000000E+00  0.00000000000E+00  0.72104598585E+03  0.72104598585E+03  0.00000000000E+00 0.  1.
          2   -1    0    0  502    0  0.00000000000E+00 -0.00000000000E+00 -0.24951851256E+04  0.24951851256E+04  0.00000000000E+00 0. -1.
    9000010    2    1    2  502    0  0.13199064569E+03 -0.66534673086E+03 -0.14659590365E+03  0.12221424766E+04  0.10059990414E+04 0.  0.
   -9000010    2    1    2    0  501 -0.13199064569E+03  0.66534673086E+03 -0.16275432361E+04  0.19940886348E+04  0.93133489966E+03 0.  0.
        -13    1    3    3    0    0 -0.58448889412E+02 -0.34827917651E+03  0.41798444917E+03  0.54719801569E+03  0.10566000000E+00 0.  1.
          4    1    3    3  502    0  0.19043953510E+03 -0.31706755435E+03 -0.56458035282E+03  0.67494446093E+03  0.00000000000E+00 0.  1.
         13    1    4    4    0    0  0.17977025069E+03  0.56983430089E+03 -0.38815220345E+03  0.71252411729E+03  0.10566000000E+00 0. -1.
         -4    1    4    4    0  501 -0.31176089638E+03  0.95512429971E+02 -0.12393910326E+04  0.12815645175E+04  0.00000000000E+00 0. -1.
<mgrwt>
<rscale>  2 0.11823483E+04</rscale>
<asrwt>0</asrwt>
<pdfrwt beam="2">  1        2 0.38387464E+00 0.11823483E+04</pdfrwt>
<pdfrwt beam="1">  1       -2 0.11093015E+00 0.11823483E+04</pdfrwt>
<totfact> 0.34716966E+00</totfact>
</mgrwt>
</event>
<event>
 8    1  0.1408247E-005  0.1137330E+04  0.7818608E-02  0.8655310E-01
         -1   -1    0    0    0  501 -0.00000000000E+00  0.00000000000E+00  0.39340640360E+03  0.39340640360E+03  0.00000000000E+00 0. -1.
          1   -1    0    0  502    0  0.00000000000E+00 -0.00000000000E+00 -0.33702536080E+04  0.33702536080E+04  0.00000000000E+00 0.  1.
    9000010    2    1    2  502    0 -0.42571195531E+03 -0.35013098948E+03 -0.12054334011E+04  0.16630529553E+04  0.10044167805E+04 0.  0.
   -9000010    2    1    2    0  501  0.42571195531E+03  0.35013098948E+03 -0.17714138033E+04  0.21006070563E+04  0.98530237177E+03 0.  0.
        -13    1    3    3    0    0 -0.54467987552E+03 -0.51375359863E+03 -0.43378233480E+03  0.86532424677E+03  0.10566000000E+00 0.  1.
          4    1    3    3  502    0  0.11896792021E+03  0.16362260915E+03 -0.77165106631E+03  0.79772870852E+03  0.00000000000E+00 0.  1.
         13    1    4    4    0    0  0.72768147077E+03  0.37139396433E+03 -0.14056219176E+04  0.16258003525E+04  0.10566000000E+00 0. -1.
         -4    1    4    4    0  501 -0.30196951547E+03 -0.21262974847E+02 -0.36579188561E+03  0.47480670377E+03  0.00000000000E+00 0. -1.
<mgrwt>
<rscale>  2 0.11373300E+04</rscale>
<asrwt>0</asrwt>
<pdfrwt beam="2">  1        1 0.51850058E+00 0.11373300E+04</pdfrwt>
<pdfrwt beam="1">  1       -1 0.60524059E-01 0.11373300E+04</pdfrwt>
<totfact> 0.46615988E-01</totfact>
</mgrwt>
</event>
<event>
 8    1  0.1408247E-005  0.1411266E+04  0.7818608E-02  0.8462470E-01
          1   -1    0    0  502    0  0.00000000000E+00  0.00000000000E+00  0.17402392987E+04  0.17402392987E+04  0.00000000000E+00 0. -1.
         -1   -1    0    0    0  501 -0.00000000000E+00 -0.00000000000E+00 -0.12025999070E+04  0.12025999070E+04  0.00000000000E+00 0.  1.
    9000010    2    1    2  502    0 -0.44867573607E+03 -0.88147168784E+03  0.59228946140E+03  0.15305156527E+04  0.10066623588E+04 0.  0.
   -9000010    2    1    2    0  501  0.44867573607E+03  0.88147168784E+03 -0.54650069681E+02  0.14123235529E+04  0.10066622748E+04 0.  0.
        -13    1    3    3    0    0 -0.59264255989E+03 -0.15783470627E+03  0.50963000627E+02  0.61541387447E+03  0.10566000000E+00 0.  1.
          4    1    3    3  502    0  0.14396682382E+03 -0.72363698157E+03  0.54132646077E+03  0.91510177827E+03  0.00000000000E+00 0.  1.
         13    1    4    4    0    0  0.68392903077E+03  0.91447268508E+03  0.69942366172E+02  0.11440765519E+04  0.10566000000E+00 0. -1.
         -4    1    4    4    0  501 -0.23525329470E+03 -0.33000997233E+02 -0.12459243585E+03  0.26824700102E+03  0.00000000000E+00 0. -1.
<mgrwt>
<rscale>  2 0.14112658E+04</rscale>
<asrwt>0</asrwt>
<pdfrwt beam="1">  1        1 0.26772912E+00 0.14112658E+04</pdfrwt>
<pdfrwt beam="2">  1       -1 0.18501537E+00 0.14112658E+04</pdfrwt>
<totfact> 0.10279025E+00</totfact>
</mgrwt>
</event>
<event>
 8    1  0.1408247E-005  0.1495148E+04  0.7818608E-02  0.8412297E-01
         -2   -1    0    0    0  501 -0.00000000000E+00  0.00000000000E+00  0.42213915244E+04  0.42213915244E+04  0.00000000000E+00 0. -1.
          2   -1    0    0  502    0  0.00000000000E+00 -0.00000000000E+00 -0.78520699947E+03  0.78520699947E+03  0.00000000000E+00 0.  1.
    9000010    2    1    2  502    0  0.29029013119E+03  0.10725025290E+04  0.29124375478E+03  0.15251862592E+04  0.10034142542E+04 0.  0.
   -9000010    2    1    2    0  501 -0.29029013119E+03 -0.10725025290E+04  0.31449407701E+04  0.34814122647E+04  0.99752136518E+03 0.  0.
        -13    1    3    3    0    0 -0.21161678302E+03 -0.85083502127E+02  0.10009234500E+03  0.24907700391E+03  0.10566000000E+00 0.  1.
          4    1    3    3  502    0  0.50190691420E+03  0.11575860311E+04  0.19115140978E+03  0.12761092553E+04  0.00000000000E+00 0.  1.
         13    1    4    4    0    0 -0.63293229776E+03 -0.83964398210E+03  0.25314959273E+04  0.27411816706E+04  0.10566000000E+00 0. -1.
         -4    1    4    4    0  501  0.34264216657E+03 -0.23285854689E+03  0.61344484285E+03  0.74023059406E+03  0.00000000000E+00 0. -1.
<mgrwt>
<rscale>  2 0.14951477E+04</rscale>
<asrwt>0</asrwt>
<pdfrwt beam="2">  1        2 0.12080108E+00 0.14951477E+04</pdfrwt>
<pdfrwt beam="1">  1       -2 0.64944484E+00 0.14951477E+04</pdfrwt>
<totfact> 0.16943185E-01</totfact>
</mgrwt>
</event>
<event>
 8    1  0.1408247E-005  0.1515682E+04  0.7818608E-02  0.8400531E-01
         -2   -1    0    0    0  501 -0.00000000000E+00  0.00000000000E+00  0.20546978716E+04  0.20546978716E+04  0.00000000000E+00 0. -1.
          2   -1    0    0  502    0  0.00000000000E+00 -0.00000000000E+00 -0.12774724575E+04  0.12774724575E+04  0.00000000000E+00 0.  1.
    9000010    2    1    2  502    0  0.51148830171E+03  0.99689457182E+03  0.97596811823E+03  0.17984185759E+04  0.10131024313E+04 0.  0.
   -9000010    2    1    2    0  501 -0.51148830171E+03 -0.99689457182E+03 -0.19874270415E+03  0.15337517532E+04  0.10283368650E+04 0.  0.
        -13    1    3    3    0    0  0.37579379017E+03  0.80044879123E+03  0.11867240108E+04  0.14799503806E+04  0.10566000000E+00 0.  1.
          4    1    3    3  502    0  0.13569451155E+03  0.19644578059E+03 -0.21075589255E+03  0.31846819531E+03  0.00000000000E+00 0.  1.
         13    1    4    4    0    0 -0.36678772254E+03 -0.14780706318E+03  0.33685921811E+03  0.51947502858E+03  0.10566000000E+00 0. -1.
         -4    1    4    4    0  501 -0.14470057917E+03 -0.84908750865E+03 -0.53560192225E+03  0.10142767246E+04  0.00000000000E+00 0. -1.
<mgrwt>
<rscale>  2 0.15156824E+04</rscale>
<asrwt>0</asrwt>
<pdfrwt beam="2">  1        2 0.19653422E+00 0.15156824E+04</pdfrwt>
<pdfrwt beam="1">  1       -2 0.31610737E+00 0.15156824E+04</pdfrwt>
<totfact> 0.33793066E-01</totfact>
</mgrwt>
</event>
<event>
 8    1  0.1408247E-005  0.1061506E+04  0.7818608E-02  0.8718853E-01
          2   -1    0    0  502    0  0.00000000000E+00  0.00000000000E+00  0.17489516455E+04  0.17489516455E+04  0.00000000000E+00 0. -1.
         -2   -1    0    0    0  501 -0.00000000000E+00 -0.00000000000E+00 -0.67271565301E+03  0.67271565301E+03  0.00000000000E+00 0.  1.
    9000010    2    1    2  502    0 -0.17425334791E+03  0.33850632204E+03  0.28962402185E+03  0.11012895833E+04  0.99197072177E+03 0.  0.
   -9000010    2    1    2    0  501  0.17425334791E+03 -0.33850632204E+03  0.78661197064E+03  0.13203777152E+04  0.98979197777E+03 0.  0.
        -13    1    3    3    0    0  0.30896911174E+03  0.12286041331E+03 -0.19354494569E+03  0.38472880102E+03  0.10566000000E+00 0.  1.
          4    1    3    3  502    0 -0.48322245965E+03  0.21564590872E+03  0.48316896754E+03  0.71656078224E+03  0.00000000000E+00 0.  1.
         13    1    4    4    0    0  0.29864183014E+03 -0.31281463031E+03  0.99013894656E+03  0.10804698424E+04  0.10566000000E+00 0. -1.
         -4    1    4    4    0  501 -0.12438848223E+03 -0.25691691729E+02 -0.20352697592E+03  0.23990787286E+03  0.00000000000E+00 0. -1.
<mgrwt>
<rscale>  2 0.10615063E+04</rscale>
<asrwt>0</asrwt>
<pdfrwt beam="1">  1        2 0.26906948E+00 0.10615063E+04</pdfrwt>
<pdfrwt beam="2">  1       -2 0.10349472E+00 0.10615063E+04</pdfrwt>
<totfact> 0.10690047E+01</totfact>
</mgrwt>
</event>
<event>
 8    1  0.1408247E-005  0.1403024E+04  0.7818608E-02  0.8467592E-01
          2   -1    0    0  502    0  0.00000000000E+00  0.00000000000E+00  0.57740230885E+03  0.57740230885E+03  0.00000000000E+00 0. -1.
         -2   -1    0    0    0  501 -0.00000000000E+00 -0.00000000000E+00 -0.38137878844E+04  0.38137878844E+04  0.00000000000E+00 0.  1.
    9000010    2    1    2  502    0  0.96459019848E+03 -0.18837859327E+03 -0.89701596976E+03  0.16602895577E+04  0.99297684774E+03 0.  0.
   -9000010    2    1    2    0  501 -0.96459019848E+03  0.18837859327E+03 -0.23393696058E+04  0.27309006355E+04  0.10095778242E+04 0.  0.
        -13    1    3    3    0    0  0.10147098879E+04  0.14000732175E+02 -0.34767078417E+03  0.10727101950E+04  0.10566000000E+00 0.  1.
          4    1    3    3  502    0 -0.50119689400E+02 -0.20237932544E+03 -0.54934518559E+03  0.58757936277E+03  0.00000000000E+00 0.  1.
         13    1    4    4    0    0 -0.82866398916E+03  0.55789810885E+03 -0.14795125148E+04  0.17851867128E+04  0.10566000000E+00 0. -1.
         -4    1    4    4    0  501 -0.13592620932E+03 -0.36951951558E+03 -0.85985709096E+03  0.94571392273E+03  0.00000000000E+00 0. -1.
<mgrwt>
<rscale>  2 0.14030238E+04</rscale>
<asrwt>0</asrwt>
<pdfrwt beam="1">  1        2 0.88831124E-01 0.14030238E+04</pdfrwt>
<pdfrwt beam="2">  1       -2 0.58673660E+00 0.14030238E+04</pdfrwt>
<totfact> 0.35688319E-01</totfact>
</mgrwt>
</event>
<event>
 8    1  0.1408247E-005  0.1293174E+04  0.7818608E-02  0.8539519E-01
         -4   -1    0    0    0  501 -0.00000000000E+00  0.00000000000E+00  0.12196136543E+04  0.12196136543E+04  0.00000000000E+00 0. -1.
          4   -1    0    0  502    0  0.00000000000E+00 -0.00000000000E+00 -0.13929341472E+04  0.13929341472E+04  0.00000000000E+00 0.  1.
    9000010    2    1    2  502    0  0.62234156242E+03  0.52227992998E+03  0.76931147621E+02  0.12881326450E+04  0.99663532148E+03 0.  0.
   -9000010    2    1    2    0  501 -0.62234156242E+03 -0.52227992998E+03 -0.25025164054E+03  0.13244151566E+04  0.10155610655E+04 0.  0.
        -13    1    3    3    0    0  0.27493808099E+03  0.41606178031E+03 -0.43407951954E+03  0.66115307899E+03  0.10566000000E+00 0.  1.
          4    1    3    3  502    0  0.34740348144E+03  0.10621814967E+03  0.51101066716E+03  0.62697956600E+03  0.00000000000E+00 0.  1.
         13    1    4    4    0    0 -0.72663878793E+03  0.24615438442E+02 -0.24632512278E+03  0.76764961096E+03  0.10566000000E+00 0. -1.
         -4    1    4    4    0  501  0.10429722551E+03 -0.54689536842E+03 -0.39265177612E+01  0.55676554562E+03  0.00000000000E+00 0. -1.
<mgrwt>
<rscale>  2 0.12931744E+04</rscale>
<asrwt>0</asrwt>
<pdfrwt beam="2">  1        4 0.21429756E+00 0.12931744E+04</pdfrwt>
<pdfrwt beam="1">  1       -4 0.18763287E+00 0.12931744E+04</pdfrwt>
<totfact> 0.17968755E-01</totfact>
</mgrwt>
</event>
<event>
 8    1  0.1408247E-005  0.1375875E+04  0.7818608E-02  0.8484722E-01
          2   -1    0    0  502    0  0.00000000000E+00  0.00000000000E+00  0.27608186159E+04  0.27608186159E+04  0.00000000000E+00 0. -1.
         -2   -1    0    0    0  501 -0.00000000000E+00 -0.00000000000E+00 -0.68672431272E+03  0.68672431272E+03  0.00000000000E+00 0.  1.
    9000010    2    1    2  502    0  0.42844529307E+02 -0.10043392703E+04  0.96038678089E+03  0.16481518578E+04  0.88517159568E+03 0.  0.
   -9000010    2    1    2    0  501 -0.42844529307E+02  0.10043392703E+04  0.11137075222E+04  0.17993910708E+04  0.99344388720E+03 0.  0.
        -13    1    3    3    0    0 -0.37567626500E+03 -0.76461869976E+03  0.68184330182E+03  0.10911850033E+04  0.10566000000E+00 0.  1.
          4    1    3    3  502    0  0.41852079430E+03 -0.23972057055E+03  0.27854347908E+03  0.55696685444E+03  0.00000000000E+00 0.  1.
         13    1    4    4    0    0  0.38268817592E+03  0.81783379739E+03  0.50806462080E+03  0.10360656496E+04  0.10566000000E+00 0. -1.
         -4    1    4    4    0  501 -0.42553270522E+03  0.18650547291E+03  0.60564290144E+03  0.76332542123E+03  0.00000000000E+00 0. -1.
<mgrwt>
<rscale>  2 0.13758753E+04</rscale>
<asrwt>0</asrwt>
<pdfrwt beam="1">  1        2 0.42474132E+00 0.13758753E+04</pdfrwt>
<pdfrwt beam="2">  1       -2 0.10564990E+00 0.13758753E+04</pdfrwt>
<totfact> 0.26968359E+00</totfact>
</mgrwt>
</event>
<event>
 8    1  0.1408247E-005  0.1057573E+04  0.7818608E-02  0.8722300E-01
         -1   -1    0    0    0  501 -0.00000000000E+00  0.00000000000E+00  0.59401177670E+03  0.59401177670E+03  0.00000000000E+00 0.  1.
          1   -1    0    0  502    0  0.00000000000E+00 -0.00000000000E+00 -0.19294597408E+04  0.19294597408E+04  0.00000000000E+00 0. -1.
    9000010    2    1    2  502    0  0.20392914298E+03 -0.29073654157E+03 -0.86789389254E+03  0.13735654137E+04  0.10036569659E+04 0.  0.
   -9000010    2    1    2    0  501 -0.20392914298E+03  0.29073654157E+03 -0.46755407154E+03  0.11499061038E+04  0.98871755607E+03 0.  0.
        -13    1    3    3    0    0 -0.32774912440E+03 -0.40101300765E+03 -0.48116673900E+03  0.70693165351E+03  0.10566000000E+00 0.  1.
          4    1    3    3  502    0  0.53167826738E+03  0.11027646608E+03 -0.38672715354E+03  0.66663376022E+03  0.00000000000E+00 0.  1.
         13    1    4    4    0    0  0.18641354660E+03 -0.11138073681E+03  0.18816279674E+03  0.28733417502E+03  0.10566000000E+00 0. -1.
         -4    1    4    4    0  501 -0.39034268959E+03  0.40211727839E+03 -0.65571686829E+03  0.86257192874E+03  0.00000000000E+00 0. -1.
<mgrwt>
<rscale>  2 0.10575730E+04</rscale>
<asrwt>0</asrwt>
<pdfrwt beam="2">  1        1 0.29683996E+00 0.10575730E+04</pdfrwt>
<pdfrwt beam="1">  1       -1 0.91386427E-01 0.10575730E+04</pdfrwt>
<totfact> 0.52635395E+00</totfact>
</mgrwt>
</event>
<event>
 8    1  0.1408247E-005  0.1266029E+04  0.7818608E-02  0.8558433E-01
          2   -1    0    0  502    0  0.00000000000E+00  0.00000000000E+00  0.35492432205E+04  0.35492432205E+04  0.00000000000E+00 0. -1.
         -2   -1    0    0    0  501 -0.00000000000E+00 -0.00000000000E+00 -0.51094004322E+03  0.51094004322E+03  0.00000000000E+00 0.  1.
    9000010    2    1    2  502    0 -0.72378502193E+03  0.42694240937E+03  0.80594480104E+03  0.14833592689E+04  0.91905555847E+03 0.  0.
   -9000010    2    1    2    0  501  0.72378502193E+03 -0.42694240937E+03  0.22323583762E+04  0.25768239948E+04  0.97491199667E+03 0.  0.
        -13    1    3    3    0    0 -0.82842969689E+02  0.14715688550E+03  0.76434260128E+03  0.78277565743E+03  0.10566000000E+00 0.  1.
          4    1    3    3  502    0 -0.64094205224E+03  0.27978552386E+03  0.41602199766E+02  0.70058361151E+03  0.00000000000E+00 0.  1.
         13    1    4    4    0    0  0.63959095970E+03 -0.32116312391E+03  0.23117765330E+04  0.24200274994E+04  0.10566000000E+00 0. -1.
         -4    1    4    4    0  501  0.84194062227E+02 -0.10577928546E+03 -0.79418156789E+02  0.15679649541E+03  0.00000000000E+00 0. -1.
<mgrwt>
<rscale>  2 0.12660293E+04</rscale>
<asrwt>0</asrwt>
<pdfrwt beam="1">  1        2 0.54603740E+00 0.12660293E+04</pdfrwt>
<pdfrwt beam="2">  1       -2 0.78606163E-01 0.12660293E+04</pdfrwt>
<totfact> 0.16576846E+00</totfact>
</mgrwt>
</event>
<event>
 8    1  0.1408247E-005  0.1082598E+04  0.7818608E-02  0.8700635E-01
          2   -1    0    0  502    0  0.00000000000E+00  0.00000000000E+00  0.25993973662E+04  0.25993973662E+04  0.00000000000E+00 0. -1.
         -2   -1    0    0    0  501 -0.00000000000E+00 -0.00000000000E+00 -0.45436114585E+03  0.45436114585E+03  0.00000000000E+00 0.  1.
    9000010    2    1    2  502    0 -0.40612593639E+03 -0.10535688250E+03  0.93924655501E+03  0.14335233412E+04  0.99838205598E+03 0.  0.
   -9000010    2    1    2    0  501  0.40612593639E+03  0.10535688250E+03  0.12057896653E+04  0.16202351709E+04  0.99759457848E+03 0.  0.
        -13    1    3    3    0    0  0.13230316155E+03  0.30837951181E+03  0.56777805833E+03  0.65952557535E+03  0.10566000000E+00 0.  1.
          4    1    3    3  502    0 -0.53842909794E+03 -0.41373639431E+03  0.37146849668E+03  0.77399776583E+03  0.00000000000E+00 0.  1.
         13    1    4    4    0    0  0.30275658981E+03  0.49312804259E+03  0.10314759379E+04  0.11827000637E+04  0.10566000000E+00 0. -1.
         -4    1    4    4    0  501  0.10336934658E+03 -0.38777116010E+03  0.17431372740E+03  0.43753510713E+03  0.00000000000E+00 0. -1.
<mgrwt>
<rscale>  2 0.10825982E+04</rscale>
<asrwt>0</asrwt>
<pdfrwt beam="1">  1        2 0.39990728E+00 0.10825982E+04</pdfrwt>
<pdfrwt beam="2">  1       -2 0.69901717E-01 0.10825982E+04</pdfrwt>
<totfact> 0.88165575E+00</totfact>
</mgrwt>
</event>
<event>
 8    1  0.1408247E-005  0.1322960E+04  0.7818608E-02  0.8519310E-01
         -2   -1    0    0    0  501 -0.00000000000E+00  0.00000000000E+00  0.81146776719E+03  0.81146776719E+03  0.00000000000E+00 0.  1.
          2   -1    0    0  502    0  0.00000000000E+00 -0.00000000000E+00 -0.21858843613E+04  0.21858843613E+04  0.00000000000E+00 0. -1.
    9000010    2    1    2  502    0 -0.40577537293E+03 -0.77386532855E+03 -0.51605427287E+03  0.14227902476E+04  0.99724564488E+03 0.  0.
   -9000010    2    1    2    0  501  0.40577537293E+03  0.77386532855E+03 -0.85836232126E+03  0.15745618809E+04  0.98941297855E+03 0.  0.
        -13    1    3    3    0    0 -0.16997166598E+03 -0.95121582033E+03 -0.19317447221E+03  0.98540260400E+03  0.10566000000E+00 0.  1.
          4    1    3    3  502    0 -0.23580370695E+03  0.17735049178E+03 -0.32287980065E+03  0.43738764365E+03  0.00000000000E+00 0.  1.
         13    1    4    4    0    0  0.43538577929E+03  0.91080055669E+01 -0.64819802887E+03  0.78089975565E+03  0.10566000000E+00 0. -1.
         -4    1    4    4    0  501 -0.29610406366E+02  0.76475732298E+03 -0.21016429239E+03  0.79366212522E+03  0.00000000000E+00 0. -1.
<mgrwt>
<rscale>  2 0.13229597E+04</rscale>
<asrwt>0</asrwt>
<pdfrwt beam="2">  1        2 0.33628990E+00 0.13229597E+04</pdfrwt>
<pdfrwt beam="1">  1       -2 0.12484119E+00 0.13229597E+04</pdfrwt>
<totfact> 0.37171431E+00</totfact>
</mgrwt>
</event>
<event>
 8    1  0.1408247E-005  0.1198914E+04  0.7818608E-02  0.8607381E-01
         -2   -1    0    0    0  501 -0.00000000000E+00  0.00000000000E+00  0.10638953485E+04  0.10638953485E+04  0.00000000000E+00 0.  1.
          2   -1    0    0  502    0  0.00000000000E+00 -0.00000000000E+00 -0.13519549283E+04  0.13519549283E+04  0.00000000000E+00 0. -1.
    9000010    2    1    2  502    0  0.56581386477E+02 -0.67436329794E+03 -0.11299283006E+03  0.11978516701E+04  0.98189303542E+03 0.  0.
   -9000010    2    1    2    0  501 -0.56581386477E+02  0.67436329794E+03 -0.17506674971E+03  0.12179986067E+04  0.99744921082E+03 0.  0.
        -13    1    3    3    0    0  0.13195007988E+03 -0.91596742007E+03 -0.16355208210E+03  0.93976403045E+03  0.10566000000E+00 0.  1.
          4    1    3    3  502    0 -0.75368693402E+02  0.24160412212E+03  0.50559252046E+02  0.25808763965E+03  0.00000000000E+00 0.  1.
         13    1    4    4    0    0  0.33118925167E+03  0.64399289717E+03 -0.33443303145E+03  0.79765821987E+03  0.10566000000E+00 0. -1.
         -4    1    4    4    0  501 -0.38777063815E+03  0.30370400771E+02  0.15936628174E+03  0.42034038684E+03  0.00000000000E+00 0. -1.
<mgrwt>
<rscale>  2 0.11989138E+04</rscale>
<asrwt>0</asrwt>
<pdfrwt beam="2">  1        2 0.20799307E+00 0.11989138E+04</pdfrwt>
<pdfrwt beam="1">  1       -2 0.16367621E+00 0.11989138E+04</pdfrwt>
<totfact> 0.48244354E+00</totfact>
</mgrwt>
</event>
<event>
 8    1  0.1408247E-005  0.1840604E+04  0.7818608E-02  0.8236569E-01
          2   -1    0    0  502    0  0.00000000000E+00  0.00000000000E+00  0.34379815586E+04  0.34379815586E+04  0.00000000000E+00 0. -1.
         -2   -1    0    0    0  501 -0.00000000000E+00 -0.00000000000E+00 -0.10219628822E+04  0.10219628822E+04  0.00000000000E+00 0.  1.
    9000010    2    1    2  502    0 -0.34158615986E+03 -0.15317861209E+04  0.77575199875E+03  0.19813950640E+04  0.92794687962E+03 0.  0.
   -9000010    2    1    2    0  501  0.34158615986E+03  0.15317861209E+04  0.16402666777E+04  0.24785493767E+04  0.99482783140E+03 0.  0.
        -13    1    3    3    0    0 -0.31442306540E+03 -0.29862432968E+03  0.59275021529E+03  0.73443255866E+03  0.10566000000E+00 0.  1.
          4    1    3    3  502    0 -0.27163094455E+02 -0.12331617912E+04  0.18300178346E+03  0.12469625054E+04  0.00000000000E+00 0.  1.
         13    1    4    4    0    0  0.57393263264E+03  0.39948191686E+03  0.55089086982E+03  0.89020516193E+03  0.10566000000E+00 0. -1.
         -4    1    4    4    0  501 -0.23234647278E+03  0.11323042041E+04  0.10893758078E+04  0.15883442148E+04  0.00000000000E+00 0. -1.
<mgrwt>
<rscale>  2 0.18406041E+04</rscale>
<asrwt>0</asrwt>
<pdfrwt beam="1">  1        2 0.52892023E+00 0.18406041E+04</pdfrwt>
<pdfrwt beam="2">  1       -2 0.15722506E+00 0.18406041E+04</pdfrwt>
<totfact> 0.31042873E-01</totfact>
</mgrwt>
</event>
<event>
 8    1  0.1408247E-005  0.1179384E+04  0.7818608E-02  0.8622250E-01
         -2   -1    0    0    0  501 -0.00000000000E+00  0.00000000000E+00  0.76659943748E+03  0.76659943748E+03  0.00000000000E+00 0.  1.
          2   -1    0    0  502    0  0.00000000000E+00 -0.00000000000E+00 -0.19983307811E+04  0.19983307811E+04  0.00000000000E+00 0. -1.
    9000010    2    1    2  502    0 -0.17401375276E+03  0.62708171583E+03 -0.10318367607E+04  0.15617919688E+04  0.97518961674E+03 0.  0.
   -9000010    2    1    2    0  501  0.17401375276E+03 -0.62708171583E+03 -0.19989458291E+03  0.12031382498E+04  0.99200380003E+03 0.  0.
        -13    1    3    3    0    0 -0.34376831901E+03  0.22279755773E+03  0.32233843972E+02  0.41091901970E+03  0.10566000000E+00 0.  1.
          4    1    3    3  502    0  0.16975456625E+03  0.40428415810E+03 -0.10640706047E+04  0.11508729491E+04  0.00000000000E+00 0.  1.
         13    1    4    4    0    0 -0.27082662066E+02 -0.51833242877E+01 -0.48805385381E+03  0.48883219290E+03  0.10566000000E+00 0. -1.
         -4    1    4    4    0  501  0.20109641483E+03 -0.62189839154E+03  0.28815927090E+03  0.71430605686E+03  0.00000000000E+00 0. -1.
<mgrwt>
<rscale>  2 0.11793842E+04</rscale>
<asrwt>0</asrwt>
<pdfrwt beam="2">  1        2 0.30743550E+00 0.11793842E+04</pdfrwt>
<pdfrwt beam="1">  1       -2 0.11793838E+00 0.11793842E+04</pdfrwt>
<totfact> 0.55609475E+00</totfact>
</mgrwt>
</event>
<event>
 8    1  0.1408247E-005  0.1868007E+04  0.7818608E-02  0.8224357E-01
          1   -1    0    0  502    0  0.00000000000E+00  0.00000000000E+00  0.37904472152E+04  0.37904472152E+04  0.00000000000E+00 0. -1.
         -1   -1    0    0    0  501 -0.00000000000E+00 -0.00000000000E+00 -0.32791194541E+04  0.32791194541E+04  0.00000000000E+00 0.  1.
    9000010    2    1    2  502    0 -0.10608024146E+04 -0.11804371434E+04  0.32530661339E+04  0.37463066603E+04  0.96625085214E+03 0.  0.
   -9000010    2    1    2    0  501  0.10608024146E+04  0.11804371434E+04 -0.27417383727E+04  0.33232600090E+04  0.10040887265E+04 0.  0.
        -13    1    3    3    0    0 -0.10134184719E+04 -0.96705449686E+03  0.18199260174E+04  0.22965935903E+04  0.10566000000E+00 0.  1.
          4    1    3    3  502    0 -0.47383942765E+02 -0.21338264649E+03  0.14331401165E+04  0.14497130700E+04  0.00000000000E+00 0.  1.
         13    1    4    4    0    0  0.34259687888E+03  0.54666692867E+03 -0.20296383329E+04  0.21297063473E+04  0.10566000000E+00 0. -1.
         -4    1    4    4    0  501  0.71820553575E+03  0.63377021469E+03 -0.71210003989E+03  0.11935536617E+04  0.00000000000E+00 0. -1.
<mgrwt>
<rscale>  2 0.18680075E+04</rscale>
<asrwt>0</asrwt>
<pdfrwt beam="1">  1        1 0.58314572E+00 0.18680075E+04</pdfrwt>
<pdfrwt beam="2">  1       -1 0.50447992E+00 0.18680075E+04</pdfrwt>
<totfact> 0.60664986E-04</totfact>
</mgrwt>
</event>
<event>
 8    1  0.1408247E-005  0.1303863E+04  0.7818608E-02  0.8532203E-01
         -1   -1    0    0    0  501 -0.00000000000E+00  0.00000000000E+00  0.85243034405E+03  0.85243034405E+03  0.00000000000E+00 0.  1.
          1   -1    0    0  502    0  0.00000000000E+00 -0.00000000000E+00 -0.19978350658E+04  0.19978350658E+04  0.00000000000E+00 0. -1.
    9000010    2    1    2  502    0 -0.13693031123E+03  0.82491434374E+03 -0.51052828861E+03  0.13930720708E+04  0.99034189875E+03 0.  0.
   -9000010    2    1    2    0  501  0.13693031123E+03 -0.82491434374E+03 -0.63487643313E+03  0.14571933390E+04  0.10105002510E+04 0.  0.
        -13    1    3    3    0    0 -0.50584126316E+02  0.10432352918E+04 -0.32505654936E+03  0.10938740326E+04  0.10566000000E+00 0.  1.
          4    1    3    3  502    0 -0.86346184909E+02 -0.21832094803E+03 -0.18547173926E+03  0.29919803820E+03  0.00000000000E+00 0.  1.
         13    1    4    4    0    0 -0.30321492818E+03  0.60655430794E+02 -0.24372765077E+03  0.39372776493E+03  0.10566000000E+00 0. -1.
         -4    1    4    4    0  501  0.44014523941E+03 -0.88556977453E+03 -0.39114878236E+03  0.10634655741E+04  0.00000000000E+00 0. -1.
<mgrwt>
<rscale>  2 0.13038627E+04</rscale>
<asrwt>0</asrwt>
<pdfrwt beam="2">  1        1 0.30735924E+00 0.13038627E+04</pdfrwt>
<pdfrwt beam="1">  1       -1 0.13114313E+00 0.13038627E+04</pdfrwt>
<totfact> 0.19634199E+00</totfact>
</mgrwt>
</event>
<event>
 8    1  0.1408247E-005  0.1745863E+04  0.7818608E-02  0.8280536E-01
          4   -1    0    0  502    0  0.00000000000E+00  0.00000000000E+00  0.12560191845E+04  0.12560191845E+04  0.00000000000E+00 0.  1.
         -4   -1    0    0    0  501 -0.00000000000E+00 -0.00000000000E+00 -0.24268635244E+04  0.24268635244E+04  0.00000000000E+00 0. -1.
    9000010    2    1    2  502    0  0.33919800908E+03 -0.13846759250E+04 -0.58204240213E+03  0.18287709461E+04  0.98653287261E+03 0.  0.
   -9000010    2    1    2    0  501 -0.33919800908E+03  0.13846759250E+04 -0.58880193769E+03  0.18541117628E+04  0.10289120469E+04 0.  0.
        -13    1    3    3    0    0 -0.13713215228E+03 -0.11656042413E+04 -0.22651500596E+03  0.11953022771E+04  0.10566000000E+00 0.  1.
          4    1    3    3  502    0  0.47633016136E+03 -0.21907168376E+03 -0.35552739617E+03  0.63346866906E+03  0.00000000000E+00 0.  1.
         13    1    4    4    0    0 -0.31015997402E+03  0.14622725591E+04 -0.75034569198E+03  0.16725605864E+04  0.10566000000E+00 0. -1.
         -4    1    4    4    0  501 -0.29038035062E+02 -0.77596634052E+02  0.16154375428E+03  0.18155117638E+03  0.00000000000E+00 0. -1.
<mgrwt>
<rscale>  2 0.17458629E+04</rscale>
<asrwt>0</asrwt>
<pdfrwt beam="1">  1        4 0.19323372E+00 0.17458629E+04</pdfrwt>
<pdfrwt beam="2">  1       -4 0.37336361E+00 0.17458629E+04</pdfrwt>
<totfact> 0.59981066E-02</totfact>
</mgrwt>
</event>
<event>
 8    1  0.1408247E-005  0.1208295E+04  0.7818608E-02  0.8600342E-01
          2   -1    0    0  502    0  0.00000000000E+00  0.00000000000E+00  0.40833685114E+03  0.40833685114E+03  0.00000000000E+00 0. -1.
         -2   -1    0    0    0  501 -0.00000000000E+00 -0.00000000000E+00 -0.38023770583E+04  0.38023770583E+04  0.00000000000E+00 0.  1.
    9000010    2    1    2  502    0 -0.38302392360E+02  0.67333961993E+03 -0.11752304499E+04  0.16814986489E+04  0.99569964286E+03 0.  0.
   -9000010    2    1    2    0  501  0.38302392360E+02 -0.67333961993E+03 -0.22188097573E+04  0.25292152606E+04  0.10094353760E+04 0.  0.
        -13    1    3    3    0    0  0.10112428579E+03  0.79157764428E+03 -0.12507986640E+04  0.14836841298E+04  0.10566000000E+00 0.  1.
          4    1    3    3  502    0 -0.13942667815E+03 -0.11823802436E+03  0.75568214051E+02  0.19781451908E+03  0.00000000000E+00 0.  1.
         13    1    4    4    0    0 -0.56071454217E+02 -0.84443244402E+03 -0.21679982432E+04  0.23273217557E+04  0.10566000000E+00 0. -1.
         -4    1    4    4    0  501  0.94373846576E+02  0.17109282409E+03 -0.50811514029E+02  0.20189350492E+03  0.00000000000E+00 0. -1.
<mgrwt>
<rscale>  2 0.12082951E+04</rscale>
<asrwt>0</asrwt>
<pdfrwt beam="1">  1        2 0.62821055E-01 0.12082951E+04</pdfrwt>
<pdfrwt beam="2">  1       -2 0.58498107E+00 0.12082951E+04</pdfrwt>
<totfact> 0.54844075E-01</totfact>
</mgrwt>
</event>
<event>
 8    1  0.1408247E-005  0.1168332E+04  0.7818608E-02  0.8630798E-01
         -2   -1    0    0    0  501 -0.00000000000E+00  0.00000000000E+00  0.17034999110E+04  0.17034999110E+04  0.00000000000E+00 0.  1.
          2   -1    0    0  502    0  0.00000000000E+00 -0.00000000000E+00 -0.86845807726E+03  0.86845807726E+03  0.00000000000E+00 0. -1.
    9000010    2    1    2  502    0 -0.60988685249E+03  0.35132506945E+02  0.61338450977E+02  0.11742468358E+04  0.10009480306E+04 0.  0.
   -9000010    2    1    2    0  501  0.60988685249E+03 -0.35132506945E+02  0.77370338280E+03  0.13977111525E+04  0.99084977432E+03 0.  0.
        -13    1    3    3    0    0 -0.61459753451E+03  0.10527094357E+03 -0.37809633793E+03  0.72922489872E+03  0.10566000000E+00 0.  1.
          4    1    3    3  502    0  0.47106820240E+01 -0.70138436623E+02  0.43943478891E+03  0.44502193712E+03  0.00000000000E+00 0.  1.
         13    1    4    4    0    0 -0.53686792742E+02 -0.27284120082E+03 -0.81210420149E+02  0.28968903343E+03  0.10566000000E+00 0. -1.
         -4    1    4    4    0  501  0.66357364523E+03  0.23770869388E+03  0.85491380295E+03  0.11080221190E+04  0.00000000000E+00 0. -1.
<mgrwt>
<rscale>  2 0.11683319E+04</rscale>
<asrwt>0</asrwt>
<pdfrwt beam="2">  1        2 0.13360894E+00 0.11683319E+04</pdfrwt>
<pdfrwt beam="1">  1       -2 0.26207691E+00 0.11683319E+04</pdfrwt>
<totfact> 0.14905773E+00</totfact>
</mgrwt>
</event>
<event>
 8    1  0.1408247E-005  0.1342313E+04  0.7818608E-02  0.8506470E-01
         -2   -1    0    0    0  501 -0.00000000000E+00  0.00000000000E+00  0.63930619283E+03  0.63930619283E+03  0.00000000000E+00 0. -1.
          2   -1    0    0  502    0  0.00000000000E+00 -0.00000000000E+00 -0.28184803882E+04  0.28184803882E+04  0.00000000000E+00 0.  1.
    9000010    2    1    2  502    0  0.88342054410E+03 -0.14726341068E+03 -0.11017609627E+04  0.17413375144E+04  0.10080975896E+04 0.  0.
   -9000010    2    1    2    0  501 -0.88342054410E+03  0.14726341068E+03 -0.10774132327E+04  0.17164490667E+04  0.99159455152E+03 0.  0.
        -13    1    3    3    0    0  0.10650936742E+04  0.23976589935E+02 -0.72237641774E+03  0.12871779643E+04  0.10566000000E+00 0.  1.
          4    1    3    3  502    0 -0.18167313009E+03 -0.17124000061E+03 -0.37938454493E+03  0.45415955009E+03  0.00000000000E+00 0.  1.
         13    1    4    4    0    0 -0.78041839256E+03 -0.17537073796E+03 -0.27557454563E+03  0.84601956511E+03  0.10566000000E+00 0. -1.
         -4    1    4    4    0  501 -0.10300215154E+03  0.32263414864E+03 -0.80183868710E+03  0.87042950158E+03  0.00000000000E+00 0. -1.
<mgrwt>
<rscale>  2 0.13423126E+04</rscale>
<asrwt>0</asrwt>
<pdfrwt beam="2">  1        2 0.43361236E+00 0.13423126E+04</pdfrwt>
<pdfrwt beam="1">  1       -2 0.98354801E-01 0.13423126E+04</pdfrwt>
<totfact> 0.29770999E+00</totfact>
</mgrwt>
</event>
<event>
 8    1  0.1408247E-005  0.1496190E+04  0.7818608E-02  0.8411695E-01
         -1   -1    0    0    0  501 -0.00000000000E+00  0.00000000000E+00  0.12282844018E+04  0.12282844018E+04  0.00000000000E+00 0.  1.
          1   -1    0    0  502    0  0.00000000000E+00 -0.00000000000E+00 -0.18606816419E+04  0.18606816419E+04  0.00000000000E+00 0. -1.
    9000010    2    1    2  502    0 -0.17681338361E+03 -0.11002126221E+04 -0.95597489584E+02  0.15018684710E+04  0.10023668178E+04 0.  0.
   -9000010    2    1    2    0  501  0.17681338361E+03  0.11002126221E+04 -0.53679975053E+03  0.15870975728E+04  0.99448174792E+03 0.  0.
        -13    1    3    3    0    0 -0.38886836669E+03 -0.51473023217E+03 -0.44889764897E+03  0.78592297902E+03  0.10566000000E+00 0.  1.
          4    1    3    3  502    0  0.21205498308E+03 -0.58548238996E+03  0.35330015939E+03  0.71594549194E+03  0.00000000000E+00 0.  1.
         13    1    4    4    0    0 -0.15497932038E+03  0.10825972313E+04 -0.19586013609E+03  0.11110340045E+04  0.10566000000E+00 0. -1.
         -4    1    4    4    0  501  0.33179270399E+03  0.17615390812E+02 -0.34093961444E+03  0.47606356835E+03  0.00000000000E+00 0. -1.
<mgrwt>
<rscale>  2 0.14961897E+04</rscale>
<asrwt>0</asrwt>
<pdfrwt beam="2">  1        1 0.28625871E+00 0.14961897E+04</pdfrwt>
<pdfrwt beam="1">  1       -1 0.18896683E+00 0.14961897E+04</pdfrwt>
<totfact> 0.76252710E-01</totfact>
</mgrwt>
</event>
<event>
 8    1  0.1408247E-005  0.1340341E+04  0.7818608E-02  0.8507768E-01
         -2   -1    0    0    0  501 -0.00000000000E+00  0.00000000000E+00  0.76823286500E+03  0.76823286500E+03  0.00000000000E+00 0. -1.
          2   -1    0    0  502    0  0.00000000000E+00 -0.00000000000E+00 -0.24618483900E+04  0.24618483900E+04  0.00000000000E+00 0.  1.
    9000010    2    1    2  502    0 -0.84564214051E+03 -0.28274104934E+03 -0.12079662021E+04  0.18039214278E+04  0.99994851943E+03 0.  0.
   -9000010    2    1    2    0  501  0.84564214051E+03  0.28274104934E+03 -0.48564932292E+03  0.14261598272E+04  0.10015105876E+04 0.  0.
        -13    1    3    3    0    0 -0.72273236720E+03 -0.57469746547E+03 -0.55281792257E+03  0.10762095140E+04  0.10566000000E+00 0.  1.
          4    1    3    3  502    0 -0.12290977332E+03  0.29195641613E+03 -0.65514827949E+03  0.72771191375E+03  0.00000000000E+00 0.  1.
         13    1    4    4    0    0  0.26436590818E+03  0.31911373067E+03  0.25299636972E+03  0.48552042261E+03  0.10566000000E+00 0. -1.
         -4    1    4    4    0  501  0.58127623233E+03 -0.36372681333E+02 -0.73864569264E+03  0.94063940459E+03  0.00000000000E+00 0. -1.
<mgrwt>
<rscale>  2 0.13403405E+04</rscale>
<asrwt>0</asrwt>
<pdfrwt beam="2">  1        2 0.37874591E+00 0.13403405E+04</pdfrwt>
<pdfrwt beam="1">  1       -2 0.11818967E+00 0.13403405E+04</pdfrwt>
<totfact> 0.30239627E+00</totfact>
</mgrwt>
</event>
<event>
 8    1  0.1408247E-005  0.1204257E+04  0.7818608E-02  0.8603364E-01
          1   -1    0    0  502    0  0.00000000000E+00  0.00000000000E+00  0.15896968984E+04  0.15896968984E+04  0.00000000000E+00 0.  1.
         -1   -1    0    0    0  501 -0.00000000000E+00 -0.00000000000E+00 -0.99790955364E+03  0.99790955364E+03  0.00000000000E+00 0. -1.
    9000010    2    1    2  502    0  0.66463374504E+03 -0.24580687496E+03 -0.74496334145E+02  0.12385566768E+04  0.10130715192E+04 0.  0.
   -9000010    2    1    2    0  501 -0.66463374504E+03  0.24580687496E+03  0.66628367894E+03  0.13490497753E+04  0.93479533624E+03 0.  0.
        -13    1    3    3    0    0  0.27983579405E+03 -0.56084874938E+03  0.21558451112E+03  0.66282432357E+03  0.10566000000E+00 0.  1.
          4    1    3    3  502    0  0.38479795099E+03  0.31504187442E+03 -0.29008084526E+03  0.57573235320E+03  0.00000000000E+00 0.  1.
         13    1    4    4    0    0 -0.55017368853E+03 -0.19098728797E+03  0.68251688919E+03  0.89721599791E+03  0.10566000000E+00 0. -1.
         -4    1    4    4    0  501 -0.11446005651E+03  0.43679416292E+03 -0.16233210242E+02  0.45183377742E+03  0.00000000000E+00 0. -1.
<mgrwt>
<rscale>  2 0.12042569E+04</rscale>
<asrwt>0</asrwt>
<pdfrwt beam="1">  1        1 0.24456875E+00 0.12042569E+04</pdfrwt>
<pdfrwt beam="2">  1       -1 0.15352455E+00 0.12042569E+04</pdfrwt>
<totfact> 0.25684673E+00</totfact>
</mgrwt>
</event>
<event>
 8    1  0.1408247E-005  0.1357005E+04  0.7818608E-02  0.8496870E-01
         -1   -1    0    0    0  501 -0.00000000000E+00  0.00000000000E+00  0.13448001956E+04  0.13448001956E+04  0.00000000000E+00 0.  1.
          1   -1    0    0  502    0  0.00000000000E+00 -0.00000000000E+00 -0.14475761645E+04  0.14475761645E+04  0.00000000000E+00 0. -1.
    9000010    2    1    2  502    0  0.90497897170E+03 -0.75783488953E+02  0.27278581625E+03  0.13929295430E+04  0.10203482414E+04 0.  0.
   -9000010    2    1    2    0  501 -0.90497897170E+03  0.75783488953E+02 -0.37556178516E+03  0.13994468171E+04  0.99633059927E+03 0.  0.
        -13    1    3    3    0    0  0.79127756986E+03 -0.48672494207E+03  0.10571665230E+03  0.93498523172E+03  0.10566000000E+00 0.  1.
          4    1    3    3  502    0  0.11370140184E+03  0.41094145312E+03  0.16706916395E+03  0.45794431126E+03  0.00000000000E+00 0.  1.
         13    1    4    4    0    0  0.67395471456E+02 -0.18892943193E+02  0.23646155467E+03  0.24660326615E+03  0.10566000000E+00 0. -1.
         -4    1    4    4    0  501 -0.97237444315E+03  0.94676432145E+02 -0.61202333983E+03  0.11528435510E+04  0.00000000000E+00 0. -1.
<mgrwt>
<rscale>  2 0.13570053E+04</rscale>
<asrwt>0</asrwt>
<pdfrwt beam="2">  1        1 0.22270402E+00 0.13570053E+04</pdfrwt>
<pdfrwt beam="1">  1       -1 0.20689234E+00 0.13570053E+04</pdfrwt>
<totfact> 0.10920233E+00</totfact>
</mgrwt>
</event>
<event>
 8    1  0.1408247E-005  0.1056206E+04  0.7818608E-02  0.8723501E-01
         -1   -1    0    0    0  501 -0.00000000000E+00  0.00000000000E+00  0.91011846493E+03  0.91011846493E+03  0.00000000000E+00 0. -1.
          1   -1    0    0  502    0  0.00000000000E+00 -0.00000000000E+00 -0.12316261857E+04  0.12316261857E+04  0.00000000000E+00 0.  1.
    9000010    2    1    2  502    0  0.27770071713E+03 -0.26736582039E+03 -0.23558103722E+03  0.10941982834E+04  0.99657879174E+03 0.  0.
   -9000010    2    1    2    0  501 -0.27770071713E+03  0.26736582039E+03 -0.85926683512E+02  0.10475463672E+04  0.97024111757E+03 0.  0.
        -13    1    3    3    0    0  0.55247330360E+03 -0.11022436160E+03 -0.44221285712E+03  0.71619018650E+03  0.10566000000E+00 0.  1.
          4    1    3    3  502    0 -0.27477258647E+03 -0.15714145879E+03  0.20663181990E+03  0.37800809692E+03  0.00000000000E+00 0.  1.
         13    1    4    4    0    0  0.23119370928E+03  0.19290336696E+03  0.28408453243E+03  0.41396409618E+03  0.10566000000E+00 0. -1.
         -4    1    4    4    0  501 -0.50889442641E+03  0.74462453430E+02 -0.37001121594E+03  0.63358227100E+03  0.00000000000E+00 0. -1.
<mgrwt>
<rscale>  2 0.10562055E+04</rscale>
<asrwt>0</asrwt>
<pdfrwt beam="2">  1        1 0.18948095E+00 0.10562055E+04</pdfrwt>
<pdfrwt beam="1">  1       -1 0.14001823E+00 0.10562055E+04</pdfrwt>
<totfact> 0.63482098E+00</totfact>
</mgrwt>
</event>
<event>
 8    1  0.1408247E-005  0.1076381E+04  0.7818608E-02  0.8705960E-01
         -2   -1    0    0    0  501 -0.00000000000E+00  0.00000000000E+00  0.78205104512E+03  0.78205104512E+03  0.00000000000E+00 0.  1.
          2   -1    0    0  502    0  0.00000000000E+00 -0.00000000000E+00 -0.18562643622E+04  0.18562643622E+04  0.00000000000E+00 0. -1.
    9000010    2    1    2  502    0  0.13148274485E+03  0.38916319105E+03  0.41271227326E+02  0.11104206232E+04  0.10308224603E+04 0.  0.
   -9000010    2    1    2    0  501 -0.13148274485E+03 -0.38916319105E+03 -0.11154845444E+04  0.15278947841E+04  0.95990676687E+03 0.  0.
        -13    1    3    3    0    0  0.86498935809E+02 -0.19831754575E+03  0.37524338242E+03  0.43315069210E+03  0.10566000000E+00 0.  1.
          4    1    3    3  502    0  0.44983809040E+02  0.58748073680E+03 -0.33397215509E+03  0.67726993109E+03  0.00000000000E+00 0.  1.
         13    1    4    4    0    0  0.41040600587E+03 -0.20206451507E+03 -0.37553505131E+03  0.59185280588E+03  0.10566000000E+00 0. -1.
         -4    1    4    4    0  501 -0.54188875072E+03 -0.18709867597E+03 -0.73994949307E+03  0.93604197823E+03  0.00000000000E+00 0. -1.
<mgrwt>
<rscale>  2 0.10763807E+04</rscale>
<asrwt>0</asrwt>
<pdfrwt beam="2">  1        2 0.28557913E+00 0.10763807E+04</pdfrwt>
<pdfrwt beam="1">  1       -2 0.12031555E+00 0.10763807E+04</pdfrwt>
<totfact> 0.63800896E+00</totfact>
</mgrwt>
</event>
<event>
 8    1  0.1408247E-005  0.1229929E+04  0.7818608E-02  0.8584359E-01
         -1   -1    0    0    0  501 -0.00000000000E+00  0.00000000000E+00  0.12440640981E+04  0.12440640981E+04  0.00000000000E+00 0. -1.
          1   -1    0    0  502    0  0.00000000000E+00 -0.00000000000E+00 -0.14729287168E+04  0.14729287168E+04  0.00000000000E+00 0.  1.
    9000010    2    1    2  502    0 -0.71440611955E+03 -0.60209858288E+01  0.45334063330E+03  0.13063428414E+04  0.99528967318E+03 0.  0.
   -9000010    2    1    2    0  501  0.71440611955E+03  0.60209858288E+01 -0.68220525198E+03  0.14106499734E+04  0.10070337561E+04 0.  0.
        -13    1    3    3    0    0 -0.79479762272E+03  0.13948868863E+02  0.69186885216E+03  0.10538407621E+04  0.10566000000E+00 0.  1.
          4    1    3    3  502    0  0.80391503168E+02 -0.19969854692E+02 -0.23852821886E+03  0.25250207934E+03  0.00000000000E+00 0.  1.
         13    1    4    4    0    0  0.62058437951E+03 -0.43854581488E+03 -0.54800383871E+03  0.93688613089E+03  0.10566000000E+00 0. -1.
         -4    1    4    4    0  501  0.93821740037E+02  0.44456680071E+03 -0.13420141327E+03  0.47376384256E+03  0.00000000000E+00 0. -1.
<mgrwt>
<rscale>  2 0.12299292E+04</rscale>
<asrwt>0</asrwt>
<pdfrwt beam="2">  1        1 0.22660442E+00 0.12299292E+04</pdfrwt>
<pdfrwt beam="1">  1       -1 0.19139448E+00 0.12299292E+04</pdfrwt>
<totfact> 0.14632366E+00</totfact>
</mgrwt>
</event>
<event>
 8    1  0.1408247E-005  0.1192387E+04  0.7818608E-02  0.8612318E-01
         -2   -1    0    0    0  501 -0.00000000000E+00  0.00000000000E+00  0.10152948168E+04  0.10152948168E+04  0.00000000000E+00 0. -1.
          2   -1    0    0  502    0  0.00000000000E+00 -0.00000000000E+00 -0.15638565436E+04  0.15638565436E+04  0.00000000000E+00 0.  1.
    9000010    2    1    2  502    0  0.66125223118E+03  0.14611167697E+03  0.14489977665E+03  0.11895897724E+04  0.96722528186E+03 0.  0.
   -9000010    2    1    2    0  501 -0.66125223118E+03 -0.14611167697E+03 -0.69346150348E+03  0.13895615880E+04  0.99568539945E+03 0.  0.
        -13    1    3    3    0    0  0.73998712684E+03  0.18535353951E+03 -0.23611323436E+03  0.79855266144E+03  0.10566000000E+00 0.  1.
          4    1    3    3  502    0 -0.78734895654E+02 -0.39241862540E+02  0.38101301101E+03  0.39103711093E+03  0.00000000000E+00 0.  1.
         13    1    4    4    0    0 -0.86013154084E+02 -0.40924030009E+03 -0.62680083046E+03  0.75349530730E+03  0.10566000000E+00 0. -1.
         -4    1    4    4    0  501 -0.57523907710E+03  0.26312862312E+03 -0.66660673022E+02  0.63606628071E+03  0.00000000000E+00 0. -1.
<mgrwt>
<rscale>  2 0.11923866E+04</rscale>
<asrwt>0</asrwt>
<pdfrwt beam="2">  1        2 0.24059331E+00 0.11923866E+04</pdfrwt>
<pdfrwt beam="1">  1       -2 0.15619920E+00 0.11923866E+04</pdfrwt>
<totfact> 0.42842133E+00</totfact>
</mgrwt>
</event>
<event>
 8    1  0.1408247E-005  0.1091755E+04  0.7818608E-02  0.8692860E-01
          2   -1    0    0  502    0  0.00000000000E+00  0.00000000000E+00  0.25205059064E+04  0.25205059064E+04  0.00000000000E+00 0. -1.
         -2   -1    0    0    0  501 -0.00000000000E+00 -0.00000000000E+00 -0.48655097192E+03  0.48655097192E+03  0.00000000000E+00 0.  1.
    9000010    2    1    2  502    0 -0.40528232671E+03 -0.19560109562E+03  0.12595499630E+04  0.16604110488E+04  0.98386238300E+03 0.  0.
   -9000010    2    1    2    0  501  0.40528232671E+03  0.19560109562E+03  0.77440497156E+03  0.13466458296E+04  0.10056034892E+04 0.  0.
        -13    1    3    3    0    0 -0.25275233332E+02  0.20346554853E+03 -0.73617669028E+02  0.21784544800E+03  0.10566000000E+00 0.  1.
          4    1    3    3  502    0 -0.38000709337E+03 -0.39906664415E+03  0.13331676320E+04  0.14425656008E+04  0.00000000000E+00 0.  1.
         13    1    4    4    0    0  0.30359084998E+03  0.58484262062E+03  0.29827816969E+03  0.72331056453E+03  0.10566000000E+00 0. -1.
         -4    1    4    4    0  501  0.10169147672E+03 -0.38924152500E+03  0.47612680187E+03  0.62333526507E+03  0.00000000000E+00 0. -1.
<mgrwt>
<rscale>  2 0.10917551E+04</rscale>
<asrwt>0</asrwt>
<pdfrwt beam="1">  1        2 0.38777013E+00 0.10917551E+04</pdfrwt>
<pdfrwt beam="2">  1       -2 0.74853997E-01 0.10917551E+04</pdfrwt>
<totfact> 0.84484299E+00</totfact>
</mgrwt>
</event>
<event>
 8    1  0.1408247E-005  0.1149223E+04  0.7818608E-02  0.8645812E-01
          1   -1    0    0  502    0  0.00000000000E+00  0.00000000000E+00  0.13976743830E+04  0.13976743830E+04  0.00000000000E+00 0. -1.
         -1   -1    0    0    0  501 -0.00000000000E+00 -0.00000000000E+00 -0.94980754162E+03  0.94980754162E+03  0.00000000000E+00 0.  1.
    9000010    2    1    2  502    0  0.37275505965E+03  0.35830934152E+03  0.30763915695E+03  0.11880061115E+04  0.10243948220E+04 0.  0.
   -9000010    2    1    2    0  501 -0.37275505965E+03 -0.35830934152E+03  0.14022768443E+03  0.11594758131E+04  0.10282939458E+04 0.  0.
        -13    1    3    3    0    0  0.47838066161E+03  0.58421195629E+03 -0.44630078537E+02  0.75640169377E+03  0.10566000000E+00 0.  1.
          4    1    3    3  502    0 -0.10562560196E+03 -0.22590261476E+03  0.35226923548E+03  0.43160441774E+03  0.00000000000E+00 0.  1.
         13    1    4    4    0    0 -0.10109313502E+03  0.36469632493E+03  0.55151565619E+02  0.38244599320E+03  0.10566000000E+00 0. -1.
         -4    1    4    4    0  501 -0.27166192463E+03 -0.72300566645E+03  0.85076118806E+02  0.77702981990E+03  0.00000000000E+00 0. -1.
<mgrwt>
<rscale>  2 0.11492225E+04</rscale>
<asrwt>0</asrwt>
<pdfrwt beam="1">  1        1 0.21502683E+00 0.11492225E+04</pdfrwt>
<pdfrwt beam="2">  1       -1 0.14612424E+00 0.11492225E+04</pdfrwt>
<totfact> 0.41642772E+00</totfact>
</mgrwt>
</event>
<event>
 8    1  0.1408247E-005  0.1670517E+04  0.7818608E-02  0.8317601E-01
          1   -1    0    0  502    0  0.00000000000E+00  0.00000000000E+00  0.19957491992E+04  0.19957491992E+04  0.00000000000E+00 0. -1.
         -1   -1    0    0    0  501 -0.00000000000E+00 -0.00000000000E+00 -0.20691444487E+04  0.20691444487E+04  0.00000000000E+00 0.  1.
    9000010    2    1    2  502    0 -0.13233927893E+04 -0.54796823924E+02 -0.11939877671E+04  0.20537551041E+04  0.10187895135E+04 0.  0.
   -9000010    2    1    2    0  501  0.13233927893E+04  0.54796823924E+02  0.11205925176E+04  0.20111385438E+04  0.10171428047E+04 0.  0.
        -13    1    3    3    0    0 -0.23412773103E+03 -0.22096772935E+03  0.11580241819E+03  0.34212971674E+03  0.10566000000E+00 0.  1.
          4    1    3    3  502    0 -0.10892650583E+04  0.16617090543E+03 -0.13097901853E+04  0.17116253873E+04  0.00000000000E+00 0.  1.
         13    1    4    4    0    0  0.67041219390E+02  0.14581968587E+03 -0.15164646820E+03  0.22080436673E+03  0.10566000000E+00 0. -1.
         -4    1    4    4    0  501  0.12563515699E+04 -0.91022861951E+02  0.12722389858E+04  0.17903341771E+04  0.00000000000E+00 0. -1.
<mgrwt>
<rscale>  2 0.16705168E+04</rscale>
<asrwt>0</asrwt>
<pdfrwt beam="1">  1        1 0.30703834E+00 0.16705168E+04</pdfrwt>
<pdfrwt beam="2">  1       -1 0.31832991E+00 0.16705168E+04</pdfrwt>
<totfact> 0.39950621E-02</totfact>
</mgrwt>
</event>
<event>
 8    1  0.1408247E-005  0.1183306E+04  0.7818608E-02  0.8619241E-01
          2   -1    0    0  502    0  0.00000000000E+00  0.00000000000E+00  0.32033271502E+04  0.32033271502E+04  0.00000000000E+00 0.  1.
         -2   -1    0    0    0  501 -0.00000000000E+00 -0.00000000000E+00 -0.46765692213E+03  0.46765692213E+03  0.00000000000E+00 0. -1.
    9000010    2    1    2  502    0 -0.63913637783E+03 -0.20131854825E+02  0.90508907215E+03  0.14943831812E+04  0.10025438956E+04 0.  0.
   -9000010    2    1    2    0  501  0.63913637783E+03  0.20131854825E+02  0.18305811560E+04  0.21766008912E+04  0.98876866347E+03 0.  0.
        -13    1    3    3    0    0  0.26659091770E+03 -0.88053720564E+02  0.22147771609E+03  0.35759832913E+03  0.10566000000E+00 0.  1.
          4    1    3    3  502    0 -0.90572729554E+03  0.67921865739E+02  0.68361135605E+03  0.11367848521E+04  0.00000000000E+00 0.  1.
         13    1    4    4    0    0  0.47277507773E+03  0.38168586316E+03  0.16116069449E+04  0.17223464600E+04  0.10566000000E+00 0. -1.
         -4    1    4    4    0  501  0.16636130011E+03 -0.36155400833E+03  0.21897421101E+03  0.45425443113E+03  0.00000000000E+00 0. -1.
<mgrwt>
<rscale>  2 0.11833057E+04</rscale>
<asrwt>0</asrwt>
<pdfrwt beam="1">  1        2 0.49281955E+00 0.11833057E+04</pdfrwt>
<pdfrwt beam="2">  1       -2 0.71947221E-01 0.11833057E+04</pdfrwt>
<totfact> 0.35294864E+00</totfact>
</mgrwt>
</event>
<event>
 8    1  0.1408247E-005  0.1054949E+04  0.7818608E-02  0.8724607E-01
          1   -1    0    0  502    0  0.00000000000E+00  0.00000000000E+00  0.84309578870E+03  0.84309578870E+03  0.00000000000E+00 0.  1.
         -1   -1    0    0    0  501 -0.00000000000E+00 -0.00000000000E+00 -0.16403548472E+04  0.16403548472E+04  0.00000000000E+00 0. -1.
    9000010    2    1    2  502    0 -0.32795023948E+03 -0.96462239544E+02  0.14967891676E+03  0.10668325054E+04  0.99943558733E+03 0.  0.
   -9000010    2    1    2    0  501  0.32795023948E+03  0.96462239544E+02 -0.94693797530E+03  0.14166181305E+04  0.99662383850E+03 0.  0.
        -13    1    3    3    0    0 -0.58625010385E+03 -0.31695465085E+03 -0.57654253603E+02  0.66893457011E+03  0.10566000000E+00 0.  1.
          4    1    3    3  502    0  0.25829986437E+03  0.22049241131E+03  0.20733317036E+03  0.39789793529E+03  0.00000000000E+00 0.  1.
         13    1    4    4    0    0 -0.21730266680E+03 -0.27658580685E+03 -0.15250780114E+03  0.38337813986E+03  0.10566000000E+00 0. -1.
         -4    1    4    4    0  501  0.54525290628E+03  0.37304804639E+03 -0.79443017416E+03  0.10332399907E+04  0.00000000000E+00 0. -1.
<mgrwt>
<rscale>  2 0.10549493E+04</rscale>
<asrwt>0</asrwt>
<pdfrwt beam="1">  1        1 0.12970705E+00 0.10549493E+04</pdfrwt>
<pdfrwt beam="2">  1       -1 0.25236228E+00 0.10549493E+04</pdfrwt>
<totfact> 0.12722693E+00</totfact>
</mgrwt>
</event>
<event>
 8    1  0.1408247E-005  0.1233508E+04  0.7818608E-02  0.8581749E-01
         -4   -1    0    0    0  501 -0.00000000000E+00  0.00000000000E+00  0.41929859688E+04  0.41929859688E+04  0.00000000000E+00 0. -1.
          4   -1    0    0  502    0  0.00000000000E+00 -0.00000000000E+00 -0.38894905796E+03  0.38894905796E+03  0.00000000000E+00 0.  1.
    9000010    2    1    2  502    0 -0.65226455309E+03  0.29971728871E+03  0.24946268575E+04  0.27827684048E+04  0.10026750901E+04 0.  0.
   -9000010    2    1    2    0  501  0.65226455309E+03 -0.29971728871E+03  0.13094100533E+04  0.17991666219E+04  0.10035767760E+04 0.  0.
        -13    1    3    3    0    0 -0.19416861073E+03  0.35545292586E+03  0.21961359621E+04  0.22331729460E+04  0.10566000000E+00 0.  1.
          4    1    3    3  502    0 -0.45809594236E+03 -0.55735637146E+02  0.29849089540E+03  0.54959545876E+03  0.00000000000E+00 0.  1.
         13    1    4    4    0    0  0.56844888161E+03 -0.65032181429E+03  0.10221596236E+04  0.13382312582E+04  0.10566000000E+00 0. -1.
         -4    1    4    4    0  501  0.83815671474E+02  0.35060452558E+03  0.28725042977E+03  0.46093536374E+03  0.00000000000E+00 0. -1.
<mgrwt>
<rscale>  2 0.12335076E+04</rscale>
<asrwt>0</asrwt>
<pdfrwt beam="2">  1        4 0.59838320E-01 0.12335076E+04</pdfrwt>
<pdfrwt beam="1">  1       -4 0.64507473E+00 0.12335076E+04</pdfrwt>
<totfact> 0.25087575E-02</totfact>
</mgrwt>
</event>
<event>
 8    1  0.1408247E-005  0.1362283E+04  0.7818608E-02  0.8493452E-01
          2   -1    0    0  502    0  0.00000000000E+00  0.00000000000E+00  0.47539204820E+03  0.47539204820E+03  0.00000000000E+00 0.  1.
         -2   -1    0    0    0  501 -0.00000000000E+00 -0.00000000000E+00 -0.39544546971E+04  0.39544546971E+04  0.00000000000E+00 0. -1.
    9000010    2    1    2  502    0 -0.42027726577E+03 -0.81727250485E+03 -0.14849263713E+04  0.20130813753E+04  0.10014604176E+04 0.  0.
   -9000010    2    1    2    0  501  0.42027726577E+03  0.81727250485E+03 -0.19941362776E+04  0.24167653700E+04  0.10097564226E+04 0.  0.
        -13    1    3    3    0    0 -0.32794264346E+03  0.88027329654E+02 -0.96469934422E+02  0.35298958565E+03  0.10566000000E+00 0.  1.
          4    1    3    3  502    0 -0.92334622318E+02 -0.90529983450E+03 -0.13884564369E+04  0.16600917897E+04  0.00000000000E+00 0.  1.
         13    1    4    4    0    0  0.59224888764E+03  0.75306677740E+03 -0.20158376745E+04  0.22319206655E+04  0.10566000000E+00 0. -1.
         -4    1    4    4    0  501 -0.17197162186E+03  0.64205727450E+02  0.21701396891E+02  0.18484470452E+03  0.00000000000E+00 0. -1.
<mgrwt>
<rscale>  2 0.13622827E+04</rscale>
<asrwt>0</asrwt>
<pdfrwt beam="1">  1        2 0.73137237E-01 0.13622827E+04</pdfrwt>
<pdfrwt beam="2">  1       -2 0.60837765E+00 0.13622827E+04</pdfrwt>
<totfact> 0.41587303E-01</totfact>
</mgrwt>
</event>
<event>
 8    1  0.1408247E-005  0.1280112E+04  0.7818608E-02  0.8548560E-01
          2   -1    0    0  502    0  0.00000000000E+00  0.00000000000E+00  0.13118726399E+04  0.13118726399E+04  0.00000000000E+00 0.  1.
         -2   -1    0    0    0  501 -0.00000000000E+00 -0.00000000000E+00 -0.12541055770E+04  0.12541055770E+04  0.00000000000E+00 0. -1.
    9000010    2    1    2  502    0 -0.64066954202E+03  0.63523650639E+03 -0.20631009257E+02  0.13445920047E+04  0.99675430250E+03 0.  0.
   -9000010    2    1    2    0  501  0.64066954202E+03 -0.63523650639E+03  0.78398072105E+02  0.12213862121E+04  0.81954569145E+03 0.  0.
        -13    1    3    3    0    0  0.11497571806E+03  0.29932440960E+03  0.31744936793E+03  0.45120796789E+03  0.10566000000E+00 0.  1.
          4    1    3    3  502    0 -0.75564526008E+03  0.33591209679E+03 -0.33808037719E+03  0.89338403685E+03  0.00000000000E+00 0.  1.
         13    1    4    4    0    0  0.70048340025E+03 -0.32406135497E+03 -0.20250024661E+03  0.79793428103E+03  0.10566000000E+00 0. -1.
         -4    1    4    4    0  501 -0.59813858233E+02 -0.31117515142E+03  0.28089831871E+03  0.42345193110E+03  0.00000000000E+00 0. -1.
<mgrwt>
<rscale>  2 0.12801119E+04</rscale>
<asrwt>0</asrwt>
<pdfrwt beam="1">  1        2 0.20182656E+00 0.12801119E+04</pdfrwt>
<pdfrwt beam="2">  1       -2 0.19293932E+00 0.12801119E+04</pdfrwt>
<totfact> 0.28674510E+00</totfact>
</mgrwt>
</event>
<event>
 8    1  0.1408247E-005  0.1287547E+04  0.7818608E-02  0.8543401E-01
          2   -1    0    0  502    0  0.00000000000E+00  0.00000000000E+00  0.33449123445E+04  0.33449123445E+04  0.00000000000E+00 0. -1.
         -2   -1    0    0    0  501 -0.00000000000E+00 -0.00000000000E+00 -0.51473167558E+03  0.51473167558E+03  0.00000000000E+00 0.  1.
    9000010    2    1    2  502    0  0.38032145343E+03  0.69260578632E+03  0.17791183747E+04  0.21918696285E+04  0.10073147938E+04 0.  0.
   -9000010    2    1    2    0  501 -0.38032145343E+03 -0.69260578632E+03  0.10510622943E+04  0.16677743917E+04  0.10258617314E+04 0.  0.
        -13    1    3    3    0    0  0.21607816694E+03  0.49743462663E+03  0.18494001431E+04  0.19272809558E+04  0.10566000000E+00 0.  1.
          4    1    3    3  502    0  0.16424328648E+03  0.19517115969E+03 -0.70281768435E+02  0.26458867267E+03  0.00000000000E+00 0.  1.
         13    1    4    4    0    0 -0.28554275947E+03 -0.29118605628E+02  0.94697542118E+03  0.98951756941E+03  0.10566000000E+00 0. -1.
         -4    1    4    4    0  501 -0.94778693952E+02 -0.66348718069E+03  0.10408687307E+03  0.67825682224E+03  0.00000000000E+00 0. -1.
<mgrwt>
<rscale>  2 0.12875471E+04</rscale>
<asrwt>0</asrwt>
<pdfrwt beam="1">  1        2 0.51460189E+00 0.12875471E+04</pdfrwt>
<pdfrwt beam="2">  1       -2 0.79189491E-01 0.12875471E+04</pdfrwt>
<totfact> 0.22798267E+00</totfact>
</mgrwt>
</event>
<event>
 8    1  0.1408247E-005  0.1857101E+04  0.7818608E-02  0.8229191E-01
         -2   -1    0    0    0  501 -0.00000000000E+00  0.00000000000E+00  0.34756762469E+04  0.34756762469E+04  0.00000000000E+00 0. -1.
          2   -1    0    0  502    0  0.00000000000E+00 -0.00000000000E+00 -0.14007392078E+04  0.14007392078E+04  0.00000000000E+00 0.  1.
    9000010    2    1    2  502    0 -0.31536028896E+03  0.15285963871E+04  0.23546636306E+04  0.29997372913E+04  0.10089221860E+04 0.  0.
   -9000010    2    1    2    0  501  0.31536028896E+03 -0.15285963871E+04 -0.27972659149E+03  0.18766781633E+04  0.10038002472E+04 0.  0.
        -13    1    3    3    0    0 -0.28802564106E+03  0.13039954161E+04  0.11153330494E+04  0.17399225952E+04  0.10566000000E+00 0.  1.
          4    1    3    3  502    0 -0.27334647902E+02  0.22460097102E+03  0.12393305811E+04  0.12598146961E+04  0.00000000000E+00 0.  1.
         13    1    4    4    0    0  0.37785221769E+03 -0.54118610308E+03  0.30534295723E+03  0.72724757083E+03  0.10566000000E+00 0. -1.
         -4    1    4    4    0  501 -0.62491928730E+02 -0.98741028403E+03 -0.58506954872E+03  0.11494305925E+04  0.00000000000E+00 0. -1.
<mgrwt>
<rscale>  2 0.18571011E+04</rscale>
<asrwt>0</asrwt>
<pdfrwt beam="2">  1        2 0.21549834E+00 0.18571011E+04</pdfrwt>
<pdfrwt beam="1">  1       -2 0.53471942E+00 0.18571011E+04</pdfrwt>
<totfact> 0.67343400E-02</totfact>
</mgrwt>
</event>
<event>
 8    1  0.1408247E-005  0.1455089E+04  0.7818608E-02  0.8435824E-01
          2   -1    0    0  502    0  0.00000000000E+00  0.00000000000E+00  0.27341936785E+04  0.27341936785E+04  0.00000000000E+00 0. -1.
         -2   -1    0    0    0  501 -0.00000000000E+00 -0.00000000000E+00 -0.77746011802E+03  0.77746011802E+03  0.00000000000E+00 0.  1.
    9000010    2    1    2  502    0 -0.98807157114E+03 -0.37556162005E+03  0.87018093540E+03  0.16984849096E+04  0.10051388798E+04 0.  0.
   -9000010    2    1    2    0  501  0.98807157114E+03  0.37556162005E+03  0.10865526251E+04  0.18131688870E+04  0.99481297003E+03 0.  0.
        -13    1    3    3    0    0  0.46367641546E+02 -0.27422459276E+02 -0.17754794029E+03  0.18554037760E+03  0.10566000000E+00 0.  1.
          4    1    3    3  502    0 -0.10344392127E+04 -0.34813916077E+03  0.10477288757E+04  0.15129445320E+04  0.00000000000E+00 0.  1.
         13    1    4    4    0    0  0.26445935684E+03 -0.32141689554E+03  0.49703092923E+03  0.64829571026E+03  0.10566000000E+00 0. -1.
         -4    1    4    4    0  501  0.72361221429E+03  0.69697851559E+03  0.58952169588E+03  0.11648731767E+04  0.00000000000E+00 0. -1.
<mgrwt>
<rscale>  2 0.14550894E+04</rscale>
<asrwt>0</asrwt>
<pdfrwt beam="1">  1        2 0.42064518E+00 0.14550894E+04</pdfrwt>
<pdfrwt beam="2">  1       -2 0.11960925E+00 0.14550894E+04</pdfrwt>
<totfact> 0.20194684E+00</totfact>
</mgrwt>
</event>
<event>
 8    1  0.1408247E-005  0.1257401E+04  0.7818608E-02  0.8564547E-01
         -2   -1    0    0    0  501 -0.00000000000E+00  0.00000000000E+00  0.10845054405E+04  0.10845054405E+04  0.00000000000E+00 0. -1.
          2   -1    0    0  502    0  0.00000000000E+00 -0.00000000000E+00 -0.14689205147E+04  0.14689205147E+04  0.00000000000E+00 0.  1.
    9000010    2    1    2  502    0  0.28561945145E+03 -0.69974381621E+03 -0.80349339557E+02  0.12495292141E+04  0.99178997832E+03 0.  0.
   -9000010    2    1    2    0  501 -0.28561945145E+03  0.69974381621E+03 -0.30406573458E+03  0.13038967411E+04  0.10180721296E+04 0.  0.
        -13    1    3    3    0    0  0.57799934713E+03 -0.15408017025E+03 -0.17504371856E+03  0.62326900991E+03  0.10566000000E+00 0.  1.
          4    1    3    3  502    0 -0.29237989568E+03 -0.54566364596E+03  0.94694379000E+02  0.62626020417E+03  0.00000000000E+00 0.  1.
         13    1    4    4    0    0  0.21552415194E+03  0.22285575929E+03 -0.49694881050E+03  0.58572474844E+03  0.10566000000E+00 0. -1.
         -4    1    4    4    0  501 -0.50114360339E+03  0.47688805693E+03  0.19288307592E+03  0.71817199265E+03  0.00000000000E+00 0. -1.
<mgrwt>
<rscale>  2 0.12574014E+04</rscale>
<asrwt>0</asrwt>
<pdfrwt beam="2">  1        2 0.22598777E+00 0.12574014E+04</pdfrwt>
<pdfrwt beam="1">  1       -2 0.16684699E+00 0.12574014E+04</pdfrwt>
<totfact> 0.38842643E+00</totfact>
</mgrwt>
</event>
<event>
 8    1  0.1408247E-005  0.1061492E+04  0.7818608E-02  0.8718866E-01
          2   -1    0    0  502    0  0.00000000000E+00  0.00000000000E+00  0.24489319221E+04  0.24489319221E+04  0.00000000000E+00 0.  1.
         -2   -1    0    0    0  501 -0.00000000000E+00 -0.00000000000E+00 -0.48485677858E+03  0.48485677858E+03  0.00000000000E+00 0. -1.
    9000010    2    1    2  502    0  0.22131775491E+03  0.32271589326E+03  0.64812283879E+03  0.12412846303E+04  0.98366519861E+03 0.  0.
   -9000010    2    1    2    0  501 -0.22131775491E+03 -0.32271589326E+03  0.13159523048E+04  0.16925040704E+04  0.98980425511E+03 0.  0.
        -13    1    3    3    0    0 -0.29035570995E+03 -0.10080847642E+03  0.45586920847E+03  0.54980499599E+03  0.10566000000E+00 0.  1.
          4    1    3    3  502    0  0.51167346486E+03  0.42352436968E+03  0.19225363033E+03  0.69147963435E+03  0.00000000000E+00 0.  1.
         13    1    4    4    0    0  0.75662129019E+02 -0.49024948889E+03  0.21622842021E+03  0.54113220196E+03  0.10566000000E+00 0. -1.
         -4    1    4    4    0  501 -0.29697988393E+03  0.16753359564E+03  0.10997238846E+04  0.11513718684E+04  0.00000000000E+00 0. -1.
<mgrwt>
<rscale>  2 0.10614922E+04</rscale>
<asrwt>0</asrwt>
<pdfrwt beam="1">  1        2 0.37675875E+00 0.10614922E+04</pdfrwt>
<pdfrwt beam="2">  1       -2 0.74593352E-01 0.10614922E+04</pdfrwt>
<totfact> 0.93668943E+00</totfact>
</mgrwt>
</event>
<event>
 8    1  0.1408247E-005  0.1285541E+04  0.7818608E-02  0.8544789E-01
          2   -1    0    0  502    0  0.00000000000E+00  0.00000000000E+00  0.11043810769E+04  0.11043810769E+04  0.00000000000E+00 0. -1.
         -2   -1    0    0    0  501 -0.00000000000E+00 -0.00000000000E+00 -0.14995175161E+04  0.14995175161E+04  0.00000000000E+00 0.  1.
    9000010    2    1    2  502    0 -0.78727120418E+03  0.11395515683E+03 -0.25738370127E+03  0.13172124456E+04  0.10178509373E+04 0.  0.
   -9000010    2    1    2    0  501  0.78727120418E+03 -0.11395515683E+03 -0.13775273791E+03  0.12866861474E+04  0.10019000442E+04 0.  0.
        -13    1    3    3    0    0 -0.94686976184E+03 -0.16173839876E+03 -0.11214450555E+03  0.96710808952E+03  0.10566000000E+00 0.  1.
          4    1    3    3  502    0  0.15959855766E+03  0.27569355559E+03 -0.14523919572E+03  0.35010435612E+03  0.00000000000E+00 0.  1.
         13    1    4    4    0    0  0.31841151945E+03  0.37260052312E+03  0.20232095919E+03  0.53023657667E+03  0.10566000000E+00 0. -1.
         -4    1    4    4    0  501  0.46885968473E+03 -0.48655567995E+03 -0.34007369711E+03  0.75644957077E+03  0.00000000000E+00 0. -1.
<mgrwt>
<rscale>  2 0.12855409E+04</rscale>
<asrwt>0</asrwt>
<pdfrwt beam="1">  1        2 0.16990478E+00 0.12855409E+04</pdfrwt>
<pdfrwt beam="2">  1       -2 0.23069500E+00 0.12855409E+04</pdfrwt>
<totfact> 0.18497078E+00</totfact>
</mgrwt>
</event>
<event>
 8    1  0.1408247E-005  0.1002713E+04  0.7818608E-02  0.8772047E-01
          1   -1    0    0  502    0  0.00000000000E+00  0.00000000000E+00  0.10706654373E+04  0.10706654373E+04  0.00000000000E+00 0. -1.
         -1   -1    0    0    0  501 -0.00000000000E+00 -0.00000000000E+00 -0.11969859620E+04  0.11969859620E+04  0.00000000000E+00 0.  1.
    9000010    2    1    2  502    0 -0.15391814518E+03 -0.70691910054E+02 -0.58965213867E+03  0.11668439571E+04  0.99254573396E+03 0.  0.
   -9000010    2    1    2    0  501  0.15391814518E+03  0.70691910054E+02  0.46333161400E+03  0.11008074421E+04  0.98407962004E+03 0.  0.
        -13    1    3    3    0    0 -0.34772514549E+03 -0.22805638481E+03 -0.75880970152E+03  0.86528299749E+03  0.10566000000E+00 0.  1.
          4    1    3    3  502    0  0.19380700032E+03  0.15736447476E+03  0.16915756285E+03  0.30156095960E+03  0.00000000000E+00 0.  1.
         13    1    4    4    0    0  0.33559333601E+03 -0.47820702306E+02 -0.20636510660E+03  0.39685800374E+03  0.10566000000E+00 0. -1.
         -4    1    4    4    0  501 -0.18167519084E+03  0.11851261236E+03  0.66969672059E+03  0.70394943840E+03  0.00000000000E+00 0. -1.
<mgrwt>
<rscale>  2 0.10027129E+04</rscale>
<asrwt>0</asrwt>
<pdfrwt beam="1">  1        1 0.16471776E+00 0.10027129E+04</pdfrwt>
<pdfrwt beam="2">  1       -1 0.18415169E+00 0.10027129E+04</pdfrwt>
<totfact> 0.35371579E+00</totfact>
</mgrwt>
</event>
<event>
 8    1  0.1408247E-005  0.1190209E+04  0.7818608E-02  0.8613972E-01
         -1   -1    0    0    0  501 -0.00000000000E+00  0.00000000000E+00  0.72058811890E+03  0.72058811890E+03  0.00000000000E+00 0. -1.
          1   -1    0    0  502    0  0.00000000000E+00 -0.00000000000E+00 -0.20149815803E+04  0.20149815803E+04  0.00000000000E+00 0.  1.
    9000010    2    1    2  502    0  0.42509324022E+01 -0.68088284196E+03 -0.84862147458E+03  0.14454021264E+04  0.95153002316E+03 0.  0.
   -9000010    2    1    2    0  501 -0.42509324022E+01  0.68088284196E+03 -0.44577198683E+03  0.12901675728E+04  0.10010994890E+04 0.  0.
        -13    1    3    3    0    0 -0.33286284019E+03 -0.18625027025E+02 -0.55283203425E+03  0.64557558137E+03  0.10566000000E+00 0.  1.
          4    1    3    3  502    0  0.33711377259E+03 -0.66225781493E+03 -0.29578944032E+03  0.79982654502E+03  0.00000000000E+00 0.  1.
         13    1    4    4    0    0 -0.17716816894E+03  0.25611975634E+03 -0.69975335234E+03  0.76592470580E+03  0.10566000000E+00 0. -1.
         -4    1    4    4    0  501  0.17291723654E+03  0.42476308561E+03  0.25398136551E+03  0.52424286701E+03  0.00000000000E+00 0. -1.
<mgrwt>
<rscale>  2 0.11902092E+04</rscale>
<asrwt>0</asrwt>
<pdfrwt beam="2">  1        1 0.30999716E+00 0.11902092E+04</pdfrwt>
<pdfrwt beam="1">  1       -1 0.11085971E+00 0.11902092E+04</pdfrwt>
<totfact> 0.29282874E+00</totfact>
</mgrwt>
</event>
<event>
 8    1  0.1408247E-005  0.1110496E+04  0.7818608E-02  0.8677192E-01
         -2   -1    0    0    0  501 -0.00000000000E+00  0.00000000000E+00  0.47657854697E+03  0.47657854697E+03  0.00000000000E+00 0.  1.
          2   -1    0    0  502    0  0.00000000000E+00 -0.00000000000E+00 -0.27002105226E+04  0.27002105226E+04  0.00000000000E+00 0. -1.
    9000010    2    1    2  502    0  0.13852642772E+03  0.39012213760E+03 -0.14210926219E+04  0.17944042407E+04  0.10143951329E+04 0.  0.
   -9000010    2    1    2    0  501 -0.13852642772E+03 -0.39012213760E+03 -0.80253935377E+03  0.13823848289E+04  0.10466773846E+04 0.  0.
        -13    1    3    3    0    0 -0.17004382814E+02 -0.20551378856E+03  0.38971876393E+02  0.20986634947E+03  0.10566000000E+00 0.  1.
          4    1    3    3  502    0  0.15553081053E+03  0.59563592616E+03 -0.14600644983E+04  0.15845378912E+04  0.00000000000E+00 0.  1.
         13    1    4    4    0    0  0.30661947959E+03 -0.53695072592E+03 -0.27511499821E+03  0.67677164593E+03  0.10566000000E+00 0. -1.
         -4    1    4    4    0  501 -0.44514590731E+03  0.14682858833E+03 -0.52742435556E+03  0.70561318297E+03  0.00000000000E+00 0. -1.
<mgrwt>
<rscale>  2 0.11104962E+04</rscale>
<asrwt>0</asrwt>
<pdfrwt beam="2">  1        2 0.41541699E+00 0.11104962E+04</pdfrwt>
<pdfrwt beam="1">  1       -2 0.73319778E-01 0.11104962E+04</pdfrwt>
<totfact> 0.69530553E+00</totfact>
</mgrwt>
</event>
<event>
 8    1  0.1408247E-005  0.1213151E+04  0.7818608E-02  0.8596725E-01
          2   -1    0    0  502    0  0.00000000000E+00  0.00000000000E+00  0.42222134925E+04  0.42222134925E+04  0.00000000000E+00 0.  1.
         -2   -1    0    0    0  501 -0.00000000000E+00 -0.00000000000E+00 -0.34915317961E+03  0.34915317961E+03  0.00000000000E+00 0. -1.
    9000010    2    1    2  502    0 -0.54501364864E+03 -0.36302171016E+03  0.18144180960E+04  0.21637681480E+04  0.98028308768E+03 0.  0.
   -9000010    2    1    2    0  501  0.54501364864E+03  0.36302171016E+03  0.20586422169E+04  0.24075985241E+04  0.10628726343E+04 0.  0.
        -13    1    3    3    0    0 -0.35194641888E+03  0.16904304081E+03  0.17216339834E+03  0.42671076657E+03  0.10566000000E+00 0.  1.
          4    1    3    3  502    0 -0.19306722976E+03 -0.53206475098E+03  0.16422546977E+04  0.17370573814E+04  0.00000000000E+00 0.  1.
         13    1    4    4    0    0  0.33669575156E+03  0.55867171552E+03  0.49708448744E+03  0.82010433095E+03  0.10566000000E+00 0. -1.
         -4    1    4    4    0  501  0.20831789708E+03 -0.19565000535E+03  0.15615577294E+04  0.15874941931E+04  0.00000000000E+00 0. -1.
<mgrwt>
<rscale>  2 0.12131508E+04</rscale>
<asrwt>0</asrwt>
<pdfrwt beam="1">  1        2 0.64957127E+00 0.12131508E+04</pdfrwt>
<pdfrwt beam="2">  1       -2 0.53715877E-01 0.12131508E+04</pdfrwt>
<totfact> 0.97820806E-01</totfact>
</mgrwt>
</event>
<event>
 8    1  0.1408247E-005  0.1226877E+04  0.7818608E-02  0.8586594E-01
         -2   -1    0    0    0  501 -0.00000000000E+00  0.00000000000E+00  0.82200732846E+03  0.82200732846E+03  0.00000000000E+00 0.  1.
          2   -1    0    0  502    0  0.00000000000E+00 -0.00000000000E+00 -0.29792281607E+04  0.29792281607E+04  0.00000000000E+00 0. -1.
    9000010    2    1    2  502    0  0.52920641067E+03  0.45768755515E+03 -0.22614215440E+04  0.25754380472E+04  0.10145523212E+04 0.  0.
   -9000010    2    1    2    0  501 -0.52920641067E+03 -0.45768755515E+03  0.10420071170E+03  0.12257974419E+04  0.10010915328E+04 0.  0.
        -13    1    3    3    0    0  0.17512699047E+03 -0.24012766059E+03 -0.13113287218E+04  0.13445868451E+04  0.10566000000E+00 0.  1.
          4    1    3    3  502    0  0.35407942020E+03  0.69781521574E+03 -0.95009282211E+03  0.12308512021E+04  0.00000000000E+00 0.  1.
         13    1    4    4    0    0 -0.23752822860E+03 -0.31616271157E+03 -0.44047210785E+03  0.59194105157E+03  0.10566000000E+00 0. -1.
         -4    1    4    4    0  501 -0.29167818207E+03 -0.14152484358E+03  0.54467281956E+03  0.63385639037E+03  0.00000000000E+00 0. -1.
<mgrwt>
<rscale>  2 0.12268767E+04</rscale>
<asrwt>0</asrwt>
<pdfrwt beam="2">  1        2 0.45834280E+00 0.12268767E+04</pdfrwt>
<pdfrwt beam="1">  1       -2 0.12646266E+00 0.12268767E+04</pdfrwt>
<totfact> 0.12714855E+00</totfact>
</mgrwt>
</event>
<event>
 8    1  0.1408247E-005  0.1255956E+04  0.7818608E-02  0.8565577E-01
          2   -1    0    0  502    0  0.00000000000E+00  0.00000000000E+00  0.69471529193E+03  0.69471529193E+03  0.00000000000E+00 0.  1.
         -2   -1    0    0    0  501 -0.00000000000E+00 -0.00000000000E+00 -0.23157618845E+04  0.23157618845E+04  0.00000000000E+00 0. -1.
    9000010    2    1    2  502    0  0.74381542227E+03  0.17472739347E+03 -0.10177501634E+04  0.16130105599E+04  0.99105833667E+03 0.  0.
   -9000010    2    1    2    0  501 -0.74381542227E+03 -0.17472739347E+03 -0.60329642918E+03  0.13974666166E+04  0.10025743456E+04 0.  0.
        -13    1    3    3    0    0  0.51367097386E+03 -0.38561012901E+03 -0.58248424643E+03  0.86708762503E+03  0.10566000000E+00 0.  1.
          4    1    3    3  502    0  0.23014444842E+03  0.56033752248E+03 -0.43526591698E+03  0.74592293484E+03  0.00000000000E+00 0.  1.
         13    1    4    4    0    0 -0.31817748968E+03 -0.52346996205E+03 -0.46030249457E+02  0.61430978434E+03  0.10566000000E+00 0. -1.
         -4    1    4    4    0  501 -0.42563793259E+03  0.34874256859E+03 -0.55726617972E+03  0.78315683223E+03  0.00000000000E+00 0. -1.
<mgrwt>
<rscale>  2 0.12559559E+04</rscale>
<asrwt>0</asrwt>
<pdfrwt beam="1">  1        2 0.10687928E+00 0.12559559E+04</pdfrwt>
<pdfrwt beam="2">  1       -2 0.35627106E+00 0.12559559E+04</pdfrwt>
<totfact> 0.43801146E-01</totfact>
</mgrwt>
</event>
<event>
 8    1  0.1408247E-005  0.1096755E+04  0.7818608E-02  0.8688648E-01
         -1   -1    0    0    0  501 -0.00000000000E+00  0.00000000000E+00  0.77795871810E+03  0.77795871810E+03  0.00000000000E+00 0. -1.
          1   -1    0    0  502    0  0.00000000000E+00 -0.00000000000E+00 -0.15483025989E+04  0.15483025989E+04  0.00000000000E+00 0.  1.
    9000010    2    1    2  502    0 -0.42533445294E+02  0.47509119417E+03 -0.34152649243E+03  0.11467061426E+04  0.98527858783E+03 0.  0.
   -9000010    2    1    2    0  501  0.42533445294E+02 -0.47509119417E+03 -0.42881738838E+03  0.11795551744E+04  0.98992187580E+03 0.  0.
        -13    1    3    3    0    0 -0.50398329734E+03  0.25915242968E+03 -0.28430934486E+03  0.63402757081E+03  0.10566000000E+00 0.  1.
          4    1    3    3  502    0  0.46144985205E+03  0.21593876449E+03 -0.57217147572E+02  0.51267857176E+03  0.00000000000E+00 0.  1.
         13    1    4    4    0    0 -0.43509317978E+03 -0.34761403477E+02 -0.26114566968E+03  0.50863690608E+03  0.10566000000E+00 0. -1.
         -4    1    4    4    0  501  0.47762662507E+03 -0.44032979070E+03 -0.16767171869E+03  0.67091826835E+03  0.00000000000E+00 0. -1.
<mgrwt>
<rscale>  2 0.10967550E+04</rscale>
<asrwt>0</asrwt>
<pdfrwt beam="2">  1        1 0.23820040E+00 0.10967550E+04</pdfrwt>
<pdfrwt beam="1">  1       -1 0.11968596E+00 0.10967550E+04</pdfrwt>
<totfact> 0.55203333E+00</totfact>
</mgrwt>
</event>
<event>
 8    1  0.1408247E-005  0.1325715E+04  0.7818608E-02  0.8517468E-01
          2   -1    0    0  502    0  0.00000000000E+00  0.00000000000E+00  0.27182075207E+04  0.27182075207E+04  0.00000000000E+00 0. -1.
         -2   -1    0    0    0  501 -0.00000000000E+00 -0.00000000000E+00 -0.79118484119E+03  0.79118484119E+03  0.00000000000E+00 0.  1.
    9000010    2    1    2  502    0  0.65989876561E+03  0.54410357876E+03  0.17217094238E+04  0.21815044289E+04  0.10310980303E+04 0.  0.
   -9000010    2    1    2    0  501 -0.65989876561E+03 -0.54410357876E+03  0.20531325571E+03  0.13278879330E+04  0.99479532786E+03 0.  0.
        -13    1    3    3    0    0 -0.23367679971E+02  0.29622058955E+03 -0.16345292691E+02  0.29759009711E+03  0.10566000000E+00 0.  1.
          4    1    3    3  502    0  0.68326644558E+03  0.24788298921E+03  0.17380547165E+04  0.18839143318E+04  0.00000000000E+00 0.  1.
         13    1    4    4    0    0  0.20387992628E+03 -0.12176719274E+03 -0.17386912732E+03  0.29432084222E+03  0.10566000000E+00 0. -1.
         -4    1    4    4    0  501 -0.86377869189E+03 -0.42233638602E+03  0.37918238302E+03  0.10335670908E+04  0.00000000000E+00 0. -1.
<mgrwt>
<rscale>  2 0.13257152E+04</rscale>
<asrwt>0</asrwt>
<pdfrwt beam="1">  1        2 0.41818577E+00 0.13257152E+04</pdfrwt>
<pdfrwt beam="2">  1       -2 0.12172075E+00 0.13257152E+04</pdfrwt>
<totfact> 0.19984785E+00</totfact>
</mgrwt>
</event>
<event>
 8    1  0.1408247E-005  0.1089461E+04  0.7818608E-02  0.8694800E-01
         -2   -1    0    0    0  501 -0.00000000000E+00  0.00000000000E+00  0.18727377698E+04  0.18727377698E+04  0.00000000000E+00 0.  1.
          2   -1    0    0  502    0  0.00000000000E+00 -0.00000000000E+00 -0.64551682962E+03  0.64551682962E+03  0.00000000000E+00 0. -1.
    9000010    2    1    2  502    0 -0.12152660985E+03  0.39428988541E+03  0.43635666038E+03  0.11594708948E+04  0.99183284390E+03 0.  0.
   -9000010    2    1    2    0  501  0.12152660985E+03 -0.39428988541E+03  0.79086427982E+03  0.13587837046E+04  0.10249846907E+04 0.  0.
        -13    1    3    3    0    0  0.77132390294E+02 -0.31999497616E+03  0.90512198002E+02  0.34137759087E+03  0.10566000000E+00 0.  1.
          4    1    3    3  502    0 -0.19865900014E+03  0.71428486157E+03  0.34584446238E+03  0.81809330395E+03  0.00000000000E+00 0.  1.
         13    1    4    4    0    0  0.49654810843E+03 -0.16093019867E+03  0.75196648671E+03  0.91537542087E+03  0.10566000000E+00 0. -1.
         -4    1    4    4    0  501 -0.37502149858E+03 -0.23335968674E+03  0.38897793113E+02  0.44340828375E+03  0.00000000000E+00 0. -1.
<mgrwt>
<rscale>  2 0.10894611E+04</rscale>
<asrwt>0</asrwt>
<pdfrwt beam="2">  1        2 0.99310282E-01 0.10894611E+04</pdfrwt>
<pdfrwt beam="1">  1       -2 0.28811350E+00 0.10894611E+04</pdfrwt>
<totfact> 0.13871095E+00</totfact>
</mgrwt>
</event>
<event>
 8    1  0.1408247E-005  0.1038782E+04  0.7818608E-02  0.8738982E-01
         -1   -1    0    0    0  501 -0.00000000000E+00  0.00000000000E+00  0.80512980282E+03  0.80512980282E+03  0.00000000000E+00 0.  1.
          1   -1    0    0  502    0  0.00000000000E+00 -0.00000000000E+00 -0.13772116948E+04  0.13772116948E+04  0.00000000000E+00 0. -1.
    9000010    2    1    2  502    0 -0.37161412827E+02 -0.25095691271E+03 -0.46613213472E+03  0.11433357958E+04  0.10127078711E+04 0.  0.
   -9000010    2    1    2    0  501  0.37161412827E+02  0.25095691271E+03 -0.10594975727E+03  0.10390057018E+04  0.10019716337E+04 0.  0.
        -13    1    3    3    0    0 -0.16151939297E+03 -0.36767653878E+02  0.29751852334E+03  0.34052556081E+03  0.10566000000E+00 0.  1.
          4    1    3    3  502    0  0.12435798014E+03 -0.21418925883E+03 -0.76365065806E+03  0.80281023497E+03  0.00000000000E+00 0.  1.
         13    1    4    4    0    0  0.97256811338E+02  0.11067382411E+03 -0.55003638587E+03  0.56942744897E+03  0.10566000000E+00 0. -1.
         -4    1    4    4    0  501 -0.60095398511E+02  0.14028308860E+03  0.44408662860E+03  0.46957825287E+03  0.00000000000E+00 0. -1.
<mgrwt>
<rscale>  2 0.10387821E+04</rscale>
<asrwt>0</asrwt>
<pdfrwt beam="2">  1        1 0.21187872E+00 0.10387821E+04</pdfrwt>
<pdfrwt beam="1">  1       -1 0.12386612E+00 0.10387821E+04</pdfrwt>
<totfact> 0.68460768E+00</totfact>
</mgrwt>
</event>
<event>
 8    1  0.1408247E-005  0.1131604E+04  0.7818608E-02  0.8659926E-01
          1   -1    0    0  502    0  0.00000000000E+00  0.00000000000E+00  0.19237979920E+04  0.19237979920E+04  0.00000000000E+00 0.  1.
         -1   -1    0    0    0  501 -0.00000000000E+00 -0.00000000000E+00 -0.69177604706E+03  0.69177604706E+03  0.00000000000E+00 0. -1.
    9000010    2    1    2  502    0 -0.39987825841E+03 -0.27826957148E+03  0.37221175651E+03  0.12087950045E+04  0.10417807808E+04 0.  0.
   -9000010    2    1    2    0  501  0.39987825841E+03  0.27826957148E+03  0.85981018845E+03  0.14067790346E+04  0.10012078286E+04 0.  0.
        -13    1    3    3    0    0 -0.85499571090E+02 -0.33045696779E+03 -0.30665085154E+03  0.45885372412E+03  0.10566000000E+00 0.  1.
          4    1    3    3  502    0 -0.31437868732E+03  0.52187396315E+02  0.67886260805E+03  0.74994128036E+03  0.00000000000E+00 0.  1.
         13    1    4    4    0    0  0.10986707346E+03 -0.37325109939E+03  0.21081081143E+03  0.44252498959E+03  0.10566000000E+00 0. -1.
         -4    1    4    4    0  501  0.29001118494E+03  0.65152067087E+03  0.64899937702E+03  0.96425404502E+03  0.00000000000E+00 0. -1.
<mgrwt>
<rscale>  2 0.11316043E+04</rscale>
<asrwt>0</asrwt>
<pdfrwt beam="1">  1        1 0.29596892E+00 0.11316043E+04</pdfrwt>
<pdfrwt beam="2">  1       -1 0.10642709E+00 0.11316043E+04</pdfrwt>
<totfact> 0.37958783E+00</totfact>
</mgrwt>
</event>
<event>
 8    1  0.1408247E-005  0.1112291E+04  0.7818608E-02  0.8675708E-01
          1   -1    0    0  502    0  0.00000000000E+00  0.00000000000E+00  0.19879792749E+04  0.19879792749E+04  0.00000000000E+00 0.  1.
         -1   -1    0    0    0  501 -0.00000000000E+00 -0.00000000000E+00 -0.79633426052E+03  0.79633426052E+03  0.00000000000E+00 0. -1.
    9000010    2    1    2  502    0  0.44809158802E+03  0.23394826709E+03  0.12441716985E+04  0.16651314873E+04  0.98447031021E+03 0.  0.
   -9000010    2    1    2    0  501 -0.44809158802E+03 -0.23394826709E+03 -0.52526684104E+02  0.11191820481E+04  0.99714168572E+03 0.  0.
        -13    1    3    3    0    0  0.18010453456E+03  0.43563542639E+03  0.12433667976E+04  0.13297281198E+04  0.10566000000E+00 0.  1.
          4    1    3    3  502    0  0.26798705346E+03 -0.20168715930E+03  0.80490090363E+00  0.33540336748E+03  0.00000000000E+00 0.  1.
         13    1    4    4    0    0 -0.71513002046E+03 -0.38292029431E+03 -0.17322187400E+02  0.81138090149E+03  0.10566000000E+00 0. -1.
         -4    1    4    4    0  501  0.26703843244E+03  0.14897202721E+03 -0.35204496704E+02  0.30780114665E+03  0.00000000000E+00 0. -1.
<mgrwt>
<rscale>  2 0.11122908E+04</rscale>
<asrwt>0</asrwt>
<pdfrwt beam="1">  1        1 0.30584296E+00 0.11122908E+04</pdfrwt>
<pdfrwt beam="2">  1       -1 0.12251296E+00 0.11122908E+04</pdfrwt>
<totfact> 0.24419824E+00</totfact>
</mgrwt>
</event>
<event>
 8    1  0.1408247E-005  0.1428156E+04  0.7818608E-02  0.8452084E-01
          2   -1    0    0  502    0  0.00000000000E+00  0.00000000000E+00  0.84877886231E+03  0.84877886231E+03  0.00000000000E+00 0. -1.
         -2   -1    0    0    0  501 -0.00000000000E+00 -0.00000000000E+00 -0.24031692300E+04  0.24031692300E+04  0.00000000000E+00 0.  1.
    9000010    2    1    2  502    0  0.79413854117E+03 -0.62902455552E+03 -0.76676770017E+03  0.16116521272E+04  0.99154523799E+03 0.  0.
   -9000010    2    1    2    0  501 -0.79413854117E+03  0.62902455552E+03 -0.78762266754E+03  0.16402959651E+04  0.10217110515E+04 0.  0.
        -13    1    3    3    0    0  0.47999415516E+03 -0.58570305244E+03 -0.97331506646E+03  0.12332009911E+04  0.10566000000E+00 0.  1.
          4    1    3    3  502    0  0.31414438601E+03 -0.43321503081E+02  0.20654736630E+03  0.37845113610E+03  0.00000000000E+00 0.  1.
         13    1    4    4    0    0 -0.38618281605E+03  0.76907135466E+03 -0.84390500329E+03  0.12053147231E+04  0.10566000000E+00 0. -1.
         -4    1    4    4    0  501 -0.40795572512E+03 -0.14004679915E+03  0.56282335758E+02  0.43498124204E+03  0.00000000000E+00 0. -1.
<mgrwt>
<rscale>  2 0.14281560E+04</rscale>
<asrwt>0</asrwt>
<pdfrwt beam="1">  1        2 0.13058136E+00 0.14281560E+04</pdfrwt>
<pdfrwt beam="2">  1       -2 0.36971835E+00 0.14281560E+04</pdfrwt>
<totfact> 0.25421832E-01</totfact>
</mgrwt>
</event>
<event>
 8    1  0.1408247E-005  0.1321971E+04  0.7818608E-02  0.8519972E-01
          2   -1    0    0  502    0  0.00000000000E+00  0.00000000000E+00  0.24618013266E+04  0.24618013266E+04  0.00000000000E+00 0.  1.
         -2   -1    0    0    0  501 -0.00000000000E+00 -0.00000000000E+00 -0.96164599637E+03  0.96164599637E+03  0.00000000000E+00 0. -1.
    9000010    2    1    2  502    0  0.60356485976E+03 -0.62365920658E+03 -0.12837648686E+03  0.13218675760E+04  0.98874264615E+03 0.  0.
   -9000010    2    1    2    0  501 -0.60356485976E+03  0.62365920658E+03  0.16285318171E+04  0.21015797469E+04  0.10056242875E+04 0.  0.
        -13    1    3    3    0    0  0.31534502317E+03  0.16285029157E+03  0.21678757945E+03  0.41588407864E+03  0.10566000000E+00 0.  1.
          4    1    3    3  502    0  0.28821983659E+03 -0.78650949815E+03 -0.34516406631E+03  0.90598349740E+03  0.00000000000E+00 0.  1.
         13    1    4    4    0    0 -0.29398855021E+03  0.19578892543E+03  0.15224807824E+04  0.15629172451E+04  0.10566000000E+00 0. -1.
         -4    1    4    4    0  501 -0.30957630955E+03  0.42787028115E+03  0.10605103465E+03  0.53866250183E+03  0.00000000000E+00 0. -1.
<mgrwt>
<rscale>  2 0.13219706E+04</rscale>
<asrwt>0</asrwt>
<pdfrwt beam="1">  1        2 0.37873867E+00 0.13219706E+04</pdfrwt>
<pdfrwt beam="2">  1       -2 0.14794554E+00 0.13219706E+04</pdfrwt>
<totfact> 0.16111981E+00</totfact>
</mgrwt>
</event>
<event>
 8    1  0.1408247E-005  0.1160560E+04  0.7818608E-02  0.8636868E-01
          2   -1    0    0  502    0  0.00000000000E+00  0.00000000000E+00  0.20746832478E+04  0.20746832478E+04  0.00000000000E+00 0. -1.
         -2   -1    0    0    0  501 -0.00000000000E+00 -0.00000000000E+00 -0.71182254320E+03  0.71182254320E+03  0.00000000000E+00 0.  1.
    9000010    2    1    2  502    0 -0.60427225145E+03  0.61360488423E+02  0.27116858147E+03  0.11971222155E+04  0.99531861021E+03 0.  0.
   -9000010    2    1    2    0  501  0.60427225145E+03 -0.61360488423E+02  0.10916921231E+04  0.15893835755E+04  0.98256724706E+03 0.  0.
        -13    1    3    3    0    0 -0.18780233253E+03  0.46676278478E+03  0.34672404191E+03  0.61102764730E+03  0.10566000000E+00 0.  1.
          4    1    3    3  502    0 -0.41646991892E+03 -0.40540229636E+03 -0.75555460445E+02  0.58609456819E+03  0.00000000000E+00 0.  1.
         13    1    4    4    0    0  0.25628232733E+03 -0.31095110395E+03  0.10889697134E+04  0.11611314603E+04  0.10566000000E+00 0. -1.
         -4    1    4    4    0  501  0.34798992412E+03  0.24959061552E+03  0.27224097574E+01  0.42825211519E+03  0.00000000000E+00 0. -1.
<mgrwt>
<rscale>  2 0.11605601E+04</rscale>
<asrwt>0</asrwt>
<pdfrwt beam="1">  1        2 0.31918204E+00 0.11605601E+04</pdfrwt>
<pdfrwt beam="2">  1       -2 0.10951116E+00 0.11605601E+04</pdfrwt>
<totfact> 0.61210534E+00</totfact>
</mgrwt>
</event>
<event>
 8    1  0.1408247E-005  0.1344076E+04  0.7818608E-02  0.8505311E-01
         -2   -1    0    0    0  501 -0.00000000000E+00  0.00000000000E+00  0.84511931780E+03  0.84511931780E+03  0.00000000000E+00 0.  1.
          2   -1    0    0  502    0  0.00000000000E+00 -0.00000000000E+00 -0.33856569515E+04  0.33856569515E+04  0.00000000000E+00 0. -1.
    9000010    2    1    2  502    0 -0.36428303226E+02  0.90201669891E+03  0.12981655786E+02  0.13459768222E+04  0.99826045500E+03 0.  0.
   -9000010    2    1    2    0  501  0.36428303226E+02 -0.90201669891E+03 -0.25535192895E+04  0.28847994472E+04  0.99330052963E+03 0.  0.
        -13    1    3    3    0    0  0.36563136558E+03  0.45291056989E+03 -0.31278750365E+03  0.66079521292E+03  0.10566000000E+00 0.  1.
          4    1    3    3  502    0 -0.40205966880E+03  0.44910612901E+03  0.32576915944E+03  0.68518160924E+03  0.00000000000E+00 0.  1.
         13    1    4    4    0    0 -0.38647195856E+03 -0.49900969900E+02 -0.68601585951E+03  0.78896669906E+03  0.10566000000E+00 0. -1.
         -4    1    4    4    0  501  0.42290026179E+03 -0.85211572901E+03 -0.18675034300E+04  0.20958327481E+04  0.00000000000E+00 0. -1.
<mgrwt>
<rscale>  2 0.13440756E+04</rscale>
<asrwt>0</asrwt>
<pdfrwt beam="2">  1        2 0.52087030E+00 0.13440756E+04</pdfrwt>
<pdfrwt beam="1">  1       -2 0.13001836E+00 0.13440756E+04</pdfrwt>
<totfact> 0.63064515E-01</totfact>
</mgrwt>
</event>
<event>
 8    1  0.1408247E-005  0.1052177E+04  0.7818608E-02  0.8727053E-01
         -2   -1    0    0    0  501 -0.00000000000E+00  0.00000000000E+00  0.10256230802E+04  0.10256230802E+04  0.00000000000E+00 0. -1.
          2   -1    0    0  502    0  0.00000000000E+00 -0.00000000000E+00 -0.11041778139E+04  0.11041778139E+04  0.00000000000E+00 0.  1.
    9000010    2    1    2  502    0  0.37974160084E+02 -0.40957060092E+03  0.11923414052E+03  0.10356230432E+04  0.94292533822E+03 0.  0.
   -9000010    2    1    2    0  501 -0.37974160084E+02  0.40957060092E+03 -0.19778887420E+03  0.10941778509E+04  0.99444186187E+03 0.  0.
        -13    1    3    3    0    0 -0.30713666903E+03 -0.98018625818E+02  0.38335640230E+03  0.50090191337E+03  0.10566000000E+00 0.  1.
          4    1    3    3  502    0  0.34511082912E+03 -0.31155197511E+03 -0.26412226178E+03  0.53472112987E+03  0.00000000000E+00 0.  1.
         13    1    4    4    0    0  0.95235292538E+02 -0.18199273604E+03  0.26219694646E+03  0.33307411610E+03  0.10566000000E+00 0. -1.
         -4    1    4    4    0  501 -0.13320945262E+03  0.59156333696E+03 -0.45998582066E+03  0.76110373479E+03  0.00000000000E+00 0. -1.
<mgrwt>
<rscale>  2 0.10521774E+04</rscale>
<asrwt>0</asrwt>
<pdfrwt beam="2">  1        2 0.16987351E+00 0.10521774E+04</pdfrwt>
<pdfrwt beam="1">  1       -2 0.15778817E+00 0.10521774E+04</pdfrwt>
<totfact> 0.76114305E+00</totfact>
</mgrwt>
</event>
<event>
 8    1  0.1408247E-005  0.1748996E+04  0.7818608E-02  0.8279036E-01
         -1   -1    0    0    0  501 -0.00000000000E+00  0.00000000000E+00  0.14220909940E+04  0.14220909940E+04  0.00000000000E+00 0. -1.
          1   -1    0    0  502    0  0.00000000000E+00 -0.00000000000E+00 -0.22093288910E+04  0.22093288910E+04  0.00000000000E+00 0.  1.
    9000010    2    1    2  502    0  0.28150135162E+03  0.14269118257E+04 -0.10364713570E+03  0.17715062167E+04  0.10060671836E+04 0.  0.
   -9000010    2    1    2    0  501 -0.28150135162E+03 -0.14269118257E+04 -0.68359076134E+03  0.18599136683E+04  0.93630238459E+03 0.  0.
        -13    1    3    3    0    0  0.45632510356E+03  0.50769844157E+03  0.30844993178E+03  0.74908723076E+03  0.10566000000E+00 0.  1.
          4    1    3    3  502    0 -0.17482375194E+03  0.91921338410E+03 -0.41209706749E+03  0.10224189859E+04  0.00000000000E+00 0.  1.
         13    1    4    4    0    0 -0.15708886665E+03 -0.96145245667E+03 -0.90498052193E+03  0.13296832310E+04  0.10566000000E+00 0. -1.
         -4    1    4    4    0  501 -0.12441248497E+03 -0.46545936900E+03  0.22138976058E+03  0.53023043735E+03  0.00000000000E+00 0. -1.
<mgrwt>
<rscale>  2 0.17489959E+04</rscale>
<asrwt>0</asrwt>
<pdfrwt beam="2">  1        1 0.33989675E+00 0.17489959E+04</pdfrwt>
<pdfrwt beam="1">  1       -1 0.21878323E+00 0.17489959E+04</pdfrwt>
<totfact> 0.21284196E-01</totfact>
</mgrwt>
</event>
<event>
 8    1  0.1408247E-005  0.1129180E+04  0.7818608E-02  0.8661889E-01
         -1   -1    0    0    0  501 -0.00000000000E+00  0.00000000000E+00  0.68309690765E+03  0.68309690765E+03  0.00000000000E+00 0. -1.
          1   -1    0    0  502    0  0.00000000000E+00 -0.00000000000E+00 -0.18667741038E+04  0.18667741038E+04  0.00000000000E+00 0.  1.
    9000010    2    1    2  502    0 -0.51964812480E+03  0.86384334475E+02 -0.58859032539E+03  0.12817277650E+04  0.10094013402E+04 0.  0.
   -9000010    2    1    2    0  501  0.51964812480E+03 -0.86384334475E+02 -0.59508687080E+03  0.12681432465E+04  0.98821176015E+03 0.  0.
        -13    1    3    3    0    0 -0.31053240335E+03 -0.10650842215E+03 -0.84012063412E+03  0.90198509331E+03  0.10566000000E+00 0.  1.
          4    1    3    3  502    0 -0.20911572145E+03  0.19289275662E+03  0.25153030873E+03  0.37974267172E+03  0.00000000000E+00 0.  1.
         13    1    4    4    0    0 -0.25027608894E+03  0.98929592681E+02  0.13401515016E+02  0.26945277280E+03  0.10566000000E+00 0. -1.
         -4    1    4    4    0  501  0.76992421374E+03 -0.18531392716E+03 -0.60848838582E+03  0.99869047366E+03  0.00000000000E+00 0. -1.
<mgrwt>
<rscale>  2 0.11291800E+04</rscale>
<asrwt>0</asrwt>
<pdfrwt beam="2">  1        1 0.28719602E+00 0.11291800E+04</pdfrwt>
<pdfrwt beam="1">  1       -1 0.10509183E+00 0.11291800E+04</pdfrwt>
<totfact> 0.43117371E+00</totfact>
</mgrwt>
</event>
<event>
 8    1  0.1408247E-005  0.1085695E+04  0.7818608E-02  0.8697996E-01
         -2   -1    0    0    0  501 -0.00000000000E+00  0.00000000000E+00  0.63871645574E+03  0.63871645574E+03  0.00000000000E+00 0.  1.
          2   -1    0    0  502    0  0.00000000000E+00 -0.00000000000E+00 -0.24238144619E+04  0.24238144619E+04  0.00000000000E+00 0. -1.
    9000010    2    1    2  502    0  0.38079949782E+03 -0.10958319639E+02 -0.13849891370E+03  0.10847333908E+04  0.10061492125E+04 0.  0.
   -9000010    2    1    2    0  501 -0.38079949782E+03  0.10958319639E+02 -0.16465990924E+04  0.19777975268E+04  0.10272614777E+04 0.  0.
        -13    1    3    3    0    0  0.59519130033E+02 -0.25598814392E+03 -0.48553584686E+03  0.55210282232E+03  0.10566000000E+00 0.  1.
          4    1    3    3  502    0  0.32128036779E+03  0.24502982428E+03  0.34703693315E+03  0.53263056849E+03  0.00000000000E+00 0.  1.
         13    1    4    4    0    0 -0.51901068482E+03  0.76636316297E+02 -0.17270056149E+04  0.18049359049E+04  0.10566000000E+00 0. -1.
         -4    1    4    4    0  501  0.13821118700E+03 -0.65677996657E+02  0.80406522454E+02  0.17286162185E+03  0.00000000000E+00 0. -1.
<mgrwt>
<rscale>  2 0.10856952E+04</rscale>
<asrwt>0</asrwt>
<pdfrwt beam="2">  1        2 0.37289452E+00 0.10856952E+04</pdfrwt>
<pdfrwt beam="1">  1       -2 0.98264073E-01 0.10856952E+04</pdfrwt>
<totfact> 0.51827608E+00</totfact>
</mgrwt>
</event>
<event>
 8    1  0.1408247E-005  0.1655008E+04  0.7818608E-02  0.8325481E-01
          2   -1    0    0  502    0  0.00000000000E+00  0.00000000000E+00  0.19057300418E+04  0.19057300418E+04  0.00000000000E+00 0. -1.
         -2   -1    0    0    0  501 -0.00000000000E+00 -0.00000000000E+00 -0.14506697591E+04  0.14506697591E+04  0.00000000000E+00 0.  1.
    9000010    2    1    2  502    0 -0.30445516344E+03 -0.12406304850E+04  0.74433976382E+02  0.16904924499E+04  0.11047023849E+04 0.  0.
   -9000010    2    1    2    0  501  0.30445516344E+03  0.12406304850E+04  0.38062630635E+03  0.16659073511E+04  0.99925670890E+03 0.  0.
        -13    1    3    3    0    0 -0.17144503139E+03 -0.93936174635E+03  0.55760299170E+03  0.11057644400E+04  0.10566000000E+00 0.  1.
          4    1    3    3  502    0 -0.13301013205E+03 -0.30126873867E+03 -0.48316901532E+03  0.58472800984E+03  0.00000000000E+00 0.  1.
         13    1    4    4    0    0 -0.31493384839E+03  0.29682101791E+03 -0.91370601616E+02  0.44230605189E+03  0.10566000000E+00 0. -1.
         -4    1    4    4    0  501  0.61938901183E+03  0.94380946711E+03  0.47199690797E+03  0.12236012992E+04  0.00000000000E+00 0. -1.
<mgrwt>
<rscale>  2 0.16550083E+04</rscale>
<asrwt>0</asrwt>
<pdfrwt beam="1">  1        2 0.29318924E+00 0.16550083E+04</pdfrwt>
<pdfrwt beam="2">  1       -2 0.22317996E+00 0.16550083E+04</pdfrwt>
<totfact> 0.73411340E-01</totfact>
</mgrwt>
</event>
<event>
 8    1  0.1408247E-005  0.1041743E+04  0.7818608E-02  0.8736329E-01
         -1   -1    0    0    0  501 -0.00000000000E+00  0.00000000000E+00  0.41076721798E+03  0.41076721798E+03  0.00000000000E+00 0.  1.
          1   -1    0    0  502    0  0.00000000000E+00 -0.00000000000E+00 -0.26516327473E+04  0.26516327473E+04  0.00000000000E+00 0. -1.
    9000010    2    1    2  502    0  0.21601044101E+03 -0.27028404035E+03 -0.10083507279E+04  0.14315436240E+04  0.95542241130E+03 0.  0.
   -9000010    2    1    2    0  501 -0.21601044101E+03  0.27028404035E+03 -0.12325148014E+04  0.16308563412E+04  0.10103888840E+04 0.  0.
        -13    1    3    3    0    0 -0.23845833778E+03 -0.39252338109E+03 -0.78758131843E+03  0.91171340226E+03  0.10566000000E+00 0.  1.
          4    1    3    3  502    0  0.45446877879E+03  0.12223934073E+03 -0.22076940942E+03  0.51983022176E+03  0.00000000000E+00 0.  1.
         13    1    4    4    0    0  0.37326874660E+03  0.64973866769E+02 -0.75625392599E+03  0.84585529040E+03  0.10566000000E+00 0. -1.
         -4    1    4    4    0  501 -0.58927918761E+03  0.20531017358E+03 -0.47626087544E+03  0.78500105083E+03  0.00000000000E+00 0. -1.
<mgrwt>
<rscale>  2 0.10417432E+04</rscale>
<asrwt>0</asrwt>
<pdfrwt beam="2">  1        1 0.40794349E+00 0.10417432E+04</pdfrwt>
<pdfrwt beam="1">  1       -1 0.63194958E-01 0.10417432E+04</pdfrwt>
<totfact> 0.26762305E+00</totfact>
</mgrwt>
</event>
<event>
 8    1  0.1408247E-005  0.1199750E+04  0.7818608E-02  0.8606751E-01
         -1   -1    0    0    0  501 -0.00000000000E+00  0.00000000000E+00  0.14457330408E+04  0.14457330408E+04  0.00000000000E+00 0.  1.
          1   -1    0    0  502    0  0.00000000000E+00 -0.00000000000E+00 -0.10460346597E+04  0.10460346597E+04  0.00000000000E+00 0. -1.
    9000010    2    1    2  502    0 -0.65355454080E+03 -0.31301461053E+02 -0.73502748308E+02  0.12030380561E+04  0.10068687060E+04 0.  0.
   -9000010    2    1    2    0  501  0.65355454080E+03  0.31301461053E+02  0.47320112948E+03  0.12887296444E+04  0.10043861151E+04 0.  0.
        -13    1    3    3    0    0 -0.48237023131E+03  0.45299851501E+03 -0.16330264014E+03  0.68158378656E+03  0.10566000000E+00 0.  1.
          4    1    3    3  502    0 -0.17118430949E+03 -0.48429997607E+03  0.89799891827E+02  0.52145426953E+03  0.00000000000E+00 0.  1.
         13    1    4    4    0    0  0.70977208136E+02 -0.35553215012E+03  0.46466267983E+03  0.58936600770E+03  0.10566000000E+00 0. -1.
         -4    1    4    4    0  501  0.58257733267E+03  0.38683361117E+03  0.85384496561E+01  0.69936363674E+03  0.00000000000E+00 0. -1.
<mgrwt>
<rscale>  2 0.11997496E+04</rscale>
<asrwt>0</asrwt>
<pdfrwt beam="2">  1        1 0.16092841E+00 0.11997496E+04</pdfrwt>
<pdfrwt beam="1">  1       -1 0.22242047E+00 0.11997496E+04</pdfrwt>
<totfact> 0.16300765E+00</totfact>
</mgrwt>
</event>
<event>
 8    1  0.1408247E-005  0.1311214E+04  0.7818608E-02  0.8527213E-01
          2   -1    0    0  502    0  0.00000000000E+00  0.00000000000E+00  0.14388258600E+04  0.14388258600E+04  0.00000000000E+00 0. -1.
         -2   -1    0    0    0  501 -0.00000000000E+00 -0.00000000000E+00 -0.12125459110E+04  0.12125459110E+04  0.00000000000E+00 0.  1.
    9000010    2    1    2  502    0 -0.11422068387E+03  0.82867095866E+03  0.27249334329E+03  0.13345334634E+04  0.10034864326E+04 0.  0.
   -9000010    2    1    2    0  501  0.11422068387E+03 -0.82867095866E+03 -0.46213394306E+02  0.13168383076E+04  0.10159653184E+04 0.  0.
        -13    1    3    3    0    0  0.28417375874E+03  0.48426722872E+03  0.50842730979E+03  0.75747462959E+03  0.10566000000E+00 0.  1.
          4    1    3    3  502    0 -0.39839444261E+03  0.34440372993E+03 -0.23593396649E+03  0.57705883378E+03  0.00000000000E+00 0.  1.
         13    1    4    4    0    0  0.42379388808E+03 -0.42662800732E+03 -0.37827287276E+03  0.71042458688E+03  0.10566000000E+00 0. -1.
         -4    1    4    4    0  501 -0.30957320421E+03 -0.40204295133E+03  0.33205947845E+03  0.60641372075E+03  0.00000000000E+00 0. -1.
<mgrwt>
<rscale>  2 0.13112136E+04</rscale>
<asrwt>0</asrwt>
<pdfrwt beam="1">  1        2 0.22135782E+00 0.13112136E+04</pdfrwt>
<pdfrwt beam="2">  1       -2 0.18654553E+00 0.13112136E+04</pdfrwt>
<totfact> 0.27470365E+00</totfact>
</mgrwt>
</event>
<event>
 8    1  0.1408247E-005  0.1226949E+04  0.7818608E-02  0.8586541E-01
          2   -1    0    0  502    0  0.00000000000E+00  0.00000000000E+00  0.11175847743E+04  0.11175847743E+04  0.00000000000E+00 0.  1.
         -2   -1    0    0    0  501 -0.00000000000E+00 -0.00000000000E+00 -0.13579634951E+04  0.13579634951E+04  0.00000000000E+00 0. -1.
    9000010    2    1    2  502    0  0.13547732942E+03  0.63165201327E+03 -0.22522294584E+03  0.12209465751E+04  0.10112600018E+04 0.  0.
   -9000010    2    1    2    0  501 -0.13547732942E+03 -0.63165201327E+03 -0.15155774934E+02  0.12546016944E+04  0.10753870659E+04 0.  0.
        -13    1    3    3    0    0  0.29868829794E+03  0.82625268653E+03  0.43379264002E+01  0.87859377991E+03  0.10566000000E+00 0.  1.
          4    1    3    3  502    0 -0.16321096853E+03 -0.19460067326E+03 -0.22956087224E+03  0.34235279515E+03  0.00000000000E+00 0.  1.
         13    1    4    4    0    0  0.41485873244E+03 -0.61346343034E+02  0.14934854529E+03  0.44516978876E+03  0.10566000000E+00 0. -1.
         -4    1    4    4    0  501 -0.55033606186E+03 -0.57030567023E+03 -0.16450432022E+03  0.80943190563E+03  0.00000000000E+00 0. -1.
<mgrwt>
<rscale>  2 0.12269492E+04</rscale>
<asrwt>0</asrwt>
<pdfrwt beam="1">  1        2 0.17193612E+00 0.12269492E+04</pdfrwt>
<pdfrwt beam="2">  1       -2 0.20891746E+00 0.12269492E+04</pdfrwt>
<totfact> 0.27462036E+00</totfact>
</mgrwt>
</event>
<event>
 8    1  0.1408247E-005  0.1308823E+04  0.7818608E-02  0.8528832E-01
          2   -1    0    0  502    0  0.00000000000E+00  0.00000000000E+00  0.24385828707E+04  0.24385828707E+04  0.00000000000E+00 0. -1.
         -2   -1    0    0    0  501 -0.00000000000E+00 -0.00000000000E+00 -0.71130775086E+03  0.71130775086E+03  0.00000000000E+00 0.  1.
    9000010    2    1    2  502    0 -0.83196496452E+03  0.20946139059E+03  0.10421202572E+04  0.16765941437E+04  0.99444130850E+03 0.  0.
   -9000010    2    1    2    0  501  0.83196496452E+03 -0.20946139059E+03  0.68515486267E+03  0.14732964778E+04  0.98240803612E+03 0.  0.
        -13    1    3    3    0    0 -0.13595067555E+03  0.19411694356E+03  0.94428513220E+03  0.97356992353E+03  0.10566000000E+00 0.  1.
          4    1    3    3  502    0 -0.69601428897E+03  0.15344447030E+02  0.97835124982E+02  0.70302422020E+03  0.00000000000E+00 0.  1.
         13    1    4    4    0    0  0.16180343005E+03 -0.52446860263E+03  0.40272591028E+03  0.68076121738E+03  0.10566000000E+00 0. -1.
         -4    1    4    4    0  501  0.67016153447E+03  0.31500721204E+03  0.28242895239E+03  0.79253526045E+03  0.00000000000E+00 0. -1.
<mgrwt>
<rscale>  2 0.13088231E+04</rscale>
<asrwt>0</asrwt>
<pdfrwt beam="1">  1        2 0.37516659E+00 0.13088231E+04</pdfrwt>
<pdfrwt beam="2">  1       -2 0.10943196E+00 0.13088231E+04</pdfrwt>
<totfact> 0.38087460E+00</totfact>
</mgrwt>
</event>
<event>
 8    1  0.1408247E-005  0.1059316E+04  0.7818608E-02  0.8720771E-01
          2   -1    0    0  502    0  0.00000000000E+00  0.00000000000E+00  0.11944441398E+04  0.11944441398E+04  0.00000000000E+00 0.  1.
         -2   -1    0    0    0  501 -0.00000000000E+00 -0.00000000000E+00 -0.93996176220E+03  0.93996176220E+03  0.00000000000E+00 0. -1.
    9000010    2    1    2  502    0  0.21819894615E+03 -0.15493304724E+03  0.14941837288E+03  0.10824484920E+04  0.10381492467E+04 0.  0.
   -9000010    2    1    2    0  501 -0.21819894615E+03  0.15493304724E+03  0.10506400474E+03  0.10519574100E+04  0.10119095405E+04 0.  0.
        -13    1    3    3    0    0  0.17863443120E+03 -0.56736635037E+03  0.26664917301E+03  0.65185629412E+03  0.10566000000E+00 0.  1.
          4    1    3    3  502    0  0.39564514952E+02  0.41243330314E+03 -0.11723080013E+03  0.43059219788E+03  0.00000000000E+00 0.  1.
         13    1    4    4    0    0 -0.31131521901E+03  0.43812165487E+03  0.37051011456E+03  0.65279821248E+03  0.10566000000E+00 0. -1.
         -4    1    4    4    0  501  0.93116272857E+02 -0.28318860763E+03 -0.26544610982E+03  0.39915919754E+03  0.00000000000E+00 0. -1.
<mgrwt>
<rscale>  2 0.10593159E+04</rscale>
<asrwt>0</asrwt>
<pdfrwt beam="1">  1        2 0.18376064E+00 0.10593159E+04</pdfrwt>
<pdfrwt beam="2">  1       -2 0.14460950E+00 0.10593159E+04</pdfrwt>
<totfact> 0.88180473E+00</totfact>
</mgrwt>
</event>
<event>
 8    1  0.1408247E-005  0.1011942E+04  0.7818608E-02  0.8763451E-01
         -2   -1    0    0    0  501 -0.00000000000E+00  0.00000000000E+00  0.12703262371E+04  0.12703262371E+04  0.00000000000E+00 0.  1.
          2   -1    0    0  502    0  0.00000000000E+00 -0.00000000000E+00 -0.80875625847E+03  0.80875625847E+03  0.00000000000E+00 0. -1.
    9000010    2    1    2  502    0 -0.37599380675E+03 -0.11355975826E+03  0.25633988798E+03  0.11003999444E+04  0.99544097663E+03 0.  0.
   -9000010    2    1    2    0  501  0.37599380675E+03  0.11355975826E+03  0.20523009060E+03  0.97868255118E+03  0.87260127463E+03 0.  0.
        -13    1    3    3    0    0  0.20680937094E+03 -0.37594356837E+03  0.13526675165E+03  0.44988975068E+03  0.10566000000E+00 0.  1.
          4    1    3    3  502    0 -0.58280317769E+03  0.26238381010E+03  0.12107313633E+03  0.65051019367E+03  0.00000000000E+00 0.  1.
         13    1    4    4    0    0 -0.19744138684E+03  0.19964986906E+03  0.27696359951E+03  0.39440083427E+03  0.10566000000E+00 0. -1.
         -4    1    4    4    0  501  0.57343519358E+03 -0.86090110798E+02 -0.71733508909E+02  0.58428171691E+03  0.00000000000E+00 0. -1.
<mgrwt>
<rscale>  2 0.10119424E+04</rscale>
<asrwt>0</asrwt>
<pdfrwt beam="2">  1        2 0.12442404E+00 0.10119424E+04</pdfrwt>
<pdfrwt beam="1">  1       -2 0.19543480E+00 0.10119424E+04</pdfrwt>
<totfact> 0.56504410E+00</totfact>
</mgrwt>
</event>
<event>
 8    1  0.1408247E-005  0.1446075E+04  0.7818608E-02  0.8441226E-01
         -2   -1    0    0    0  501 -0.00000000000E+00  0.00000000000E+00  0.94829351027E+03  0.94829351027E+03  0.00000000000E+00 0. -1.
          2   -1    0    0  502    0  0.00000000000E+00 -0.00000000000E+00 -0.33718532351E+04  0.33718532351E+04  0.00000000000E+00 0.  1.
    9000010    2    1    2  502    0 -0.10278771841E+04  0.18693173494E+03 -0.24851946323E+04  0.28778923680E+04  0.10072721294E+04 0.  0.
   -9000010    2    1    2    0  501  0.10278771841E+04 -0.18693173494E+03  0.61634907390E+02  0.14422543774E+04  0.99238291408E+03 0.  0.
        -13    1    3    3    0    0 -0.38768936959E+03 -0.18816340842E+03 -0.19967911129E+03  0.47495291788E+03  0.10566000000E+00 0.  1.
          4    1    3    3  502    0 -0.64018781452E+03  0.37509514336E+03 -0.22855155210E+04  0.24029394501E+04  0.00000000000E+00 0.  1.
         13    1    4    4    0    0  0.52241167224E+03  0.39824758461E+03 -0.59405887241E+02  0.65957877812E+03  0.10566000000E+00 0. -1.
         -4    1    4    4    0  501  0.50546551187E+03 -0.58517931956E+03  0.12104079463E+03  0.78267559927E+03  0.00000000000E+00 0. -1.
<mgrwt>
<rscale>  2 0.14460749E+04</rscale>
<asrwt>0</asrwt>
<pdfrwt beam="2">  1        2 0.51874666E+00 0.14460749E+04</pdfrwt>
<pdfrwt beam="1">  1       -2 0.14589131E+00 0.14460749E+04</pdfrwt>
<totfact> 0.45612349E-01</totfact>
</mgrwt>
</event>
<event>
 8    1  0.1408247E-005  0.1741049E+04  0.7818608E-02  0.8282846E-01
          2   -1    0    0  502    0  0.00000000000E+00  0.00000000000E+00  0.18875619303E+04  0.18875619303E+04  0.00000000000E+00 0.  1.
         -2   -1    0    0    0  501 -0.00000000000E+00 -0.00000000000E+00 -0.20805713444E+04  0.20805713444E+04  0.00000000000E+00 0. -1.
    9000010    2    1    2  502    0 -0.85572401732E+03 -0.11276928828E+04 -0.10438443663E+04  0.20239864849E+04  0.10014766089E+04 0.  0.
   -9000010    2    1    2    0  501  0.85572401732E+03  0.11276928828E+04  0.85083495219E+03  0.19441467898E+04  0.10255885103E+04 0.  0.
        -13    1    3    3    0    0  0.12747099464E+03 -0.17779211326E+03  0.10087958341E+03  0.24090577313E+03  0.10566000000E+00 0.  1.
          4    1    3    3  502    0 -0.98319501196E+03 -0.94990076955E+03 -0.11447239497E+04  0.17830807118E+04  0.00000000000E+00 0.  1.
         13    1    4    4    0    0 -0.23047908675E+02  0.66119977814E+03  0.43766351278E+02  0.66304740205E+03  0.10566000000E+00 0. -1.
         -4    1    4    4    0  501  0.87877192599E+03  0.46649310468E+03  0.80706860091E+03  0.12810993877E+04  0.00000000000E+00 0. -1.
<mgrwt>
<rscale>  2 0.17410485E+04</rscale>
<asrwt>0</asrwt>
<pdfrwt beam="1">  1        2 0.29039414E+00 0.17410485E+04</pdfrwt>
<pdfrwt beam="2">  1       -2 0.32008790E+00 0.17410485E+04</pdfrwt>
<totfact> 0.14328953E-01</totfact>
</mgrwt>
</event>
<event>
 8    1  0.1408247E-005  0.1067222E+04  0.7818608E-02  0.8713873E-01
          2   -1    0    0  502    0  0.00000000000E+00  0.00000000000E+00  0.17111690193E+04  0.17111690193E+04  0.00000000000E+00 0. -1.
         -2   -1    0    0    0  501 -0.00000000000E+00 -0.00000000000E+00 -0.66576880546E+03  0.66576880546E+03  0.00000000000E+00 0.  1.
    9000010    2    1    2  502    0 -0.12025460431E+03 -0.34293107597E+03  0.54250582394E+03  0.11998629837E+04  0.10066259077E+04 0.  0.
   -9000010    2    1    2    0  501  0.12025460431E+03  0.34293107597E+03  0.50289438990E+03  0.11770748410E+04  0.10002697243E+04 0.  0.
        -13    1    3    3    0    0 -0.10508696976E+03 -0.41626599177E+03  0.81289041542E+03  0.91929945380E+03  0.10566000000E+00 0.  1.
          4    1    3    3  502    0 -0.15167634544E+02  0.73334915798E+02 -0.27038459148E+03  0.28056352992E+03  0.00000000000E+00 0.  1.
         13    1    4    4    0    0 -0.36982507797E+03  0.42836342746E+03  0.29103762111E+03  0.63637152855E+03  0.10566000000E+00 0. -1.
         -4    1    4    4    0  501  0.49007968228E+03 -0.85432351488E+02  0.21185676878E+03  0.54070331250E+03  0.00000000000E+00 0. -1.
<mgrwt>
<rscale>  2 0.10672219E+04</rscale>
<asrwt>0</asrwt>
<pdfrwt beam="1">  1        2 0.26325677E+00 0.10672219E+04</pdfrwt>
<pdfrwt beam="2">  1       -2 0.10242597E+00 0.10672219E+04</pdfrwt>
<totfact> 0.11489534E+01</totfact>
</mgrwt>
</event>
<event>
 8    1  0.1408247E-005  0.1327008E+04  0.7818608E-02  0.8516605E-01
          1   -1    0    0  502    0  0.00000000000E+00  0.00000000000E+00  0.96295764884E+03  0.96295764884E+03  0.00000000000E+00 0. -1.
         -1   -1    0    0    0  501 -0.00000000000E+00 -0.00000000000E+00 -0.19588023748E+04  0.19588023748E+04  0.00000000000E+00 0.  1.
    9000010    2    1    2  502    0  0.87033099940E+03  0.65268938459E+01 -0.11677869559E+03  0.13181308897E+04  0.98301227350E+03 0.  0.
   -9000010    2    1    2    0  501 -0.87033099940E+03 -0.65268938459E+01 -0.87906603035E+03  0.16036291339E+04  0.10204659056E+04 0.  0.
        -13    1    3    3    0    0  0.74579278614E+03  0.93635561870E+02  0.34861014565E+03  0.82855509360E+03  0.10566000000E+00 0.  1.
          4    1    3    3  502    0  0.12453821325E+03 -0.87108668024E+02 -0.46538884124E+03  0.48957579613E+03  0.00000000000E+00 0.  1.
         13    1    4    4    0    0 -0.48942709186E+03  0.48615381103E+03 -0.62560662480E+03  0.93127228370E+03  0.10566000000E+00 0. -1.
         -4    1    4    4    0  501 -0.38090390753E+03 -0.49268070488E+03 -0.25345940555E+03  0.67235685019E+03  0.00000000000E+00 0. -1.
<mgrwt>
<rscale>  2 0.13270083E+04</rscale>
<asrwt>0</asrwt>
<pdfrwt beam="1">  1        1 0.14814733E+00 0.13270083E+04</pdfrwt>
<pdfrwt beam="2">  1       -1 0.30135421E+00 0.13270083E+04</pdfrwt>
<totfact> 0.33365711E-01</totfact>
</mgrwt>
</event>
<event>
 8    1  0.1408247E-005  0.1072844E+04  0.7818608E-02  0.8709005E-01
         -1   -1    0    0    0  501 -0.00000000000E+00  0.00000000000E+00  0.57233805321E+03  0.57233805321E+03  0.00000000000E+00 0.  1.
          1   -1    0    0  502    0  0.00000000000E+00 -0.00000000000E+00 -0.25660081545E+04  0.25660081545E+04  0.00000000000E+00 0. -1.
    9000010    2    1    2  502    0  0.90331920482E+01 -0.40897685797E+03 -0.27422714213E+03  0.11167145707E+04  0.10022510853E+04 0.  0.
   -9000010    2    1    2    0  501 -0.90331920482E+01  0.40897685797E+03 -0.17194429592E+04  0.20216316370E+04  0.98141057522E+03 0.  0.
        -13    1    3    3    0    0 -0.43898471279E+03 -0.32680751202E+03 -0.35747180433E+03  0.65367945511E+03  0.10566000000E+00 0.  1.
          4    1    3    3  502    0  0.44801790484E+03 -0.82169345948E+02  0.83244662201E+02  0.46303511557E+03  0.00000000000E+00 0.  1.
         13    1    4    4    0    0  0.37561946411E+03  0.34694267608E+03 -0.40986682961E+03  0.65532437119E+03  0.10566000000E+00 0. -1.
         -4    1    4    4    0  501 -0.38465265615E+03  0.62034181891E+02 -0.13095761295E+04  0.13663072658E+04  0.00000000000E+00 0. -1.
<mgrwt>
<rscale>  2 0.10728444E+04</rscale>
<asrwt>0</asrwt>
<pdfrwt beam="2">  1        1 0.39477048E+00 0.10728444E+04</pdfrwt>
<pdfrwt beam="1">  1       -1 0.88052008E-01 0.10728444E+04</pdfrwt>
<totfact> 0.16930786E+00</totfact>
</mgrwt>
</event>
<event>
 8    1  0.1408247E-005  0.1253164E+04  0.7818608E-02  0.8567569E-01
          2   -1    0    0  502    0  0.00000000000E+00  0.00000000000E+00  0.15683014501E+04  0.15683014501E+04  0.00000000000E+00 0. -1.
         -2   -1    0    0    0  501 -0.00000000000E+00 -0.00000000000E+00 -0.10140743481E+04  0.10140743481E+04  0.00000000000E+00 0.  1.
    9000010    2    1    2  502    0 -0.77479890801E+03  0.75983535516E+02  0.13225965736E+03  0.12590818341E+04  0.98066691724E+03 0.  0.
   -9000010    2    1    2    0  501  0.77479890801E+03 -0.75983535516E+02  0.42196744458E+03  0.13232939640E+04  0.98334304565E+03 0.  0.
        -13    1    3    3    0    0 -0.74163151493E+03  0.28084407181E+03 -0.24371808908E+03  0.82963197547E+03  0.10566000000E+00 0.  1.
          4    1    3    3  502    0 -0.33167393075E+02 -0.20486053630E+03  0.37597774644E+03  0.42944985867E+03  0.00000000000E+00 0.  1.
         13    1    4    4    0    0  0.54173299879E+03  0.41826076569E+03  0.10741996651E+03  0.69278840237E+03  0.10566000000E+00 0. -1.
         -4    1    4    4    0  501  0.23306590922E+03 -0.49424430121E+03  0.31454747807E+03  0.63050556165E+03  0.00000000000E+00 0. -1.
<mgrwt>
<rscale>  2 0.12531641E+04</rscale>
<asrwt>0</asrwt>
<pdfrwt beam="1">  1        2 0.24127715E+00 0.12531641E+04</pdfrwt>
<pdfrwt beam="2">  1       -2 0.15601144E+00 0.12531641E+04</pdfrwt>
<totfact> 0.42493560E+00</totfact>
</mgrwt>
</event>
<event>
 8    1  0.1408247E-005  0.1912543E+04  0.7818608E-02  0.8204959E-01
          2   -1    0    0  502    0  0.00000000000E+00  0.00000000000E+00  0.94195042613E+03  0.94195042613E+03  0.00000000000E+00 0. -1.
         -2   -1    0    0    0  501 -0.00000000000E+00 -0.00000000000E+00 -0.42482940142E+04  0.42482940142E+04  0.00000000000E+00 0.  1.
    9000010    2    1    2  502    0 -0.15261037622E+04 -0.52468950333E+03 -0.91746679567E+03  0.21487666576E+04  0.10822019497E+04 0.  0.
   -9000010    2    1    2    0  501  0.15261037622E+04  0.52468950333E+03 -0.23888767924E+04  0.30414777827E+04  0.96931058262E+03 0.  0.
        -13    1    3    3    0    0 -0.13794404130E+04 -0.77059822627E+03 -0.52921865880E+03  0.16663582686E+04  0.10566000000E+00 0.  1.
          4    1    3    3  502    0 -0.14666334916E+03  0.24590872294E+03 -0.38824813687E+03  0.48240838901E+03  0.00000000000E+00 0.  1.
         13    1    4    4    0    0  0.48823430850E+03  0.65261039496E+03 -0.82093993449E+03  0.11568126274E+04  0.10566000000E+00 0. -1.
         -4    1    4    4    0  501  0.10378694537E+04 -0.12792089163E+03 -0.15679368579E+04  0.18846651553E+04  0.00000000000E+00 0. -1.
<mgrwt>
<rscale>  2 0.19125431E+04</rscale>
<asrwt>0</asrwt>
<pdfrwt beam="1">  1        2 0.14491545E+00 0.19125431E+04</pdfrwt>
<pdfrwt beam="2">  1       -2 0.65358371E+00 0.19125431E+04</pdfrwt>
<totfact> 0.11809834E-01</totfact>
</mgrwt>
</event>
<event>
 8    1  0.1408247E-005  0.1217413E+04  0.7818608E-02  0.8593564E-01
         -1   -1    0    0    0  501 -0.00000000000E+00  0.00000000000E+00  0.27611512370E+04  0.27611512370E+04  0.00000000000E+00 0.  1.
          1   -1    0    0  502    0  0.00000000000E+00 -0.00000000000E+00 -0.59889609025E+03  0.59889609025E+03  0.00000000000E+00 0. -1.
    9000010    2    1    2  502    0  0.54613839797E+03 -0.41239884186E+03  0.16249839545E+04  0.20325215854E+04  0.10110544932E+04 0.  0.
   -9000010    2    1    2    0  501 -0.54613839797E+03  0.41239884186E+03  0.53727119226E+03  0.13275257419E+04  0.10026586193E+04 0.  0.
        -13    1    3    3    0    0  0.83229457739E+03 -0.19430215311E+03  0.12352601865E+04  0.15021102921E+04  0.10566000000E+00 0.  1.
          4    1    3    3  502    0 -0.28615617943E+03 -0.21809668875E+03  0.38972376803E+03  0.53041129328E+03  0.00000000000E+00 0.  1.
         13    1    4    4    0    0 -0.52489070847E+03  0.72475841240E+03  0.45458543602E+03  0.10037095905E+04  0.10566000000E+00 0. -1.
         -4    1    4    4    0  501 -0.21247689500E+02 -0.31235957054E+03  0.82685756239E+02  0.32381615139E+03  0.00000000000E+00 0. -1.
<mgrwt>
<rscale>  2 0.12174127E+04</rscale>
<asrwt>0</asrwt>
<pdfrwt beam="2">  1        1 0.92137862E-01 0.12174127E+04</pdfrwt>
<pdfrwt beam="1">  1       -1 0.42479249E+00 0.12174127E+04</pdfrwt>
<totfact> 0.54571290E-01</totfact>
</mgrwt>
</event>
<event>
 8    1  0.1408247E-005  0.1695001E+04  0.7818608E-02  0.8305339E-01
          2   -1    0    0  502    0  0.00000000000E+00  0.00000000000E+00  0.21132095589E+04  0.21132095589E+04  0.00000000000E+00 0.  1.
         -2   -1    0    0    0  501 -0.00000000000E+00 -0.00000000000E+00 -0.13880193109E+04  0.13880193109E+04  0.00000000000E+00 0. -1.
    9000010    2    1    2  502    0 -0.18284642266E+03 -0.13673722801E+04  0.61182362440E+03  0.17959181001E+04  0.97357789012E+03 0.  0.
   -9000010    2    1    2    0  501  0.18284642266E+03  0.13673722801E+04  0.11336662363E+03  0.17053107698E+04  0.99603868570E+03 0.  0.
        -13    1    3    3    0    0 -0.69343042641E+02 -0.77519341049E+03  0.84557959666E+03  0.11492337215E+04  0.10566000000E+00 0.  1.
          4    1    3    3  502    0 -0.11350338002E+03 -0.59217886964E+03 -0.23375597226E+03  0.64668437857E+03  0.00000000000E+00 0.  1.
         13    1    4    4    0    0  0.55469153734E+03  0.46832551557E+03  0.12026084227E+01  0.72595657415E+03  0.10566000000E+00 0. -1.
         -4    1    4    4    0  501 -0.37184511468E+03  0.89904676456E+03  0.11216401521E+03  0.97935419562E+03  0.00000000000E+00 0. -1.
<mgrwt>
<rscale>  2 0.16950009E+04</rscale>
<asrwt>0</asrwt>
<pdfrwt beam="1">  1        2 0.32510916E+00 0.16950009E+04</pdfrwt>
<pdfrwt beam="2">  1       -2 0.21354143E+00 0.16950009E+04</pdfrwt>
<totfact> 0.67421020E-01</totfact>
</mgrwt>
</event>
<event>
 8    1  0.1408247E-005  0.1200262E+04  0.7818608E-02  0.8606365E-01
         -4   -1    0    0    0  501 -0.00000000000E+00  0.00000000000E+00  0.89168030566E+03  0.89168030566E+03  0.00000000000E+00 0. -1.
          4   -1    0    0  502    0  0.00000000000E+00 -0.00000000000E+00 -0.18863236227E+04  0.18863236227E+04  0.00000000000E+00 0.  1.
    9000010    2    1    2  502    0  0.48844802053E+03 -0.39654235223E+03 -0.10287223826E+04  0.15927282806E+04  0.10405221428E+04 0.  0.
   -9000010    2    1    2    0  501 -0.48844802053E+03  0.39654235223E+03  0.34079065514E+02  0.11852756477E+04  0.10039370859E+04 0.  0.
        -13    1    3    3    0    0  0.16161983853E+03 -0.35972319084E+03  0.10840625411E+03  0.40899104309E+03  0.10566000000E+00 0.  1.
          4    1    3    3  502    0  0.32682818199E+03 -0.36819161388E+02 -0.11371286367E+04  0.11837372376E+04  0.00000000000E+00 0.  1.
         13    1    4    4    0    0 -0.75313910330E+03  0.41502878528E+03 -0.13527743099E+03  0.87049836073E+03  0.10566000000E+00 0. -1.
         -4    1    4    4    0  501  0.26469108277E+03 -0.18486433049E+02  0.16935649650E+03  0.31477728700E+03  0.00000000000E+00 0. -1.
<mgrwt>
<rscale>  2 0.12002625E+04</rscale>
<asrwt>0</asrwt>
<pdfrwt beam="2">  1        4 0.29020363E+00 0.12002625E+04</pdfrwt>
<pdfrwt beam="1">  1       -4 0.13718159E+00 0.12002625E+04</pdfrwt>
<totfact> 0.18382053E-01</totfact>
</mgrwt>
</event>
<event>
 8    1  0.1408247E-005  0.1095694E+04  0.7818608E-02  0.8689540E-01
          1   -1    0    0  502    0  0.00000000000E+00  0.00000000000E+00  0.15782410201E+04  0.15782410201E+04  0.00000000000E+00 0. -1.
         -1   -1    0    0    0  501 -0.00000000000E+00 -0.00000000000E+00 -0.79311915382E+03  0.79311915382E+03  0.00000000000E+00 0.  1.
    9000010    2    1    2  502    0  0.21575899027E+03 -0.39469410522E+03  0.15813812989E+03  0.11211384089E+04  0.10146961541E+04 0.  0.
   -9000010    2    1    2    0  501 -0.21575899027E+03  0.39469410522E+03  0.62698373640E+03  0.12502217650E+04  0.98367193587E+03 0.  0.
        -13    1    3    3    0    0  0.47975603079E+03  0.55568687337E+02  0.31442157212E+03  0.57629390442E+03  0.10566000000E+00 0.  1.
          4    1    3    3  502    0 -0.26399704052E+03 -0.45026279256E+03 -0.15628344223E+03  0.54484450450E+03  0.00000000000E+00 0.  1.
         13    1    4    4    0    0  0.40704245625E+02  0.57264820323E+03  0.72339500062E+03  0.92351672338E+03  0.10566000000E+00 0. -1.
         -4    1    4    4    0  501 -0.25646323590E+03 -0.17795409801E+03 -0.96411264213E+02  0.32670504164E+03  0.00000000000E+00 0. -1.
<mgrwt>
<rscale>  2 0.10956937E+04</rscale>
<asrwt>0</asrwt>
<pdfrwt beam="1">  1        1 0.24280631E+00 0.10956937E+04</pdfrwt>
<pdfrwt beam="2">  1       -1 0.12201833E+00 0.10956937E+04</pdfrwt>
<totfact> 0.50023702E+00</totfact>
</mgrwt>
</event>
<event>
 8    1  0.1408247E-005  0.1264717E+04  0.7818608E-02  0.8559360E-01
         -2   -1    0    0    0  501 -0.00000000000E+00  0.00000000000E+00  0.48995944739E+03  0.48995944739E+03  0.00000000000E+00 0.  1.
          2   -1    0    0  502    0  0.00000000000E+00 -0.00000000000E+00 -0.32648610757E+04  0.32648610757E+04  0.00000000000E+00 0. -1.
    9000010    2    1    2  502    0 -0.63475614765E+03  0.44125828058E+03 -0.13718321488E+04  0.18670046752E+04  0.10030746611E+04 0.  0.
   -9000010    2    1    2    0  501  0.63475614765E+03 -0.44125828058E+03 -0.14030694795E+04  0.18878158478E+04  0.99880952830E+03 0.  0.
        -13    1    3    3    0    0 -0.23706498418E+03  0.37525813264E+03 -0.13943017168E+04  0.14632483595E+04  0.10566000000E+00 0.  1.
          4    1    3    3  502    0 -0.39769116347E+03  0.66000147940E+02  0.22469568046E+02  0.40375631576E+03  0.00000000000E+00 0.  1.
         13    1    4    4    0    0  0.67057491208E+03 -0.45637040881E+03 -0.15426601108E+04  0.17429127607E+04  0.10566000000E+00 0. -1.
         -4    1    4    4    0  501 -0.35818764438E+02  0.15112128229E+02  0.13959063131E+03  0.14490308712E+03  0.00000000000E+00 0. -1.
<mgrwt>
<rscale>  2 0.12647166E+04</rscale>
<asrwt>0</asrwt>
<pdfrwt beam="2">  1        2 0.50228635E+00 0.12647166E+04</pdfrwt>
<pdfrwt beam="1">  1       -2 0.75378372E-01 0.12647166E+04</pdfrwt>
<totfact> 0.28833904E+00</totfact>
</mgrwt>
</event>
<event>
 8    1  0.1408247E-005  0.1217212E+04  0.7818608E-02  0.8593713E-01
         -2   -1    0    0    0  501 -0.00000000000E+00  0.00000000000E+00  0.84316268178E+03  0.84316268178E+03  0.00000000000E+00 0. -1.
          2   -1    0    0  502    0  0.00000000000E+00 -0.00000000000E+00 -0.17963489272E+04  0.17963489272E+04  0.00000000000E+00 0.  1.
    9000010    2    1    2  502    0 -0.51996140841E+03  0.43093774755E+03 -0.29056313577E+03  0.12708949075E+04  0.10366676041E+04 0.  0.
   -9000010    2    1    2    0  501  0.51996140841E+03 -0.43093774755E+03 -0.66262310963E+03  0.13686167015E+04  0.98892622660E+03 0.  0.
        -13    1    3    3    0    0 -0.50370555169E+03  0.45169700124E+03  0.25623020142E+03  0.72346623350E+03  0.10566000000E+00 0.  1.
          4    1    3    3  502    0 -0.16255856721E+02 -0.20759253685E+02 -0.54679333719E+03  0.54742867397E+03  0.00000000000E+00 0.  1.
         13    1    4    4    0    0  0.73623558410E+03 -0.48470048268E+02 -0.29096233599E+03  0.79312752632E+03  0.10566000000E+00 0. -1.
         -4    1    4    4    0  501 -0.21627417569E+03 -0.38246769929E+03 -0.37166077364E+03  0.57548917517E+03  0.00000000000E+00 0. -1.
<mgrwt>
<rscale>  2 0.12172123E+04</rscale>
<asrwt>0</asrwt>
<pdfrwt beam="2">  1        2 0.27636137E+00 0.12172123E+04</pdfrwt>
<pdfrwt beam="1">  1       -2 0.12971734E+00 0.12172123E+04</pdfrwt>
<totfact> 0.55206454E+00</totfact>
</mgrwt>
</event>
<event>
 8    1  0.1408247E-005  0.1159664E+04  0.7818608E-02  0.8637572E-01
         -1   -1    0    0    0  501 -0.00000000000E+00  0.00000000000E+00  0.47219810530E+03  0.47219810530E+03  0.00000000000E+00 0.  1.
          1   -1    0    0  502    0  0.00000000000E+00 -0.00000000000E+00 -0.36785573900E+04  0.36785573900E+04  0.00000000000E+00 0. -1.
    9000010    2    1    2  502    0 -0.48162288761E+03 -0.34680704580E+03 -0.62437014074E+03  0.13230666276E+04  0.10042068988E+04 0.  0.
   -9000010    2    1    2    0  501  0.48162288761E+03  0.34680704580E+03 -0.25819891440E+04  0.28276888677E+04  0.98839296837E+03 0.  0.
        -13    1    3    3    0    0 -0.39881875775E+03 -0.64032847390E+03 -0.16585749076E+03  0.77238958721E+03  0.10566000000E+00 0.  1.
          4    1    3    3  502    0 -0.82804129852E+02  0.29352142810E+03 -0.45851264998E+03  0.55067704044E+03  0.00000000000E+00 0.  1.
         13    1    4    4    0    0  0.57661965589E+03  0.17324930768E+03 -0.25585647838E+04  0.26284518855E+04  0.10566000000E+00 0. -1.
         -4    1    4    4    0  501 -0.94996768285E+02  0.17355773812E+03 -0.23424360222E+02  0.19923698225E+03  0.00000000000E+00 0. -1.
<mgrwt>
<rscale>  2 0.11596635E+04</rscale>
<asrwt>0</asrwt>
<pdfrwt beam="2">  1        1 0.56593191E+00 0.11596635E+04</pdfrwt>
<pdfrwt beam="1">  1       -1 0.72645862E-01 0.11596635E+04</pdfrwt>
<totfact> 0.16853780E-01</totfact>
</mgrwt>
</event>
<event>
 8    1  0.1408247E-005  0.1281598E+04  0.7818608E-02  0.8547526E-01
         -2   -1    0    0    0  501 -0.00000000000E+00  0.00000000000E+00  0.13422592559E+04  0.13422592559E+04  0.00000000000E+00 0. -1.
          2   -1    0    0  502    0  0.00000000000E+00 -0.00000000000E+00 -0.18203003137E+04  0.18203003137E+04  0.00000000000E+00 0.  1.
    9000010    2    1    2  502    0  0.19032592816E+02 -0.78211721658E+03  0.66413869425E+03  0.14573552547E+04  0.10347630420E+04 0.  0.
   -9000010    2    1    2    0  501 -0.19032592816E+02  0.78211721658E+03 -0.11421797520E+04  0.17052043150E+04  0.99552879910E+03 0.  0.
        -13    1    3    3    0    0 -0.15108558780E+03 -0.98020756785E+03  0.66877746042E+03  0.11962010841E+04  0.10566000000E+00 0.  1.
          4    1    3    3  502    0  0.17011818062E+03  0.19809035127E+03 -0.46387661688E+01  0.26115417054E+03  0.00000000000E+00 0.  1.
         13    1    4    4    0    0  0.12870520099E+03  0.59830157963E+03 -0.12893528512E+04  0.14272212845E+04  0.10566000000E+00 0. -1.
         -4    1    4    4    0  501 -0.14773779381E+03  0.18381563695E+03  0.14717309917E+03  0.27798303046E+03  0.00000000000E+00 0. -1.
<mgrwt>
<rscale>  2 0.12815978E+04</rscale>
<asrwt>0</asrwt>
<pdfrwt beam="2">  1        2 0.28004620E+00 0.12815978E+04</pdfrwt>
<pdfrwt beam="1">  1       -2 0.20650142E+00 0.12815978E+04</pdfrwt>
<totfact> 0.11645667E+00</totfact>
</mgrwt>
</event>
<event>
 8    1  0.1408247E-005  0.1530520E+04  0.7818608E-02  0.8392148E-01
         -2   -1    0    0    0  501 -0.00000000000E+00  0.00000000000E+00  0.11299986141E+04  0.11299986141E+04  0.00000000000E+00 0.  1.
          2   -1    0    0  502    0  0.00000000000E+00 -0.00000000000E+00 -0.20744608176E+04  0.20744608176E+04  0.00000000000E+00 0. -1.
    9000010    2    1    2  502    0  0.14135539200E+03  0.11497771022E+04 -0.51506758408E+03  0.16161250941E+04  0.10022958505E+04 0.  0.
   -9000010    2    1    2    0  501 -0.14135539200E+03 -0.11497771022E+04 -0.42939461947E+03  0.15883343376E+04  0.99822717711E+03 0.  0.
        -13    1    3    3    0    0  0.35786818259E+03  0.12111585296E+04 -0.56825713378E+03  0.13848793453E+04  0.10566000000E+00 0.  1.
          4    1    3    3  502    0 -0.21651279059E+03 -0.61381427348E+02  0.53189549699E+02  0.23124574874E+03  0.00000000000E+00 0.  1.
         13    1    4    4    0    0  0.26647053904E+03 -0.10802240716E+04 -0.26936771643E+03  0.11447486934E+04  0.10566000000E+00 0. -1.
         -4    1    4    4    0  501 -0.40782593104E+03 -0.69553030598E+02 -0.16002690304E+03  0.44358564425E+03  0.00000000000E+00 0. -1.
<mgrwt>
<rscale>  2 0.15305203E+04</rscale>
<asrwt>0</asrwt>
<pdfrwt beam="2">  1        2 0.31914782E+00 0.15305203E+04</pdfrwt>
<pdfrwt beam="1">  1       -2 0.17384594E+00 0.15305203E+04</pdfrwt>
<totfact> 0.15388297E+00</totfact>
</mgrwt>
</event>
<event>
 8    1  0.1408247E-005  0.1341958E+04  0.7818608E-02  0.8506703E-01
         -2   -1    0    0    0  501 -0.00000000000E+00  0.00000000000E+00  0.37042057934E+04  0.37042057934E+04  0.00000000000E+00 0. -1.
          2   -1    0    0  502    0  0.00000000000E+00 -0.00000000000E+00 -0.79894527216E+03  0.79894527216E+03  0.00000000000E+00 0.  1.
    9000010    2    1    2  502    0 -0.77462922099E+03 -0.50483371282E+03  0.34406668492E+02  0.13279001594E+04  0.95248491166E+03 0.  0.
   -9000010    2    1    2    0  501  0.77462922099E+03  0.50483371282E+03  0.28708538528E+04  0.31752509062E+04  0.99272804206E+03 0.  0.
        -13    1    3    3    0    0 -0.98612375551E+03 -0.34794173203E+03  0.11622917173E+03  0.10521467301E+04  0.10566000000E+00 0.  1.
          4    1    3    3  502    0  0.21149453452E+03 -0.15689198079E+03 -0.81822503238E+02  0.27575342936E+03  0.00000000000E+00 0.  1.
         13    1    4    4    0    0  0.40644308139E+03 -0.20856886133E+03  0.52554162199E+03  0.69634112038E+03  0.10566000000E+00 0. -1.
         -4    1    4    4    0  501  0.36818613960E+03  0.71340257415E+03  0.23453122308E+04  0.24789097858E+04  0.00000000000E+00 0. -1.
<mgrwt>
<rscale>  2 0.13419577E+04</rscale>
<asrwt>0</asrwt>
<pdfrwt beam="2">  1        2 0.12291466E+00 0.13419577E+04</pdfrwt>
<pdfrwt beam="1">  1       -2 0.56987780E+00 0.13419577E+04</pdfrwt>
<totfact> 0.22738146E-01</totfact>
</mgrwt>
</event>
<event>
 8    1  0.1408247E-005  0.1140202E+04  0.7818608E-02  0.8653005E-01
          2   -1    0    0  502    0  0.00000000000E+00  0.00000000000E+00  0.15600368323E+04  0.15600368323E+04  0.00000000000E+00 0. -1.
         -2   -1    0    0    0  501 -0.00000000000E+00 -0.00000000000E+00 -0.85087916286E+03  0.85087916286E+03  0.00000000000E+00 0.  1.
    9000010    2    1    2  502    0 -0.39441826860E+03  0.36906134657E+03  0.52760575674E+03  0.12564110263E+04  0.10042055489E+04 0.  0.
   -9000010    2    1    2    0  501  0.39441826860E+03 -0.36906134657E+03  0.18155191272E+03  0.11545049689E+04  0.10040660227E+04 0.  0.
        -13    1    3    3    0    0 -0.16013632428E+03  0.15456642967E+03 -0.29792512118E+03  0.37187876052E+03  0.10566000000E+00 0.  1.
          4    1    3    3  502    0 -0.23428194433E+03  0.21449491690E+03  0.82553087793E+03  0.88453226579E+03  0.00000000000E+00 0.  1.
         13    1    4    4    0    0  0.53385766309E+03  0.16613121626E+03  0.21832541666E+03  0.60022461144E+03  0.10566000000E+00 0. -1.
         -4    1    4    4    0  501 -0.13943939449E+03 -0.53519256283E+03 -0.36773503935E+02  0.55428035744E+03  0.00000000000E+00 0. -1.
<mgrwt>
<rscale>  2 0.11402021E+04</rscale>
<asrwt>0</asrwt>
<pdfrwt beam="1">  1        2 0.24000567E+00 0.11402021E+04</pdfrwt>
<pdfrwt beam="2">  1       -2 0.13090449E+00 0.11402021E+04</pdfrwt>
<totfact> 0.72967857E+00</totfact>
</mgrwt>
</event>
<event>
 8    1  0.1408247E-005  0.1352280E+04  0.7818608E-02  0.8499944E-01
         -2   -1    0    0    0  501 -0.00000000000E+00  0.00000000000E+00  0.64502195953E+03  0.64502195953E+03  0.00000000000E+00 0.  1.
          2   -1    0    0  502    0  0.00000000000E+00 -0.00000000000E+00 -0.38430013164E+04  0.38430013164E+04  0.00000000000E+00 0. -1.
    9000010    2    1    2  502    0  0.82016925049E+03  0.37182074908E+03 -0.44978044625E+03  0.14251578561E+04  0.10088826474E+04 0.  0.
   -9000010    2    1    2    0  501 -0.82016925049E+03 -0.37182074908E+03 -0.27481989106E+04  0.30628654198E+04  0.10087710635E+04 0.  0.
        -13    1    3    3    0    0 -0.49502868226E+02  0.45998392064E+03 -0.25989380241E+03  0.53064163133E+03  0.10566000000E+00 0.  1.
          4    1    3    3  502    0  0.86967211872E+03 -0.88163171558E+02 -0.18988664384E+03  0.89451622479E+03  0.00000000000E+00 0.  1.
         13    1    4    4    0    0 -0.55926337840E+03 -0.62944995516E+03 -0.11629860580E+04  0.14357992042E+04  0.10566000000E+00 0. -1.
         -4    1    4    4    0  501 -0.26090587209E+03  0.25762920608E+03 -0.15852128525E+04  0.16270662155E+04  0.00000000000E+00 0. -1.
<mgrwt>
<rscale>  2 0.13522795E+04</rscale>
<asrwt>0</asrwt>
<pdfrwt beam="2">  1        2 0.59123098E+00 0.13522795E+04</pdfrwt>
<pdfrwt beam="1">  1       -2 0.99234147E-01 0.13522795E+04</pdfrwt>
<totfact> 0.55527982E-01</totfact>
</mgrwt>
</event>
<event>
 8    1  0.1408247E-005  0.1397777E+04  0.7818608E-02  0.8470871E-01
          2   -1    0    0  502    0  0.00000000000E+00  0.00000000000E+00  0.17299806815E+04  0.17299806815E+04  0.00000000000E+00 0. -1.
         -2   -1    0    0    0  501 -0.00000000000E+00 -0.00000000000E+00 -0.11865766293E+04  0.11865766293E+04  0.00000000000E+00 0.  1.
    9000010    2    1    2  502    0 -0.73237147533E+03 -0.64709770835E+03  0.59179687916E+03  0.15173418224E+04  0.99849849170E+03 0.  0.
   -9000010    2    1    2    0  501  0.73237147533E+03  0.64709770835E+03 -0.48392826863E+02  0.13992154884E+04  0.10001793315E+04 0.  0.
        -13    1    3    3    0    0  0.97836471099E+02  0.15264596837E+03  0.26149666072E+03  0.31820320782E+03  0.10566000000E+00 0.  1.
          4    1    3    3  502    0 -0.83020794643E+03 -0.79974367672E+03  0.33030021844E+03  0.11991386146E+04  0.00000000000E+00 0.  1.
         13    1    4    4    0    0  0.47341473278E+03  0.32173954890E+03 -0.51798306248E+03  0.77197429408E+03  0.10566000000E+00 0. -1.
         -4    1    4    4    0  501  0.25895674254E+03  0.32535815944E+03  0.46959023561E+03  0.62724119428E+03  0.00000000000E+00 0. -1.
<mgrwt>
<rscale>  2 0.13977774E+04</rscale>
<asrwt>0</asrwt>
<pdfrwt beam="1">  1        2 0.26615087E+00 0.13977774E+04</pdfrwt>
<pdfrwt beam="2">  1       -2 0.18255025E+00 0.13977774E+04</pdfrwt>
<totfact> 0.20354289E+00</totfact>
</mgrwt>
</event>
<event>
 8    1  0.1408247E-005  0.1081661E+04  0.7818608E-02  0.8701435E-01
          2   -1    0    0  502    0  0.00000000000E+00  0.00000000000E+00  0.21319617343E+04  0.21319617343E+04  0.00000000000E+00 0. -1.
         -2   -1    0    0    0  501 -0.00000000000E+00 -0.00000000000E+00 -0.59920118601E+03  0.59920118601E+03  0.00000000000E+00 0.  1.
    9000010    2    1    2  502    0  0.14521168022E+03  0.39064619677E+03  0.11586315140E+04  0.15810929772E+04  0.99183523538E+03 0.  0.
   -9000010    2    1    2    0  501 -0.14521168022E+03 -0.39064619677E+03  0.37412903430E+03  0.11500699432E+04  0.10044886544E+04 0.  0.
        -13    1    3    3    0    0 -0.28825186689E+03  0.75195072726E+02 -0.71172328017E+01  0.29798339534E+03  0.10566000000E+00 0.  1.
          4    1    3    3  502    0  0.43346354711E+03  0.31545112405E+03  0.11657487468E+04  0.12831095819E+04  0.00000000000E+00 0.  1.
         13    1    4    4    0    0  0.33472850235E+03 -0.46932920820E+03  0.80769574672E+02  0.58209690887E+03  0.10566000000E+00 0. -1.
         -4    1    4    4    0  501 -0.47994018256E+03  0.78683011431E+02  0.29335945963E+03  0.56797303429E+03  0.00000000000E+00 0. -1.
<mgrwt>
<rscale>  2 0.10816608E+04</rscale>
<asrwt>0</asrwt>
<pdfrwt beam="1">  1        2 0.32799411E+00 0.10816608E+04</pdfrwt>
<pdfrwt beam="2">  1       -2 0.92184799E-01 0.10816608E+04</pdfrwt>
<totfact> 0.87014031E+00</totfact>
</mgrwt>
</event>
<event>
 8    1  0.1408247E-005  0.1223606E+04  0.7818608E-02  0.8588995E-01
         -2   -1    0    0    0  501 -0.00000000000E+00  0.00000000000E+00  0.15314087101E+04  0.15314087101E+04  0.00000000000E+00 0. -1.
          2   -1    0    0  502    0  0.00000000000E+00 -0.00000000000E+00 -0.97906416617E+03  0.97906416617E+03  0.00000000000E+00 0.  1.
    9000010    2    1    2  502    0 -0.60013494062E+03  0.45588202384E+03  0.31188738541E+03  0.12404464743E+04  0.93458191069E+03 0.  0.
   -9000010    2    1    2    0  501  0.60013494062E+03 -0.45588202384E+03  0.24045715851E+03  0.12700264020E+04  0.99355777387E+03 0.  0.
        -13    1    3    3    0    0 -0.10883474590E+03  0.15996650772E+03  0.57702038324E+03  0.60859413351E+03  0.10566000000E+00 0.  1.
          4    1    3    3  502    0 -0.49130019472E+03  0.29591551612E+03 -0.26513299783E+03  0.63185234077E+03  0.00000000000E+00 0.  1.
         13    1    4    4    0    0  0.17704429821E+03  0.13612587597E+03 -0.29254464550E+03  0.36804526680E+03  0.10566000000E+00 0. -1.
         -4    1    4    4    0  501  0.42309064241E+03 -0.59200789981E+03  0.53300180401E+03  0.90198113517E+03  0.00000000000E+00 0. -1.
<mgrwt>
<rscale>  2 0.12236059E+04</rscale>
<asrwt>0</asrwt>
<pdfrwt beam="2">  1        2 0.15062526E+00 0.12236059E+04</pdfrwt>
<pdfrwt beam="1">  1       -2 0.23560134E+00 0.12236059E+04</pdfrwt>
<totfact> 0.20219642E+00</totfact>
</mgrwt>
</event>
<event>
 8    1  0.1408247E-005  0.1403844E+04  0.7818608E-02  0.8467080E-01
         -2   -1    0    0    0  501 -0.00000000000E+00  0.00000000000E+00  0.36299629333E+04  0.36299629333E+04  0.00000000000E+00 0. -1.
          2   -1    0    0  502    0  0.00000000000E+00 -0.00000000000E+00 -0.11745814383E+04  0.11745814383E+04  0.00000000000E+00 0.  1.
    9000010    2    1    2  502    0  0.93329733468E+03 -0.82499678613E+02  0.30075149408E+04  0.33401062523E+04  0.11105465077E+04 0.  0.
   -9000010    2    1    2    0  501 -0.93329733468E+03  0.82499678613E+02 -0.55213344577E+03  0.14644381192E+04  0.98075356289E+03 0.  0.
        -13    1    3    3    0    0  0.80691364723E+03 -0.37535728092E+03  0.11434991948E+04  0.14489972885E+04  0.10566000000E+00 0.  1.
          4    1    3    3  502    0  0.12638368745E+03  0.29285760231E+03  0.18640157460E+04  0.18911089639E+04  0.00000000000E+00 0.  1.
         13    1    4    4    0    0 -0.10248658758E+04  0.25260725405E+03 -0.21700396250E+03  0.10776136687E+04  0.10566000000E+00 0. -1.
         -4    1    4    4    0  501  0.91568541072E+02 -0.17010757544E+03 -0.33512948327E+03  0.38682445049E+03  0.00000000000E+00 0. -1.
<mgrwt>
<rscale>  2 0.14038440E+04</rscale>
<asrwt>0</asrwt>
<pdfrwt beam="2">  1        2 0.18070484E+00 0.14038440E+04</pdfrwt>
<pdfrwt beam="1">  1       -2 0.55845583E+00 0.14038440E+04</pdfrwt>
<totfact> 0.11557956E-01</totfact>
</mgrwt>
</event>
<event>
 8    1  0.1408247E-005  0.1239998E+04  0.7818608E-02  0.8577037E-01
          2   -1    0    0  502    0  0.00000000000E+00  0.00000000000E+00  0.23354647407E+04  0.23354647407E+04  0.00000000000E+00 0.  1.
         -2   -1    0    0    0  501 -0.00000000000E+00 -0.00000000000E+00 -0.92397918188E+03  0.92397918188E+03  0.00000000000E+00 0. -1.
    9000010    2    1    2  502    0 -0.43632440815E+03  0.58053050087E+03  0.15789636931E+04  0.20068064169E+04  0.10033698218E+04 0.  0.
   -9000010    2    1    2    0  501  0.43632440815E+03 -0.58053050087E+03 -0.16747813436E+03  0.12526375056E+04  0.10068054148E+04 0.  0.
        -13    1    3    3    0    0 -0.73273610562E+03  0.52004346035E+03  0.13728249579E+04  0.16407302573E+04  0.10566000000E+00 0.  1.
          4    1    3    3  502    0  0.29641169747E+03  0.60487040517E+02  0.20613873522E+03  0.36607615959E+03  0.00000000000E+00 0.  1.
         13    1    4    4    0    0  0.16512785027E+03 -0.45780426454E+03  0.38801037179E+03  0.62241787518E+03  0.10566000000E+00 0. -1.
         -4    1    4    4    0  501  0.27119655789E+03 -0.12272623633E+03 -0.55548850615E+03  0.63021963041E+03  0.00000000000E+00 0. -1.
<mgrwt>
<rscale>  2 0.12399979E+04</rscale>
<asrwt>0</asrwt>
<pdfrwt beam="1">  1        2 0.35930227E+00 0.12399979E+04</pdfrwt>
<pdfrwt beam="2">  1       -2 0.14215064E+00 0.12399979E+04</pdfrwt>
<totfact> 0.21514815E+00</totfact>
</mgrwt>
</event>
<event>
 8    1  0.1408247E-005  0.1165541E+04  0.7818608E-02  0.8632973E-01
          2   -1    0    0  502    0  0.00000000000E+00  0.00000000000E+00  0.22466401520E+04  0.22466401520E+04  0.00000000000E+00 0.  1.
         -2   -1    0    0    0  501 -0.00000000000E+00 -0.00000000000E+00 -0.63251558013E+03  0.63251558013E+03  0.00000000000E+00 0. -1.
    9000010    2    1    2  502    0  0.52406780650E+03 -0.27968646792E+03  0.50202481368E+03  0.12648179085E+04  0.99742861496E+03 0.  0.
   -9000010    2    1    2    0  501 -0.52406780650E+03  0.27968646792E+03  0.11120997582E+04  0.16143378236E+04  0.10081910288E+04 0.  0.
        -13    1    3    3    0    0  0.27028959400E+02  0.23920583858E+03  0.49027211375E+03  0.54618381021E+03  0.10566000000E+00 0.  1.
          4    1    3    3  502    0  0.49703884710E+03 -0.51889230649E+03  0.11752699939E+02  0.71863409828E+03  0.00000000000E+00 0.  1.
         13    1    4    4    0    0 -0.67713340141E+03  0.20958069677E+03  0.12224155749E+04  0.14130582297E+04  0.10566000000E+00 0. -1.
         -4    1    4    4    0  501  0.15306559491E+03  0.70105771147E+02 -0.11031581672E+03  0.20127959388E+03  0.00000000000E+00 0. -1.
<mgrwt>
<rscale>  2 0.11655407E+04</rscale>
<asrwt>0</asrwt>
<pdfrwt beam="1">  1        2 0.34563694E+00 0.11655407E+04</pdfrwt>
<pdfrwt beam="2">  1       -2 0.97310091E-01 0.11655407E+04</pdfrwt>
<totfact> 0.65714307E+00</totfact>
</mgrwt>
</event>
<event>
 8    1  0.1408247E-005  0.1333441E+04  0.7818608E-02  0.8512328E-01
          2   -1    0    0  502    0  0.00000000000E+00  0.00000000000E+00  0.18802363015E+04  0.18802363015E+04  0.00000000000E+00 0. -1.
         -2   -1    0    0    0  501 -0.00000000000E+00 -0.00000000000E+00 -0.94939278442E+03  0.94939278442E+03  0.00000000000E+00 0.  1.
    9000010    2    1    2  502    0  0.81556154645E+03 -0.35561314789E+03  0.55330807975E+03  0.14415964394E+04  0.99017630551E+03 0.  0.
   -9000010    2    1    2    0  501 -0.81556154645E+03  0.35561314789E+03  0.37753543734E+03  0.13880326465E+04  0.99624307996E+03 0.  0.
        -13    1    3    3    0    0  0.43986036519E+03  0.32935154918E+03  0.21006520609E+03  0.58828308304E+03  0.10566000000E+00 0.  1.
          4    1    3    3  502    0  0.37570118126E+03 -0.68496469707E+03  0.34324287366E+03  0.85331335636E+03  0.00000000000E+00 0.  1.
         13    1    4    4    0    0 -0.78786021546E+03 -0.12972454565E+03  0.46352092314E+02  0.79981291842E+03  0.10566000000E+00 0. -1.
         -4    1    4    4    0  501 -0.27701330988E+02  0.48533769353E+03  0.33118334503E+03  0.58821972810E+03  0.00000000000E+00 0. -1.
<mgrwt>
<rscale>  2 0.13334413E+04</rscale>
<asrwt>0</asrwt>
<pdfrwt beam="1">  1        2 0.28926712E+00 0.13334413E+04</pdfrwt>
<pdfrwt beam="2">  1       -2 0.14606043E+00 0.13334413E+04</pdfrwt>
<totfact> 0.34895698E+00</totfact>
</mgrwt>
</event>
<event>
 8    1  0.1408247E-005  0.1485380E+04  0.7818608E-02  0.8417963E-01
          2   -1    0    0  502    0  0.00000000000E+00  0.00000000000E+00  0.20946290508E+04  0.20946290508E+04  0.00000000000E+00 0.  1.
         -2   -1    0    0    0  501 -0.00000000000E+00 -0.00000000000E+00 -0.10826069645E+04  0.10826069645E+04  0.00000000000E+00 0. -1.
    9000010    2    1    2  502    0  0.15772899342E+03 -0.10403938818E+04  0.23451802269E+03  0.14612190910E+04  0.98633902095E+03 0.  0.
   -9000010    2    1    2    0  501 -0.15772899342E+03  0.10403938818E+04  0.77750406368E+03  0.17160169243E+04  0.11103619459E+04 0.  0.
        -13    1    3    3    0    0  0.31687863126E+03 -0.59269765480E+03  0.56863003933E+03  0.88036510025E+03  0.10566000000E+00 0.  1.
          4    1    3    3  502    0 -0.15914963784E+03 -0.44769622696E+03 -0.33411201664E+03  0.58085399071E+03  0.00000000000E+00 0.  1.
         13    1    4    4    0    0  0.40563428068E+03  0.63224282298E+03  0.68055101117E+03  0.10136172092E+04  0.10566000000E+00 0. -1.
         -4    1    4    4    0  501 -0.56336327410E+03  0.40815105877E+03  0.96953052511E+02  0.70239971510E+03  0.00000000000E+00 0. -1.
<mgrwt>
<rscale>  2 0.14853802E+04</rscale>
<asrwt>0</asrwt>
<pdfrwt beam="1">  1        2 0.32225062E+00 0.14853802E+04</pdfrwt>
<pdfrwt beam="2">  1       -2 0.16655492E+00 0.14853802E+04</pdfrwt>
<totfact> 0.17359444E+00</totfact>
</mgrwt>
</event>
<event>
 8    1  0.1408247E-005  0.1243885E+04  0.7818608E-02  0.8574229E-01
          2   -1    0    0  502    0  0.00000000000E+00  0.00000000000E+00  0.41247560582E+04  0.41247560582E+04  0.00000000000E+00 0.  1.
         -2   -1    0    0    0  501 -0.00000000000E+00 -0.00000000000E+00 -0.38263487474E+03  0.38263487474E+03  0.00000000000E+00 0. -1.
    9000010    2    1    2  502    0 -0.72035195857E+03  0.71084467647E+02  0.21906746793E+04  0.25204164886E+04  0.10146348012E+04 0.  0.
   -9000010    2    1    2    0  501  0.72035195857E+03 -0.71084467647E+02  0.15514465041E+04  0.19869744443E+04  0.10085242890E+04 0.  0.
        -13    1    3    3    0    0  0.90765302678E+02  0.94096278098E+02 -0.47958796788E+02  0.13925698214E+03  0.10566000000E+00 0.  1.
          4    1    3    3  502    0 -0.81111726125E+03 -0.23011810452E+02  0.22386334761E+04  0.23811595065E+04  0.00000000000E+00 0.  1.
         13    1    4    4    0    0  0.19601522169E+03  0.43482520061E+03  0.39097323850E+03  0.61672928146E+03  0.10566000000E+00 0. -1.
         -4    1    4    4    0  501  0.52433673688E+03 -0.50590966826E+03  0.11604732656E+04  0.13702451628E+04  0.00000000000E+00 0. -1.
<mgrwt>
<rscale>  2 0.12438851E+04</rscale>
<asrwt>0</asrwt>
<pdfrwt beam="1">  1        2 0.63457782E+00 0.12438851E+04</pdfrwt>
<pdfrwt beam="2">  1       -2 0.58866907E-01 0.12438851E+04</pdfrwt>
<totfact> 0.99435248E-01</totfact>
</mgrwt>
</event>
<event>
 8    1  0.1408247E-005  0.1035586E+04  0.7818608E-02  0.8741856E-01
         -2   -1    0    0    0  501 -0.00000000000E+00  0.00000000000E+00  0.65127544003E+03  0.65127544003E+03  0.00000000000E+00 0.  1.
          2   -1    0    0  502    0  0.00000000000E+00 -0.00000000000E+00 -0.16497826439E+04  0.16497826439E+04  0.00000000000E+00 0. -1.
    9000010    2    1    2  502    0  0.76248643639E+02 -0.14010318246E+03 -0.47229246691E+03  0.11631286500E+04  0.10508878745E+04 0.  0.
   -9000010    2    1    2    0  501 -0.76248643639E+02  0.14010318246E+03 -0.52621473695E+03  0.11379294339E+04  0.99626235992E+03 0.  0.
        -13    1    3    3    0    0 -0.23109459531E+03  0.10905328800E+03  0.23856261270E+03  0.34958470068E+03  0.10566000000E+00 0.  1.
          4    1    3    3  502    0  0.30734323895E+03 -0.24915647046E+03 -0.71085507961E+03  0.81354394934E+03  0.00000000000E+00 0.  1.
         13    1    4    4    0    0 -0.50685938298E+02 -0.43031393766E+03 -0.28154550667E+03  0.51672723247E+03  0.10566000000E+00 0. -1.
         -4    1    4    4    0  501 -0.25562705341E+02  0.57041712012E+03 -0.24466923028E+03  0.62120220144E+03  0.00000000000E+00 0. -1.
<mgrwt>
<rscale>  2 0.10355859E+04</rscale>
<asrwt>0</asrwt>
<pdfrwt beam="2">  1        2 0.25381271E+00 0.10355859E+04</pdfrwt>
<pdfrwt beam="1">  1       -2 0.10019622E+00 0.10355859E+04</pdfrwt>
<totfact> 0.13129080E+01</totfact>
</mgrwt>
</event>
<event>
 8    1  0.1408247E-005  0.1519039E+04  0.7818608E-02  0.8398625E-01
          1   -1    0    0  502    0  0.00000000000E+00  0.00000000000E+00  0.55271717911E+03  0.55271717911E+03  0.00000000000E+00 0.  1.
         -1   -1    0    0    0  501 -0.00000000000E+00 -0.00000000000E+00 -0.43240385008E+04  0.43240385008E+04  0.00000000000E+00 0. -1.
    9000010    2    1    2  502    0  0.88780080177E+02 -0.11331768148E+04 -0.23428333231E+04  0.27941045456E+04  0.10130057433E+04 0.  0.
   -9000010    2    1    2    0  501 -0.88780080177E+02  0.11331768148E+04 -0.14284879986E+04  0.20826511343E+04  0.10024401174E+04 0.  0.
        -13    1    3    3    0    0  0.44779722931E+02 -0.52425822864E+03 -0.20510303244E+04  0.21174459419E+04  0.10566000000E+00 0.  1.
          4    1    3    3  502    0  0.44000357246E+02 -0.60891858614E+03 -0.29180299867E+03  0.67665860374E+03  0.00000000000E+00 0.  1.
         13    1    4    4    0    0  0.39034039490E+03  0.17252022027E+03 -0.54584923943E+03  0.69287823868E+03  0.10566000000E+00 0. -1.
         -4    1    4    4    0  501 -0.47912047508E+03  0.96065659451E+03 -0.88263875917E+03  0.13897728956E+04  0.00000000000E+00 0. -1.
<mgrwt>
<rscale>  2 0.15190393E+04</rscale>
<asrwt>0</asrwt>
<pdfrwt beam="1">  1        1 0.85033410E-01 0.15190393E+04</pdfrwt>
<pdfrwt beam="2">  1       -1 0.66523671E+00 0.15190393E+04</pdfrwt>
<totfact> 0.59277304E-02</totfact>
</mgrwt>
</event>
<event>
 8    1  0.1408247E-005  0.1402727E+04  0.7818608E-02  0.8467777E-01
          2   -1    0    0  502    0  0.00000000000E+00  0.00000000000E+00  0.21321437086E+04  0.21321437086E+04  0.00000000000E+00 0.  1.
         -2   -1    0    0    0  501 -0.00000000000E+00 -0.00000000000E+00 -0.93345731445E+03  0.93345731445E+03  0.00000000000E+00 0. -1.
    9000010    2    1    2  502    0 -0.11458692261E+03 -0.97027797675E+03  0.43800167356E+03  0.14740271005E+04  0.10130848493E+04 0.  0.
   -9000010    2    1    2    0  501  0.11458692261E+03  0.97027797675E+03  0.76068472055E+03  0.15915739225E+04  0.99994839459E+03 0.  0.
        -13    1    3    3    0    0 -0.12840556781E+03  0.17174004595E+03  0.22760321692E+03  0.31270732122E+03  0.10566000000E+00 0.  1.
          4    1    3    3  502    0  0.13818645200E+02 -0.11420180227E+04  0.21039845664E+03  0.11613197793E+04  0.00000000000E+00 0.  1.
         13    1    4    4    0    0  0.52256999422E+02  0.93472028588E+03  0.11649550215E+03  0.94340024380E+03  0.10566000000E+00 0. -1.
         -4    1    4    4    0  501  0.62329923190E+02  0.35557690873E+02  0.64418921841E+03  0.64817367874E+03  0.00000000000E+00 0. -1.
<mgrwt>
<rscale>  2 0.14027273E+04</rscale>
<asrwt>0</asrwt>
<pdfrwt beam="1">  1        2 0.32802211E+00 0.14027273E+04</pdfrwt>
<pdfrwt beam="2">  1       -2 0.14360882E+00 0.14027273E+04</pdfrwt>
<totfact> 0.26523435E+00</totfact>
</mgrwt>
</event>
<event>
 8    1  0.1408247E-005  0.1142690E+04  0.7818608E-02  0.8651015E-01
          1   -1    0    0  502    0  0.00000000000E+00  0.00000000000E+00  0.18035561334E+04  0.18035561334E+04  0.00000000000E+00 0.  1.
         -1   -1    0    0    0  501 -0.00000000000E+00 -0.00000000000E+00 -0.74125703524E+03  0.74125703524E+03  0.00000000000E+00 0. -1.
    9000010    2    1    2  502    0  0.31460095175E+03  0.50297975248E+03  0.72590094979E+03  0.13546944253E+04  0.97790715658E+03 0.  0.
   -9000010    2    1    2    0  501 -0.31460095175E+03 -0.50297975248E+03  0.33639814838E+03  0.11901187433E+04  0.97532380198E+03 0.  0.
        -13    1    3    3    0    0  0.45813951408E+03  0.60392108469E+03  0.17699440997E+03  0.77842117341E+03  0.10566000000E+00 0.  1.
          4    1    3    3  502    0 -0.14353856234E+03 -0.10094133220E+03  0.54890653982E+03  0.57627325192E+03  0.00000000000E+00 0.  1.
         13    1    4    4    0    0 -0.29497390466E+03 -0.56190630439E+03 -0.18813302675E+03  0.66192321780E+03  0.10566000000E+00 0. -1.
         -4    1    4    4    0  501 -0.19627047089E+02  0.58926551907E+02  0.52453117513E+03  0.52819552552E+03  0.00000000000E+00 0. -1.
<mgrwt>
<rscale>  2 0.11426896E+04</rscale>
<asrwt>0</asrwt>
<pdfrwt beam="1">  1        1 0.27747017E+00 0.11426896E+04</pdfrwt>
<pdfrwt beam="2">  1       -1 0.11403954E+00 0.11426896E+04</pdfrwt>
<totfact> 0.39797950E+00</totfact>
</mgrwt>
</event>
<event>
 8    1  0.1408247E-005  0.1238636E+04  0.7818608E-02  0.8578023E-01
         -1   -1    0    0    0  501 -0.00000000000E+00  0.00000000000E+00  0.74670714389E+03  0.74670714389E+03  0.00000000000E+00 0.  1.
          1   -1    0    0  502    0  0.00000000000E+00 -0.00000000000E+00 -0.24054909504E+04  0.24054909504E+04  0.00000000000E+00 0. -1.
    9000010    2    1    2  502    0 -0.53679484704E+03 -0.62167225918E+03 -0.20941366182E+03  0.12229071996E+04  0.88148898537E+03 0.  0.
   -9000010    2    1    2    0  501  0.53679484704E+03  0.62167225918E+03 -0.14493701447E+04  0.19292908947E+04  0.97306959388E+03 0.  0.
        -13    1    3    3    0    0 -0.10727746640E+03 -0.22787324484E+03 -0.50883844938E+03  0.56775985173E+03  0.10566000000E+00 0.  1.
          4    1    3    3  502    0 -0.42951738064E+03 -0.39379901434E+03  0.29942478755E+03  0.65514734783E+03  0.00000000000E+00 0.  1.
         13    1    4    4    0    0  0.81598627198E+03  0.49965865192E+03 -0.97946211061E+03  0.13692473852E+04  0.10566000000E+00 0. -1.
         -4    1    4    4    0  501 -0.27919142494E+03  0.12201360726E+03 -0.46990803409E+03  0.56004350958E+03  0.00000000000E+00 0. -1.
<mgrwt>
<rscale>  2 0.12386365E+04</rscale>
<asrwt>0</asrwt>
<pdfrwt beam="2">  1        1 0.37007553E+00 0.12386365E+04</pdfrwt>
<pdfrwt beam="1">  1       -1 0.11487802E+00 0.12386365E+04</pdfrwt>
<totfact> 0.12865822E+00</totfact>
</mgrwt>
</event>
<event>
 8    1  0.1408247E-005  0.1405289E+04  0.7818608E-02  0.8466180E-01
         -2   -1    0    0    0  501 -0.00000000000E+00  0.00000000000E+00  0.90063482039E+03  0.90063482039E+03  0.00000000000E+00 0.  1.
          2   -1    0    0  502    0  0.00000000000E+00 -0.00000000000E+00 -0.25153605917E+04  0.25153605917E+04  0.00000000000E+00 0. -1.
    9000010    2    1    2  502    0 -0.35887656857E+02  0.82832711196E+03 -0.14379549938E+04  0.20405081267E+04  0.11868214367E+04 0.  0.
   -9000010    2    1    2    0  501  0.35887656857E+02 -0.82832711196E+03 -0.17677077754E+03  0.13754872854E+04  0.10831914126E+04 0.  0.
        -13    1    3    3    0    0  0.40615692147E+03  0.85967385015E+03 -0.70366435147E+03  0.11828550647E+04  0.10566000000E+00 0.  1.
          4    1    3    3  502    0 -0.44204457833E+03 -0.31346738189E+02 -0.73429064235E+03  0.85765306194E+03  0.00000000000E+00 0.  1.
         13    1    4    4    0    0 -0.35561920056E+02  0.10684171736E+03 -0.39651521637E+03  0.41219428757E+03  0.10566000000E+00 0. -1.
         -4    1    4    4    0  501  0.71449576913E+02 -0.93516882932E+03  0.21974443883E+03  0.96329299788E+03  0.00000000000E+00 0. -1.
<mgrwt>
<rscale>  2 0.14052895E+04</rscale>
<asrwt>0</asrwt>
<pdfrwt beam="2">  1        2 0.38697855E+00 0.14052895E+04</pdfrwt>
<pdfrwt beam="1">  1       -2 0.13855921E+00 0.14052895E+04</pdfrwt>
<totfact> 0.18066677E+00</totfact>
</mgrwt>
</event>
<event>
 8    1  0.1408247E-005  0.1108811E+04  0.7818608E-02  0.8678587E-01
         -2   -1    0    0    0  501 -0.00000000000E+00  0.00000000000E+00  0.13137849642E+04  0.13137849642E+04  0.00000000000E+00 0.  1.
          2   -1    0    0  502    0  0.00000000000E+00 -0.00000000000E+00 -0.96055753457E+03  0.96055753457E+03  0.00000000000E+00 0. -1.
    9000010    2    1    2  502    0  0.46328492942E+03 -0.22677644606E+03  0.36038127292E+03  0.11754914574E+04  0.99289728683E+03 0.  0.
   -9000010    2    1    2    0  501 -0.46328492942E+03  0.22677644606E+03 -0.71538432988E+01  0.10988510414E+04  0.97023809003E+03 0.  0.
        -13    1    3    3    0    0  0.18188516878E+03  0.35279561326E+03 -0.66742986025E+02  0.40249421947E+03  0.10566000000E+00 0.  1.
          4    1    3    3  502    0  0.28139976064E+03 -0.57957205932E+03  0.42712425895E+03  0.77299723791E+03  0.00000000000E+00 0.  1.
         13    1    4    4    0    0  0.22089171287E+03  0.25759062499E+03  0.18639738350E+03  0.38715639557E+03  0.10566000000E+00 0. -1.
         -4    1    4    4    0  501 -0.68417664229E+03 -0.30814178927E+02 -0.19355122680E+03  0.71169464580E+03  0.00000000000E+00 0. -1.
<mgrwt>
<rscale>  2 0.11088114E+04</rscale>
<asrwt>0</asrwt>
<pdfrwt beam="2">  1        2 0.14777808E+00 0.11088114E+04</pdfrwt>
<pdfrwt beam="1">  1       -2 0.20212077E+00 0.11088114E+04</pdfrwt>
<totfact> 0.39259865E+00</totfact>
</mgrwt>
</event>
<event>
 8    1  0.1408247E-005  0.1163382E+04  0.7818608E-02  0.8634659E-01
         -1   -1    0    0    0  501 -0.00000000000E+00  0.00000000000E+00  0.14350352885E+04  0.14350352885E+04  0.00000000000E+00 0. -1.
          1   -1    0    0  502    0  0.00000000000E+00 -0.00000000000E+00 -0.95042698606E+03  0.95042698606E+03  0.00000000000E+00 0.  1.
    9000010    2    1    2  502    0  0.21491727542E+03  0.58262350123E+03  0.13965648869E+03  0.11787208808E+04  0.99208840358E+03 0.  0.
   -9000010    2    1    2    0  501 -0.21491727542E+03 -0.58262350123E+03  0.34495181376E+03  0.12067413938E+04  0.97549651879E+03 0.  0.
        -13    1    3    3    0    0  0.54711141691E+03  0.56808465492E+03  0.25161614827E+03  0.82786579522E+03  0.10566000000E+00 0.  1.
          4    1    3    3  502    0 -0.33219414149E+03  0.14538846312E+02 -0.11195965959E+03  0.35085508556E+03  0.00000000000E+00 0.  1.
         13    1    4    4    0    0 -0.23862945364E+03  0.16796180917E+03  0.35009376698E+03  0.45576402044E+03  0.10566000000E+00 0. -1.
         -4    1    4    4    0  501  0.23712178223E+02 -0.75058531039E+03 -0.51419532208E+01  0.75097737333E+03  0.00000000000E+00 0. -1.
<mgrwt>
<rscale>  2 0.11633820E+04</rscale>
<asrwt>0</asrwt>
<pdfrwt beam="2">  1        1 0.14621954E+00 0.11633820E+04</pdfrwt>
<pdfrwt beam="1">  1       -1 0.22077466E+00 0.11633820E+04</pdfrwt>
<totfact> 0.20302083E+00</totfact>
</mgrwt>
</event>
<event>
 8    1  0.1408247E-005  0.1241825E+04  0.7818608E-02  0.8575716E-01
          2   -1    0    0  502    0  0.00000000000E+00  0.00000000000E+00  0.14389856606E+04  0.14389856606E+04  0.00000000000E+00 0. -1.
         -2   -1    0    0    0  501 -0.00000000000E+00 -0.00000000000E+00 -0.11944172551E+04  0.11944172551E+04  0.00000000000E+00 0.  1.
    9000010    2    1    2  502    0 -0.45561572515E+03 -0.55818913218E+03  0.54280075526E+03  0.13419927704E+04  0.99355479944E+03 0.  0.
   -9000010    2    1    2    0  501  0.45561572515E+03  0.55818913218E+03 -0.29823234974E+03  0.12914101454E+04  0.10293866295E+04 0.  0.
        -13    1    3    3    0    0  0.69799813471E+02 -0.43927230778E+03  0.65498528026E+03  0.79173095358E+03  0.10566000000E+00 0.  1.
          4    1    3    3  502    0 -0.52541553862E+03 -0.11891682440E+03 -0.11218452500E+03  0.55026181677E+03  0.00000000000E+00 0.  1.
         13    1    4    4    0    0  0.68436412707E+02 -0.11954018620E+03 -0.47207166597E+03  0.49175712265E+03  0.10566000000E+00 0. -1.
         -4    1    4    4    0  501  0.38717931244E+03  0.67772931837E+03  0.17383931623E+03  0.79965302278E+03  0.00000000000E+00 0. -1.
<mgrwt>
<rscale>  2 0.12418248E+04</rscale>
<asrwt>0</asrwt>
<pdfrwt beam="1">  1        2 0.22138241E+00 0.12418248E+04</pdfrwt>
<pdfrwt beam="2">  1       -2 0.18375650E+00 0.12418248E+04</pdfrwt>
<totfact> 0.29181958E+00</totfact>
</mgrwt>
</event>
<event>
 8    1  0.1408247E-005  0.1424109E+04  0.7818608E-02  0.8454559E-01
         -2   -1    0    0    0  501 -0.00000000000E+00  0.00000000000E+00  0.78855600055E+03  0.78855600055E+03  0.00000000000E+00 0.  1.
          2   -1    0    0  502    0  0.00000000000E+00 -0.00000000000E+00 -0.26447969251E+04  0.26447969251E+04  0.00000000000E+00 0. -1.
    9000010    2    1    2  502    0 -0.73112223892E+03 -0.70515409128E+03 -0.12135040468E+04  0.18714694376E+04  0.99901139318E+03 0.  0.
   -9000010    2    1    2    0  501  0.73112223892E+03  0.70515409128E+03 -0.64273687775E+03  0.15618834880E+04  0.99728998561E+03 0.  0.
        -13    1    3    3    0    0 -0.35755332682E+03 -0.92234247031E+03 -0.78421014984E+03  0.12623571540E+04  0.10566000000E+00 0.  1.
          4    1    3    3  502    0 -0.37356891210E+03  0.21718837902E+03 -0.42929389695E+03  0.60911228360E+03  0.00000000000E+00 0.  1.
         13    1    4    4    0    0 -0.13046356060E+03  0.44954551758E+03 -0.20022146542E+02  0.46852194243E+03  0.10566000000E+00 0. -1.
         -4    1    4    4    0  501  0.86158579953E+03  0.25560857370E+03 -0.62271473121E+03  0.10933615456E+04  0.00000000000E+00 0. -1.
<mgrwt>
<rscale>  2 0.14241091E+04</rscale>
<asrwt>0</asrwt>
<pdfrwt beam="2">  1        2 0.40689183E+00 0.14241091E+04</pdfrwt>
<pdfrwt beam="1">  1       -2 0.12131631E+00 0.14241091E+04</pdfrwt>
<totfact> 0.22000909E+00</totfact>
</mgrwt>
</event>
<event>
 8    1  0.1408247E-005  0.1069030E+04  0.7818608E-02  0.8712304E-01
         -4   -1    0    0    0  501 -0.00000000000E+00  0.00000000000E+00  0.10519120081E+04  0.10519120081E+04  0.00000000000E+00 0. -1.
          4   -1    0    0  502    0  0.00000000000E+00 -0.00000000000E+00 -0.14562029451E+04  0.14562029451E+04  0.00000000000E+00 0.  1.
    9000010    2    1    2  502    0 -0.30381685664E+03  0.27490349073E+03 -0.83298502026E+03  0.13494330777E+04  0.97940235639E+03 0.  0.
   -9000010    2    1    2    0  501  0.30381685664E+03 -0.27490349073E+03  0.42869408325E+03  0.11586818755E+04  0.99543380492E+03 0.  0.
        -13    1    3    3    0    0 -0.12056867781E+03 -0.36375851958E+03 -0.41294374978E+03  0.56336455185E+03  0.10566000000E+00 0.  1.
          4    1    3    3  502    0 -0.18324817883E+03  0.63866201032E+03 -0.42004127048E+03  0.78606852587E+03  0.00000000000E+00 0.  1.
         13    1    4    4    0    0 -0.67716952541E+02  0.29204654936E+03  0.37301470753E+03  0.47855695153E+03  0.10566000000E+00 0. -1.
         -4    1    4    4    0  501  0.37153380918E+03 -0.56695004009E+03  0.55679375715E+02  0.68012492397E+03  0.00000000000E+00 0. -1.
<mgrwt>
<rscale>  2 0.10690303E+04</rscale>
<asrwt>0</asrwt>
<pdfrwt beam="2">  1        4 0.22403122E+00 0.10690303E+04</pdfrwt>
<pdfrwt beam="1">  1       -4 0.16183262E+00 0.10690303E+04</pdfrwt>
<totfact> 0.21002632E-01</totfact>
</mgrwt>
</event>
<event>
 8    1  0.1408247E-005  0.1161885E+04  0.7818608E-02  0.8635830E-01
         -1   -1    0    0    0  501 -0.00000000000E+00  0.00000000000E+00  0.47807880856E+03  0.47807880856E+03  0.00000000000E+00 0. -1.
          1   -1    0    0  502    0  0.00000000000E+00 -0.00000000000E+00 -0.28287560215E+04  0.28287560215E+04  0.00000000000E+00 0.  1.
    9000010    2    1    2  502    0 -0.11032510333E+03  0.62462760855E+03 -0.12602977512E+04  0.17359916057E+04  0.10114272863E+04 0.  0.
   -9000010    2    1    2    0  501  0.11032510333E+03 -0.62462760855E+03 -0.10903794617E+04  0.15708432244E+04  0.93610351307E+03 0.  0.
        -13    1    3    3    0    0  0.44439204668E+02 -0.22080958479E+03 -0.18808647833E+02  0.22602099912E+03  0.10566000000E+00 0.  1.
          4    1    3    3  502    0 -0.15476430800E+03  0.84543719334E+03 -0.12414891034E+04  0.15099706066E+04  0.00000000000E+00 0.  1.
         13    1    4    4    0    0  0.31260924496E+03 -0.73675250027E+03 -0.51756993487E+03  0.95310410519E+03  0.10566000000E+00 0. -1.
         -4    1    4    4    0  501 -0.20228414163E+03  0.11212489172E+03 -0.57280952685E+03  0.61773911916E+03  0.00000000000E+00 0. -1.
<mgrwt>
<rscale>  2 0.11618854E+04</rscale>
<asrwt>0</asrwt>
<pdfrwt beam="2">  1        1 0.43519324E+00 0.11618854E+04</pdfrwt>
<pdfrwt beam="1">  1       -1 0.73550585E-01 0.11618854E+04</pdfrwt>
<totfact> 0.13272402E+00</totfact>
</mgrwt>
</event>
<event>
 8    1  0.1408247E-005  0.1091710E+04  0.7818608E-02  0.8692897E-01
         -2   -1    0    0    0  501 -0.00000000000E+00  0.00000000000E+00  0.20753194813E+04  0.20753194813E+04  0.00000000000E+00 0.  1.
          2   -1    0    0  502    0  0.00000000000E+00 -0.00000000000E+00 -0.67299160919E+03  0.67299160919E+03  0.00000000000E+00 0. -1.
    9000010    2    1    2  502    0 -0.42698283317E+03  0.30505803283E+02  0.12286928457E+04  0.16451848278E+04  0.10068277234E+04 0.  0.
   -9000010    2    1    2    0  501  0.42698283317E+03 -0.30505803283E+02  0.17363502642E+03  0.11031262627E+04  0.10017452197E+04 0.  0.
        -13    1    3    3    0    0  0.21534154610E+03 -0.23531447251E+03  0.12873231515E+03  0.34397224100E+03  0.10566000000E+00 0.  1.
          4    1    3    3  502    0 -0.64232437927E+03  0.26582027580E+03  0.10999605306E+04  0.13012125868E+04  0.00000000000E+00 0.  1.
         13    1    4    4    0    0 -0.38939792134E+02  0.20660496075E+02 -0.37725019939E+03  0.37981691328E+03  0.10566000000E+00 0. -1.
         -4    1    4    4    0  501  0.46592262531E+03 -0.51166299358E+02  0.55088522581E+03  0.72330934944E+03  0.00000000000E+00 0. -1.
<mgrwt>
<rscale>  2 0.10917105E+04</rscale>
<asrwt>0</asrwt>
<pdfrwt beam="2">  1        2 0.10353717E+00 0.10917105E+04</pdfrwt>
<pdfrwt beam="1">  1       -2 0.31927992E+00 0.10917105E+04</pdfrwt>
<totfact> 0.81297691E-01</totfact>
</mgrwt>
</event>
<event>
 8    1  0.1408247E-005  0.1099995E+04  0.7818608E-02  0.8685930E-01
         -1   -1    0    0    0  501 -0.00000000000E+00  0.00000000000E+00  0.14504142109E+04  0.14504142109E+04  0.00000000000E+00 0.  1.
          1   -1    0    0  502    0  0.00000000000E+00 -0.00000000000E+00 -0.89083111333E+03  0.89083111333E+03  0.00000000000E+00 0. -1.
    9000010    2    1    2  502    0 -0.47511244034E+03 -0.18425600668E+02  0.57434231955E+03  0.12390675358E+04  0.98962009100E+03 0.  0.
   -9000010    2    1    2    0  501  0.47511244034E+03  0.18425600668E+02 -0.14759222000E+02  0.11021777884E+04  0.99423674692E+03 0.  0.
        -13    1    3    3    0    0 -0.33498604111E+02 -0.19080525511E+03 -0.23288738157E+03  0.30292795433E+03  0.10566000000E+00 0.  1.
          4    1    3    3  502    0 -0.44161383623E+03  0.17237965444E+03  0.80722970112E+03  0.93613958147E+03  0.00000000000E+00 0.  1.
         13    1    4    4    0    0  0.49888524544E+03  0.41673318183E+03  0.15545812135E+03  0.66837135757E+03  0.10566000000E+00 0. -1.
         -4    1    4    4    0  501 -0.23772805103E+02 -0.39830758116E+03 -0.17021734335E+03  0.43380643085E+03  0.00000000000E+00 0. -1.
<mgrwt>
<rscale>  2 0.10999954E+04</rscale>
<asrwt>0</asrwt>
<pdfrwt beam="2">  1        1 0.13705094E+00 0.10999954E+04</pdfrwt>
<pdfrwt beam="1">  1       -1 0.22314065E+00 0.10999954E+04</pdfrwt>
<totfact> 0.21850391E+00</totfact>
</mgrwt>
</event>
<event>
 8    1  0.1408247E-005  0.1546158E+04  0.7818608E-02  0.8383420E-01
          2   -1    0    0  502    0  0.00000000000E+00  0.00000000000E+00  0.32501641692E+04  0.32501641692E+04  0.00000000000E+00 0. -1.
         -2   -1    0    0    0  501 -0.00000000000E+00 -0.00000000000E+00 -0.92316159544E+03  0.92316159544E+03  0.00000000000E+00 0.  1.
    9000010    2    1    2  502    0  0.22926527529E+01  0.11837329661E+04  0.21048640708E+04  0.26123469129E+04  0.99633059037E+03 0.  0.
   -9000010    2    1    2    0  501 -0.22926527529E+01 -0.11837329661E+04  0.22213850296E+03  0.15609788518E+04  0.99301584573E+03 0.  0.
        -13    1    3    3    0    0 -0.21301163133E+03  0.11721121631E+04  0.12341265972E+04  0.17153102772E+04  0.10566000000E+00 0.  1.
          4    1    3    3  502    0  0.21530428408E+03  0.11620803019E+02  0.87073747364E+03  0.89703663571E+03  0.00000000000E+00 0.  1.
         13    1    4    4    0    0  0.23422204203E+03 -0.18646183515E+03  0.42133597791E+03  0.51686748630E+03  0.10566000000E+00 0. -1.
         -4    1    4    4    0  501 -0.23651469478E+03 -0.99727113096E+03 -0.19919747496E+03  0.10441113655E+04  0.00000000000E+00 0. -1.
<mgrwt>
<rscale>  2 0.15461579E+04</rscale>
<asrwt>0</asrwt>
<pdfrwt beam="1">  1        2 0.50002525E+00 0.15461579E+04</pdfrwt>
<pdfrwt beam="2">  1       -2 0.14202486E+00 0.15461579E+04</pdfrwt>
<totfact> 0.59083658E-01</totfact>
</mgrwt>
</event>
<event>
 8    1  0.1408247E-005  0.1580718E+04  0.7818608E-02  0.8364503E-01
          2   -1    0    0  502    0  0.00000000000E+00  0.00000000000E+00  0.28955741418E+04  0.28955741418E+04  0.00000000000E+00 0. -1.
         -2   -1    0    0    0  501 -0.00000000000E+00 -0.00000000000E+00 -0.86922881232E+03  0.86922881232E+03  0.00000000000E+00 0.  1.
    9000010    2    1    2  502    0 -0.54202681169E+03 -0.10965707916E+04  0.85354012716E+03  0.17973303214E+04  0.10027985690E+04 0.  0.
   -9000010    2    1    2    0  501  0.54202681169E+03  0.10965707916E+04  0.11728052023E+04  0.19674726327E+04  0.99960789929E+03 0.  0.
        -13    1    3    3    0    0 -0.46805381223E+03  0.30118631108E+01  0.15744632110E+03  0.49383478782E+03  0.10566000000E+00 0.  1.
          4    1    3    3  502    0 -0.73972999461E+02 -0.10995826547E+04  0.69609380606E+03  0.13034955336E+04  0.00000000000E+00 0.  1.
         13    1    4    4    0    0  0.64353727026E+03  0.69588844489E+03  0.28758967163E+03  0.99050935197E+03  0.10566000000E+00 0. -1.
         -4    1    4    4    0  501 -0.10151045856E+03  0.40068234673E+03  0.88521553070E+03  0.97696328077E+03  0.00000000000E+00 0. -1.
<mgrwt>
<rscale>  2 0.15807179E+04</rscale>
<asrwt>0</asrwt>
<pdfrwt beam="1">  1        2 0.44547294E+00 0.15807179E+04</pdfrwt>
<pdfrwt beam="2">  1       -2 0.13372751E+00 0.15807179E+04</pdfrwt>
<totfact> 0.11744889E+00</totfact>
</mgrwt>
</event>
<event>
 8    1  0.1408247E-005  0.1145467E+04  0.7818608E-02  0.8648799E-01
          4   -1    0    0  502    0  0.00000000000E+00  0.00000000000E+00  0.85310749616E+03  0.85310749616E+03  0.00000000000E+00 0. -1.
         -4   -1    0    0    0  501 -0.00000000000E+00 -0.00000000000E+00 -0.29633925658E+04  0.29633925658E+04  0.00000000000E+00 0.  1.
    9000010    2    1    2  502    0  0.36116332497E+03 -0.39815674353E+03 -0.23816738699E+04  0.26456588630E+04  0.10189075802E+04 0.  0.
   -9000010    2    1    2    0  501 -0.36116332497E+03  0.39815674353E+03  0.27138880023E+03  0.11708411990E+04  0.10041162745E+04 0.  0.
        -13    1    3    3    0    0 -0.11874739792E+03 -0.44607797597E+03 -0.41508063394E+03  0.62078857029E+03  0.10566000000E+00 0.  1.
          4    1    3    3  502    0  0.47991072290E+03  0.47921232439E+02 -0.19665932360E+04  0.20248702927E+04  0.00000000000E+00 0.  1.
         13    1    4    4    0    0 -0.30154017747E+02  0.61983671754E+03 -0.97158231720E+02  0.62812940892E+03  0.10566000000E+00 0. -1.
         -4    1    4    4    0  501 -0.33100930723E+03 -0.22167997401E+03  0.36854703195E+03  0.54271179009E+03  0.00000000000E+00 0. -1.
<mgrwt>
<rscale>  2 0.11454665E+04</rscale>
<asrwt>0</asrwt>
<pdfrwt beam="1">  1        4 0.13124731E+00 0.11454665E+04</pdfrwt>
<pdfrwt beam="2">  1       -4 0.45590654E+00 0.11454665E+04</pdfrwt>
<totfact> 0.49561292E-02</totfact>
</mgrwt>
</event>
<event>
 8    1  0.1408247E-005  0.1385459E+04  0.7818608E-02  0.8478629E-01
         -2   -1    0    0    0  501 -0.00000000000E+00  0.00000000000E+00  0.56277545786E+03  0.56277545786E+03  0.00000000000E+00 0. -1.
          2   -1    0    0  502    0  0.00000000000E+00 -0.00000000000E+00 -0.34183579684E+04  0.34183579684E+04  0.00000000000E+00 0.  1.
    9000010    2    1    2  502    0  0.74607711057E+03 -0.59101664389E+03 -0.14870770823E+04  0.20149864906E+04  0.97099978380E+03 0.  0.
   -9000010    2    1    2    0  501 -0.74607711057E+03  0.59101664389E+03 -0.13685054282E+04  0.19661469357E+04  0.10425904936E+04 0.  0.
        -13    1    3    3    0    0  0.78830307227E+02 -0.40964528864E+03 -0.11925628040E+04  0.12634197768E+04  0.10566000000E+00 0.  1.
          4    1    3    3  502    0  0.66724680334E+03 -0.18137135525E+03 -0.29451427833E+03  0.75156671375E+03  0.00000000000E+00 0.  1.
         13    1    4    4    0    0 -0.92768001191E+03  0.22160556282E+03 -0.70787157786E+03  0.11877631969E+04  0.10566000000E+00 0. -1.
         -4    1    4    4    0  501  0.18160290134E+03  0.36941108106E+03 -0.66063385036E+03  0.77838373880E+03  0.00000000000E+00 0. -1.
<mgrwt>
<rscale>  2 0.13854590E+04</rscale>
<asrwt>0</asrwt>
<pdfrwt beam="2">  1        2 0.52590121E+00 0.13854590E+04</pdfrwt>
<pdfrwt beam="1">  1       -2 0.86580842E-01 0.13854590E+04</pdfrwt>
<totfact> 0.16416828E+00</totfact>
</mgrwt>
</event>
<event>
 8    1  0.1408247E-005  0.1109989E+04  0.7818608E-02  0.8677612E-01
         -1   -1    0    0    0  501 -0.00000000000E+00  0.00000000000E+00  0.11185869850E+04  0.11185869850E+04  0.00000000000E+00 0. -1.
          1   -1    0    0  502    0  0.00000000000E+00 -0.00000000000E+00 -0.11245399072E+04  0.11245399072E+04  0.00000000000E+00 0.  1.
    9000010    2    1    2  502    0 -0.40961291302E+03 -0.18071400725E+03  0.15762978884E+03  0.11156275550E+04  0.10096224048E+04 0.  0.
   -9000010    2    1    2    0  501  0.40961291302E+03  0.18071400725E+03 -0.16358271101E+03  0.11274993372E+04  0.10217901747E+04 0.  0.
        -13    1    3    3    0    0 -0.60901702812E+03 -0.33953962097E+03  0.36498240264E+03  0.78702036832E+03  0.10566000000E+00 0.  1.
          4    1    3    3  502    0  0.19940411510E+03  0.15882561372E+03 -0.20735261379E+03  0.32860718668E+03  0.00000000000E+00 0.  1.
         13    1    4    4    0    0 -0.28445707637E+03  0.65396392113E+02 -0.29135399257E+03  0.41240717325E+03  0.10566000000E+00 0. -1.
         -4    1    4    4    0  501  0.69406998940E+03  0.11531761514E+03  0.12777128156E+03  0.71509216394E+03  0.00000000000E+00 0. -1.
<mgrwt>
<rscale>  2 0.11099886E+04</rscale>
<asrwt>0</asrwt>
<pdfrwt beam="2">  1        1 0.17300614E+00 0.11099886E+04</pdfrwt>
<pdfrwt beam="1">  1       -1 0.17209031E+00 0.11099886E+04</pdfrwt>
<totfact> 0.40253823E+00</totfact>
</mgrwt>
</event>
<event>
 8    1  0.1408247E-005  0.1251833E+04  0.7818608E-02  0.8568521E-01
         -2   -1    0    0    0  501 -0.00000000000E+00  0.00000000000E+00  0.84770116949E+03  0.84770116949E+03  0.00000000000E+00 0. -1.
          2   -1    0    0  502    0  0.00000000000E+00 -0.00000000000E+00 -0.18674212265E+04  0.18674212265E+04  0.00000000000E+00 0.  1.
    9000010    2    1    2  502    0  0.59802528173E+03 -0.45696855771E+03 -0.64381493299E+03  0.14030501635E+04  0.99377944890E+03 0.  0.
   -9000010    2    1    2    0  501 -0.59802528173E+03  0.45696855771E+03 -0.37590512404E+03  0.13120722325E+04  0.10068636356E+04 0.  0.
        -13    1    3    3    0    0  0.58625874178E+03 -0.47942441182E+03  0.14071386633E+01  0.75733022530E+03  0.10566000000E+00 0.  1.
          4    1    3    3  502    0  0.11766539957E+02  0.22455854101E+02 -0.64522207166E+03  0.64571993821E+03  0.00000000000E+00 0.  1.
         13    1    4    4    0    0  0.74759955724E+02  0.51513327732E+03 -0.36667949510E+03  0.63671438470E+03  0.10566000000E+00 0. -1.
         -4    1    4    4    0  501 -0.67278523746E+03 -0.58164719609E+02 -0.92256289337E+01  0.67535784780E+03  0.00000000000E+00 0. -1.
<mgrwt>
<rscale>  2 0.12518330E+04</rscale>
<asrwt>0</asrwt>
<pdfrwt beam="2">  1        2 0.28729557E+00 0.12518330E+04</pdfrwt>
<pdfrwt beam="1">  1       -2 0.13041557E+00 0.12518330E+04</pdfrwt>
<totfact> 0.49588703E+00</totfact>
</mgrwt>
</event>
<event>
 8    1  0.1408247E-005  0.1702304E+04  0.7818608E-02  0.8301723E-01
         -2   -1    0    0    0  501 -0.00000000000E+00  0.00000000000E+00  0.10520625044E+04  0.10520625044E+04  0.00000000000E+00 0.  1.
          2   -1    0    0  502    0  0.00000000000E+00 -0.00000000000E+00 -0.29660882359E+04  0.29660882359E+04  0.00000000000E+00 0. -1.
    9000010    2    1    2  502    0 -0.34436859855E+03  0.13285435501E+04 -0.41782871794E+03  0.17481224141E+04  0.99886607756E+03 0.  0.
   -9000010    2    1    2    0  501  0.34436859855E+03 -0.13285435501E+04 -0.14961970136E+04  0.22700283262E+04  0.10152858720E+04 0.  0.
        -13    1    3    3    0    0 -0.47319786771E+03  0.84007437664E+03  0.16352352087E+03  0.97794740827E+03  0.10566000000E+00 0.  1.
          4    1    3    3  502    0  0.12882926916E+03  0.48846917350E+03 -0.58135223882E+03  0.77017500585E+03  0.00000000000E+00 0.  1.
         13    1    4    4    0    0 -0.26166607392E+03 -0.57145906107E+03 -0.21729093882E+03  0.66501876363E+03  0.10566000000E+00 0. -1.
         -4    1    4    4    0  501  0.60603467246E+03 -0.75708448907E+03 -0.12789060748E+04  0.16050095625E+04  0.00000000000E+00 0. -1.
<mgrwt>
<rscale>  2 0.17023043E+04</rscale>
<asrwt>0</asrwt>
<pdfrwt beam="2">  1        2 0.45632126E+00 0.17023043E+04</pdfrwt>
<pdfrwt beam="1">  1       -2 0.16185577E+00 0.17023043E+04</pdfrwt>
<totfact> 0.58834508E-01</totfact>
</mgrwt>
</event>
<event>
 8    1  0.1408247E-005  0.1193490E+04  0.7818608E-02  0.8611481E-01
         -2   -1    0    0    0  501 -0.00000000000E+00  0.00000000000E+00  0.10638475762E+04  0.10638475762E+04  0.00000000000E+00 0. -1.
          2   -1    0    0  502    0  0.00000000000E+00 -0.00000000000E+00 -0.13414108942E+04  0.13414108942E+04  0.00000000000E+00 0.  1.
    9000010    2    1    2  502    0  0.63396743350E+03  0.56470934247E+02 -0.19067849821E+03  0.12104486528E+04  0.10117924581E+04 0.  0.
   -9000010    2    1    2    0  501 -0.63396743350E+03 -0.56470934247E+02 -0.86884819863E+02  0.11948098176E+04  0.10074313153E+04 0.  0.
        -13    1    3    3    0    0 -0.14531976610E+03 -0.29901796593E+03 -0.10969190528E+03  0.35008842257E+03  0.10566000000E+00 0.  1.
          4    1    3    3  502    0  0.77928719960E+03  0.35548890018E+03 -0.80986592934E+02  0.86036023028E+03  0.00000000000E+00 0.  1.
         13    1    4    4    0    0 -0.76630627458E+03  0.60195929277E+02 -0.37632193836E+03  0.85584289961E+03  0.10566000000E+00 0. -1.
         -4    1    4    4    0  501  0.13233884108E+03 -0.11666686352E+03  0.28943711850E+03  0.33896691795E+03  0.00000000000E+00 0. -1.
<mgrwt>
<rscale>  2 0.11934898E+04</rscale>
<asrwt>0</asrwt>
<pdfrwt beam="2">  1        2 0.20637091E+00 0.11934898E+04</pdfrwt>
<pdfrwt beam="1">  1       -2 0.16366886E+00 0.11934898E+04</pdfrwt>
<totfact> 0.48934524E+00</totfact>
</mgrwt>
</event>
<event>
 8    1  0.1408247E-005  0.1582860E+04  0.7818608E-02  0.8363347E-01
         -2   -1    0    0    0  501 -0.00000000000E+00  0.00000000000E+00  0.17649589609E+04  0.17649589609E+04  0.00000000000E+00 0. -1.
          2   -1    0    0  502    0  0.00000000000E+00 -0.00000000000E+00 -0.14370847214E+04  0.14370847214E+04  0.00000000000E+00 0.  1.
    9000010    2    1    2  502    0  0.52552328632E+03  0.11092780483E+04 -0.12875005685E+02  0.15833690953E+04  0.10001097006E+04 0.  0.
   -9000010    2    1    2    0  501 -0.52552328632E+03 -0.11092780483E+04  0.34074924517E+03  0.16186745870E+04  0.99866153310E+03 0.  0.
        -13    1    3    3    0    0 -0.10585563778E+03  0.68794428160E+03 -0.31805243011E+03  0.76526473204E+03  0.10566000000E+00 0.  1.
          4    1    3    3  502    0  0.63137892410E+03  0.42133376669E+03  0.30517742443E+03  0.81810436323E+03  0.00000000000E+00 0.  1.
         13    1    4    4    0    0 -0.24315434225E+02 -0.10314867944E+04  0.47658534799E+02  0.10328734649E+04  0.10566000000E+00 0. -1.
         -4    1    4    4    0  501 -0.50120785210E+03 -0.77791253891E+02  0.29309071037E+03  0.58580112213E+03  0.00000000000E+00 0. -1.
<mgrwt>
<rscale>  2 0.15828595E+04</rscale>
<asrwt>0</asrwt>
<pdfrwt beam="2">  1        2 0.22108996E+00 0.15828595E+04</pdfrwt>
<pdfrwt beam="1">  1       -2 0.27153215E+00 0.15828595E+04</pdfrwt>
<totfact> 0.55965277E-01</totfact>
</mgrwt>
</event>
<event>
 8    1  0.1408247E-005  0.1148386E+04  0.7818608E-02  0.8646476E-01
          1   -1    0    0  502    0  0.00000000000E+00  0.00000000000E+00  0.29069986039E+04  0.29069986039E+04  0.00000000000E+00 0.  1.
         -1   -1    0    0    0  501 -0.00000000000E+00 -0.00000000000E+00 -0.57952483394E+03  0.57952483394E+03  0.00000000000E+00 0. -1.
    9000010    2    1    2  502    0 -0.43388756029E+03 -0.38476964532E+03  0.34877021549E+03  0.11970896104E+04  0.98745975980E+03 0.  0.
   -9000010    2    1    2    0  501  0.43388756029E+03  0.38476964532E+03  0.19787035545E+04  0.22894338274E+04  0.99495396816E+03 0.  0.
        -13    1    3    3    0    0  0.67363704472E+02 -0.14716546714E+02 -0.29396033548E+03  0.30193895977E+03  0.10566000000E+00 0.  1.
          4    1    3    3  502    0 -0.50125126477E+03 -0.37005309860E+03  0.64273055097E+03  0.89515065065E+03  0.00000000000E+00 0.  1.
         13    1    4    4    0    0  0.58485688898E+03  0.29989788901E+03  0.20088491323E+04  0.21136393193E+04  0.10566000000E+00 0. -1.
         -4    1    4    4    0  501 -0.15096932869E+03  0.84871756307E+02 -0.30145577866E+02  0.17579450813E+03  0.00000000000E+00 0. -1.
<mgrwt>
<rscale>  2 0.11483859E+04</rscale>
<asrwt>0</asrwt>
<pdfrwt beam="1">  1        1 0.44723055E+00 0.11483859E+04</pdfrwt>
<pdfrwt beam="2">  1       -1 0.89157669E-01 0.11483859E+04</pdfrwt>
<totfact> 0.75835613E-01</totfact>
</mgrwt>
</event>
<event>
 8    1  0.1408247E-005  0.1095338E+04  0.7818608E-02  0.8689839E-01
          1   -1    0    0  502    0  0.00000000000E+00  0.00000000000E+00  0.16135125721E+04  0.16135125721E+04  0.00000000000E+00 0.  1.
         -1   -1    0    0    0  501 -0.00000000000E+00 -0.00000000000E+00 -0.75646700501E+03  0.75646700501E+03  0.00000000000E+00 0. -1.
    9000010    2    1    2  502    0 -0.41860622722E+03 -0.18652544602E+03  0.27467688325E+03  0.11313755256E+04  0.99726640082E+03 0.  0.
   -9000010    2    1    2    0  501  0.41860622722E+03  0.18652544602E+03  0.58236868384E+03  0.12386040515E+04  0.99245342312E+03 0.  0.
        -13    1    3    3    0    0 -0.16832511938E+03  0.12096515435E+03  0.58964639367E+03  0.62501903580E+03  0.10566000000E+00 0.  1.
          4    1    3    3  502    0 -0.25028110784E+03 -0.30749060037E+03 -0.31496951042E+03  0.50635648978E+03  0.00000000000E+00 0.  1.
         13    1    4    4    0    0 -0.30081339026E+03  0.11043947124E+03  0.35957453910E+03  0.48164243262E+03  0.10566000000E+00 0. -1.
         -4    1    4    4    0  501  0.71941961748E+03  0.76085974781E+02  0.22279414474E+03  0.75696161891E+03  0.00000000000E+00 0. -1.
<mgrwt>
<rscale>  2 0.10953380E+04</rscale>
<asrwt>0</asrwt>
<pdfrwt beam="1">  1        1 0.24823270E+00 0.10953380E+04</pdfrwt>
<pdfrwt beam="2">  1       -1 0.11637954E+00 0.10953380E+04</pdfrwt>
<totfact> 0.52851867E+00</totfact>
</mgrwt>
</event>
<event>
 8    1  0.1408247E-005  0.1538947E+04  0.7818608E-02  0.8387431E-01
          2   -1    0    0  502    0  0.00000000000E+00  0.00000000000E+00  0.30596917553E+04  0.30596917553E+04  0.00000000000E+00 0.  1.
         -2   -1    0    0    0  501 -0.00000000000E+00 -0.00000000000E+00 -0.77468655172E+03  0.77468655172E+03  0.00000000000E+00 0. -1.
    9000010    2    1    2  502    0  0.75686007026E+03  0.87216499751E+03  0.11011641501E+04  0.19040327122E+04  0.10388787873E+04 0.  0.
   -9000010    2    1    2    0  501 -0.75686007026E+03 -0.87216499751E+03  0.11838410535E+04  0.19303455948E+04  0.99561314111E+03 0.  0.
        -13    1    3    3    0    0  0.76334770571E+03  0.86991255140E+03  0.12796673951E+04  0.17253974093E+04  0.10566000000E+00 0.  1.
          4    1    3    3  502    0 -0.64876354468E+01  0.22524461117E+01 -0.17850324503E+03  0.17863530282E+03  0.00000000000E+00 0.  1.
         13    1    4    4    0    0  0.17742753874E+02 -0.73282528630E+03  0.64620686740E+03  0.97720572665E+03  0.10566000000E+00 0. -1.
         -4    1    4    4    0  501 -0.77460282414E+03 -0.13933971121E+03  0.53763418607E+03  0.95313986818E+03  0.00000000000E+00 0. -1.
<mgrwt>
<rscale>  2 0.15389468E+04</rscale>
<asrwt>0</asrwt>
<pdfrwt beam="1">  1        2 0.47072180E+00 0.15389468E+04</pdfrwt>
<pdfrwt beam="2">  1       -2 0.11918255E+00 0.15389468E+04</pdfrwt>
<totfact> 0.12789398E+00</totfact>
</mgrwt>
</event>
<event>
 8    1  0.1408247E-005  0.1315831E+04  0.7818608E-02  0.8524096E-01
         -1   -1    0    0    0  501 -0.00000000000E+00  0.00000000000E+00  0.13348797017E+04  0.13348797017E+04  0.00000000000E+00 0.  1.
          1   -1    0    0  502    0  0.00000000000E+00 -0.00000000000E+00 -0.14910094273E+04  0.14910094273E+04  0.00000000000E+00 0. -1.
    9000010    2    1    2  502    0  0.49393564764E+03 -0.70598766371E+03 -0.58774645252E+03  0.14425002400E+04  0.99647882296E+03 0.  0.
   -9000010    2    1    2    0  501 -0.49393564764E+03  0.70598766371E+03  0.43161672694E+03  0.13833888890E+04  0.99251237468E+03 0.  0.
        -13    1    3    3    0    0  0.70438661807E+03 -0.68824330820E+03 -0.20583967875E+03  0.10060861511E+04  0.10566000000E+00 0.  1.
          4    1    3    3  502    0 -0.21045097042E+03 -0.17744355509E+02 -0.38190677377E+03  0.43641408886E+03  0.00000000000E+00 0.  1.
         13    1    4    4    0    0 -0.33431541789E+03  0.73356691805E+03  0.70149079553E+03  0.10686330377E+04  0.10566000000E+00 0. -1.
         -4    1    4    4    0  501 -0.15962022976E+03 -0.27579254345E+02 -0.26987406860E+03  0.31475585129E+03  0.00000000000E+00 0. -1.
<mgrwt>
<rscale>  2 0.13158313E+04</rscale>
<asrwt>0</asrwt>
<pdfrwt beam="2">  1        1 0.22938607E+00 0.13158313E+04</pdfrwt>
<pdfrwt beam="1">  1       -1 0.20536611E+00 0.13158313E+04</pdfrwt>
<totfact> 0.10517085E+00</totfact>
</mgrwt>
</event>
<event>
 8    1  0.1408247E-005  0.1074642E+04  0.7818608E-02  0.8707456E-01
          2   -1    0    0  502    0  0.00000000000E+00  0.00000000000E+00  0.12654997847E+04  0.12654997847E+04  0.00000000000E+00 0. -1.
         -2   -1    0    0    0  501 -0.00000000000E+00 -0.00000000000E+00 -0.91391921397E+03  0.91391921397E+03  0.00000000000E+00 0.  1.
    9000010    2    1    2  502    0  0.68912678355E+02  0.38634364850E+03  0.13337804823E+03  0.10776306635E+04  0.99472999916E+03 0.  0.
   -9000010    2    1    2    0  501 -0.68912678355E+02 -0.38634364850E+03  0.21820252251E+03  0.11017883352E+04  0.10061385703E+04 0.  0.
        -13    1    3    3    0    0  0.35547192434E+03  0.24061632448E+03 -0.31034314793E+03  0.52968800744E+03  0.10566000000E+00 0.  1.
          4    1    3    3  502    0 -0.28655924598E+03  0.14572732402E+03  0.44372119616E+03  0.54794265608E+03  0.00000000000E+00 0.  1.
         13    1    4    4    0    0  0.42534606971E+03 -0.40142677670E+03  0.99698673604E+02  0.59329804715E+03  0.10566000000E+00 0. -1.
         -4    1    4    4    0  501 -0.49425874807E+03  0.15083128208E+02  0.11850384890E+03  0.50849028801E+03  0.00000000000E+00 0. -1.
<mgrwt>
<rscale>  2 0.10746419E+04</rscale>
<asrwt>0</asrwt>
<pdfrwt beam="1">  1        2 0.19469227E+00 0.10746419E+04</pdfrwt>
<pdfrwt beam="2">  1       -2 0.14060296E+00 0.10746419E+04</pdfrwt>
<totfact> 0.87134309E+00</totfact>
</mgrwt>
</event>
<event>
 8    1  0.1408247E-005  0.1053789E+04  0.7818608E-02  0.8725630E-01
         -1   -1    0    0    0  501 -0.00000000000E+00  0.00000000000E+00  0.42289262623E+04  0.42289262623E+04  0.00000000000E+00 0. -1.
          1   -1    0    0  502    0  0.00000000000E+00 -0.00000000000E+00 -0.26292112249E+03  0.26292112249E+03  0.00000000000E+00 0.  1.
    9000010    2    1    2  502    0 -0.24468739987E+03 -0.36113405284E+03  0.19636512549E+04  0.22137665486E+04  0.92441676379E+03 0.  0.
   -9000010    2    1    2    0  501  0.24468739987E+03  0.36113405284E+03  0.20023538849E+04  0.22780808361E+04  0.99495803322E+03 0.  0.
        -13    1    3    3    0    0 -0.26524023161E+03 -0.66412468086E+03  0.14577395821E+04  0.16237052296E+04  0.10566000000E+00 0.  1.
          4    1    3    3  502    0  0.20552831744E+02  0.30299062802E+03  0.50591167283E+03  0.59006131907E+03  0.00000000000E+00 0.  1.
         13    1    4    4    0    0  0.53575352749E+03  0.15716494553E+03  0.55320230321E+03  0.78598057340E+03  0.10566000000E+00 0. -1.
         -4    1    4    4    0  501 -0.29106612762E+03  0.20396910732E+03  0.14491515817E+04  0.14921002627E+04  0.00000000000E+00 0. -1.
<mgrwt>
<rscale>  2 0.10537894E+04</rscale>
<asrwt>0</asrwt>
<pdfrwt beam="2">  1        1 0.40449406E-01 0.10537894E+04</pdfrwt>
<pdfrwt beam="1">  1       -1 0.65060399E+00 0.10537894E+04</pdfrwt>
<totfact> 0.17678241E-01</totfact>
</mgrwt>
</event>
<event>
 8    1  0.1408247E-005  0.1635819E+04  0.7818608E-02  0.8335355E-01
         -2   -1    0    0    0  501 -0.00000000000E+00  0.00000000000E+00  0.11902694481E+04  0.11902694481E+04  0.00000000000E+00 0.  1.
          2   -1    0    0  502    0  0.00000000000E+00 -0.00000000000E+00 -0.24274838365E+04  0.24274838365E+04  0.00000000000E+00 0. -1.
    9000010    2    1    2  502    0  0.11469877888E+04 -0.60741214048E+03 -0.12626048425E+03  0.16387102790E+04  0.99242086457E+03 0.  0.
   -9000010    2    1    2    0  501 -0.11469877888E+04  0.60741214048E+03 -0.11109539041E+04  0.19790430056E+04  0.99893050057E+03 0.  0.
        -13    1    3    3    0    0  0.81909075036E+03 -0.20533380305E+03 -0.51617234071E+03  0.98969971430E+03  0.10566000000E+00 0.  1.
          4    1    3    3  502    0  0.32789703847E+03 -0.40207833743E+03  0.38991185646E+03  0.64901056469E+03  0.00000000000E+00 0.  1.
         13    1    4    4    0    0 -0.99469220213E+03  0.80532257834E+02 -0.10128531472E+04  0.14218894227E+04  0.10566000000E+00 0. -1.
         -4    1    4    4    0  501 -0.15229558669E+03  0.52687988265E+03 -0.98100756976E+02  0.55715358294E+03  0.00000000000E+00 0. -1.
<mgrwt>
<rscale>  2 0.16358188E+04</rscale>
<asrwt>0</asrwt>
<pdfrwt beam="2">  1        2 0.37345905E+00 0.16358188E+04</pdfrwt>
<pdfrwt beam="1">  1       -2 0.18311838E+00 0.16358188E+04</pdfrwt>
<totfact> 0.81299420E-01</totfact>
</mgrwt>
</event>
<event>
 8    1  0.1408247E-005  0.1283822E+04  0.7818608E-02  0.8545981E-01
          2   -1    0    0  502    0  0.00000000000E+00  0.00000000000E+00  0.19547624566E+04  0.19547624566E+04  0.00000000000E+00 0. -1.
         -2   -1    0    0    0  501 -0.00000000000E+00 -0.00000000000E+00 -0.85371457527E+03  0.85371457527E+03  0.00000000000E+00 0.  1.
    9000010    2    1    2  502    0  0.80317322960E+03  0.41564058889E+00  0.70796612560E+03  0.14690469290E+04  0.10058804279E+04 0.  0.
   -9000010    2    1    2    0  501 -0.80317322960E+03 -0.41564058889E+00  0.39308175571E+03  0.13394301028E+04  0.99723233208E+03 0.  0.
        -13    1    3    3    0    0  0.34291707861E+03 -0.45308588301E+03  0.90640701192E+02  0.57540827945E+03  0.10566000000E+00 0.  1.
          4    1    3    3  502    0  0.46025615099E+03  0.45350152360E+03  0.61732542441E+03  0.89363864960E+03  0.00000000000E+00 0.  1.
         13    1    4    4    0    0 -0.98158650547E+03  0.20964748284E+03  0.33127547552E+03  0.10569804098E+04  0.10566000000E+00 0. -1.
         -4    1    4    4    0  501  0.17841327587E+03 -0.21006312343E+03  0.61806280191E+02  0.28244969305E+03  0.00000000000E+00 0. -1.
<mgrwt>
<rscale>  2 0.12838218E+04</rscale>
<asrwt>0</asrwt>
<pdfrwt beam="1">  1        2 0.30073268E+00 0.12838218E+04</pdfrwt>
<pdfrwt beam="2">  1       -2 0.13134070E+00 0.12838218E+04</pdfrwt>
<totfact> 0.43419845E+00</totfact>
</mgrwt>
</event>
<event>
 8    1  0.1408247E-005  0.1959585E+04  0.7818608E-02  0.8185048E-01
          2   -1    0    0  502    0  0.00000000000E+00  0.00000000000E+00  0.10871681171E+04  0.10871681171E+04  0.00000000000E+00 0. -1.
         -2   -1    0    0    0  501 -0.00000000000E+00 -0.00000000000E+00 -0.36777644525E+04  0.36777644525E+04  0.00000000000E+00 0.  1.
    9000010    2    1    2  502    0 -0.16057508474E+04  0.42521755491E+03 -0.17473996278E+04  0.26017731230E+04  0.97804507649E+03 0.  0.
   -9000010    2    1    2    0  501  0.16057508474E+04 -0.42521755491E+03 -0.84319670757E+03  0.21631594466E+04  0.10995600715E+04 0.  0.
        -13    1    3    3    0    0  0.34156943487E+02  0.26023064467E+03 -0.13134001157E+03  0.29349087723E+03  0.10566000000E+00 0.  1.
          4    1    3    3  502    0 -0.16399077908E+04  0.16498691024E+03 -0.16160596162E+04  0.23082822458E+04  0.00000000000E+00 0.  1.
         13    1    4    4    0    0 -0.67117992605E+02 -0.10767885239E+03  0.14640349730E+03  0.19373578753E+03  0.10566000000E+00 0. -1.
         -4    1    4    4    0  501  0.16728688400E+04 -0.31753870252E+03 -0.98960020487E+03  0.19694236590E+04  0.00000000000E+00 0. -1.
<mgrwt>
<rscale>  2 0.19595851E+04</rscale>
<asrwt>0</asrwt>
<pdfrwt beam="1">  1        2 0.16725663E+00 0.19595851E+04</pdfrwt>
<pdfrwt beam="2">  1       -2 0.56580992E+00 0.19595851E+04</pdfrwt>
<totfact> 0.13653873E-01</totfact>
</mgrwt>
</event>
<event>
 8    1  0.1408247E-005  0.1522932E+04  0.7818608E-02  0.8396423E-01
          2   -1    0    0  502    0  0.00000000000E+00  0.00000000000E+00  0.26798490374E+04  0.26798490374E+04  0.00000000000E+00 0. -1.
         -2   -1    0    0    0  501 -0.00000000000E+00 -0.00000000000E+00 -0.86869480247E+03  0.86869480247E+03  0.00000000000E+00 0.  1.
    9000010    2    1    2  502    0 -0.51988475255E+03 -0.10129310945E+04  0.80022109616E+03  0.17243632096E+04  0.10182166360E+04 0.  0.
   -9000010    2    1    2    0  501  0.51988475255E+03  0.10129310945E+04  0.10109331388E+04  0.18241806303E+04  0.10046589484E+04 0.  0.
        -13    1    3    3    0    0 -0.37693124000E+03 -0.12137667348E+04  0.73967813182E+03  0.14705205188E+04  0.10566000000E+00 0.  1.
          4    1    3    3  502    0 -0.14295351256E+03  0.20083564030E+03  0.60542964333E+02  0.25384269085E+03  0.00000000000E+00 0.  1.
         13    1    4    4    0    0 -0.17320871598E+03  0.34935193673E+03 -0.50651862845E+02  0.39320943193E+03  0.10566000000E+00 0. -1.
         -4    1    4    4    0  501  0.69309346853E+03  0.66357915780E+03  0.10615850016E+04  0.14309711983E+04  0.00000000000E+00 0. -1.
<mgrwt>
<rscale>  2 0.15229318E+04</rscale>
<asrwt>0</asrwt>
<pdfrwt beam="1">  1        2 0.41228446E+00 0.15229318E+04</pdfrwt>
<pdfrwt beam="2">  1       -2 0.13364536E+00 0.15229318E+04</pdfrwt>
<totfact> 0.15915974E+00</totfact>
</mgrwt>
</event>
<event>
 8    1  0.1408247E-005  0.1088026E+04  0.7818608E-02  0.8696016E-01
          1   -1    0    0  502    0  0.00000000000E+00  0.00000000000E+00  0.37604788160E+03  0.37604788160E+03  0.00000000000E+00 0. -1.
         -1   -1    0    0    0  501 -0.00000000000E+00 -0.00000000000E+00 -0.35134613989E+04  0.35134613989E+04  0.00000000000E+00 0.  1.
    9000010    2    1    2  502    0  0.13976828496E+03  0.42820667301E+03 -0.92753875882E+03  0.14213897034E+04  0.97832735399E+03 0.  0.
   -9000010    2    1    2    0  501 -0.13976828496E+03 -0.42820667301E+03 -0.22098747585E+04  0.24681195771E+04  0.10025825005E+04 0.  0.
        -13    1    3    3    0    0  0.30811226989E+03  0.16507908756E+03 -0.10339129534E+04  0.10914028965E+04  0.10566000000E+00 0.  1.
          4    1    3    3  502    0 -0.16834398493E+03  0.26312758546E+03  0.10637419459E+03  0.32998680696E+03  0.00000000000E+00 0.  1.
         13    1    4    4    0    0 -0.52589660072E+03 -0.48048001484E+02 -0.80905191989E+03  0.96614743458E+03  0.10566000000E+00 0. -1.
         -4    1    4    4    0  501  0.38612831577E+03 -0.38015867153E+03 -0.14008228386E+04  0.15019721425E+04  0.00000000000E+00 0. -1.
<mgrwt>
<rscale>  2 0.10880259E+04</rscale>
<asrwt>0</asrwt>
<pdfrwt beam="1">  1        1 0.57853521E-01 0.10880259E+04</pdfrwt>
<pdfrwt beam="2">  1       -1 0.54053252E+00 0.10880259E+04</pdfrwt>
<totfact> 0.61179691E-01</totfact>
</mgrwt>
</event>
<event>
 8    1  0.1408247E-005  0.1277848E+04  0.7818608E-02  0.8550138E-01
          1   -1    0    0  502    0  0.00000000000E+00  0.00000000000E+00  0.22836517741E+04  0.22836517741E+04  0.00000000000E+00 0.  1.
         -1   -1    0    0    0  501 -0.00000000000E+00 -0.00000000000E+00 -0.80158375228E+03  0.80158375228E+03  0.00000000000E+00 0. -1.
    9000010    2    1    2  502    0 -0.49224799690E+03  0.63280809638E+03  0.12486977356E+04  0.17877397391E+04  0.99700208751E+03 0.  0.
   -9000010    2    1    2    0  501  0.49224799690E+03 -0.63280809638E+03  0.23337028618E+03  0.12974957873E+04  0.99311603058E+03 0.  0.
        -13    1    3    3    0    0 -0.39215568116E+03 -0.17826366685E+03  0.62790645592E+03  0.76146604766E+03  0.10566000000E+00 0.  1.
          4    1    3    3  502    0 -0.10009231574E+03  0.81107176323E+03  0.62079127970E+03  0.10262736914E+04  0.00000000000E+00 0.  1.
         13    1    4    4    0    0 -0.22976782688E+03 -0.26846635863E+03  0.32939255613E+03  0.48308064253E+03  0.10566000000E+00 0. -1.
         -4    1    4    4    0  501  0.72201582377E+03 -0.36434173774E+03 -0.96022269954E+02  0.81441514473E+03  0.00000000000E+00 0. -1.
<mgrwt>
<rscale>  2 0.12778482E+04</rscale>
<asrwt>0</asrwt>
<pdfrwt beam="1">  1        1 0.35133104E+00 0.12778482E+04</pdfrwt>
<pdfrwt beam="2">  1       -1 0.12332058E+00 0.12778482E+04</pdfrwt>
<totfact> 0.13710384E+00</totfact>
</mgrwt>
</event>
<event>
 8    1  0.1408247E-005  0.1385035E+04  0.7818608E-02  0.8478897E-01
         -1   -1    0    0    0  501 -0.00000000000E+00  0.00000000000E+00  0.13190928954E+04  0.13190928954E+04  0.00000000000E+00 0. -1.
          1   -1    0    0  502    0  0.00000000000E+00 -0.00000000000E+00 -0.16134003933E+04  0.16134003933E+04  0.00000000000E+00 0.  1.
    9000010    2    1    2  502    0 -0.22150403210E+03 -0.94252693192E+03 -0.60778137324E+03  0.15140066827E+04  0.99267163952E+03 0.  0.
   -9000010    2    1    2    0  501  0.22150403210E+03  0.94252693192E+03  0.31347387533E+03  0.14184866060E+04  0.98813831378E+03 0.  0.
        -13    1    3    3    0    0 -0.21984809564E+03 -0.14979184869E+03 -0.66796264481E+03  0.71898879624E+03  0.10566000000E+00 0.  1.
          4    1    3    3  502    0 -0.16559364606E+01 -0.79273508323E+03  0.60181271567E+02  0.79501788644E+03  0.00000000000E+00 0.  1.
         13    1    4    4    0    0  0.22915137714E+03 -0.15504954491E+03 -0.11509460707E+01  0.27668041286E+03  0.10566000000E+00 0. -1.
         -4    1    4    4    0  501 -0.76473450371E+01  0.10975764768E+04  0.31462482140E+03  0.11418061931E+04  0.00000000000E+00 0. -1.
<mgrwt>
<rscale>  2 0.13850354E+04</rscale>
<asrwt>0</asrwt>
<pdfrwt beam="2">  1        1 0.24821544E+00 0.13850354E+04</pdfrwt>
<pdfrwt beam="1">  1       -1 0.20293737E+00 0.13850354E+04</pdfrwt>
<totfact> 0.88895354E-01</totfact>
</mgrwt>
</event>
<event>
 8    1  0.1408247E-005  0.1610163E+04  0.7818608E-02  0.8348776E-01
          1   -1    0    0  502    0  0.00000000000E+00  0.00000000000E+00  0.22503759874E+04  0.22503759874E+04  0.00000000000E+00 0. -1.
         -1   -1    0    0    0  501 -0.00000000000E+00 -0.00000000000E+00 -0.11521810142E+04  0.11521810142E+04  0.00000000000E+00 0.  1.
    9000010    2    1    2  502    0 -0.69265007760E+03  0.10524464182E+04  0.53375599506E+03  0.16966412522E+04  0.10031393139E+04 0.  0.
   -9000010    2    1    2    0  501  0.69265007760E+03 -0.10524464182E+04  0.56443897814E+03  0.17059157495E+04  0.10020726478E+04 0.  0.
        -13    1    3    3    0    0 -0.39390176519E+03 -0.84508491759E+02 -0.64353576241E+01  0.40291650598E+03  0.10566000000E+00 0.  1.
          4    1    3    3  502    0 -0.29874831241E+03  0.11369549099E+04  0.54019135268E+03  0.12937247462E+04  0.00000000000E+00 0.  1.
         13    1    4    4    0    0  0.76054365465E+03 -0.32193885560E+03  0.86677822623E+02  0.83041214675E+03  0.10566000000E+00 0. -1.
         -4    1    4    4    0  501 -0.67893577049E+02 -0.73050756257E+03  0.47776115552E+03  0.87550360279E+03  0.00000000000E+00 0. -1.
<mgrwt>
<rscale>  2 0.16101635E+04</rscale>
<asrwt>0</asrwt>
<pdfrwt beam="1">  1        1 0.34621169E+00 0.16101635E+04</pdfrwt>
<pdfrwt beam="2">  1       -1 0.17725862E+00 0.16101635E+04</pdfrwt>
<totfact> 0.47262140E-01</totfact>
</mgrwt>
</event>
<event>
 8    1  0.1408247E-005  0.1011964E+04  0.7818608E-02  0.8763431E-01
         -1   -1    0    0    0  501 -0.00000000000E+00  0.00000000000E+00  0.68419731728E+03  0.68419731728E+03  0.00000000000E+00 0. -1.
          1   -1    0    0  502    0  0.00000000000E+00 -0.00000000000E+00 -0.18406833901E+04  0.18406833901E+04  0.00000000000E+00 0.  1.
    9000010    2    1    2  502    0 -0.15913858035E+02 -0.20970738854E+03 -0.29936268671E+02  0.10067349757E+04  0.98406742219E+03 0.  0.
   -9000010    2    1    2    0  501  0.15913858035E+02  0.20970738854E+03 -0.11265498042E+04  0.15181457317E+04  0.99570154250E+03 0.  0.
        -13    1    3    3    0    0 -0.47252137216E+03 -0.13967256872E+03  0.14365814798E+03  0.51324706355E+03  0.10566000000E+00 0.  1.
          4    1    3    3  502    0  0.45660751412E+03 -0.70034819812E+02 -0.17359441665E+03  0.49348791214E+03  0.00000000000E+00 0.  1.
         13    1    4    4    0    0  0.23415195057E+03  0.40003637407E+03 -0.13150122507E+03  0.48181824363E+03  0.10566000000E+00 0. -1.
         -4    1    4    4    0  501 -0.21823809254E+03 -0.19032898553E+03 -0.99504857911E+03  0.10363274881E+04  0.00000000000E+00 0. -1.
<mgrwt>
<rscale>  2 0.10119638E+04</rscale>
<asrwt>0</asrwt>
<pdfrwt beam="2">  1        1 0.28318206E+00 0.10119638E+04</pdfrwt>
<pdfrwt beam="1">  1       -1 0.10526113E+00 0.10119638E+04</pdfrwt>
<totfact> 0.45650134E+00</totfact>
</mgrwt>
</event>
<event>
 8    1  0.1408247E-005  0.1768674E+04  0.7818608E-02  0.8269692E-01
          2   -1    0    0  502    0  0.00000000000E+00  0.00000000000E+00  0.28625542418E+04  0.28625542418E+04  0.00000000000E+00 0. -1.
         -2   -1    0    0    0  501 -0.00000000000E+00 -0.00000000000E+00 -0.10928126553E+04  0.10928126553E+04  0.00000000000E+00 0.  1.
    9000010    2    1    2  502    0  0.73803019396E+03  0.12484796090E+04  0.88710980484E+03  0.19835197866E+04  0.10217617319E+04 0.  0.
   -9000010    2    1    2    0  501 -0.73803019396E+03 -0.12484796090E+04  0.88263178159E+03  0.19718471105E+04  0.10028720078E+04 0.  0.
        -13    1    3    3    0    0  0.66514953198E+03  0.12143775064E+04  0.33364784384E+03  0.14242392786E+04  0.10566000000E+00 0.  1.
          4    1    3    3  502    0  0.72880661985E+02  0.34102102569E+02  0.55346196100E+03  0.55928050794E+03  0.00000000000E+00 0.  1.
         13    1    4    4    0    0 -0.72378987475E+03 -0.31409724625E+03  0.61325658189E+03  0.99930601383E+03  0.10566000000E+00 0. -1.
         -4    1    4    4    0  501 -0.14240319215E+02 -0.93438236274E+03  0.26937519970E+03  0.97254109666E+03  0.00000000000E+00 0. -1.
<mgrwt>
<rscale>  2 0.17686735E+04</rscale>
<asrwt>0</asrwt>
<pdfrwt beam="1">  1        2 0.44039296E+00 0.17686735E+04</pdfrwt>
<pdfrwt beam="2">  1       -2 0.16812502E+00 0.17686735E+04</pdfrwt>
<totfact> 0.59837595E-01</totfact>
</mgrwt>
</event>
<event>
 8    1  0.1408247E-005  0.1222630E+04  0.7818608E-02  0.8589714E-01
          1   -1    0    0  502    0  0.00000000000E+00  0.00000000000E+00  0.83589704093E+03  0.83589704093E+03  0.00000000000E+00 0.  1.
         -1   -1    0    0    0  501 -0.00000000000E+00 -0.00000000000E+00 -0.18084043410E+04  0.18084043410E+04  0.00000000000E+00 0. -1.
    9000010    2    1    2  502    0  0.69527456847E+03  0.55008191692E+02 -0.62800508481E+03  0.13800810681E+04  0.10118303915E+04 0.  0.
   -9000010    2    1    2    0  501 -0.69527456847E+03 -0.55008191692E+02 -0.34450221526E+03  0.12642203139E+04  0.99656339434E+03 0.  0.
        -13    1    3    3    0    0 -0.89504944223E+02 -0.32145641331E+03 -0.55491611257E+02  0.33826718845E+03  0.10566000000E+00 0.  1.
          4    1    3    3  502    0  0.78477951269E+03  0.37646460500E+03 -0.57251347355E+03  0.10418138796E+04  0.00000000000E+00 0.  1.
         13    1    4    4    0    0 -0.56054628124E+03 -0.48216687991E+03 -0.79143118972E+02  0.74361325832E+03  0.10566000000E+00 0. -1.
         -4    1    4    4    0  501 -0.13472828723E+03  0.42715868822E+03 -0.26535909629E+03  0.52060705554E+03  0.00000000000E+00 0. -1.
<mgrwt>
<rscale>  2 0.12226298E+04</rscale>
<asrwt>0</asrwt>
<pdfrwt beam="1">  1        1 0.12859954E+00 0.12226298E+04</pdfrwt>
<pdfrwt beam="2">  1       -1 0.27821605E+00 0.12226298E+04</pdfrwt>
<totfact> 0.70303888E-01</totfact>
</mgrwt>
</event>
<event>
 8    1  0.1408247E-005  0.1154930E+04  0.7818608E-02  0.8641296E-01
          2   -1    0    0  502    0  0.00000000000E+00  0.00000000000E+00  0.11623191412E+04  0.11623191412E+04  0.00000000000E+00 0.  1.
         -2   -1    0    0    0  501 -0.00000000000E+00 -0.00000000000E+00 -0.11489924140E+04  0.11489924140E+04  0.00000000000E+00 0. -1.
    9000010    2    1    2  502    0 -0.19666301177E+03 -0.56065479412E+03 -0.32108490048E+02  0.11665451299E+04  0.10033874858E+04 0.  0.
   -9000010    2    1    2    0  501  0.19666301177E+03  0.56065479412E+03  0.45435217187E+02  0.11447664253E+04  0.97745366701E+03 0.  0.
        -13    1    3    3    0    0  0.14766030326E+03 -0.69194472123E+03  0.19471318689E+03  0.73382852132E+03  0.10566000000E+00 0.  1.
          4    1    3    3  502    0 -0.34432331503E+03  0.13128992711E+03 -0.22682167694E+03  0.43271660860E+03  0.00000000000E+00 0.  1.
         13    1    4    4    0    0 -0.33617633087E+03  0.50696822404E+03  0.27961831616E+02  0.60894431668E+03  0.10566000000E+00 0. -1.
         -4    1    4    4    0  501  0.53283934264E+03  0.53686570077E+02  0.17473385571E+02  0.53582210861E+03  0.00000000000E+00 0. -1.
<mgrwt>
<rscale>  2 0.11549303E+04</rscale>
<asrwt>0</asrwt>
<pdfrwt beam="1">  1        2 0.17881833E+00 0.11549303E+04</pdfrwt>
<pdfrwt beam="2">  1       -2 0.17676806E+00 0.11549303E+04</pdfrwt>
<totfact> 0.48135270E+00</totfact>
</mgrwt>
</event>
<event>
 8    1  0.1408247E-005  0.1191038E+04  0.7818608E-02  0.8613342E-01
          2   -1    0    0  502    0  0.00000000000E+00  0.00000000000E+00  0.16724074188E+04  0.16724074188E+04  0.00000000000E+00 0. -1.
         -2   -1    0    0    0  501 -0.00000000000E+00 -0.00000000000E+00 -0.92567326184E+03  0.92567326184E+03  0.00000000000E+00 0.  1.
    9000010    2    1    2  502    0 -0.57939005092E+03 -0.31266607181E+03 -0.11129105577E+01  0.11953972755E+04  0.99775773821E+03 0.  0.
   -9000010    2    1    2    0  501  0.57939005092E+03  0.31266607181E+03  0.74784706752E+03  0.14026834051E+04  0.98731585376E+03 0.  0.
        -13    1    3    3    0    0 -0.86006742258E+03 -0.24717806871E+03  0.72851098070E+02  0.89784200319E+03  0.10566000000E+00 0.  1.
          4    1    3    3  502    0  0.28067737166E+03 -0.65488003093E+02 -0.73964008628E+02  0.29755527231E+03  0.00000000000E+00 0.  1.
         13    1    4    4    0    0  0.60638127229E+03  0.41329694402E+02  0.90335069266E+03  0.10887832090E+04  0.10566000000E+00 0. -1.
         -4    1    4    4    0  501 -0.26991221361E+02  0.27133637740E+03 -0.15550362514E+03  0.31390019618E+03  0.00000000000E+00 0. -1.
<mgrwt>
<rscale>  2 0.11910380E+04</rscale>
<asrwt>0</asrwt>
<pdfrwt beam="1">  1        2 0.25729345E+00 0.11910380E+04</pdfrwt>
<pdfrwt beam="2">  1       -2 0.14241127E+00 0.11910380E+04</pdfrwt>
<totfact> 0.49546095E+00</totfact>
</mgrwt>
</event>
<event>
 8    1  0.1408247E-005  0.1184578E+04  0.7818608E-02  0.8618267E-01
         -2   -1    0    0    0  501 -0.00000000000E+00  0.00000000000E+00  0.50174068507E+03  0.50174068507E+03  0.00000000000E+00 0. -1.
          2   -1    0    0  502    0  0.00000000000E+00 -0.00000000000E+00 -0.28144349529E+04  0.28144349529E+04  0.00000000000E+00 0.  1.
    9000010    2    1    2  502    0  0.49751183982E+03 -0.39210112562E+03 -0.10305232037E+04  0.15743923751E+04  0.10077062835E+04 0.  0.
   -9000010    2    1    2    0  501 -0.49751183982E+03  0.39210112562E+03 -0.12821710641E+04  0.17417832629E+04  0.99427610541E+03 0.  0.
        -13    1    3    3    0    0  0.64572367240E+03 -0.68803610110E+02 -0.10313263109E+04  0.12187399101E+04  0.10566000000E+00 0.  1.
          4    1    3    3  502    0 -0.14821183258E+03 -0.32329751551E+03  0.80310715913E+00  0.35565246496E+03  0.00000000000E+00 0.  1.
         13    1    4    4    0    0  0.18664667469E+03  0.11578341027E+03  0.44151730139E+02  0.22403608126E+03  0.10566000000E+00 0. -1.
         -4    1    4    4    0  501 -0.68415851451E+03  0.27631771535E+03 -0.13263227943E+04  0.15177471817E+04  0.00000000000E+00 0. -1.
<mgrwt>
<rscale>  2 0.11845781E+04</rscale>
<asrwt>0</asrwt>
<pdfrwt beam="2">  1        2 0.43299000E+00 0.11845781E+04</pdfrwt>
<pdfrwt beam="1">  1       -2 0.77190873E-01 0.11845781E+04</pdfrwt>
<totfact> 0.52914437E+00</totfact>
</mgrwt>
</event>
<event>
 8    1  0.1408247E-005  0.2052761E+04  0.7818608E-02  0.8147242E-01
          2   -1    0    0  502    0  0.00000000000E+00  0.00000000000E+00  0.23531286003E+04  0.23531286003E+04  0.00000000000E+00 0.  1.
         -2   -1    0    0    0  501 -0.00000000000E+00 -0.00000000000E+00 -0.29661264827E+04  0.29661264827E+04  0.00000000000E+00 0. -1.
    9000010    2    1    2  502    0 -0.10691430282E+04  0.14326904993E+04  0.13672003869E+04  0.24712440474E+04  0.10208532521E+04 0.  0.
   -9000010    2    1    2    0  501  0.10691430282E+04 -0.14326904993E+04 -0.19801982694E+04  0.28480110356E+04  0.99715234094E+03 0.  0.
        -13    1    3    3    0    0 -0.96116090623E+03  0.12195720283E+04  0.15317425417E+04  0.21811514036E+04  0.10566000000E+00 0.  1.
          4    1    3    3  502    0 -0.10798212201E+03  0.21311847095E+03 -0.16454215476E+03  0.29009264387E+03  0.00000000000E+00 0.  1.
         13    1    4    4    0    0  0.89124442604E+02 -0.78132331996E+03 -0.41310765286E+03  0.88829456860E+03  0.10566000000E+00 0. -1.
         -4    1    4    4    0  501  0.98001858564E+03 -0.65136717933E+03 -0.15670906165E+04  0.19597164670E+04  0.00000000000E+00 0. -1.
<mgrwt>
<rscale>  2 0.20527611E+04</rscale>
<asrwt>0</asrwt>
<pdfrwt beam="1">  1        2 0.36201978E+00 0.20527611E+04</pdfrwt>
<pdfrwt beam="2">  1       -2 0.45632715E+00 0.20527611E+04</pdfrwt>
<totfact> 0.18621035E-02</totfact>
</mgrwt>
</event>
<event>
 8    1  0.1408247E-005  0.1091155E+04  0.7818608E-02  0.8693367E-01
          2   -1    0    0  502    0  0.00000000000E+00  0.00000000000E+00  0.20429900356E+04  0.20429900356E+04  0.00000000000E+00 0.  1.
         -2   -1    0    0    0  501 -0.00000000000E+00 -0.00000000000E+00 -0.58708014256E+03  0.58708014256E+03  0.00000000000E+00 0. -1.
    9000010    2    1    2  502    0 -0.41273239076E+03 -0.14296370596E+03  0.83346163667E+03  0.13654162157E+04  0.98940208943E+03 0.  0.
   -9000010    2    1    2    0  501  0.41273239076E+03  0.14296370596E+03  0.62244825634E+03  0.12646539625E+04  0.10105054009E+04 0.  0.
        -13    1    3    3    0    0  0.19959601545E+03  0.27525137042E+03  0.25978997261E+03  0.42789335977E+03  0.10566000000E+00 0.  1.
          4    1    3    3  502    0 -0.61232840622E+03 -0.41821507637E+03  0.57367166406E+03  0.93752285589E+03  0.00000000000E+00 0.  1.
         13    1    4    4    0    0  0.35090321379E+03  0.56293887996E+03  0.28331554895E+03  0.72131890274E+03  0.10566000000E+00 0. -1.
         -4    1    4    4    0  501  0.61829176975E+02 -0.41997517400E+03  0.33913270739E+03  0.54333505972E+03  0.00000000000E+00 0. -1.
<mgrwt>
<rscale>  2 0.10911547E+04</rscale>
<asrwt>0</asrwt>
<pdfrwt beam="1">  1        2 0.31430616E+00 0.10911547E+04</pdfrwt>
<pdfrwt beam="2">  1       -2 0.90320023E-01 0.10911547E+04</pdfrwt>
<totfact> 0.10191278E+01</totfact>
</mgrwt>
</event>
<event>
 8    1  0.1408247E-005  0.1308970E+04  0.7818608E-02  0.8528732E-01
         -2   -1    0    0    0  501 -0.00000000000E+00  0.00000000000E+00  0.71792600827E+03  0.71792600827E+03  0.00000000000E+00 0.  1.
          2   -1    0    0  502    0  0.00000000000E+00 -0.00000000000E+00 -0.24819373373E+04  0.24819373373E+04  0.00000000000E+00 0. -1.
    9000010    2    1    2  502    0 -0.83074375964E+03 -0.18607588820E+03 -0.11972258077E+04  0.17758105290E+04  0.99769432681E+03 0.  0.
   -9000010    2    1    2    0  501  0.83074375964E+03  0.18607588820E+03 -0.56678552136E+03  0.14240528167E+04  0.99091935449E+03 0.  0.
        -13    1    3    3    0    0 -0.85780544223E+03 -0.39570360841E+03 -0.12413132840E+04  0.15598942921E+04  0.10566000000E+00 0.  1.
          4    1    3    3  502    0  0.27061682595E+02  0.20962772022E+03  0.44087476304E+02  0.21591623681E+03  0.00000000000E+00 0.  1.
         13    1    4    4    0    0  0.31907295543E+03  0.33069930435E+03  0.19156977907E+03  0.49786400975E+03  0.10566000000E+00 0. -1.
         -4    1    4    4    0  501  0.51167080421E+03 -0.14462341616E+03 -0.75835530043E+03  0.92618880692E+03  0.00000000000E+00 0. -1.
<mgrwt>
<rscale>  2 0.13089705E+04</rscale>
<asrwt>0</asrwt>
<pdfrwt beam="2">  1        2 0.38183652E+00 0.13089705E+04</pdfrwt>
<pdfrwt beam="1">  1       -2 0.11045015E+00 0.13089705E+04</pdfrwt>
<totfact> 0.35189460E+00</totfact>
</mgrwt>
</event>
<event>
 8    1  0.1408247E-005  0.1248458E+04  0.7818608E-02  0.8570939E-01
          2   -1    0    0  502    0  0.00000000000E+00  0.00000000000E+00  0.16623523244E+04  0.16623523244E+04  0.00000000000E+00 0.  1.
         -2   -1    0    0    0  501 -0.00000000000E+00 -0.00000000000E+00 -0.10972127143E+04  0.10972127143E+04  0.00000000000E+00 0. -1.
    9000010    2    1    2  502    0  0.29435797916E+03 -0.71021352711E+03 -0.24206366689E+03  0.12794920895E+04  0.99370786168E+03 0.  0.
   -9000010    2    1    2    0  501 -0.29435797916E+03  0.71021352711E+03  0.80720327697E+03  0.14800729492E+04  0.97364723107E+03 0.  0.
        -13    1    3    3    0    0  0.48209354013E+03 -0.74507085508E+03 -0.45182636829E+03  0.99583725516E+03  0.10566000000E+00 0.  1.
          4    1    3    3  502    0 -0.18773556097E+03  0.34857327976E+02  0.20976270139E+03  0.28365483437E+03  0.00000000000E+00 0.  1.
         13    1    4    4    0    0 -0.15556681468E+03  0.35811340086E+03 -0.17470751172E+03  0.42774872007E+03  0.10566000000E+00 0. -1.
         -4    1    4    4    0  501 -0.13879116448E+03  0.35210012624E+03  0.98191078868E+03  0.10523242291E+04  0.00000000000E+00 0. -1.
<mgrwt>
<rscale>  2 0.12484579E+04</rscale>
<asrwt>0</asrwt>
<pdfrwt beam="1">  1        2 0.25574651E+00 0.12484579E+04</pdfrwt>
<pdfrwt beam="2">  1       -2 0.16880196E+00 0.12484579E+04</pdfrwt>
<totfact> 0.29344625E+00</totfact>
</mgrwt>
</event>
<event>
 8    1  0.1408247E-005  0.1145633E+04  0.7818608E-02  0.8648666E-01
          2   -1    0    0  502    0  0.00000000000E+00  0.00000000000E+00  0.13990231754E+04  0.13990231754E+04  0.00000000000E+00 0. -1.
         -2   -1    0    0    0  501 -0.00000000000E+00 -0.00000000000E+00 -0.93928308567E+03  0.93928308567E+03  0.00000000000E+00 0.  1.
    9000010    2    1    2  502    0  0.30156863327E+03  0.43943342877E+03  0.24634655060E+03  0.11400282312E+04  0.97720640918E+03 0.  0.
   -9000010    2    1    2    0  501 -0.30156863327E+03 -0.43943342877E+03  0.21339353913E+03  0.11982780298E+04  0.10518022891E+04 0.  0.
        -13    1    3    3    0    0  0.35103972977E+03 -0.30329098007E+02  0.49392282727E+03  0.60671947103E+03  0.10566000000E+00 0.  1.
          4    1    3    3  502    0 -0.49471096495E+02  0.46976252678E+03 -0.24757627667E+03  0.53330876022E+03  0.00000000000E+00 0.  1.
         13    1    4    4    0    0 -0.22732799371E+03  0.13535330162E+03  0.48941023393E+03  0.55634604450E+03  0.10566000000E+00 0. -1.
         -4    1    4    4    0  501 -0.74240639560E+02 -0.57478673039E+03 -0.27601669480E+03  0.64193198534E+03  0.00000000000E+00 0. -1.
<mgrwt>
<rscale>  2 0.11456333E+04</rscale>
<asrwt>0</asrwt>
<pdfrwt beam="1">  1        2 0.21523433E+00 0.11456333E+04</pdfrwt>
<pdfrwt beam="2">  1       -2 0.14450509E+00 0.11456333E+04</pdfrwt>
<totfact> 0.67275501E+00</totfact>
</mgrwt>
</event>
<event>
 8    1  0.1408247E-005  0.1188948E+04  0.7818608E-02  0.8614932E-01
          2   -1    0    0  502    0  0.00000000000E+00  0.00000000000E+00  0.34239195938E+03  0.34239195938E+03  0.00000000000E+00 0. -1.
         -2   -1    0    0    0  501 -0.00000000000E+00 -0.00000000000E+00 -0.41459787635E+04  0.41459787635E+04  0.00000000000E+00 0.  1.
    9000010    2    1    2  502    0  0.59339180005E+02 -0.52974124136E+03 -0.17224612353E+04  0.20568148100E+04  0.98968052151E+03 0.  0.
   -9000010    2    1    2    0  501 -0.59339180005E+02  0.52974124136E+03 -0.20811255688E+04  0.24315559128E+04  0.11389616336E+04 0.  0.
        -13    1    3    3    0    0  0.34245543307E+03 -0.63288858543E+03 -0.15517823281E+04  0.17105122304E+04  0.10566000000E+00 0.  1.
          4    1    3    3  502    0 -0.28311625306E+03  0.10314734407E+03 -0.17067890716E+03  0.34630257967E+03  0.00000000000E+00 0.  1.
         13    1    4    4    0    0  0.27291527919E+03 -0.26063578644E+03 -0.43766185193E+03  0.57789416902E+03  0.10566000000E+00 0. -1.
         -4    1    4    4    0  501 -0.33225445919E+03  0.79037702780E+03 -0.16434637169E+04  0.18536617438E+04  0.00000000000E+00 0. -1.
<mgrwt>
<rscale>  2 0.11889477E+04</rscale>
<asrwt>0</asrwt>
<pdfrwt beam="1">  1        2 0.52675684E-01 0.11889477E+04</pdfrwt>
<pdfrwt beam="2">  1       -2 0.63784291E+00 0.11889477E+04</pdfrwt>
<totfact> 0.55232417E-01</totfact>
</mgrwt>
</event>
<event>
 8    1  0.1408247E-005  0.1391717E+04  0.7818608E-02  0.8474678E-01
          1   -1    0    0  502    0  0.00000000000E+00  0.00000000000E+00  0.11086346592E+04  0.11086346592E+04  0.00000000000E+00 0. -1.
         -1   -1    0    0    0  501 -0.00000000000E+00 -0.00000000000E+00 -0.17796365624E+04  0.17796365624E+04  0.00000000000E+00 0.  1.
    9000010    2    1    2  502    0  0.24411953193E+03  0.93113151323E+03 -0.14812397883E+03  0.14254610532E+04  0.10408641892E+04 0.  0.
   -9000010    2    1    2    0  501 -0.24411953193E+03 -0.93113151323E+03 -0.52287792433E+03  0.14628101684E+04  0.96943902559E+03 0.  0.
        -13    1    3    3    0    0  0.48058624804E+03  0.82798310388E+03  0.21386548123E+03  0.98094730610E+03  0.10566000000E+00 0.  1.
          4    1    3    3  502    0 -0.23646671611E+03  0.10314840935E+03 -0.36198946006E+03  0.44451374712E+03  0.00000000000E+00 0.  1.
         13    1    4    4    0    0  0.28219062425E+02 -0.10631220957E+04 -0.41121824758E+03  0.11402303996E+04  0.10566000000E+00 0. -1.
         -4    1    4    4    0  501 -0.27233859435E+03  0.13199058250E+03 -0.11165967675E+03  0.32257976882E+03  0.00000000000E+00 0. -1.
<mgrwt>
<rscale>  2 0.13917167E+04</rscale>
<asrwt>0</asrwt>
<pdfrwt beam="1">  1        1 0.17055918E+00 0.13917167E+04</pdfrwt>
<pdfrwt beam="2">  1       -1 0.27379024E+00 0.13917167E+04</pdfrwt>
<totfact> 0.45215205E-01</totfact>
</mgrwt>
</event>
<event>
 8    1  0.1408247E-005  0.1421204E+04  0.7818608E-02  0.8456341E-01
          2   -1    0    0  502    0  0.00000000000E+00  0.00000000000E+00  0.25671092645E+04  0.25671092645E+04  0.00000000000E+00 0.  1.
         -2   -1    0    0    0  501 -0.00000000000E+00 -0.00000000000E+00 -0.81918521028E+03  0.81918521028E+03  0.00000000000E+00 0. -1.
    9000010    2    1    2  502    0  0.52077876910E+03 -0.86923869657E+03  0.53841887968E+03  0.15214561060E+04  0.99907324775E+03 0.  0.
   -9000010    2    1    2    0  501 -0.52077876910E+03  0.86923869657E+03  0.12095051745E+04  0.18648383688E+04  0.99394815592E+03 0.  0.
        -13    1    3    3    0    0 -0.28248465885E+03 -0.75521283339E+02  0.84345643366E+02  0.30432752988E+03  0.10566000000E+00 0.  1.
          4    1    3    3  502    0  0.80326342795E+03 -0.79371741323E+03  0.45407323632E+03  0.12171285761E+04  0.00000000000E+00 0.  1.
         13    1    4    4    0    0 -0.90810497537E+02 -0.21754770313E+03  0.31301843920E+03  0.39185980151E+03  0.10566000000E+00 0. -1.
         -4    1    4    4    0  501 -0.42996827157E+03  0.10867863997E+04  0.89648673532E+03  0.14729785673E+04  0.00000000000E+00 0. -1.
<mgrwt>
<rscale>  2 0.14212038E+04</rscale>
<asrwt>0</asrwt>
<pdfrwt beam="1">  1        2 0.39493988E+00 0.14212038E+04</pdfrwt>
<pdfrwt beam="2">  1       -2 0.12602850E+00 0.14212038E+04</pdfrwt>
<totfact> 0.22010386E+00</totfact>
</mgrwt>
</event>
<event>
 8    1  0.1408247E-005  0.1175400E+04  0.7818608E-02  0.8625321E-01
          2   -1    0    0  502    0  0.00000000000E+00  0.00000000000E+00  0.35841611668E+04  0.35841611668E+04  0.00000000000E+00 0. -1.
         -2   -1    0    0    0  501 -0.00000000000E+00 -0.00000000000E+00 -0.38832732526E+03  0.38832732526E+03  0.00000000000E+00 0.  1.
    9000010    2    1    2  502    0  0.55958974628E+03 -0.10466179523E+02  0.14081874416E+04  0.18242852275E+04  0.10157630114E+04 0.  0.
   -9000010    2    1    2    0  501 -0.55958974628E+03  0.10466179523E+02  0.17876463999E+04  0.21482032646E+04  0.10515927870E+04 0.  0.
        -13    1    3    3    0    0  0.59705088002E+03 -0.79227469865E+02  0.15496610937E+04  0.16625872193E+04  0.10566000000E+00 0.  1.
          4    1    3    3  502    0 -0.37461133742E+02  0.68761290341E+02 -0.14147365212E+03  0.16169800813E+03  0.00000000000E+00 0.  1.
         13    1    4    4    0    0 -0.77042323367E+02  0.46062073999E+03  0.41332580013E+03  0.62365472332E+03  0.10566000000E+00 0. -1.
         -4    1    4    4    0  501 -0.48254742291E+03 -0.45015456047E+03  0.13743205998E+04  0.15245485413E+04  0.00000000000E+00 0. -1.
<mgrwt>
<rscale>  2 0.11753999E+04</rscale>
<asrwt>0</asrwt>
<pdfrwt beam="1">  1        2 0.55140939E+00 0.11753999E+04</pdfrwt>
<pdfrwt beam="2">  1       -2 0.59742668E-01 0.11753999E+04</pdfrwt>
<totfact> 0.28001756E+00</totfact>
</mgrwt>
</event>
<event>
 8    1  0.1408247E-005  0.1045744E+04  0.7818608E-02  0.8732759E-01
          2   -1    0    0  502    0  0.00000000000E+00  0.00000000000E+00  0.14575687809E+04  0.14575687809E+04  0.00000000000E+00 0.  1.
         -2   -1    0    0    0  501 -0.00000000000E+00 -0.00000000000E+00 -0.80008367706E+03  0.80008367706E+03  0.00000000000E+00 0. -1.
    9000010    2    1    2  502    0  0.10799978213E+03  0.13775612984E+03  0.57129711479E+02  0.10760287810E+04  0.10601572663E+04 0.  0.
   -9000010    2    1    2    0  501 -0.10799978213E+03 -0.13775612984E+03  0.60035539236E+03  0.11816236770E+04  0.10025802774E+04 0.  0.
        -13    1    3    3    0    0  0.54680307467E+03 -0.24609821459E+02 -0.14518069404E+03  0.56628322496E+03  0.10566000000E+00 0.  1.
          4    1    3    3  502    0 -0.43880329254E+03  0.16236595130E+03  0.20231040552E+03  0.50974555600E+03  0.00000000000E+00 0.  1.
         13    1    4    4    0    0  0.10699359576E+03  0.41287079614E+03  0.26082850606E+03  0.49994144115E+03  0.10566000000E+00 0. -1.
         -4    1    4    4    0  501 -0.21499337789E+03 -0.55062692598E+03  0.33952688630E+03  0.68168223585E+03  0.00000000000E+00 0. -1.
<mgrwt>
<rscale>  2 0.10457437E+04</rscale>
<asrwt>0</asrwt>
<pdfrwt beam="1">  1        2 0.22424135E+00 0.10457437E+04</pdfrwt>
<pdfrwt beam="2">  1       -2 0.12308980E+00 0.10457437E+04</pdfrwt>
<totfact> 0.99217696E+00</totfact>
</mgrwt>
</event>
<event>
 8    1  0.1408247E-005  0.1356999E+04  0.7818608E-02  0.8496874E-01
          2   -1    0    0  502    0  0.00000000000E+00  0.00000000000E+00  0.20429600795E+04  0.20429600795E+04  0.00000000000E+00 0. -1.
         -2   -1    0    0    0  501 -0.00000000000E+00 -0.00000000000E+00 -0.12097108313E+04  0.12097108313E+04  0.00000000000E+00 0.  1.
    9000010    2    1    2  502    0  0.56046498174E+03  0.74057989152E+03  0.12361336566E+04  0.18306448773E+04  0.98012992928E+03 0.  0.
   -9000010    2    1    2    0  501 -0.56046498174E+03 -0.74057989152E+03 -0.40288440840E+03  0.14220260335E+04  0.99863037309E+03 0.  0.
        -13    1    3    3    0    0  0.49211435026E+03  0.96334073421E+03  0.11585238079E+04  0.15850486834E+04  0.10566000000E+00 0.  1.
          4    1    3    3  502    0  0.68350631479E+02 -0.22276084269E+03  0.77609848682E+02  0.24559619393E+03  0.00000000000E+00 0.  1.
         13    1    4    4    0    0 -0.45766172469E+03 -0.97456082526E+03 -0.44127004112E+03  0.11635902701E+04  0.10566000000E+00 0. -1.
         -4    1    4    4    0  501 -0.10280325705E+03  0.23398093374E+03  0.38385632715E+02  0.25843576342E+03  0.00000000000E+00 0. -1.
<mgrwt>
<rscale>  2 0.13569994E+04</rscale>
<asrwt>0</asrwt>
<pdfrwt beam="1">  1        2 0.31430155E+00 0.13569994E+04</pdfrwt>
<pdfrwt beam="2">  1       -2 0.18610936E+00 0.13569994E+04</pdfrwt>
<totfact> 0.12882933E+00</totfact>
</mgrwt>
</event>
<event>
 8    1  0.1408247E-005  0.1194803E+04  0.7818608E-02  0.8610486E-01
          2   -1    0    0  502    0  0.00000000000E+00  0.00000000000E+00  0.16817962827E+04  0.16817962827E+04  0.00000000000E+00 0.  1.
         -2   -1    0    0    0  501 -0.00000000000E+00 -0.00000000000E+00 -0.99473619077E+03  0.99473619077E+03  0.00000000000E+00 0. -1.
    9000010    2    1    2  502    0  0.26469456598E+02 -0.59161916215E+03 -0.17546231655E+03  0.11773883725E+04  0.10023684403E+04 0.  0.
   -9000010    2    1    2    0  501 -0.26469456598E+02  0.59161916215E+03  0.86252240844E+03  0.14991441009E+04  0.10736732580E+04 0.  0.
        -13    1    3    3    0    0 -0.96830651624E+02 -0.48333849637E+03  0.36448309920E+03  0.61305808692E+03  0.10566000000E+00 0.  1.
          4    1    3    3  502    0  0.12330010822E+03 -0.10828066578E+03 -0.53994541576E+03  0.56433028562E+03  0.00000000000E+00 0.  1.
         13    1    4    4    0    0 -0.32971907233E+03  0.17330026507E+03  0.90705125372E+03  0.98055577943E+03  0.10566000000E+00 0. -1.
         -4    1    4    4    0  501  0.30324961573E+03  0.41831889708E+03 -0.44528845281E+02  0.51858832146E+03  0.00000000000E+00 0. -1.
<mgrwt>
<rscale>  2 0.11948032E+04</rscale>
<asrwt>0</asrwt>
<pdfrwt beam="1">  1        2 0.25873789E+00 0.11948032E+04</pdfrwt>
<pdfrwt beam="2">  1       -2 0.15303634E+00 0.11948032E+04</pdfrwt>
<totfact> 0.39395312E+00</totfact>
</mgrwt>
</event>
<event>
 8    1  0.1408247E-005  0.1142172E+04  0.7818608E-02  0.8651429E-01
          2   -1    0    0  502    0  0.00000000000E+00  0.00000000000E+00  0.14105986432E+04  0.14105986432E+04  0.00000000000E+00 0. -1.
         -2   -1    0    0    0  501 -0.00000000000E+00 -0.00000000000E+00 -0.93768217973E+03  0.93768217973E+03  0.00000000000E+00 0.  1.
    9000010    2    1    2  502    0  0.24958979841E+03 -0.49252100083E+03  0.37485015199E+03  0.12067351708E+04  0.10053979970E+04 0.  0.
   -9000010    2    1    2    0  501 -0.24958979841E+03  0.49252100083E+03  0.98066311518E+02  0.11415456521E+04  0.99430250462E+03 0.  0.
        -13    1    3    3    0    0  0.35547196487E+03 -0.70465017211E+03  0.50431543945E+03  0.93660357488E+03  0.10566000000E+00 0.  1.
          4    1    3    3  502    0 -0.10588216646E+03  0.21212917128E+03 -0.12946528745E+03  0.27013159596E+03  0.00000000000E+00 0.  1.
         13    1    4    4    0    0 -0.32483418994E+03  0.63830128527E+03 -0.24851867096E+03  0.75809453415E+03  0.10566000000E+00 0. -1.
         -4    1    4    4    0  501  0.75244391534E+02 -0.14578028444E+03  0.34658498248E+03  0.38345111797E+03  0.00000000000E+00 0. -1.
<mgrwt>
<rscale>  2 0.11421717E+04</rscale>
<asrwt>0</asrwt>
<pdfrwt beam="1">  1        2 0.21701518E+00 0.11421717E+04</pdfrwt>
<pdfrwt beam="2">  1       -2 0.14425880E+00 0.11421717E+04</pdfrwt>
<totfact> 0.66652296E+00</totfact>
</mgrwt>
</event>
<event>
 8    1  0.1408247E-005  0.1721992E+04  0.7818608E-02  0.8292067E-01
         -2   -1    0    0    0  501 -0.00000000000E+00  0.00000000000E+00  0.91429666085E+03  0.91429666085E+03  0.00000000000E+00 0. -1.
          2   -1    0    0  502    0  0.00000000000E+00 -0.00000000000E+00 -0.32591824150E+04  0.32591824150E+04  0.00000000000E+00 0.  1.
    9000010    2    1    2  502    0  0.12815265033E+04 -0.52410397469E+03 -0.13270757383E+04  0.21852644500E+04  0.10474996640E+04 0.  0.
   -9000010    2    1    2    0  501 -0.12815265033E+04  0.52410397469E+03 -0.10178100158E+04  0.19882146259E+04  0.10000325073E+04 0.  0.
        -13    1    3    3    0    0  0.18997690045E+03 -0.14693053200E+03  0.17018926275E+03  0.29435386911E+03  0.10566000000E+00 0.  1.
          4    1    3    3  502    0  0.10915496028E+04 -0.37717344268E+03 -0.14972650011E+04  0.18909105808E+04  0.00000000000E+00 0.  1.
         13    1    4    4    0    0 -0.99122688011E+03  0.64915216582E+03 -0.11447992281E+04  0.16475723189E+04  0.10566000000E+00 0. -1.
         -4    1    4    4    0  501 -0.29029962315E+03 -0.12504819113E+03  0.12698921224E+03  0.34064230703E+03  0.00000000000E+00 0. -1.
<mgrwt>
<rscale>  2 0.17219922E+04</rscale>
<asrwt>0</asrwt>
<pdfrwt beam="2">  1        2 0.50141267E+00 0.17219922E+04</pdfrwt>
<pdfrwt beam="1">  1       -2 0.14066103E+00 0.17219922E+04</pdfrwt>
<totfact> 0.58789420E-01</totfact>
</mgrwt>
</event>
<event>
 8    1  0.1408247E-005  0.1345343E+04  0.7818608E-02  0.8504480E-01
         -2   -1    0    0    0  501 -0.00000000000E+00  0.00000000000E+00  0.25633890081E+04  0.25633890081E+04  0.00000000000E+00 0.  1.
          2   -1    0    0  502    0  0.00000000000E+00 -0.00000000000E+00 -0.72705378678E+03  0.72705378678E+03  0.00000000000E+00 0. -1.
    9000010    2    1    2  502    0 -0.25861701904E+03  0.85180943340E+03  0.64867583989E+03  0.15064568605E+04  0.10277012474E+04 0.  0.
   -9000010    2    1    2    0  501  0.25861701904E+03 -0.85180943340E+03  0.11876593815E+04  0.17839859344E+04  0.98975195607E+03 0.  0.
        -13    1    3    3    0    0  0.19677571702E+03 -0.53943996330E+02 -0.11773559219E+03  0.23556807589E+03  0.10566000000E+00 0.  1.
          4    1    3    3  502    0 -0.45539273606E+03  0.90575342973E+03  0.76641143208E+03  0.12708887846E+04  0.00000000000E+00 0.  1.
         13    1    4    4    0    0  0.51508550768E+03 -0.88747235063E+03  0.73394981458E+03  0.12615873314E+04  0.10566000000E+00 0. -1.
         -4    1    4    4    0  501 -0.25646848864E+03  0.35662917239E+02  0.45370956689E+03  0.52239860300E+03  0.00000000000E+00 0. -1.
<mgrwt>
<rscale>  2 0.13453426E+04</rscale>
<asrwt>0</asrwt>
<pdfrwt beam="2">  1        2 0.11185443E+00 0.13453426E+04</pdfrwt>
<pdfrwt beam="1">  1       -2 0.39436754E+00 0.13453426E+04</pdfrwt>
<totfact> 0.21884306E-01</totfact>
</mgrwt>
</event>
<event>
 8    1  0.1408247E-005  0.1583566E+04  0.7818608E-02  0.8362967E-01
         -4   -1    0    0    0  501 -0.00000000000E+00  0.00000000000E+00  0.80838967860E+03  0.80838967860E+03  0.00000000000E+00 0.  1.
          4   -1    0    0  502    0  0.00000000000E+00 -0.00000000000E+00 -0.33233237835E+04  0.33233237835E+04  0.00000000000E+00 0. -1.
    9000010    2    1    2  502    0 -0.45190324222E+02 -0.12240057724E+04 -0.72826314907E+03  0.17476596751E+04  0.10117879369E+04 0.  0.
   -9000010    2    1    2    0  501  0.45190324222E+02  0.12240057724E+04 -0.17866709559E+04  0.23840537870E+04  0.99563399830E+03 0.  0.
        -13    1    3    3    0    0 -0.32062617063E+01 -0.19115215060E+03  0.25653865409E+03  0.31993986466E+03  0.10566000000E+00 0.  1.
          4    1    3    3  502    0 -0.41984062516E+02 -0.10328536218E+04 -0.98480180316E+03  0.14277198104E+04  0.00000000000E+00 0.  1.
         13    1    4    4    0    0 -0.18992356956E+03  0.10077315690E+04 -0.67571998259E+03  0.12280844366E+04  0.10566000000E+00 0. -1.
         -4    1    4    4    0  501  0.23511389378E+03  0.21627420347E+03 -0.11109509733E+04  0.11559693504E+04  0.00000000000E+00 0. -1.
<mgrwt>
<rscale>  2 0.15835659E+04</rscale>
<asrwt>0</asrwt>
<pdfrwt beam="2">  1        4 0.51128058E+00 0.15835659E+04</pdfrwt>
<pdfrwt beam="1">  1       -4 0.12436764E+00 0.15835659E+04</pdfrwt>
<totfact> 0.28641411E-02</totfact>
</mgrwt>
</event>
<event>
 8    1  0.1408247E-005  0.1090679E+04  0.7818608E-02  0.8693769E-01
          1   -1    0    0  502    0  0.00000000000E+00  0.00000000000E+00  0.14081043749E+04  0.14081043749E+04  0.00000000000E+00 0.  1.
         -1   -1    0    0    0  501 -0.00000000000E+00 -0.00000000000E+00 -0.88459809678E+03  0.88459809678E+03  0.00000000000E+00 0. -1.
    9000010    2    1    2  502    0  0.20283090151E+03 -0.37151903897E+03  0.18409857138E+02  0.10898508523E+04  0.10041260810E+04 0.  0.
   -9000010    2    1    2    0  501 -0.20283090151E+03  0.37151903897E+03  0.50509642094E+03  0.12028516194E+04  0.10062618212E+04 0.  0.
        -13    1    3    3    0    0  0.13382684712E+03 -0.41502387275E+03  0.46406165078E+03  0.63679483890E+03  0.10566000000E+00 0.  1.
          4    1    3    3  502    0  0.69004054391E+02  0.43504833775E+02 -0.44565179365E+03  0.45305601339E+03  0.00000000000E+00 0.  1.
         13    1    4    4    0    0 -0.63802651081E+02  0.65299933366E+03  0.58485119026E+03  0.87893676335E+03  0.10566000000E+00 0. -1.
         -4    1    4    4    0  501 -0.13902825043E+03 -0.28148029469E+03 -0.79754769314E+02  0.32391485602E+03  0.00000000000E+00 0. -1.
<mgrwt>
<rscale>  2 0.10906791E+04</rscale>
<asrwt>0</asrwt>
<pdfrwt beam="1">  1        1 0.21663144E+00 0.10906791E+04</pdfrwt>
<pdfrwt beam="2">  1       -1 0.13609201E+00 0.10906791E+04</pdfrwt>
<totfact> 0.50360465E+00</totfact>
</mgrwt>
</event>
<event>
 8    1  0.1408247E-005  0.1085238E+04  0.7818608E-02  0.8698385E-01
         -2   -1    0    0    0  501 -0.00000000000E+00  0.00000000000E+00  0.57213017796E+03  0.57213017796E+03  0.00000000000E+00 0.  1.
          2   -1    0    0  502    0  0.00000000000E+00 -0.00000000000E+00 -0.22865897737E+04  0.22865897737E+04  0.00000000000E+00 0. -1.
    9000010    2    1    2  502    0 -0.78691207059E+02 -0.41830574977E+03 -0.40387958341E+03  0.11553958991E+04  0.99531349809E+03 0.  0.
   -9000010    2    1    2    0  501  0.78691207059E+02  0.41830574977E+03 -0.13105800123E+04  0.17033240525E+04  0.10012596331E+04 0.  0.
        -13    1    3    3    0    0 -0.23347193604E+03 -0.67512592796E+03 -0.46094036651E+03  0.85015892406E+03  0.10566000000E+00 0.  1.
          4    1    3    3  502    0  0.15478072898E+03  0.25682017818E+03  0.57060783098E+02  0.30523697508E+03  0.00000000000E+00 0.  1.
         13    1    4    4    0    0 -0.23852493014E+03  0.38610032237E+02  0.57626975526E+02  0.24840643381E+03  0.10566000000E+00 0. -1.
         -4    1    4    4    0  501  0.31721613720E+03  0.37969571754E+03 -0.13682069878E+04  0.14549176187E+04  0.00000000000E+00 0. -1.
<mgrwt>
<rscale>  2 0.10852382E+04</rscale>
<asrwt>0</asrwt>
<pdfrwt beam="2">  1        2 0.35178304E+00 0.10852382E+04</pdfrwt>
<pdfrwt beam="1">  1       -2 0.88020027E-01 0.10852382E+04</pdfrwt>
<totfact> 0.79655647E+00</totfact>
</mgrwt>
</event>
<event>
 8    1  0.1408247E-005  0.1062560E+04  0.7818608E-02  0.8717932E-01
          4   -1    0    0  502    0  0.00000000000E+00  0.00000000000E+00  0.19516754306E+04  0.19516754306E+04  0.00000000000E+00 0.  1.
         -4   -1    0    0    0  501 -0.00000000000E+00 -0.00000000000E+00 -0.59485890414E+03  0.59485890414E+03  0.00000000000E+00 0. -1.
    9000010    2    1    2  502    0 -0.12265278706E+03 -0.39734606651E+03  0.90018304560E+03  0.14073274264E+04  0.99865577988E+03 0.  0.
   -9000010    2    1    2    0  501  0.12265278706E+03  0.39734606651E+03  0.45663348087E+03  0.11392069084E+04  0.95726205477E+03 0.  0.
        -13    1    3    3    0    0 -0.48459263708E+03 -0.11220408600E+02  0.18771583148E+03  0.51980108314E+03  0.10566000000E+00 0.  1.
          4    1    3    3  502    0  0.36193985002E+03 -0.38612565791E+03  0.71246721412E+03  0.88752634323E+03  0.00000000000E+00 0.  1.
         13    1    4    4    0    0 -0.28487408321E+03  0.25163524053E+03  0.57613287592E+03  0.69021926910E+03  0.10566000000E+00 0. -1.
         -4    1    4    4    0  501  0.40752687027E+03  0.14571082598E+03 -0.11949939505E+03  0.44898763927E+03  0.00000000000E+00 0. -1.
<mgrwt>
<rscale>  2 0.10625602E+04</rscale>
<asrwt>0</asrwt>
<pdfrwt beam="1">  1        4 0.30025776E+00 0.10625602E+04</pdfrwt>
<pdfrwt beam="2">  1       -4 0.91516755E-01 0.10625602E+04</pdfrwt>
<totfact> 0.35583512E-01</totfact>
</mgrwt>
</event>
<event>
 8    1  0.1408247E-005  0.1161853E+04  0.7818608E-02  0.8635855E-01
          2   -1    0    0  502    0  0.00000000000E+00  0.00000000000E+00  0.26082195374E+04  0.26082195374E+04  0.00000000000E+00 0.  1.
         -2   -1    0    0    0  501 -0.00000000000E+00 -0.00000000000E+00 -0.63238044531E+03  0.63238044531E+03  0.00000000000E+00 0. -1.
    9000010    2    1    2  502    0 -0.55539393025E+02 -0.60043584355E+03  0.29847825878E+03  0.12009568867E+04  0.99478658333E+03 0.  0.
   -9000010    2    1    2    0  501  0.55539393025E+02  0.60043584355E+03  0.16773608333E+04  0.20396430960E+04  0.99146193448E+03 0.  0.
        -13    1    3    3    0    0 -0.47063984206E+03 -0.15634488881E+03 -0.53032988253E+02  0.49875654802E+03  0.10566000000E+00 0.  1.
          4    1    3    3  502    0  0.41510044903E+03 -0.44409095474E+03  0.35151124703E+03  0.70220033869E+03  0.00000000000E+00 0.  1.
         13    1    4    4    0    0 -0.36088571110E+03  0.60599997326E+03  0.12932929174E+04  0.14731194946E+04  0.10566000000E+00 0. -1.
         -4    1    4    4    0  501  0.41642510413E+03 -0.55641297159E+01  0.38406791594E+03  0.56652360140E+03  0.00000000000E+00 0. -1.
<mgrwt>
<rscale>  2 0.11618530E+04</rscale>
<asrwt>0</asrwt>
<pdfrwt beam="1">  1        2 0.40126454E+00 0.11618530E+04</pdfrwt>
<pdfrwt beam="2">  1       -2 0.97289301E-01 0.11618530E+04</pdfrwt>
<totfact> 0.41392120E+00</totfact>
</mgrwt>
</event>
<event>
 8    1  0.1408247E-005  0.1167582E+04  0.7818608E-02  0.8631382E-01
         -2   -1    0    0    0  501 -0.00000000000E+00  0.00000000000E+00  0.11412821248E+04  0.11412821248E+04  0.00000000000E+00 0.  1.
          2   -1    0    0  502    0  0.00000000000E+00 -0.00000000000E+00 -0.16969529396E+04  0.16969529396E+04  0.00000000000E+00 0. -1.
    9000010    2    1    2  502    0 -0.12575011619E+03  0.60646574379E+03 -0.10481993495E+04  0.15613354207E+04  0.97746234169E+03 0.  0.
   -9000010    2    1    2    0  501  0.12575011619E+03 -0.60646574379E+03  0.49252853472E+03  0.12768996437E+04  0.10021349972E+04 0.  0.
        -13    1    3    3    0    0 -0.10280013784E+03  0.66858187320E+03 -0.19280261087E+03  0.70337930552E+03  0.10566000000E+00 0.  1.
          4    1    3    3  502    0 -0.22949978346E+02 -0.62116129417E+02 -0.85539673865E+03  0.85795611515E+03  0.00000000000E+00 0.  1.
         13    1    4    4    0    0  0.13575148663E+03 -0.84983581361E+03  0.55675312538E+03  0.10249992341E+04  0.10566000000E+00 0. -1.
         -4    1    4    4    0  501 -0.10001370439E+02  0.24337006983E+03 -0.64224590661E+02  0.25190040957E+03  0.00000000000E+00 0. -1.
<mgrwt>
<rscale>  2 0.11675824E+04</rscale>
<asrwt>0</asrwt>
<pdfrwt beam="2">  1        2 0.26106968E+00 0.11675824E+04</pdfrwt>
<pdfrwt beam="1">  1       -2 0.17558187E+00 0.11675824E+04</pdfrwt>
<totfact> 0.24876548E+00</totfact>
</mgrwt>
</event>
<event>
 8    1  0.1408247E-005  0.1546701E+04  0.7818608E-02  0.8383118E-01
         -2   -1    0    0    0  501 -0.00000000000E+00  0.00000000000E+00  0.30222083478E+04  0.30222083478E+04  0.00000000000E+00 0.  1.
          2   -1    0    0  502    0  0.00000000000E+00 -0.00000000000E+00 -0.10285487431E+04  0.10285487431E+04  0.00000000000E+00 0. -1.
    9000010    2    1    2  502    0 -0.12833579918E+03 -0.11661213480E+04  0.19743296091E+04  0.25148057622E+04  0.10246763104E+04 0.  0.
   -9000010    2    1    2    0  501  0.12833579918E+03  0.11661213480E+04  0.19329995583E+02  0.15359513287E+04  0.99119309909E+03 0.  0.
        -13    1    3    3    0    0 -0.14777368382E+03  0.16674093826E+03  0.24148185393E+03  0.32856216925E+03  0.10566000000E+00 0.  1.
          4    1    3    3  502    0  0.19437884643E+02 -0.13328622863E+04  0.17328477551E+04  0.21862435930E+04  0.00000000000E+00 0.  1.
         13    1    4    4    0    0  0.33311632232E+03  0.12557481250E+04  0.87857903172E+02  0.13021477873E+04  0.10566000000E+00 0. -1.
         -4    1    4    4    0  501 -0.20478052314E+03 -0.89626777045E+02 -0.68527907589E+02  0.23380354133E+03  0.00000000000E+00 0. -1.
<mgrwt>
<rscale>  2 0.15467009E+04</rscale>
<asrwt>0</asrwt>
<pdfrwt beam="2">  1        2 0.15823827E+00 0.15467009E+04</pdfrwt>
<pdfrwt beam="1">  1       -2 0.46495513E+00 0.15467009E+04</pdfrwt>
<totfact> 0.10378262E-01</totfact>
</mgrwt>
</event>
<event>
 8    1  0.1408247E-005  0.1319424E+04  0.7818608E-02  0.8521680E-01
         -2   -1    0    0    0  501 -0.00000000000E+00  0.00000000000E+00  0.70542901105E+03  0.70542901105E+03  0.00000000000E+00 0. -1.
          2   -1    0    0  502    0  0.00000000000E+00 -0.00000000000E+00 -0.25240314553E+04  0.25240314553E+04  0.00000000000E+00 0.  1.
    9000010    2    1    2  502    0 -0.72482736042E+03  0.46433026609E+03 -0.11534976508E+04  0.17562762851E+04  0.10064652308E+04 0.  0.
   -9000010    2    1    2    0  501  0.72482736042E+03 -0.46433026609E+03 -0.66510479346E+03  0.14731841812E+04  0.99344347961E+03 0.  0.
        -13    1    3    3    0    0 -0.62673369693E+03  0.27267428119E+03 -0.11180327693E+03  0.69256506870E+03  0.10566000000E+00 0.  1.
          4    1    3    3  502    0 -0.98093663494E+02  0.19165598490E+03 -0.10416943738E+04  0.10637112164E+04  0.00000000000E+00 0.  1.
         13    1    4    4    0    0  0.93514653365E+03 -0.54913326161E+03 -0.50964977062E+03  0.11982442482E+04  0.10566000000E+00 0. -1.
         -4    1    4    4    0  501 -0.21031917323E+03  0.84802995525E+02 -0.15545502284E+03  0.27493993308E+03  0.00000000000E+00 0. -1.
<mgrwt>
<rscale>  2 0.13194240E+04</rscale>
<asrwt>0</asrwt>
<pdfrwt beam="2">  1        2 0.38831253E+00 0.13194240E+04</pdfrwt>
<pdfrwt beam="1">  1       -2 0.10852754E+00 0.13194240E+04</pdfrwt>
<totfact> 0.34777570E+00</totfact>
</mgrwt>
</event>
<event>
 8    1  0.1408247E-005  0.1282073E+04  0.7818608E-02  0.8547196E-01
         -1   -1    0    0    0  501 -0.00000000000E+00  0.00000000000E+00  0.81276648035E+03  0.81276648035E+03  0.00000000000E+00 0. -1.
          1   -1    0    0  502    0  0.00000000000E+00 -0.00000000000E+00 -0.20288456972E+04  0.20288456972E+04  0.00000000000E+00 0.  1.
    9000010    2    1    2  502    0 -0.83678228229E+03  0.34183883283E+03 -0.56504059291E+03  0.13372240607E+04  0.80736543223E+03 0.  0.
   -9000010    2    1    2    0  501  0.83678228229E+03 -0.34183883283E+03 -0.65103862394E+03  0.15043881169E+04  0.10110756356E+04 0.  0.
        -13    1    3    3    0    0 -0.99324936484E+03  0.23220929889E+03 -0.49438389018E+03  0.11335258715E+04  0.10566000000E+00 0.  1.
          4    1    3    3  502    0  0.15646708256E+03  0.10962953394E+03 -0.70656702727E+02  0.20369818918E+03  0.00000000000E+00 0.  1.
         13    1    4    4    0    0  0.23215287177E+03 -0.54715429703E+03 -0.26595468389E+01  0.59437350629E+03  0.10566000000E+00 0. -1.
         -4    1    4    4    0  501  0.60462941052E+03  0.20531546420E+03 -0.64837907711E+03  0.91001461061E+03  0.00000000000E+00 0. -1.
<mgrwt>
<rscale>  2 0.12820735E+04</rscale>
<asrwt>0</asrwt>
<pdfrwt beam="2">  1        1 0.31213011E+00 0.12820735E+04</pdfrwt>
<pdfrwt beam="1">  1       -1 0.12504100E+00 0.12820735E+04</pdfrwt>
<totfact> 0.21103991E+00</totfact>
</mgrwt>
</event>
<event>
 8    1  0.1408247E-005  0.1332450E+04  0.7818608E-02  0.8512985E-01
         -2   -1    0    0    0  501 -0.00000000000E+00  0.00000000000E+00  0.60131162483E+03  0.60131162483E+03  0.00000000000E+00 0.  1.
          2   -1    0    0  502    0  0.00000000000E+00 -0.00000000000E+00 -0.32579980555E+04  0.32579980555E+04  0.00000000000E+00 0. -1.
    9000010    2    1    2  502    0 -0.85761975586E+03  0.19107979426E+03 -0.74219908393E+03  0.15296935088E+04  0.10085036525E+04 0.  0.
   -9000010    2    1    2    0  501  0.85761975586E+03 -0.19107979426E+03 -0.19144873468E+04  0.23296161716E+04  0.99490028275E+03 0.  0.
        -13    1    3    3    0    0 -0.74514740103E+03 -0.30114417598E+03 -0.60650610515E+03  0.10068674842E+04  0.10566000000E+00 0.  1.
          4    1    3    3  502    0 -0.11247235483E+03  0.49222397024E+03 -0.13569297878E+03  0.52282602457E+03  0.00000000000E+00 0.  1.
         13    1    4    4    0    0  0.76059593105E+03 -0.30241418375E+03 -0.19985647888E+04  0.21596809336E+04  0.10566000000E+00 0. -1.
         -4    1    4    4    0  501  0.97023824812E+02  0.11133438949E+03  0.84077441996E+02  0.16993523801E+03  0.00000000000E+00 0. -1.
<mgrwt>
<rscale>  2 0.13324504E+04</rscale>
<asrwt>0</asrwt>
<pdfrwt beam="2">  1        2 0.50123048E+00 0.13324504E+04</pdfrwt>
<pdfrwt beam="1">  1       -2 0.92509479E-01 0.13324504E+04</pdfrwt>
<totfact> 0.18274106E+00</totfact>
</mgrwt>
</event>
<event>
 8    1  0.1408247E-005  0.1483926E+04  0.7818608E-02  0.8418810E-01
          2   -1    0    0  502    0  0.00000000000E+00  0.00000000000E+00  0.15798612808E+04  0.15798612808E+04  0.00000000000E+00 0.  1.
         -2   -1    0    0    0  501 -0.00000000000E+00 -0.00000000000E+00 -0.19530862848E+04  0.19530862848E+04  0.00000000000E+00 0. -1.
    9000010    2    1    2  502    0  0.43681919715E+03 -0.10007962094E+04 -0.11316762919E+04  0.18643886414E+04  0.10014238427E+04 0.  0.
   -9000010    2    1    2    0  501 -0.43681919715E+03  0.10007962094E+04  0.75845128785E+03  0.16685589243E+04  0.10081847371E+04 0.  0.
        -13    1    3    3    0    0  0.18492773313E+03  0.18100277388E+03 -0.10679135630E+03  0.27993691357E+03  0.10566000000E+00 0.  1.
          4    1    3    3  502    0  0.25189146402E+03 -0.11817989833E+04 -0.10248849356E+04  0.15844517278E+04  0.00000000000E+00 0.  1.
         13    1    4    4    0    0 -0.70819807562E+02  0.17665101410E+03 -0.25099323152E+03  0.31498990358E+03  0.10566000000E+00 0. -1.
         -4    1    4    4    0  501 -0.36599938959E+03  0.82414519532E+03  0.10094445194E+04  0.13535690207E+04  0.00000000000E+00 0. -1.
<mgrwt>
<rscale>  2 0.14839261E+04</rscale>
<asrwt>0</asrwt>
<pdfrwt beam="1">  1        2 0.24305558E+00 0.14839261E+04</pdfrwt>
<pdfrwt beam="2">  1       -2 0.30047481E+00 0.14839261E+04</pdfrwt>
<totfact> 0.29296594E-01</totfact>
</mgrwt>
</event>
<event>
 8    1  0.1408247E-005  0.1096551E+04  0.7818608E-02  0.8688819E-01
         -2   -1    0    0    0  501 -0.00000000000E+00  0.00000000000E+00  0.18084535230E+04  0.18084535230E+04  0.00000000000E+00 0. -1.
          2   -1    0    0  502    0  0.00000000000E+00 -0.00000000000E+00 -0.66657617351E+03  0.66657617351E+03  0.00000000000E+00 0.  1.
    9000010    2    1    2  502    0 -0.43118827949E+03 -0.12454303788E+03  0.63232390752E+03  0.12644535938E+04  0.99878679720E+03 0.  0.
   -9000010    2    1    2    0  501  0.43118827949E+03  0.12454303788E+03  0.50955344193E+03  0.12105761026E+04  0.10022053130E+04 0.  0.
        -13    1    3    3    0    0 -0.71879595162E+03  0.27132914373E+02  0.24759644808E+03  0.76072848466E+03  0.10566000000E+00 0.  1.
          4    1    3    3  502    0  0.28760767213E+03 -0.15167595226E+03  0.38472745944E+03  0.50372510917E+03  0.00000000000E+00 0.  1.
         13    1    4    4    0    0 -0.17366976037E+03  0.17917320534E+03 -0.16789591656E+03  0.30075450644E+03  0.10566000000E+00 0. -1.
         -4    1    4    4    0  501  0.60485803986E+03 -0.54630167458E+02  0.67744935849E+03  0.90982159620E+03  0.00000000000E+00 0. -1.
<mgrwt>
<rscale>  2 0.10965513E+04</rscale>
<asrwt>0</asrwt>
<pdfrwt beam="2">  1        2 0.10255018E+00 0.10965513E+04</pdfrwt>
<pdfrwt beam="1">  1       -2 0.27822362E+00 0.10965513E+04</pdfrwt>
<totfact> 0.15750656E+00</totfact>
</mgrwt>
</event>
<event>
 8    1  0.1408247E-005  0.2067558E+04  0.7818608E-02  0.8141427E-01
          4   -1    0    0  502    0  0.00000000000E+00  0.00000000000E+00  0.18887675037E+04  0.18887675037E+04  0.00000000000E+00 0.  1.
         -4   -1    0    0    0  501 -0.00000000000E+00 -0.00000000000E+00 -0.22677256051E+04  0.22677256051E+04  0.00000000000E+00 0. -1.
    9000010    2    1    2  502    0 -0.11783137193E+04  0.13718919834E+04 -0.97300259512E+02  0.20687727710E+04  0.99992129811E+03 0.  0.
   -9000010    2    1    2    0  501  0.11783137193E+04 -0.13718919834E+04 -0.28165784187E+03  0.20877203378E+04  0.10043576224E+04 0.  0.
        -13    1    3    3    0    0 -0.90777378669E+03  0.14341499922E+04  0.14067389938E+03  0.17031231914E+04  0.10566000000E+00 0.  1.
          4    1    3    3  502    0 -0.27053993260E+03 -0.62258008784E+02 -0.23797415889E+03  0.36564957963E+03  0.00000000000E+00 0.  1.
         13    1    4    4    0    0  0.11589898731E+04 -0.15099730107E+04 -0.17373050882E+03  0.19114021869E+04  0.10566000000E+00 0. -1.
         -4    1    4    4    0  501  0.19323846173E+02  0.13808102730E+03 -0.10792733304E+03  0.17631815094E+03  0.00000000000E+00 0. -1.
<mgrwt>
<rscale>  2 0.20675582E+04</rscale>
<asrwt>0</asrwt>
<pdfrwt beam="1">  1        4 0.29057962E+00 0.20675582E+04</pdfrwt>
<pdfrwt beam="2">  1       -4 0.34888086E+00 0.20675582E+04</pdfrwt>
<totfact> 0.40216794E-02</totfact>
</mgrwt>
</event>
<event>
 8    1  0.1408247E-005  0.1219252E+04  0.7818608E-02  0.8592204E-01
          2   -1    0    0  502    0  0.00000000000E+00  0.00000000000E+00  0.33994586250E+04  0.33994586250E+04  0.00000000000E+00 0. -1.
         -2   -1    0    0    0  501 -0.00000000000E+00 -0.00000000000E+00 -0.49103680442E+03  0.49103680442E+03  0.00000000000E+00 0.  1.
    9000010    2    1    2  502    0 -0.69808127254E+03  0.17973483004E+03  0.79663332367E+03  0.14451538301E+04  0.96655205136E+03 0.  0.
   -9000010    2    1    2    0  501  0.69808127254E+03 -0.17973483004E+03  0.21117884969E+04  0.24453415993E+04  0.10002113825E+04 0.  0.
        -13    1    3    3    0    0 -0.64308101206E+02  0.43320570349E+03  0.61937527029E+02  0.44231095604E+03  0.10566000000E+00 0.  1.
          4    1    3    3  502    0 -0.63377317133E+03 -0.25347087345E+03  0.73469579664E+03  0.10028428740E+04  0.00000000000E+00 0.  1.
         13    1    4    4    0    0  0.90931828411E+03 -0.56373430913E+02  0.19492246874E+04  0.21516306836E+04  0.10566000000E+00 0. -1.
         -4    1    4    4    0  501 -0.21123701157E+03 -0.12336139913E+03  0.16256380946E+03  0.29371091569E+03  0.00000000000E+00 0. -1.
<mgrwt>
<rscale>  2 0.12192524E+04</rscale>
<asrwt>0</asrwt>
<pdfrwt beam="1">  1        2 0.52299362E+00 0.12192524E+04</pdfrwt>
<pdfrwt beam="2">  1       -2 0.75544126E-01 0.12192524E+04</pdfrwt>
<totfact> 0.23346003E+00</totfact>
</mgrwt>
</event>
<event>
 8    1  0.1408247E-005  0.1426207E+04  0.7818608E-02  0.8453275E-01
         -2   -1    0    0    0  501 -0.00000000000E+00  0.00000000000E+00  0.70968255288E+03  0.70968255288E+03  0.00000000000E+00 0. -1.
          2   -1    0    0  502    0  0.00000000000E+00 -0.00000000000E+00 -0.30059051630E+04  0.30059051630E+04  0.00000000000E+00 0.  1.
    9000010    2    1    2  502    0  0.48159286752E+03 -0.89537709175E+03 -0.74527041840E+03  0.16065441276E+04  0.99595392002E+03 0.  0.
   -9000010    2    1    2    0  501 -0.48159286752E+03  0.89537709175E+03 -0.15509521917E+04  0.21090435883E+04  0.10044801292E+04 0.  0.
        -13    1    3    3    0    0 -0.24233882748E+03 -0.58907919946E+03 -0.34623572208E+03  0.72499765306E+03  0.10566000000E+00 0.  1.
          4    1    3    3  502    0  0.72393169500E+03 -0.30629789230E+03 -0.39903469632E+03  0.88154647451E+03  0.00000000000E+00 0.  1.
         13    1    4    4    0    0 -0.33035957785E+03 -0.14590165159E+03 -0.54176840219E+03  0.65110502639E+03  0.10566000000E+00 0. -1.
         -4    1    4    4    0  501 -0.15123328967E+03  0.10412787433E+04 -0.10091837895E+04  0.14579385619E+04  0.00000000000E+00 0. -1.
<mgrwt>
<rscale>  2 0.14262069E+04</rscale>
<asrwt>0</asrwt>
<pdfrwt beam="2">  1        2 0.46244696E+00 0.14262069E+04</pdfrwt>
<pdfrwt beam="1">  1       -2 0.10918193E+00 0.14262069E+04</pdfrwt>
<totfact> 0.17532169E+00</totfact>
</mgrwt>
</event>
<event>
 8    1  0.1408247E-005  0.1182299E+04  0.7818608E-02  0.8620012E-01
          2   -1    0    0  502    0  0.00000000000E+00  0.00000000000E+00  0.20581298441E+04  0.20581298441E+04  0.00000000000E+00 0. -1.
         -2   -1    0    0    0  501 -0.00000000000E+00 -0.00000000000E+00 -0.69637809457E+03  0.69637809457E+03  0.00000000000E+00 0.  1.
    9000010    2    1    2  502    0 -0.50631636602E+03 -0.18220566698E+03  0.91666690900E+03  0.15339684803E+04  0.11059954380E+04 0.  0.
   -9000010    2    1    2    0  501  0.50631636602E+03  0.18220566698E+03  0.44508484054E+03  0.12205394584E+04  0.10010299130E+04 0.  0.
        -13    1    3    3    0    0  0.87243687095E+02 -0.43339410783E+02  0.91922782120E+03  0.92437522895E+03  0.10566000000E+00 0.  1.
          4    1    3    3  502    0 -0.59356005311E+03 -0.13886625620E+03 -0.25609122023E+01  0.60959325130E+03  0.00000000000E+00 0.  1.
         13    1    4    4    0    0 -0.18736251058E+03  0.13282078819E+03 -0.17504845025E+03  0.28876987939E+03  0.10566000000E+00 0. -1.
         -4    1    4    4    0  501  0.69367887659E+03  0.49384878791E+02  0.62013329079E+03  0.93176957904E+03  0.00000000000E+00 0. -1.
<mgrwt>
<rscale>  2 0.11822992E+04</rscale>
<asrwt>0</asrwt>
<pdfrwt beam="1">  1        2 0.31663536E+00 0.11822992E+04</pdfrwt>
<pdfrwt beam="2">  1       -2 0.10713509E+00 0.11822992E+04</pdfrwt>
<totfact> 0.65852978E+00</totfact>
</mgrwt>
</event>
<event>
 8    1  0.1408247E-005  0.1247842E+04  0.7818608E-02  0.8571381E-01
         -1   -1    0    0    0  501 -0.00000000000E+00  0.00000000000E+00  0.73749410718E+03  0.73749410718E+03  0.00000000000E+00 0. -1.
          1   -1    0    0  502    0  0.00000000000E+00 -0.00000000000E+00 -0.21435138865E+04  0.21435138865E+04  0.00000000000E+00 0.  1.
    9000010    2    1    2  502    0 -0.50241882515E+03 -0.54984561610E+03 -0.88952982985E+03  0.15499203338E+04  0.10277328668E+04 0.  0.
   -9000010    2    1    2    0  501  0.50241882515E+03  0.54984561610E+03 -0.51648994942E+03  0.13310876598E+04  0.97482183646E+03 0.  0.
        -13    1    3    3    0    0 -0.60342933544E+03 -0.21322059619E+03 -0.99493716551E+03  0.11830004057E+04  0.10566000000E+00 0.  1.
          4    1    3    3  502    0  0.10101051029E+03 -0.33662501991E+03  0.10540733565E+03  0.36691992809E+03  0.00000000000E+00 0.  1.
         13    1    4    4    0    0 -0.14501426220E+03 -0.90700371583E+02  0.12946760326E+03  0.21451705085E+03  0.10566000000E+00 0. -1.
         -4    1    4    4    0  501  0.64743308735E+03  0.64054598768E+03 -0.64595755268E+03  0.11165706090E+04  0.00000000000E+00 0. -1.
<mgrwt>
<rscale>  2 0.12478422E+04</rscale>
<asrwt>0</asrwt>
<pdfrwt beam="2">  1        1 0.32977137E+00 0.12478422E+04</pdfrwt>
<pdfrwt beam="1">  1       -1 0.11346063E+00 0.12478422E+04</pdfrwt>
<totfact> 0.21898255E+00</totfact>
</mgrwt>
</event>
<event>
 8    1  0.1408247E-005  0.1170411E+04  0.7818608E-02  0.8629183E-01
         -1   -1    0    0    0  501 -0.00000000000E+00  0.00000000000E+00  0.30557389159E+04  0.30557389159E+04  0.00000000000E+00 0. -1.
          1   -1    0    0  502    0  0.00000000000E+00 -0.00000000000E+00 -0.45382549168E+03  0.45382549168E+03  0.00000000000E+00 0.  1.
    9000010    2    1    2  502    0  0.50559117149E+03 -0.21951441151E+03  0.10875214072E+04  0.15831797348E+04  0.10099238843E+04 0.  0.
   -9000010    2    1    2    0  501 -0.50559117149E+03  0.21951441151E+03  0.15143920171E+04  0.19263846728E+04  0.10553509922E+04 0.  0.
        -13    1    3    3    0    0  0.77593630982E+03 -0.11949506512E+03  0.10199516426E+04  0.12871121132E+04  0.10566000000E+00 0.  1.
          4    1    3    3  502    0 -0.27034513832E+03 -0.10001934639E+03  0.67569764529E+02  0.29606762158E+03  0.00000000000E+00 0.  1.
         13    1    4    4    0    0  0.11310611928E+03  0.17288556911E+03 -0.75308224699E+02  0.21989487055E+03  0.10566000000E+00 0. -1.
         -4    1    4    4    0  501 -0.61869729077E+03  0.46628842399E+02  0.15897002418E+04  0.17064898023E+04  0.00000000000E+00 0. -1.
<mgrwt>
<rscale>  2 0.11704111E+04</rscale>
<asrwt>0</asrwt>
<pdfrwt beam="2">  1        1 0.69819308E-01 0.11704111E+04</pdfrwt>
<pdfrwt beam="1">  1       -1 0.47011367E+00 0.11704111E+04</pdfrwt>
<totfact> 0.73727839E-01</totfact>
</mgrwt>
</event>
<event>
 8    1  0.1408247E-005  0.1134141E+04  0.7818608E-02  0.8657877E-01
         -2   -1    0    0    0  501 -0.00000000000E+00  0.00000000000E+00  0.33418161770E+03  0.33418161770E+03  0.00000000000E+00 0.  1.
          2   -1    0    0  502    0  0.00000000000E+00 -0.00000000000E+00 -0.39190103355E+04  0.39190103355E+04  0.00000000000E+00 0. -1.
    9000010    2    1    2  502    0  0.18850975194E+03  0.50068094952E+03 -0.20882895087E+04  0.23801285038E+04  0.10088812034E+04 0.  0.
   -9000010    2    1    2    0  501 -0.18850975194E+03 -0.50068094952E+03 -0.14965392092E+04  0.18730634495E+04  0.99122133827E+03 0.  0.
        -13    1    3    3    0    0 -0.40826484348E+03  0.30177545779E+03 -0.10466444702E+04  0.11632769522E+04  0.10566000000E+00 0.  1.
          4    1    3    3  502    0  0.59677459542E+03  0.19890549174E+03 -0.10416450385E+04  0.12168515516E+04  0.00000000000E+00 0.  1.
         13    1    4    4    0    0  0.29567837957E+03 -0.23065541364E+02 -0.96597662303E+03  0.10104793767E+04  0.10566000000E+00 0. -1.
         -4    1    4    4    0  501 -0.48418813151E+03 -0.47761540816E+03 -0.53056258616E+03  0.86258407279E+03  0.00000000000E+00 0. -1.
<mgrwt>
<rscale>  2 0.11341414E+04</rscale>
<asrwt>0</asrwt>
<pdfrwt beam="2">  1        2 0.60292468E+00 0.11341414E+04</pdfrwt>
<pdfrwt beam="1">  1       -2 0.51412556E-01 0.11341414E+04</pdfrwt>
<totfact> 0.20167048E+00</totfact>
</mgrwt>
</event>
<event>
 8    1  0.1408247E-005  0.1179863E+04  0.7818608E-02  0.8621882E-01
          1   -1    0    0  502    0  0.00000000000E+00  0.00000000000E+00  0.15651473936E+04  0.15651473936E+04  0.00000000000E+00 0.  1.
         -1   -1    0    0    0  501 -0.00000000000E+00 -0.00000000000E+00 -0.99181725914E+03  0.99181725914E+03  0.00000000000E+00 0. -1.
    9000010    2    1    2  502    0  0.18591336383E+03 -0.59705775594E+03 -0.12413770935E+03  0.11863154744E+04  0.10004461461E+04 0.  0.
   -9000010    2    1    2    0  501 -0.18591336383E+03  0.59705775594E+03  0.69746784381E+03  0.13706491783E+04  0.10005878443E+04 0.  0.
        -13    1    3    3    0    0  0.42434892517E+03  0.54592068905E+02  0.13028273588E+03  0.44724255915E+03  0.10566000000E+00 0.  1.
          4    1    3    3  502    0 -0.23843556134E+03 -0.65164982484E+03 -0.25442044523E+03  0.73907291527E+03  0.00000000000E+00 0.  1.
         13    1    4    4    0    0  0.34914392542E+03  0.22192612256E+03  0.57090958262E+03  0.70504641494E+03  0.10566000000E+00 0. -1.
         -4    1    4    4    0  501 -0.53505728925E+03  0.37513163338E+03  0.12655826119E+03  0.66560276338E+03  0.00000000000E+00 0. -1.
<mgrwt>
<rscale>  2 0.11798627E+04</rscale>
<asrwt>0</asrwt>
<pdfrwt beam="1">  1        1 0.24079191E+00 0.11798627E+04</pdfrwt>
<pdfrwt beam="2">  1       -1 0.15258727E+00 0.11798627E+04</pdfrwt>
<totfact> 0.27375279E+00</totfact>
</mgrwt>
</event>
<event>
 8    1  0.1408247E-005  0.1109379E+04  0.7818608E-02  0.8678117E-01
         -1   -1    0    0    0  501 -0.00000000000E+00  0.00000000000E+00  0.36880898414E+04  0.36880898414E+04  0.00000000000E+00 0. -1.
          1   -1    0    0  502    0  0.00000000000E+00 -0.00000000000E+00 -0.34181957810E+03  0.34181957810E+03  0.00000000000E+00 0.  1.
    9000010    2    1    2  502    0 -0.13417868528E+03 -0.48222886826E+03  0.13491263099E+04  0.17406889144E+04  0.97944244130E+03 0.  0.
   -9000010    2    1    2    0  501  0.13417868528E+03  0.48222886826E+03  0.19971439535E+04  0.22892205051E+04  0.10006987305E+04 0.  0.
        -13    1    3    3    0    0  0.38041705669E+03 -0.23061124612E+03  0.27395299684E+03  0.52244515454E+03  0.10566000000E+00 0.  1.
          4    1    3    3  502    0 -0.51459574197E+03 -0.25161762215E+03  0.10751733130E+04  0.12182437599E+04  0.00000000000E+00 0.  1.
         13    1    4    4    0    0  0.56593127084E+03  0.20057151067E+03  0.11574117974E+04  0.13038823621E+04  0.10566000000E+00 0. -1.
         -4    1    4    4    0  501 -0.43175258556E+03  0.28165735760E+03  0.83973215605E+03  0.98533814304E+03  0.00000000000E+00 0. -1.
<mgrwt>
<rscale>  2 0.11093788E+04</rscale>
<asrwt>0</asrwt>
<pdfrwt beam="2">  1        1 0.52587630E-01 0.11093788E+04</pdfrwt>
<pdfrwt beam="1">  1       -1 0.56739841E+00 0.11093788E+04</pdfrwt>
<totfact> 0.45728647E-01</totfact>
</mgrwt>
</event>
<event>
 8    1  0.1408247E-005  0.1248077E+04  0.7818608E-02  0.8571212E-01
         -2   -1    0    0    0  501 -0.00000000000E+00  0.00000000000E+00  0.68381959558E+03  0.68381959558E+03  0.00000000000E+00 0. -1.
          2   -1    0    0  502    0  0.00000000000E+00 -0.00000000000E+00 -0.24311385994E+04  0.24311385994E+04  0.00000000000E+00 0.  1.
    9000010    2    1    2  502    0  0.46190766180E+03 -0.43966638750E+03 -0.45986580411E+03  0.12936927927E+04  0.10273749383E+04 0.  0.
   -9000010    2    1    2    0  501 -0.46190766180E+03  0.43966638750E+03 -0.12874531997E+04  0.18212654023E+04  0.11192884810E+04 0.  0.
        -13    1    3    3    0    0  0.23177747963E+03 -0.50085946114E+03 -0.74184570247E+03  0.92461670832E+03  0.10566000000E+00 0.  1.
          4    1    3    3  502    0  0.23013018217E+03  0.61193073643E+02  0.28197989835E+03  0.36907608441E+03  0.00000000000E+00 0.  1.
         13    1    4    4    0    0 -0.21793004836E+03  0.55548933849E+03 -0.14051949444E+04  0.15266416587E+04  0.10566000000E+00 0. -1.
         -4    1    4    4    0  501 -0.24397761344E+03 -0.11582295099E+03  0.11774174466E+03  0.29462374357E+03  0.00000000000E+00 0. -1.
<mgrwt>
<rscale>  2 0.12480774E+04</rscale>
<asrwt>0</asrwt>
<pdfrwt beam="2">  1        2 0.37402133E+00 0.12480774E+04</pdfrwt>
<pdfrwt beam="1">  1       -2 0.10520301E+00 0.12480774E+04</pdfrwt>
<totfact> 0.42691774E+00</totfact>
</mgrwt>
</event>
<event>
 8    1  0.1408247E-005  0.1236094E+04  0.7818608E-02  0.8579867E-01
          4   -1    0    0  502    0  0.00000000000E+00  0.00000000000E+00  0.12949311591E+04  0.12949311591E+04  0.00000000000E+00 0. -1.
         -4   -1    0    0    0  501 -0.00000000000E+00 -0.00000000000E+00 -0.12159412388E+04  0.12159412388E+04  0.00000000000E+00 0.  1.
    9000010    2    1    2  502    0 -0.49709568630E+03 -0.47959112176E+03  0.25534685505E+03  0.12796666074E+04  0.10465337282E+04 0.  0.
   -9000010    2    1    2    0  501  0.49709568630E+03  0.47959112176E+03 -0.17635693474E+03  0.12312057905E+04  0.10038197869E+04 0.  0.
        -13    1    3    3    0    0 -0.52645558856E+03  0.20610288286E+03  0.77265565525E+02  0.57061709038E+03  0.10566000000E+00 0.  1.
          4    1    3    3  502    0  0.29359902270E+02 -0.68569400463E+03  0.17808128952E+03  0.70904951697E+03  0.00000000000E+00 0.  1.
         13    1    4    4    0    0 -0.24937070800E+03  0.39105479383E+03 -0.25363080413E+02  0.46449208691E+03  0.10566000000E+00 0. -1.
         -4    1    4    4    0  501  0.74646639430E+03  0.88536327932E+02 -0.15099385433E+03  0.76671370356E+03  0.00000000000E+00 0. -1.
<mgrwt>
<rscale>  2 0.12360938E+04</rscale>
<asrwt>0</asrwt>
<pdfrwt beam="1">  1        4 0.19922018E+00 0.12360938E+04</pdfrwt>
<pdfrwt beam="2">  1       -4 0.18706788E+00 0.12360938E+04</pdfrwt>
<totfact> 0.19864458E-01</totfact>
</mgrwt>
</event>
<event>
 8    1  0.1408247E-005  0.1158011E+04  0.7818608E-02  0.8638870E-01
          2   -1    0    0  502    0  0.00000000000E+00  0.00000000000E+00  0.17310727530E+04  0.17310727530E+04  0.00000000000E+00 0. -1.
         -2   -1    0    0    0  501 -0.00000000000E+00 -0.00000000000E+00 -0.79732882171E+03  0.79732882171E+03  0.00000000000E+00 0.  1.
    9000010    2    1    2  502    0 -0.23937928236E+03 -0.50410279340E+03  0.68245491240E+03  0.13497260026E+04  0.10220535737E+04 0.  0.
   -9000010    2    1    2    0  501  0.23937928236E+03  0.50410279340E+03  0.25128901885E+03  0.11786755721E+04  0.10073270899E+04 0.  0.
        -13    1    3    3    0    0 -0.14611691325E+03  0.53109302213E+02 -0.22935068964E+03  0.27707850931E+03  0.10566000000E+00 0.  1.
          4    1    3    3  502    0 -0.93262369108E+02 -0.55721209562E+03  0.91180560204E+03  0.10726474933E+04  0.00000000000E+00 0.  1.
         13    1    4    4    0    0  0.82836155954E+02 -0.80970482716E+02 -0.32354760732E+03  0.34365842514E+03  0.10566000000E+00 0. -1.
         -4    1    4    4    0  501  0.15654312641E+03  0.58507327612E+03  0.57483662616E+03  0.83501714691E+03  0.00000000000E+00 0. -1.
<mgrwt>
<rscale>  2 0.11580110E+04</rscale>
<asrwt>0</asrwt>
<pdfrwt beam="1">  1        2 0.26631888E+00 0.11580110E+04</pdfrwt>
<pdfrwt beam="2">  1       -2 0.12266597E+00 0.11580110E+04</pdfrwt>
<totfact> 0.70200940E+00</totfact>
</mgrwt>
</event>
<event>
 8    1  0.1408247E-005  0.1321923E+04  0.7818608E-02  0.8520004E-01
         -2   -1    0    0    0  501 -0.00000000000E+00  0.00000000000E+00  0.57817671077E+03  0.57817671077E+03  0.00000000000E+00 0. -1.
          2   -1    0    0  502    0  0.00000000000E+00 -0.00000000000E+00 -0.33322867899E+04  0.33322867899E+04  0.00000000000E+00 0.  1.
    9000010    2    1    2  502    0  0.36838400323E+03 -0.75438530067E+03 -0.76056789520E+03  0.15059137930E+04  0.99222420503E+03 0.  0.
   -9000010    2    1    2    0  501 -0.36838400323E+03  0.75438530067E+03 -0.19935421839E+04  0.24045497077E+04  0.10501642261E+04 0.  0.
        -13    1    3    3    0    0  0.32555020709E+03 -0.99736614629E+03 -0.65995355394E+03  0.12394599113E+04  0.10566000000E+00 0.  1.
          4    1    3    3  502    0  0.42833796144E+02  0.24298084562E+03 -0.10061434127E+03  0.26645388175E+03  0.00000000000E+00 0.  1.
         13    1    4    4    0    0  0.67806758630E+02  0.85919349372E+03 -0.15511267346E+04  0.17744873553E+04  0.10566000000E+00 0. -1.
         -4    1    4    4    0  501 -0.43619076186E+03 -0.10480819305E+03 -0.44241544935E+03  0.63006235238E+03  0.00000000000E+00 0. -1.
<mgrwt>
<rscale>  2 0.13219226E+04</rscale>
<asrwt>0</asrwt>
<pdfrwt beam="2">  1        2 0.51265950E+00 0.13219226E+04</pdfrwt>
<pdfrwt beam="1">  1       -2 0.88950264E-01 0.13219226E+04</pdfrwt>
<totfact> 0.17845119E+00</totfact>
</mgrwt>
</event>
<event>
 8    1  0.1408247E-005  0.1104785E+04  0.7818608E-02  0.8681932E-01
         -2   -1    0    0    0  501 -0.00000000000E+00  0.00000000000E+00  0.73286802426E+03  0.73286802426E+03  0.00000000000E+00 0. -1.
          2   -1    0    0  502    0  0.00000000000E+00 -0.00000000000E+00 -0.16673436764E+04  0.16673436764E+04  0.00000000000E+00 0.  1.
    9000010    2    1    2  502    0 -0.38455773271E+03  0.27510466331E+03 -0.42585534025E+03  0.11819588588E+04  0.99604555493E+03 0.  0.
   -9000010    2    1    2    0  501  0.38455773271E+03 -0.27510466331E+03 -0.50862031189E+03  0.12182528419E+04  0.10009386292E+04 0.  0.
        -13    1    3    3    0    0  0.98762371868E+02 -0.29483215324E+03 -0.28445402976E+03  0.42141916294E+03  0.10566000000E+00 0.  1.
          4    1    3    3  502    0 -0.48332010458E+03  0.56993681655E+03 -0.14140131048E+03  0.76053969584E+03  0.00000000000E+00 0.  1.
         13    1    4    4    0    0  0.26159914607E+02 -0.45320389178E+03  0.12316986418E+03  0.47037106125E+03  0.10566000000E+00 0. -1.
         -4    1    4    4    0  501  0.35839781810E+03  0.17809922847E+03 -0.63179017607E+03  0.74788178062E+03  0.00000000000E+00 0. -1.
<mgrwt>
<rscale>  2 0.11047850E+04</rscale>
<asrwt>0</asrwt>
<pdfrwt beam="2">  1        2 0.25651441E+00 0.11047850E+04</pdfrwt>
<pdfrwt beam="1">  1       -2 0.11274893E+00 0.11047850E+04</pdfrwt>
<totfact> 0.95264914E+00</totfact>
</mgrwt>
</event>
<event>
 8    1  0.1408247E-005  0.1229524E+04  0.7818608E-02  0.8584655E-01
         -1   -1    0    0    0  501 -0.00000000000E+00  0.00000000000E+00  0.39784680264E+03  0.39784680264E+03  0.00000000000E+00 0.  1.
          1   -1    0    0  502    0  0.00000000000E+00 -0.00000000000E+00 -0.45399519939E+04  0.45399519939E+04  0.00000000000E+00 0. -1.
    9000010    2    1    2  502    0  0.72194258590E+03 -0.40960837721E+02 -0.30647698212E+04  0.33013709088E+04  0.99164355129E+03 0.  0.
   -9000010    2    1    2    0  501 -0.72194258590E+03  0.40960837721E+02 -0.10773353700E+04  0.16364278877E+04  0.99717894316E+03 0.  0.
        -13    1    3    3    0    0  0.70589082182E+03  0.30459257355E+03 -0.26602361402E+04  0.27691000019E+04  0.10566000000E+00 0.  1.
          4    1    3    3  502    0  0.16051764083E+02 -0.34555341127E+03 -0.40453368105E+03  0.53227090685E+03  0.00000000000E+00 0.  1.
         13    1    4    4    0    0 -0.42502958526E+03  0.23032707222E+03 -0.11753476294E+04  0.12708826734E+04  0.10566000000E+00 0. -1.
         -4    1    4    4    0  501 -0.29691300064E+03 -0.18936623450E+03  0.98012259361E+02  0.36554521431E+03  0.00000000000E+00 0. -1.
<mgrwt>
<rscale>  2 0.12295244E+04</rscale>
<asrwt>0</asrwt>
<pdfrwt beam="2">  1        1 0.69845415E+00 0.12295244E+04</pdfrwt>
<pdfrwt beam="1">  1       -1 0.61207201E-01 0.12295244E+04</pdfrwt>
<totfact> 0.75600426E-02</totfact>
</mgrwt>
</event>
<event>
 8    1  0.1408247E-005  0.1291835E+04  0.7818608E-02  0.8540441E-01
          2   -1    0    0  502    0  0.00000000000E+00  0.00000000000E+00  0.14064267435E+04  0.14064267435E+04  0.00000000000E+00 0.  1.
         -2   -1    0    0    0  501 -0.00000000000E+00 -0.00000000000E+00 -0.12310186727E+04  0.12310186727E+04  0.00000000000E+00 0. -1.
    9000010    2    1    2  502    0  0.23290818655E+03 -0.79233546209E+03 -0.16329809947E+03  0.12921952496E+04  0.98033697565E+03 0.  0.
   -9000010    2    1    2    0  501 -0.23290818655E+03  0.79233546209E+03  0.33870617029E+03  0.13452501667E+04  0.10064464384E+04 0.  0.
        -13    1    3    3    0    0  0.61176398625E+03 -0.45050097224E+03 -0.11535803678E+02  0.75982852460E+03  0.10566000000E+00 0.  1.
          4    1    3    3  502    0 -0.37885579970E+03 -0.34183448985E+03 -0.15176229579E+03  0.53236672496E+03  0.00000000000E+00 0.  1.
         13    1    4    4    0    0 -0.80507833787E+02  0.99490654749E+03  0.11066314388E+03  0.10042743112E+04  0.10566000000E+00 0. -1.
         -4    1    4    4    0  501 -0.15240035277E+03 -0.20257108540E+03  0.22804302640E+03  0.34097585553E+03  0.00000000000E+00 0. -1.
<mgrwt>
<rscale>  2 0.12918350E+04</rscale>
<asrwt>0</asrwt>
<pdfrwt beam="1">  1        2 0.21637334E+00 0.12918350E+04</pdfrwt>
<pdfrwt beam="2">  1       -2 0.18938749E+00 0.12918350E+04</pdfrwt>
<totfact> 0.27160301E+00</totfact>
</mgrwt>
</event>
<event>
 8    1  0.1408247E-005  0.1350466E+04  0.7818608E-02  0.8501127E-01
          2   -1    0    0  502    0  0.00000000000E+00  0.00000000000E+00  0.25343035945E+04  0.25343035945E+04  0.00000000000E+00 0.  1.
         -2   -1    0    0    0  501 -0.00000000000E+00 -0.00000000000E+00 -0.76035265319E+03  0.76035265319E+03  0.00000000000E+00 0. -1.
    9000010    2    1    2  502    0 -0.26555032149E+03 -0.86986392483E+03  0.50285120298E+03  0.14366373975E+04  0.99191101351E+03 0.  0.
   -9000010    2    1    2    0  501  0.26555032149E+03  0.86986392483E+03  0.12710997383E+04  0.18580188501E+04  0.10046687423E+04 0.  0.
        -13    1    3    3    0    0 -0.69228754960E+02 -0.10361716322E+04  0.54988091848E+03  0.11750801282E+04  0.10566000000E+00 0.  1.
          4    1    3    3  502    0 -0.19632156653E+03  0.16630770740E+03 -0.47029715497E+02  0.26155726938E+03  0.00000000000E+00 0.  1.
         13    1    4    4    0    0 -0.33947996831E+03  0.60692429203E+03  0.66223421618E+03  0.96029053593E+03  0.10566000000E+00 0. -1.
         -4    1    4    4    0  501  0.60503028980E+03  0.26293963280E+03  0.60886552210E+03  0.89772831418E+03  0.00000000000E+00 0. -1.
<mgrwt>
<rscale>  2 0.13504663E+04</rscale>
<asrwt>0</asrwt>
<pdfrwt beam="1">  1        2 0.38989286E+00 0.13504663E+04</pdfrwt>
<pdfrwt beam="2">  1       -2 0.11697733E+00 0.13504663E+04</pdfrwt>
<totfact> 0.28241190E+00</totfact>
</mgrwt>
</event>
<event>
 8    1  0.1408247E-005  0.1531459E+04  0.7818608E-02  0.8391621E-01
          1   -1    0    0  502    0  0.00000000000E+00  0.00000000000E+00  0.44972793054E+04  0.44972793054E+04  0.00000000000E+00 0. -1.
         -1   -1    0    0    0  501 -0.00000000000E+00 -0.00000000000E+00 -0.62365688745E+03  0.62365688745E+03  0.00000000000E+00 0.  1.
    9000010    2    1    2  502    0 -0.97067308598E+02 -0.11616594207E+04  0.89115017292E+03  0.17641153708E+04  0.97932616571E+03 0.  0.
   -9000010    2    1    2    0  501  0.97067308598E+02  0.11616594207E+04  0.29824722450E+04  0.33568208220E+04  0.10070901979E+04 0.  0.
        -13    1    3    3    0    0 -0.85403994201E+02 -0.49259810960E+02 -0.18923187334E+03  0.21337545373E+03  0.10566000000E+00 0.  1.
          4    1    3    3  502    0 -0.11663314397E+02 -0.11123996097E+04  0.10803820463E+04  0.15507399171E+04  0.00000000000E+00 0.  1.
         13    1    4    4    0    0 -0.24825165891E+03  0.87337065983E+03  0.26390469967E+04  0.27908733861E+04  0.10566000000E+00 0. -1.
         -4    1    4    4    0  501  0.34531896751E+03  0.28828876086E+03  0.34342524832E+03  0.56594743585E+03  0.00000000000E+00 0. -1.
<mgrwt>
<rscale>  2 0.15314594E+04</rscale>
<asrwt>0</asrwt>
<pdfrwt beam="1">  1        1 0.69188910E+00 0.15314594E+04</pdfrwt>
<pdfrwt beam="2">  1       -1 0.95947216E-01 0.15314594E+04</pdfrwt>
<totfact> 0.32317858E-02</totfact>
</mgrwt>
</event>
<event>
 8    1  0.1408247E-005  0.1025921E+04  0.7818608E-02  0.8750611E-01
         -1   -1    0    0    0  501 -0.00000000000E+00  0.00000000000E+00  0.62468242007E+03  0.62468242007E+03  0.00000000000E+00 0. -1.
          1   -1    0    0  502    0  0.00000000000E+00 -0.00000000000E+00 -0.18211645389E+04  0.18211645389E+04  0.00000000000E+00 0.  1.
    9000010    2    1    2  502    0 -0.49343092103E+02  0.26983175621E+03 -0.93143821834E+03  0.13838502706E+04  0.98601242355E+03 0.  0.
   -9000010    2    1    2    0  501  0.49343092103E+02 -0.26983175621E+03 -0.26504390051E+03  0.10619966884E+04  0.99113307865E+03 0.  0.
        -13    1    3    3    0    0 -0.12565453662E+03  0.16542769749E+03  0.17393347586E+03  0.27093957049E+03  0.10566000000E+00 0.  1.
          4    1    3    3  502    0  0.76311444515E+02  0.10440405873E+03 -0.11053716942E+04  0.11129107001E+04  0.00000000000E+00 0.  1.
         13    1    4    4    0    0 -0.13516044596E+03 -0.56839949305E+03  0.55232330996E+02  0.58685343264E+03  0.10566000000E+00 0. -1.
         -4    1    4    4    0  501  0.18450353806E+03  0.29856773684E+03 -0.32027623150E+03  0.47514325577E+03  0.00000000000E+00 0. -1.
<mgrwt>
<rscale>  2 0.10259212E+04</rscale>
<asrwt>0</asrwt>
<pdfrwt beam="2">  1        1 0.28017916E+00 0.10259212E+04</pdfrwt>
<pdfrwt beam="1">  1       -1 0.96104988E-01 0.10259212E+04</pdfrwt>
<totfact> 0.57380731E+00</totfact>
</mgrwt>
</event>
<event>
 8    1  0.1408247E-005  0.1558196E+04  0.7818608E-02  0.8376773E-01
          2   -1    0    0  502    0  0.00000000000E+00  0.00000000000E+00  0.33835911067E+04  0.33835911067E+04  0.00000000000E+00 0.  1.
         -2   -1    0    0    0  501 -0.00000000000E+00 -0.00000000000E+00 -0.72579302958E+03  0.72579302958E+03  0.00000000000E+00 0. -1.
    9000010    2    1    2  502    0 -0.92219934624E+03  0.75894673842E+03  0.11082167776E+04  0.19101246051E+04  0.99698535341E+03 0.  0.
   -9000010    2    1    2    0  501  0.92219934624E+03 -0.75894673842E+03  0.15495812995E+04  0.21992595311E+04  0.10045339694E+04 0.  0.
        -13    1    3    3    0    0 -0.61027241619E+03  0.23999815232E+03  0.11275037622E+04  0.13043374870E+04  0.10566000000E+00 0.  1.
          4    1    3    3  502    0 -0.31192693005E+03  0.51894858610E+03 -0.19286984568E+02  0.60578711812E+03  0.00000000000E+00 0.  1.
         13    1    4    4    0    0  0.27956913818E+02 -0.30388482594E+03  0.10200721622E+04  0.10647416606E+04  0.10566000000E+00 0. -1.
         -4    1    4    4    0  501  0.89424243242E+03 -0.45506191249E+03  0.52950913723E+03  0.11345178705E+04  0.00000000000E+00 0. -1.
<mgrwt>
<rscale>  2 0.15581958E+04</rscale>
<asrwt>0</asrwt>
<pdfrwt beam="1">  1        2 0.52055247E+00 0.15581958E+04</pdfrwt>
<pdfrwt beam="2">  1       -2 0.11166047E+00 0.15581958E+04</pdfrwt>
<totfact> 0.92350172E-01</totfact>
</mgrwt>
</event>
<event>
 8    1  0.1408247E-005  0.1182412E+04  0.7818608E-02  0.8619925E-01
          2   -1    0    0  502    0  0.00000000000E+00  0.00000000000E+00  0.13328207088E+04  0.13328207088E+04  0.00000000000E+00 0. -1.
         -2   -1    0    0    0  501 -0.00000000000E+00 -0.00000000000E+00 -0.12135659370E+04  0.12135659370E+04  0.00000000000E+00 0.  1.
    9000010    2    1    2  502    0  0.58784345451E+03 -0.17820153571E+03 -0.40894785600E+03  0.12568317529E+04  0.10173848789E+04 0.  0.
   -9000010    2    1    2    0  501 -0.58784345451E+03  0.17820153571E+03  0.52820262777E+03  0.12895548929E+04  0.10033135559E+04 0.  0.
        -13    1    3    3    0    0 -0.21880495439E+03 -0.25923458641E+03 -0.27161849846E+03  0.43457427297E+03  0.10566000000E+00 0.  1.
          4    1    3    3  502    0  0.80664840891E+03  0.81033050699E+02 -0.13732935754E+03  0.82225747995E+03  0.00000000000E+00 0.  1.
         13    1    4    4    0    0 -0.61008283100E+03  0.53000352119E+03  0.46200597934E+03  0.93088899943E+03  0.10566000000E+00 0. -1.
         -4    1    4    4    0  501  0.22239376485E+02 -0.35180198548E+03  0.66196648434E+02  0.35866589344E+03  0.00000000000E+00 0. -1.
<mgrwt>
<rscale>  2 0.11824121E+04</rscale>
<asrwt>0</asrwt>
<pdfrwt beam="1">  1        2 0.20504934E+00 0.11824121E+04</pdfrwt>
<pdfrwt beam="2">  1       -2 0.18670245E+00 0.11824121E+04</pdfrwt>
<totfact> 0.31783677E+00</totfact>
</mgrwt>
</event>
<event>
 8    1  0.1408247E-005  0.1777961E+04  0.7818608E-02  0.8265326E-01
         -2   -1    0    0    0  501 -0.00000000000E+00  0.00000000000E+00  0.69379702197E+03  0.69379702197E+03  0.00000000000E+00 0.  1.
          2   -1    0    0  502    0  0.00000000000E+00 -0.00000000000E+00 -0.52448963320E+04  0.52448963320E+04  0.00000000000E+00 0. -1.
    9000010    2    1    2  502    0  0.77520397333E+03 -0.12451875306E+04 -0.11913712255E+04  0.21339984472E+04  0.99153960546E+03 0.  0.
   -9000010    2    1    2    0  501 -0.77520397333E+03  0.12451875306E+04 -0.33597280845E+04  0.38046949067E+04  0.10180851363E+04 0.  0.
        -13    1    3    3    0    0 -0.13161475200E+02 -0.92174149205E+01 -0.52228772716E+03  0.52253484695E+03  0.10566000000E+00 0.  1.
          4    1    3    3  502    0  0.78836544853E+03 -0.12359701157E+04 -0.66908349834E+03  0.16114636003E+04  0.00000000000E+00 0.  1.
         13    1    4    4    0    0 -0.63536617230E+03  0.62093139357E+03 -0.90578673682E+03  0.12687377949E+04  0.10566000000E+00 0. -1.
         -4    1    4    4    0  501 -0.13983780104E+03  0.62425613701E+03 -0.24539413477E+04  0.25359571118E+04  0.00000000000E+00 0. -1.
<mgrwt>
<rscale>  2 0.17779608E+04</rscale>
<asrwt>0</asrwt>
<pdfrwt beam="2">  1        2 0.80690710E+00 0.17779608E+04</pdfrwt>
<pdfrwt beam="1">  1       -2 0.10673801E+00 0.17779608E+04</pdfrwt>
<totfact> 0.24796339E-02</totfact>
</mgrwt>
</event>
<event>
 8    1  0.1408247E-005  0.1416332E+04  0.7818608E-02  0.8459339E-01
          2   -1    0    0  502    0  0.00000000000E+00  0.00000000000E+00  0.31357502663E+04  0.31357502663E+04  0.00000000000E+00 0. -1.
         -2   -1    0    0    0  501 -0.00000000000E+00 -0.00000000000E+00 -0.83774378618E+03  0.83774378618E+03  0.00000000000E+00 0.  1.
    9000010    2    1    2  502    0 -0.68795186152E+03 -0.62643076468E+03  0.15595052803E+03  0.13787574608E+04  0.10054642221E+04 0.  0.
   -9000010    2    1    2    0  501  0.68795186152E+03  0.62643076468E+03  0.21420559521E+04  0.25947365917E+04  0.11307347220E+04 0.  0.
        -13    1    3    3    0    0 -0.44201985916E+03 -0.49858934014E+03  0.57245753572E+03  0.87845348617E+03  0.10566000000E+00 0.  1.
          4    1    3    3  502    0 -0.24593200235E+03 -0.12784142454E+03 -0.41650700769E+03  0.50030397466E+03  0.00000000000E+00 0.  1.
         13    1    4    4    0    0  0.41705156463E+02 -0.30818323932E+03  0.63750488744E+03  0.70931567144E+03  0.10566000000E+00 0. -1.
         -4    1    4    4    0  501  0.64624670505E+03  0.93461400400E+03  0.15045510647E+04  0.18854209202E+04  0.00000000000E+00 0. -1.
<mgrwt>
<rscale>  2 0.14163317E+04</rscale>
<asrwt>0</asrwt>
<pdfrwt beam="1">  1        2 0.48242311E+00 0.14163317E+04</pdfrwt>
<pdfrwt beam="2">  1       -2 0.12888366E+00 0.14163317E+04</pdfrwt>
<totfact> 0.93964335E-01</totfact>
</mgrwt>
</event>
<event>
 8    1  0.1408247E-005  0.1141227E+04  0.7818608E-02  0.8652185E-01
          2   -1    0    0  502    0  0.00000000000E+00  0.00000000000E+00  0.23214615188E+04  0.23214615188E+04  0.00000000000E+00 0.  1.
         -2   -1    0    0    0  501 -0.00000000000E+00 -0.00000000000E+00 -0.58532523216E+03  0.58532523216E+03  0.00000000000E+00 0. -1.
    9000010    2    1    2  502    0 -0.30661081146E+03  0.45652901998E+03  0.55385596447E+03  0.12439943097E+04  0.96867769533E+03 0.  0.
   -9000010    2    1    2    0  501  0.30661081146E+03 -0.45652901998E+03  0.11822803222E+04  0.16627924413E+04  0.10318250853E+04 0.  0.
        -13    1    3    3    0    0 -0.19725726262E+03  0.23789449134E+03 -0.25396025963E+03  0.40000005163E+03  0.10566000000E+00 0.  1.
          4    1    3    3  502    0 -0.10935354885E+03  0.21863452864E+03  0.80781622410E+03  0.84399425809E+03  0.00000000000E+00 0.  1.
         13    1    4    4    0    0 -0.13418482902E+03 -0.32390211755E+03 -0.43637386691E+02  0.35330211261E+03  0.10566000000E+00 0. -1.
         -4    1    4    4    0  501  0.44079564049E+03 -0.13262690243E+03  0.12259177089E+04  0.13094903286E+04  0.00000000000E+00 0. -1.
<mgrwt>
<rscale>  2 0.11412265E+04</rscale>
<asrwt>0</asrwt>
<pdfrwt beam="1">  1        2 0.35714792E+00 0.11412265E+04</pdfrwt>
<pdfrwt beam="2">  1       -2 0.90050037E-01 0.11412265E+04</pdfrwt>
<totfact> 0.71860610E+00</totfact>
</mgrwt>
</event>
<event>
 8    1  0.1408247E-005  0.1226830E+04  0.7818608E-02  0.8586628E-01
          1   -1    0    0  502    0  0.00000000000E+00  0.00000000000E+00  0.11679038857E+04  0.11679038857E+04  0.00000000000E+00 0. -1.
         -1   -1    0    0    0  501 -0.00000000000E+00 -0.00000000000E+00 -0.13113214098E+04  0.13113214098E+04  0.00000000000E+00 0.  1.
    9000010    2    1    2  502    0 -0.65719640782E+03 -0.37381018535E+02 -0.23163946946E+03  0.12271318518E+04  0.10094014459E+04 0.  0.
   -9000010    2    1    2    0  501  0.65719640782E+03  0.37381018535E+02  0.88221945361E+02  0.12520934437E+04  0.10614379027E+04 0.  0.
        -13    1    3    3    0    0  0.35325295033E+02  0.12789360051E+03  0.30694653670E+03  0.33439622766E+03  0.10566000000E+00 0.  1.
          4    1    3    3  502    0 -0.69252170285E+03 -0.16527461904E+03 -0.53858600616E+03  0.89273562416E+03  0.00000000000E+00 0.  1.
         13    1    4    4    0    0 -0.55940256918E+01  0.38895631613E+03 -0.21314595279E+03  0.44356455825E+03  0.10566000000E+00 0. -1.
         -4    1    4    4    0  501  0.66279043351E+03 -0.35157529759E+03  0.30136789815E+03  0.80852888549E+03  0.00000000000E+00 0. -1.
<mgrwt>
<rscale>  2 0.12268297E+04</rscale>
<asrwt>0</asrwt>
<pdfrwt beam="1">  1        1 0.17967752E+00 0.12268297E+04</pdfrwt>
<pdfrwt beam="2">  1       -1 0.20174176E+00 0.12268297E+04</pdfrwt>
<totfact> 0.20139703E+00</totfact>
</mgrwt>
</event>
<event>
 8    1  0.1408247E-005  0.1051379E+04  0.7818608E-02  0.8727759E-01
         -2   -1    0    0    0  501 -0.00000000000E+00  0.00000000000E+00  0.40603705496E+03  0.40603705496E+03  0.00000000000E+00 0.  1.
          2   -1    0    0  502    0  0.00000000000E+00 -0.00000000000E+00 -0.29967839837E+04  0.29967839837E+04  0.00000000000E+00 0. -1.
    9000010    2    1    2  502    0  0.12785656795E+03 -0.22963626613E+03 -0.79984101385E+03  0.13344013774E+04  0.10352783548E+04 0.  0.
   -9000010    2    1    2    0  501 -0.12785656795E+03  0.22963626613E+03 -0.17909059149E+04  0.20684196612E+04  0.10009674232E+04 0.  0.
        -13    1    3    3    0    0  0.40668228980E+03  0.25482945274E+03 -0.21656111560E+03  0.52652375329E+03  0.10566000000E+00 0.  1.
          4    1    3    3  502    0 -0.27882572185E+03 -0.48446571886E+03 -0.58327989825E+03  0.80787762416E+03  0.00000000000E+00 0.  1.
         13    1    4    4    0    0 -0.41117910619E+03  0.38679602869E+03 -0.55837453819E+03  0.79401609633E+03  0.10566000000E+00 0. -1.
         -4    1    4    4    0  501  0.28332253824E+03 -0.15715976256E+03 -0.12325313767E+04  0.12744035649E+04  0.00000000000E+00 0. -1.
<mgrwt>
<rscale>  2 0.10513785E+04</rscale>
<asrwt>0</asrwt>
<pdfrwt beam="2">  1        2 0.46104367E+00 0.10513785E+04</pdfrwt>
<pdfrwt beam="1">  1       -2 0.62467242E-01 0.10513785E+04</pdfrwt>
<totfact> 0.64926250E+00</totfact>
</mgrwt>
</event>
<event>
 8    1  0.1408247E-005  0.1533597E+04  0.7818608E-02  0.8390422E-01
         -1   -1    0    0    0  501 -0.00000000000E+00  0.00000000000E+00  0.13502417396E+04  0.13502417396E+04  0.00000000000E+00 0.  1.
          1   -1    0    0  502    0  0.00000000000E+00 -0.00000000000E+00 -0.19453156852E+04  0.19453156852E+04  0.00000000000E+00 0. -1.
    9000010    2    1    2  502    0 -0.10735686732E+04  0.52889034177E+03 -0.82744193681E+03  0.17288200542E+04  0.93374725248E+03 0.  0.
   -9000010    2    1    2    0  501  0.10735686732E+04 -0.52889034177E+03  0.23236799127E+03  0.15667373705E+04  0.98407134660E+03 0.  0.
        -13    1    3    3    0    0 -0.92321775943E+03  0.67608564182E+03 -0.33346526391E+03  0.11918984520E+04  0.10566000000E+00 0.  1.
          4    1    3    3  502    0 -0.15035091375E+03 -0.14719530005E+03 -0.49397667290E+03  0.53692160228E+03  0.00000000000E+00 0.  1.
         13    1    4    4    0    0  0.44028920916E+03 -0.74910902818E+03  0.42776775541E+02  0.86997056703E+03  0.10566000000E+00 0. -1.
         -4    1    4    4    0  501  0.63327946401E+03  0.22021868641E+03  0.18959121573E+03  0.69676680350E+03  0.00000000000E+00 0. -1.
<mgrwt>
<rscale>  2 0.15335970E+04</rscale>
<asrwt>0</asrwt>
<pdfrwt beam="2">  1        1 0.29927934E+00 0.15335970E+04</pdfrwt>
<pdfrwt beam="1">  1       -1 0.20772950E+00 0.15335970E+04</pdfrwt>
<totfact> 0.44434717E-01</totfact>
</mgrwt>
</event>
<event>
 8    1  0.1408247E-005  0.1060070E+04  0.7818608E-02  0.8720110E-01
         -1   -1    0    0    0  501 -0.00000000000E+00  0.00000000000E+00  0.10638714414E+04  0.10638714414E+04  0.00000000000E+00 0. -1.
          1   -1    0    0  502    0  0.00000000000E+00 -0.00000000000E+00 -0.11462952288E+04  0.11462952288E+04  0.00000000000E+00 0.  1.
    9000010    2    1    2  502    0 -0.47099318641E+02 -0.36041606983E+03  0.26863941822E+03  0.10845504056E+04  0.98588252645E+03 0.  0.
   -9000010    2    1    2    0  501  0.47099318641E+02  0.36041606983E+03 -0.35106320562E+03  0.11256162647E+04  0.10058073929E+04 0.  0.
        -13    1    3    3    0    0  0.43319595582E+03 -0.14050028438E+03  0.31581354905E+03  0.55419967068E+03  0.10566000000E+00 0.  1.
          4    1    3    3  502    0 -0.48029527446E+03 -0.21991578546E+03 -0.47174130835E+02  0.53035073488E+03  0.00000000000E+00 0.  1.
         13    1    4    4    0    0  0.32124662887E+03 -0.16713101927E+03  0.10418151148E+03  0.37681026082E+03  0.10566000000E+00 0. -1.
         -4    1    4    4    0  501 -0.27414731023E+03  0.52754708911E+03 -0.45524471710E+03  0.74880600383E+03  0.00000000000E+00 0. -1.
<mgrwt>
<rscale>  2 0.10600705E+04</rscale>
<asrwt>0</asrwt>
<pdfrwt beam="2">  1        1 0.17635311E+00 0.10600705E+04</pdfrwt>
<pdfrwt beam="1">  1       -1 0.16367253E+00 0.10600705E+04</pdfrwt>
<totfact> 0.46130795E+00</totfact>
</mgrwt>
</event>
<event>
 8    1  0.1408247E-005  0.1201053E+04  0.7818608E-02  0.8605770E-01
          2   -1    0    0  502    0  0.00000000000E+00  0.00000000000E+00  0.22301803003E+04  0.22301803003E+04  0.00000000000E+00 0.  1.
         -2   -1    0    0    0  501 -0.00000000000E+00 -0.00000000000E+00 -0.83989411980E+03  0.83989411980E+03  0.00000000000E+00 0. -1.
    9000010    2    1    2  502    0  0.44416888138E+03 -0.53470822146E+03  0.14399341167E+04  0.18885751390E+04  0.10050407544E+04 0.  0.
   -9000010    2    1    2    0  501 -0.44416888138E+03  0.53470822146E+03 -0.49647936251E+02  0.11814992810E+04  0.95408425006E+03 0.  0.
        -13    1    3    3    0    0 -0.25889928632E+03 -0.44281909662E+03  0.60846720872E+03  0.79583286439E+03  0.10566000000E+00 0.  1.
          4    1    3    3  502    0  0.70306816770E+03 -0.91889124842E+02  0.83146690802E+03  0.10927422747E+04  0.00000000000E+00 0.  1.
         13    1    4    4    0    0 -0.74538312145E+03  0.34736648392E+03  0.64171548712E+01  0.82237501356E+03  0.10566000000E+00 0. -1.
         -4    1    4    4    0  501  0.30121424006E+03  0.18734173754E+03 -0.56065091122E+02  0.35912426747E+03  0.00000000000E+00 0. -1.
<mgrwt>
<rscale>  2 0.12010526E+04</rscale>
<asrwt>0</asrwt>
<pdfrwt beam="1">  1        2 0.34310466E+00 0.12010526E+04</pdfrwt>
<pdfrwt beam="2">  1       -2 0.12921448E+00 0.12010526E+04</pdfrwt>
<totfact> 0.32420883E+00</totfact>
</mgrwt>
</event>
<event>
 8    1  0.1408247E-005  0.1276982E+04  0.7818608E-02  0.8550743E-01
         -2   -1    0    0    0  501 -0.00000000000E+00  0.00000000000E+00  0.90150410720E+03  0.90150410720E+03  0.00000000000E+00 0. -1.
          2   -1    0    0  502    0  0.00000000000E+00 -0.00000000000E+00 -0.27195029731E+04  0.27195029731E+04  0.00000000000E+00 0.  1.
    9000010    2    1    2  502    0 -0.63106121216E+02 -0.79435808192E+03  0.13807454790E+03  0.12857100993E+04  0.99949924148E+03 0.  0.
   -9000010    2    1    2    0  501  0.63106121216E+02  0.79435808192E+03 -0.19560734137E+04  0.23352969810E+04  0.99619357790E+03 0.  0.
        -13    1    3    3    0    0  0.33507129894E+02 -0.28459084352E+03  0.55202480284E+03  0.62196950896E+03  0.10566000000E+00 0.  1.
          4    1    3    3  502    0 -0.96613251111E+02 -0.50976723840E+03 -0.41395025494E+03  0.66374059029E+03  0.00000000000E+00 0.  1.
         13    1    4    4    0    0  0.12053824370E+03  0.86411164002E+03 -0.82547632532E+03  0.12010951542E+04  0.10566000000E+00 0. -1.
         -4    1    4    4    0  501 -0.57432122485E+02 -0.69753558101E+02 -0.11305970884E+04  0.11342018268E+04  0.00000000000E+00 0. -1.
<mgrwt>
<rscale>  2 0.12769824E+04</rscale>
<asrwt>0</asrwt>
<pdfrwt beam="2">  1        2 0.41838507E+00 0.12769824E+04</pdfrwt>
<pdfrwt beam="1">  1       -2 0.13869294E+00 0.12769824E+04</pdfrwt>
<totfact> 0.13956639E+00</totfact>
</mgrwt>
</event>
<event>
 8    1  0.1408247E-005  0.1251299E+04  0.7818608E-02  0.8568902E-01
         -2   -1    0    0    0  501 -0.00000000000E+00  0.00000000000E+00  0.78207829683E+03  0.78207829683E+03  0.00000000000E+00 0.  1.
          2   -1    0    0  502    0  0.00000000000E+00 -0.00000000000E+00 -0.20281696745E+04  0.20281696745E+04  0.00000000000E+00 0. -1.
    9000010    2    1    2  502    0 -0.36219030233E+03 -0.67101054163E+03 -0.46631602761E+03  0.13404309294E+04  0.99893316927E+03 0.  0.
   -9000010    2    1    2    0  501  0.36219030233E+03  0.67101054163E+03 -0.77977535002E+03  0.14698170419E+04  0.98533018740E+03 0.  0.
        -13    1    3    3    0    0 -0.42463617251E+03 -0.91156764286E+03 -0.40742244170E+03  0.10850182043E+04  0.10566000000E+00 0.  1.
          4    1    3    3  502    0  0.62445870181E+02  0.24055710123E+03 -0.58893585907E+02  0.25541272504E+03  0.00000000000E+00 0.  1.
         13    1    4    4    0    0  0.25031996746E+03 -0.19878966083E+03 -0.39318562998E+02  0.32206113694E+03  0.10566000000E+00 0. -1.
         -4    1    4    4    0  501  0.11187033487E+03  0.86980020246E+03 -0.74045678702E+03  0.11477559050E+04  0.00000000000E+00 0. -1.
<mgrwt>
<rscale>  2 0.12512995E+04</rscale>
<asrwt>0</asrwt>
<pdfrwt beam="2">  1        2 0.31202610E+00 0.12512995E+04</pdfrwt>
<pdfrwt beam="1">  1       -2 0.12031974E+00 0.12512995E+04</pdfrwt>
<totfact> 0.50437043E+00</totfact>
</mgrwt>
</event>
<event>
 8    1  0.1408247E-005  0.1233488E+04  0.7818608E-02  0.8581763E-01
          1   -1    0    0  502    0  0.00000000000E+00  0.00000000000E+00  0.10744994553E+04  0.10744994553E+04  0.00000000000E+00 0.  1.
         -1   -1    0    0    0  501 -0.00000000000E+00 -0.00000000000E+00 -0.15363696888E+04  0.15363696888E+04  0.00000000000E+00 0. -1.
    9000010    2    1    2  502    0 -0.56699227635E+03 -0.44674047447E+03  0.13379401831E+03  0.12444473474E+04  0.10048338510E+04 0.  0.
   -9000010    2    1    2    0  501  0.56699227635E+03  0.44674047447E+03 -0.59566425178E+03  0.13664217967E+04  0.99560802164E+03 0.  0.
        -13    1    3    3    0    0 -0.83774030292E+02 -0.63680787184E+03 -0.14008130479E+03  0.65739268091E+03  0.10566000000E+00 0.  1.
          4    1    3    3  502    0 -0.48321824606E+03  0.19006739738E+03  0.27387532310E+03  0.58705466652E+03  0.00000000000E+00 0.  1.
         13    1    4    4    0    0  0.54267810899E+03  0.74959053484E+03 -0.43120847281E+03  0.10209438075E+04  0.10566000000E+00 0. -1.
         -4    1    4    4    0  501  0.24314167370E+02 -0.30285006037E+03 -0.16445577898E+03  0.34547798923E+03  0.00000000000E+00 0. -1.
<mgrwt>
<rscale>  2 0.12334879E+04</rscale>
<asrwt>0</asrwt>
<pdfrwt beam="1">  1        1 0.16530761E+00 0.12334879E+04</pdfrwt>
<pdfrwt beam="2">  1       -1 0.23636457E+00 0.12334879E+04</pdfrwt>
<totfact> 0.11395655E+00</totfact>
</mgrwt>
</event>
<event>
 8    1  0.1408247E-005  0.1209114E+04  0.7818608E-02  0.8599731E-01
         -2   -1    0    0    0  501 -0.00000000000E+00  0.00000000000E+00  0.10023545031E+04  0.10023545031E+04  0.00000000000E+00 0.  1.
          2   -1    0    0  502    0  0.00000000000E+00 -0.00000000000E+00 -0.18496225276E+04  0.18496225276E+04  0.00000000000E+00 0. -1.
    9000010    2    1    2  502    0 -0.64967688795E+03  0.83258654541E+02  0.22583331933E+03  0.12508605453E+04  0.10414602025E+04 0.  0.
   -9000010    2    1    2    0  501  0.64967688795E+03 -0.83258654541E+02 -0.10731013438E+04  0.16011164854E+04  0.99147135277E+03 0.  0.
        -13    1    3    3    0    0  0.17637427012E+03 -0.14336510978E+03 -0.19225706956E+03  0.29769821938E+03  0.10566000000E+00 0.  1.
          4    1    3    3  502    0 -0.82605115807E+03  0.22662376432E+03  0.41809038889E+03  0.95316232594E+03  0.00000000000E+00 0.  1.
         13    1    4    4    0    0  0.44506389157E+01  0.23422899301E+03  0.75362442209E+02  0.24609457169E+03  0.10566000000E+00 0. -1.
         -4    1    4    4    0  501  0.64522624904E+03 -0.31748764755E+03 -0.11484637860E+04  0.13550219137E+04  0.00000000000E+00 0. -1.
<mgrwt>
<rscale>  2 0.12091140E+04</rscale>
<asrwt>0</asrwt>
<pdfrwt beam="2">  1        2 0.28455731E+00 0.12091140E+04</pdfrwt>
<pdfrwt beam="1">  1       -2 0.15420839E+00 0.12091140E+04</pdfrwt>
<totfact> 0.31123987E+00</totfact>
</mgrwt>
</event>
<event>
 8    1  0.1408247E-005  0.1278302E+04  0.7818608E-02  0.8549822E-01
         -1   -1    0    0    0  501 -0.00000000000E+00  0.00000000000E+00  0.13909048725E+04  0.13909048725E+04  0.00000000000E+00 0. -1.
          1   -1    0    0  502    0  0.00000000000E+00 -0.00000000000E+00 -0.12745865365E+04  0.12745865365E+04  0.00000000000E+00 0.  1.
    9000010    2    1    2  502    0  0.32361307596E+03  0.73236712731E+03  0.43099223282E+03  0.13480110962E+04  0.99513445254E+03 0.  0.
   -9000010    2    1    2    0  501 -0.32361307596E+03 -0.73236712731E+03 -0.31467389687E+03  0.13174803128E+04  0.99782146759E+03 0.  0.
        -13    1    3    3    0    0  0.64082284696E+03  0.70020526265E+03  0.39145931436E+03  0.10267335277E+04  0.10566000000E+00 0.  1.
          4    1    3    3  502    0 -0.31720977100E+03  0.32161864666E+02  0.39532918453E+02  0.32127756846E+03  0.00000000000E+00 0.  1.
         13    1    4    4    0    0  0.15740458443E+02  0.19209353745E+03  0.13457412579E+03  0.23506998034E+03  0.10566000000E+00 0. -1.
         -4    1    4    4    0  501 -0.33935353440E+03 -0.92446066476E+03 -0.44924802265E+03  0.10824103325E+04  0.00000000000E+00 0. -1.
<mgrwt>
<rscale>  2 0.12783016E+04</rscale>
<asrwt>0</asrwt>
<pdfrwt beam="2">  1        1 0.19609024E+00 0.12783016E+04</pdfrwt>
<pdfrwt beam="1">  1       -1 0.21398536E+00 0.12783016E+04</pdfrwt>
<totfact> 0.12820083E+00</totfact>
</mgrwt>
</event>
<event>
 8    1  0.1408247E-005  0.1138728E+04  0.7818608E-02  0.8654187E-01
          2   -1    0    0  502    0  0.00000000000E+00  0.00000000000E+00  0.22424181621E+04  0.22424181621E+04  0.00000000000E+00 0. -1.
         -2   -1    0    0    0  501 -0.00000000000E+00 -0.00000000000E+00 -0.58331727475E+03  0.58331727475E+03  0.00000000000E+00 0.  1.
    9000010    2    1    2  502    0 -0.22883237700E+03  0.40285915535E+03  0.81099447056E+03  0.13229681593E+04  0.93694875182E+03 0.  0.
   -9000010    2    1    2    0  501  0.22883237700E+03 -0.40285915535E+03  0.84810641680E+03  0.15027672775E+04  0.11508106883E+04 0.  0.
        -13    1    3    3    0    0 -0.76266721876E+02 -0.10867111669E+03  0.77681430000E+03  0.78807771972E+03  0.10566000000E+00 0.  1.
          4    1    3    3  502    0 -0.15256565513E+03  0.51153027204E+03  0.34180170559E+02  0.53489043962E+03  0.00000000000E+00 0.  1.
         13    1    4    4    0    0  0.69998878384E+03 -0.21171042549E+03  0.52697757216E+03  0.90139390639E+03  0.10566000000E+00 0. -1.
         -4    1    4    4    0  501 -0.47115640684E+03 -0.19114872986E+03  0.32112884465E+03  0.60137337113E+03  0.00000000000E+00 0. -1.
<mgrwt>
<rscale>  2 0.11387281E+04</rscale>
<asrwt>0</asrwt>
<pdfrwt beam="1">  1        2 0.34498740E+00 0.11387281E+04</pdfrwt>
<pdfrwt beam="2">  1       -2 0.89741120E-01 0.11387281E+04</pdfrwt>
<totfact> 0.80074948E+00</totfact>
</mgrwt>
</event>
<event>
 8    1  0.1408247E-005  0.1124519E+04  0.7818608E-02  0.8665677E-01
          2   -1    0    0  502    0  0.00000000000E+00  0.00000000000E+00  0.10658317639E+04  0.10658317639E+04  0.00000000000E+00 0. -1.
         -2   -1    0    0    0  501 -0.00000000000E+00 -0.00000000000E+00 -0.12810790297E+04  0.12810790297E+04  0.00000000000E+00 0.  1.
    9000010    2    1    2  502    0 -0.51188794814E+03  0.11342048368E+03  0.21120427258E+03  0.11454693839E+04  0.99629282202E+03 0.  0.
   -9000010    2    1    2    0  501  0.51188794814E+03 -0.11342048368E+03 -0.42645153842E+03  0.12014414097E+04  0.99333129855E+03 0.  0.
        -13    1    3    3    0    0  0.17262251325E+02  0.28789014400E+03  0.45386651817E+03  0.53774859164E+03  0.10566000000E+00 0.  1.
          4    1    3    3  502    0 -0.52915019947E+03 -0.17446966031E+03 -0.24266224558E+03  0.60772079230E+03  0.00000000000E+00 0.  1.
         13    1    4    4    0    0  0.57105196139E+03 -0.43545126071E+03 -0.76493876782E+02  0.72219766506E+03  0.10566000000E+00 0. -1.
         -4    1    4    4    0  501 -0.59164013246E+02  0.32203077703E+03 -0.34995766163E+03  0.47924374462E+03  0.00000000000E+00 0. -1.
<mgrwt>
<rscale>  2 0.11245191E+04</rscale>
<asrwt>0</asrwt>
<pdfrwt beam="1">  1        2 0.16397412E+00 0.11245191E+04</pdfrwt>
<pdfrwt beam="2">  1       -2 0.19708908E+00 0.11245191E+04</pdfrwt>
<totfact> 0.37260183E+00</totfact>
</mgrwt>
</event>
<event>
 8    1  0.1408247E-005  0.1061741E+04  0.7818608E-02  0.8718648E-01
         -2   -1    0    0    0  501 -0.00000000000E+00  0.00000000000E+00  0.99409845430E+03  0.99409845430E+03  0.00000000000E+00 0. -1.
          2   -1    0    0  502    0  0.00000000000E+00 -0.00000000000E+00 -0.11789285151E+04  0.11789285151E+04  0.00000000000E+00 0.  1.
    9000010    2    1    2  502    0  0.65246051577E+01 -0.39376912564E+03  0.11982550655E+03  0.10672164490E+04  0.98462993162E+03 0.  0.
   -9000010    2    1    2    0  501 -0.65246051577E+01  0.39376912564E+03 -0.30465556738E+03  0.11058105204E+04  0.98737287665E+03 0.  0.
        -13    1    3    3    0    0  0.25305305504E+03 -0.60559124678E+03  0.26933418113E+03  0.70944874313E+03  0.10566000000E+00 0.  1.
          4    1    3    3  502    0 -0.24652844989E+03  0.21182212113E+03 -0.14950867458E+03  0.35776770589E+03  0.00000000000E+00 0.  1.
         13    1    4    4    0    0 -0.22919709947E+03 -0.23419738621E+03  0.78853646168E+02  0.33704248218E+03  0.10566000000E+00 0. -1.
         -4    1    4    4    0  501  0.22267249431E+03  0.62796651186E+03 -0.38350921355E+03  0.76876803824E+03  0.00000000000E+00 0. -1.
<mgrwt>
<rscale>  2 0.10617411E+04</rscale>
<asrwt>0</asrwt>
<pdfrwt beam="2">  1        2 0.18137362E+00 0.10617411E+04</pdfrwt>
<pdfrwt beam="1">  1       -2 0.15293822E+00 0.10617411E+04</pdfrwt>
<totfact> 0.75936410E+00</totfact>
</mgrwt>
</event>
<event>
 8    1  0.1408247E-005  0.1120947E+04  0.7818608E-02  0.8668594E-01
         -1   -1    0    0    0  501 -0.00000000000E+00  0.00000000000E+00  0.22460655350E+04  0.22460655350E+04  0.00000000000E+00 0. -1.
          1   -1    0    0  502    0  0.00000000000E+00 -0.00000000000E+00 -0.59712967477E+03  0.59712967477E+03  0.00000000000E+00 0.  1.
    9000010    2    1    2  502    0  0.24751000264E+03  0.45139383480E+03  0.11856014292E+04  0.16356407568E+04  0.10023234713E+04 0.  0.
   -9000010    2    1    2    0  501 -0.24751000264E+03 -0.45139383480E+03  0.46333443106E+03  0.12075544529E+04  0.98918722505E+03 0.  0.
        -13    1    3    3    0    0  0.33805423602E+03 -0.18088503587E+03  0.80620524737E+03  0.89273006824E+03  0.10566000000E+00 0.  1.
          4    1    3    3  502    0 -0.90544233380E+02  0.63227887067E+03  0.37939618179E+03  0.74291068861E+03  0.00000000000E+00 0.  1.
         13    1    4    4    0    0 -0.83980447232E+02 -0.70160909474E+03  0.55099817780E+03  0.89605080238E+03  0.10566000000E+00 0. -1.
         -4    1    4    4    0  501 -0.16352955541E+03  0.25021525994E+03 -0.87663746740E+02  0.31150365052E+03  0.00000000000E+00 0. -1.
<mgrwt>
<rscale>  2 0.11209466E+04</rscale>
<asrwt>0</asrwt>
<pdfrwt beam="2">  1        1 0.91866105E-01 0.11209466E+04</pdfrwt>
<pdfrwt beam="1">  1       -1 0.34554854E+00 0.11209466E+04</pdfrwt>
<totfact> 0.44828866E-01</totfact>
</mgrwt>
</event>
<event>
 8    1  0.1408247E-005  0.1172183E+04  0.7818608E-02  0.8627808E-01
          2   -1    0    0  502    0  0.00000000000E+00  0.00000000000E+00  0.22893608360E+04  0.22893608360E+04  0.00000000000E+00 0. -1.
         -2   -1    0    0    0  501 -0.00000000000E+00 -0.00000000000E+00 -0.63139956086E+03  0.63139956086E+03  0.00000000000E+00 0.  1.
    9000010    2    1    2  502    0 -0.54634197758E+03  0.16310675970E+03  0.49330246135E+03  0.12559535285E+04  0.10044792561E+04 0.  0.
   -9000010    2    1    2    0  501  0.54634197758E+03 -0.16310675970E+03  0.11646588137E+04  0.16648068683E+04  0.10440586117E+04 0.  0.
        -13    1    3    3    0    0  0.10173824022E+03 -0.20870321125E+03  0.45140721974E+03  0.50761815286E+03  0.10566000000E+00 0.  1.
          4    1    3    3  502    0 -0.64808021780E+03  0.37180997095E+03  0.41895241612E+02  0.74833537566E+03  0.00000000000E+00 0.  1.
         13    1    4    4    0    0 -0.33168221696E+02 -0.49151127397E+03  0.31320927831E+03  0.58376667133E+03  0.10566000000E+00 0. -1.
         -4    1    4    4    0  501  0.57951019927E+03  0.32840451428E+03  0.85144953543E+03  0.10810401970E+04  0.00000000000E+00 0. -1.
<mgrwt>
<rscale>  2 0.11721834E+04</rscale>
<asrwt>0</asrwt>
<pdfrwt beam="1">  1        2 0.35220936E+00 0.11721834E+04</pdfrwt>
<pdfrwt beam="2">  1       -2 0.97138395E-01 0.11721834E+04</pdfrwt>
<totfact> 0.62463926E+00</totfact>
</mgrwt>
</event>
<event>
 8    1  0.1408247E-005  0.1455467E+04  0.7818608E-02  0.8435599E-01
         -2   -1    0    0    0  501 -0.00000000000E+00  0.00000000000E+00  0.14802668164E+04  0.14802668164E+04  0.00000000000E+00 0.  1.
          2   -1    0    0  502    0  0.00000000000E+00 -0.00000000000E+00 -0.14458241586E+04  0.14458241586E+04  0.00000000000E+00 0. -1.
    9000010    2    1    2  502    0 -0.10008128244E+04  0.46465632529E+03 -0.12604803894E+03  0.14954062819E+04  0.10014090221E+04 0.  0.
   -9000010    2    1    2    0  501  0.10008128244E+04 -0.46465632529E+03  0.16049069673E+03  0.14306846931E+04  0.89642044661E+03 0.  0.
        -13    1    3    3    0    0  0.16178775944E+03 -0.71285190188E+02 -0.12272534613E+03  0.21521705135E+03  0.10566000000E+00 0.  1.
          4    1    3    3  502    0 -0.11626005839E+04  0.53594151548E+03 -0.33226928092E+01  0.12801892305E+04  0.00000000000E+00 0.  1.
         13    1    4    4    0    0  0.57391107346E+03  0.53248835213E+02 -0.26670622435E+03  0.63509178862E+03  0.10566000000E+00 0. -1.
         -4    1    4    4    0  501  0.42690175098E+03 -0.51790516050E+03  0.42719692108E+03  0.79559290447E+03  0.00000000000E+00 0. -1.
<mgrwt>
<rscale>  2 0.14554674E+04</rscale>
<asrwt>0</asrwt>
<pdfrwt beam="2">  1        2 0.22243449E+00 0.14554674E+04</pdfrwt>
<pdfrwt beam="1">  1       -2 0.22773336E+00 0.14554674E+04</pdfrwt>
<totfact> 0.12301932E+00</totfact>
</mgrwt>
</event>
<event>
 8    1  0.1408247E-005  0.1135903E+04  0.7818608E-02  0.8656458E-01
          4   -1    0    0  502    0  0.00000000000E+00  0.00000000000E+00  0.19152544067E+04  0.19152544067E+04  0.00000000000E+00 0.  1.
         -4   -1    0    0    0  501 -0.00000000000E+00 -0.00000000000E+00 -0.80084565525E+03  0.80084565525E+03  0.00000000000E+00 0. -1.
    9000010    2    1    2  502    0  0.43645106764E+03 -0.31975699663E+03  0.23709679200E+02  0.11538742052E+04  0.10188863829E+04 0.  0.
   -9000010    2    1    2    0  501 -0.43645106764E+03  0.31975699663E+03  0.10906990723E+04  0.15622258568E+04  0.97887235630E+03 0.  0.
        -13    1    3    3    0    0 -0.12090838657E+03  0.94219742583E+02 -0.33791742328E+03  0.37105847781E+03  0.10566000000E+00 0.  1.
          4    1    3    3  502    0  0.55735945422E+03 -0.41397673921E+03  0.36162710248E+03  0.78281572740E+03  0.00000000000E+00 0.  1.
         13    1    4    4    0    0 -0.67970499249E+03  0.37757373790E+03  0.50968917553E+03  0.92970095794E+03  0.10566000000E+00 0. -1.
         -4    1    4    4    0  501  0.24325392485E+03 -0.57816741268E+02  0.58100989674E+03  0.63252489883E+03  0.00000000000E+00 0. -1.
<mgrwt>
<rscale>  2 0.11359029E+04</rscale>
<asrwt>0</asrwt>
<pdfrwt beam="1">  1        4 0.29465452E+00 0.11359029E+04</pdfrwt>
<pdfrwt beam="2">  1       -4 0.12320702E+00 0.11359029E+04</pdfrwt>
<totfact> 0.21323427E-01</totfact>
</mgrwt>
</event>
<event>
 8    1  0.1408247E-005  0.1692118E+04  0.7818608E-02  0.8306772E-01
         -1   -1    0    0    0  501 -0.00000000000E+00  0.00000000000E+00  0.11166414206E+04  0.11166414206E+04  0.00000000000E+00 0.  1.
          1   -1    0    0  502    0  0.00000000000E+00 -0.00000000000E+00 -0.27054599058E+04  0.27054599058E+04  0.00000000000E+00 0. -1.
    9000010    2    1    2  502    0  0.40625869677E+02  0.13547061698E+04 -0.12276108789E+04  0.20843018442E+04  0.10002031994E+04 0.  0.
   -9000010    2    1    2    0  501 -0.40625869677E+02 -0.13547061698E+04 -0.36120760623E+03  0.17377994821E+04  0.10259614210E+04 0.  0.
        -13    1    3    3    0    0  0.39997341817E+03  0.22972259782E+03 -0.14853547339E+03  0.48457610879E+03  0.10566000000E+00 0.  1.
          4    1    3    3  502    0 -0.35934754849E+03  0.11249835720E+04 -0.10790754056E+04  0.15997257355E+04  0.00000000000E+00 0.  1.
         13    1    4    4    0    0  0.21996867691E+03 -0.37276409514E+03  0.29911712683E+03  0.52612769949E+03  0.10566000000E+00 0. -1.
         -4    1    4    4    0  501 -0.26059454659E+03 -0.98194207465E+03 -0.66032473306E+03  0.12116717826E+04  0.00000000000E+00 0. -1.
<mgrwt>
<rscale>  2 0.16921176E+04</rscale>
<asrwt>0</asrwt>
<pdfrwt beam="2">  1        1 0.41622459E+00 0.16921176E+04</pdfrwt>
<pdfrwt beam="1">  1       -1 0.17179099E+00 0.16921176E+04</pdfrwt>
<totfact> 0.20341815E-01</totfact>
</mgrwt>
</event>
<event>
 8    1  0.1408247E-005  0.1626056E+04  0.7818608E-02  0.8340432E-01
          2   -1    0    0  502    0  0.00000000000E+00  0.00000000000E+00  0.26560083014E+04  0.26560083014E+04  0.00000000000E+00 0. -1.
         -2   -1    0    0    0  501 -0.00000000000E+00 -0.00000000000E+00 -0.10851722701E+04  0.10851722701E+04  0.00000000000E+00 0.  1.
    9000010    2    1    2  502    0 -0.12543336196E+04  0.27220908564E+03  0.24822479411E+03  0.16460662402E+04  0.10002339242E+04 0.  0.
   -9000010    2    1    2    0  501  0.12543336196E+04 -0.27220908564E+03  0.13226112372E+04  0.20951143313E+04  0.99636989169E+03 0.  0.
        -13    1    3    3    0    0 -0.34880080253E+03 -0.15284392598E+03 -0.31841335160E+03  0.49639736018E+03  0.10566000000E+00 0.  1.
          4    1    3    3  502    0 -0.90553281705E+03  0.42505301161E+03  0.56663814571E+03  0.11496688800E+04  0.00000000000E+00 0.  1.
         13    1    4    4    0    0  0.31556821056E+03  0.66118596824E+02  0.99328593304E+03  0.10443045151E+04  0.10566000000E+00 0. -1.
         -4    1    4    4    0  501  0.93876540901E+03 -0.33832768246E+03  0.32932530416E+03  0.10508098162E+04  0.00000000000E+00 0. -1.
<mgrwt>
<rscale>  2 0.16260560E+04</rscale>
<asrwt>0</asrwt>
<pdfrwt beam="1">  1        2 0.40861666E+00 0.16260560E+04</pdfrwt>
<pdfrwt beam="2">  1       -2 0.16694958E+00 0.16260560E+04</pdfrwt>
<totfact> 0.82372910E-01</totfact>
</mgrwt>
</event>
<event>
 8    1  0.1408247E-005  0.1330832E+04  0.7818608E-02  0.8514060E-01
          1   -1    0    0  502    0  0.00000000000E+00  0.00000000000E+00  0.20702921211E+04  0.20702921211E+04  0.00000000000E+00 0.  1.
         -1   -1    0    0    0  501 -0.00000000000E+00 -0.00000000000E+00 -0.85563421276E+03  0.85563421276E+03  0.00000000000E+00 0. -1.
    9000010    2    1    2  502    0 -0.48071571209E+03  0.74691882415E+03  0.62319299516E+03  0.14649083981E+04  0.98418076587E+03 0.  0.
   -9000010    2    1    2    0  501  0.48071571209E+03 -0.74691882415E+03  0.59146491316E+03  0.14610179357E+04  0.99788142549E+03 0.  0.
        -13    1    3    3    0    0 -0.72987537837E+03  0.77949123249E+03  0.44505848329E+03  0.11568931300E+04  0.10566000000E+00 0.  1.
          4    1    3    3  502    0  0.24915966628E+03 -0.32572408337E+02  0.17813451187E+03  0.30801526813E+03  0.00000000000E+00 0.  1.
         13    1    4    4    0    0  0.65822390770E+03 -0.71598106859E+03  0.14983092280E+03  0.98404111695E+03  0.10566000000E+00 0. -1.
         -4    1    4    4    0  501 -0.17750819561E+03 -0.30937755553E+02  0.44163399036E+03  0.47697681879E+03  0.00000000000E+00 0. -1.
<mgrwt>
<rscale>  2 0.13308316E+04</rscale>
<asrwt>0</asrwt>
<pdfrwt beam="1">  1        1 0.31850648E+00 0.13308316E+04</pdfrwt>
<pdfrwt beam="2">  1       -1 0.13163603E+00 0.13308316E+04</pdfrwt>
<totfact> 0.17034749E+00</totfact>
</mgrwt>
</event>
<event>
 8    1  0.1408247E-005  0.1222120E+04  0.7818608E-02  0.8590089E-01
         -1   -1    0    0    0  501 -0.00000000000E+00  0.00000000000E+00  0.76765458499E+03  0.76765458499E+03  0.00000000000E+00 0.  1.
          1   -1    0    0  502    0  0.00000000000E+00 -0.00000000000E+00 -0.19780646066E+04  0.19780646066E+04  0.00000000000E+00 0. -1.
    9000010    2    1    2  502    0  0.69455953633E+03  0.50102394464E+02 -0.42746483114E+03  0.12908046105E+04  0.99926330926E+03 0.  0.
   -9000010    2    1    2    0  501 -0.69455953633E+03 -0.50102394464E+02 -0.78294519050E+03  0.14549145811E+04  0.10093810319E+04 0.  0.
        -13    1    3    3    0    0  0.21571008342E+03 -0.45799305440E+03 -0.27518993034E+03  0.57621001978E+03  0.10566000000E+00 0.  1.
          4    1    3    3  502    0  0.47884945291E+03  0.50809544886E+03 -0.15227490080E+03  0.71459459074E+03  0.00000000000E+00 0.  1.
         13    1    4    4    0    0  0.14726092577E+03 -0.16741493166E+03  0.86388838578E+02  0.23911625247E+03  0.10566000000E+00 0. -1.
         -4    1    4    4    0  501 -0.84182046210E+03  0.11731253720E+03 -0.86933402908E+03  0.12157983286E+04  0.00000000000E+00 0. -1.
<mgrwt>
<rscale>  2 0.12221200E+04</rscale>
<asrwt>0</asrwt>
<pdfrwt beam="2">  1        1 0.30431763E+00 0.12221200E+04</pdfrwt>
<pdfrwt beam="1">  1       -1 0.11810070E+00 0.12221200E+04</pdfrwt>
<totfact> 0.26790874E+00</totfact>
</mgrwt>
</event>
<event>
 8    1  0.1408247E-005  0.1338344E+04  0.7818608E-02  0.8509084E-01
          2   -1    0    0  502    0  0.00000000000E+00  0.00000000000E+00  0.23217022713E+04  0.23217022713E+04  0.00000000000E+00 0. -1.
         -2   -1    0    0    0  501 -0.00000000000E+00 -0.00000000000E+00 -0.79407017875E+03  0.79407017875E+03  0.00000000000E+00 0.  1.
    9000010    2    1    2  502    0 -0.11790293649E+03  0.80709288440E+03  0.53748663627E+03  0.14921242440E+04  0.11279374313E+04 0.  0.
   -9000010    2    1    2    0  501  0.11790293649E+03 -0.80709288440E+03  0.99014545627E+03  0.16236482060E+04  0.99526149626E+03 0.  0.
        -13    1    3    3    0    0 -0.56337954682E+03  0.75626483250E+03  0.38372558524E+03  0.10181249170E+04  0.10566000000E+00 0.  1.
          4    1    3    3  502    0  0.44547661032E+03  0.50828051899E+02  0.15376105103E+03  0.47399932702E+03  0.00000000000E+00 0.  1.
         13    1    4    4    0    0  0.26353819952E+03  0.36009068986E+01 -0.77949777158E+02  0.27484819093E+03  0.10566000000E+00 0. -1.
         -4    1    4    4    0  501 -0.14563526303E+03 -0.81069379129E+03  0.10680952334E+04  0.13488000151E+04  0.00000000000E+00 0. -1.
<mgrwt>
<rscale>  2 0.13383441E+04</rscale>
<asrwt>0</asrwt>
<pdfrwt beam="1">  1        2 0.35718496E+00 0.13383441E+04</pdfrwt>
<pdfrwt beam="2">  1       -2 0.12216464E+00 0.13383441E+04</pdfrwt>
<totfact> 0.33118217E+00</totfact>
</mgrwt>
</event>
<event>
 8    1  0.1408247E-005  0.1027040E+04  0.7818608E-02  0.8749592E-01
         -1   -1    0    0    0  501 -0.00000000000E+00  0.00000000000E+00  0.10649483181E+04  0.10649483181E+04  0.00000000000E+00 0.  1.
          1   -1    0    0  502    0  0.00000000000E+00 -0.00000000000E+00 -0.12884145563E+04  0.12884145563E+04  0.00000000000E+00 0. -1.
    9000010    2    1    2  502    0 -0.11419890327E+03 -0.29116262774E+03  0.45553897890E+03  0.11000188300E+04  0.95116171064E+03 0.  0.
   -9000010    2    1    2    0  501  0.11419890327E+03  0.29116262774E+03 -0.67900521713E+03  0.12533440443E+04  0.10059851606E+04 0.  0.
        -13    1    3    3    0    0 -0.31403698203E+03 -0.33575080566E+03  0.66413362609E+03  0.80772601422E+03  0.10566000000E+00 0.  1.
          4    1    3    3  502    0  0.19983807876E+03  0.44588177922E+02 -0.20859464719E+03  0.29229281580E+03  0.00000000000E+00 0.  1.
         13    1    4    4    0    0  0.32393884435E+03 -0.10199303302E+03 -0.72970542405E+03  0.80486580913E+03  0.10566000000E+00 0. -1.
         -4    1    4    4    0  501 -0.20973994108E+03  0.39315566075E+03  0.50700206923E+02  0.44847823520E+03  0.00000000000E+00 0. -1.
<mgrwt>
<rscale>  2 0.10270399E+04</rscale>
<asrwt>0</asrwt>
<pdfrwt beam="2">  1        1 0.19821762E+00 0.10270399E+04</pdfrwt>
<pdfrwt beam="1">  1       -1 0.16383820E+00 0.10270399E+04</pdfrwt>
<totfact> 0.35962511E+00</totfact>
</mgrwt>
</event>
<event>
 8    1  0.1408247E-005  0.1116629E+04  0.7818608E-02  0.8672134E-01
         -2   -1    0    0    0  501 -0.00000000000E+00  0.00000000000E+00  0.64801666237E+03  0.64801666237E+03  0.00000000000E+00 0.  1.
          2   -1    0    0  502    0  0.00000000000E+00 -0.00000000000E+00 -0.20210878555E+04  0.20210878555E+04  0.00000000000E+00 0. -1.
    9000010    2    1    2  502    0 -0.50988451821E+03 -0.44964041462E+02 -0.39228405335E+03  0.11803837684E+04  0.98864304741E+03 0.  0.
   -9000010    2    1    2    0  501  0.50988451821E+03  0.44964041462E+02 -0.98078713975E+03  0.14887207495E+04  0.99616367603E+03 0.  0.
        -13    1    3    3    0    0  0.19695305030E+02 -0.40703568970E+03  0.35901554488E+02  0.40909032072E+03  0.10566000000E+00 0.  1.
          4    1    3    3  502    0 -0.52957982324E+03  0.36207164824E+03 -0.42818560783E+03  0.77129344766E+03  0.00000000000E+00 0.  1.
         13    1    4    4    0    0 -0.19195734022E+03 -0.28564066574E+03 -0.30519221864E+03  0.45997881676E+03  0.10566000000E+00 0. -1.
         -4    1    4    4    0  501  0.70184185843E+03  0.33060470720E+03 -0.67559492110E+03  0.10287419327E+04  0.00000000000E+00 0. -1.
<mgrwt>
<rscale>  2 0.11166290E+04</rscale>
<asrwt>0</asrwt>
<pdfrwt beam="2">  1        2 0.31093659E+00 0.11166290E+04</pdfrwt>
<pdfrwt beam="1">  1       -2 0.99694872E-01 0.11166290E+04</pdfrwt>
<totfact> 0.82814702E+00</totfact>
</mgrwt>
</event>
<event>
 8    1  0.1408247E-005  0.1192891E+04  0.7818608E-02  0.8611935E-01
          2   -1    0    0  502    0  0.00000000000E+00  0.00000000000E+00  0.27165578576E+04  0.27165578576E+04  0.00000000000E+00 0.  1.
         -2   -1    0    0    0  501 -0.00000000000E+00 -0.00000000000E+00 -0.58311574015E+03  0.58311574015E+03  0.00000000000E+00 0. -1.
    9000010    2    1    2  502    0  0.10524488523E+03  0.57594144144E+03  0.15477849847E+04  0.19244474656E+04  0.98238213504E+03 0.  0.
   -9000010    2    1    2    0  501 -0.10524488523E+03 -0.57594144144E+03  0.58565713280E+03  0.13752261322E+04  0.10979378888E+04 0.  0.
        -13    1    3    3    0    0  0.33310939605E+03  0.34005464001E+03  0.16578968577E+03  0.50406870464E+03  0.10566000000E+00 0.  1.
          4    1    3    3  502    0 -0.22786451082E+03  0.23588680143E+03  0.13819952989E+04  0.14203787610E+04  0.00000000000E+00 0.  1.
         13    1    4    4    0    0  0.47355145655E+03 -0.25560705845E+03  0.83225604320E+02  0.54452957927E+03  0.10566000000E+00 0. -1.
         -4    1    4    4    0  501 -0.57879634178E+03 -0.32033438299E+03  0.50243152848E+03  0.83069655290E+03  0.00000000000E+00 0. -1.
<mgrwt>
<rscale>  2 0.11928910E+04</rscale>
<asrwt>0</asrwt>
<pdfrwt beam="1">  1        2 0.41793197E+00 0.11928910E+04</pdfrwt>
<pdfrwt beam="2">  1       -2 0.89710115E-01 0.11928910E+04</pdfrwt>
<totfact> 0.43164987E+00</totfact>
</mgrwt>
</event>
<event>
 8    1  0.1408247E-005  0.1747507E+04  0.7818608E-02  0.8279748E-01
          1   -1    0    0  502    0  0.00000000000E+00  0.00000000000E+00  0.67220842593E+03  0.67220842593E+03  0.00000000000E+00 0. -1.
         -1   -1    0    0    0  501 -0.00000000000E+00 -0.00000000000E+00 -0.45737415568E+04  0.45737415568E+04  0.00000000000E+00 0.  1.
    9000010    2    1    2  502    0  0.11393184221E+04 -0.84040758487E+03 -0.21497016925E+04  0.27616659134E+04  0.10006247422E+04 0.  0.
   -9000010    2    1    2    0  501 -0.11393184221E+04  0.84040758487E+03 -0.17518314384E+04  0.24842840694E+04  0.10480565697E+04 0.  0.
        -13    1    3    3    0    0 -0.81858553341E+02  0.12804761684E+03 -0.34572577196E+03  0.37765504829E+03  0.10566000000E+00 0.  1.
          4    1    3    3  502    0  0.12211769754E+04 -0.96845520170E+03 -0.18039759205E+04  0.23840108651E+04  0.00000000000E+00 0.  1.
         13    1    4    4    0    0 -0.99179183243E+03  0.92820236147E+02 -0.91641437047E+03  0.13535442160E+04  0.10566000000E+00 0. -1.
         -4    1    4    4    0  501 -0.14752658965E+03  0.74758734872E+03 -0.83541706795E+03  0.11307398534E+04  0.00000000000E+00 0. -1.
<mgrwt>
<rscale>  2 0.17475071E+04</rscale>
<asrwt>0</asrwt>
<pdfrwt beam="1">  1        1 0.10341668E+00 0.17475071E+04</pdfrwt>
<pdfrwt beam="2">  1       -1 0.70365256E+00 0.17475071E+04</pdfrwt>
<totfact> 0.38818924E-02</totfact>
</mgrwt>
</event>
<event>
 8    1  0.1408247E-005  0.1243738E+04  0.7818608E-02  0.8574334E-01
          2   -1    0    0  502    0  0.00000000000E+00  0.00000000000E+00  0.21969079330E+04  0.21969079330E+04  0.00000000000E+00 0.  1.
         -2   -1    0    0    0  501 -0.00000000000E+00 -0.00000000000E+00 -0.70479874127E+03  0.70479874127E+03  0.00000000000E+00 0. -1.
    9000010    2    1    2  502    0 -0.52303502956E+03  0.51663836150E+03  0.70058916461E+03  0.14268625625E+04  0.10023127037E+04 0.  0.
   -9000010    2    1    2    0  501  0.52303502956E+03 -0.51663836150E+03  0.79152002713E+03  0.14748441118E+04  0.10040818502E+04 0.  0.
        -13    1    3    3    0    0  0.71336692561E+02  0.32085299394E+03  0.72979142931E+03  0.80039434586E+03  0.10566000000E+00 0.  1.
          4    1    3    3  502    0 -0.59437172212E+03  0.19578536756E+03 -0.29202264706E+02  0.62646821665E+03  0.00000000000E+00 0.  1.
         13    1    4    4    0    0 -0.55521086361E+02 -0.41338889678E+03  0.78290821555E+03  0.88708413138E+03  0.10566000000E+00 0. -1.
         -4    1    4    4    0  501  0.57855611592E+03 -0.10324946472E+03  0.86118115818E+01  0.58775998037E+03  0.00000000000E+00 0. -1.
<mgrwt>
<rscale>  2 0.12437385E+04</rscale>
<asrwt>0</asrwt>
<pdfrwt beam="1">  1        2 0.33798583E+00 0.12437385E+04</pdfrwt>
<pdfrwt beam="2">  1       -2 0.10843058E+00 0.12437385E+04</pdfrwt>
<totfact> 0.53305400E+00</totfact>
</mgrwt>
</event>
<event>
 8    1  0.1408247E-005  0.1173009E+04  0.7818608E-02  0.8627169E-01
          2   -1    0    0  502    0  0.00000000000E+00  0.00000000000E+00  0.46434630335E+03  0.46434630335E+03  0.00000000000E+00 0. -1.
         -2   -1    0    0    0  501 -0.00000000000E+00 -0.00000000000E+00 -0.29804648495E+04  0.29804648495E+04  0.00000000000E+00 0.  1.
    9000010    2    1    2  502    0  0.57608674918E+03  0.32173011291E+03 -0.11559644737E+04  0.16635263544E+04  0.99783759157E+03 0.  0.
   -9000010    2    1    2    0  501 -0.57608674918E+03 -0.32173011291E+03 -0.13601540724E+04  0.17812847984E+04  0.94210945449E+03 0.  0.
        -13    1    3    3    0    0 -0.20949028604E+03  0.10927733684E+03 -0.68199460979E+03  0.72176476448E+03  0.10566000000E+00 0.  1.
          4    1    3    3  502    0  0.78557703522E+03  0.21245277607E+03 -0.47396986387E+03  0.94176158989E+03  0.00000000000E+00 0.  1.
         13    1    4    4    0    0  0.22972996266E+03  0.32434278613E+02 -0.12196755273E+03  0.26211435148E+03  0.10566000000E+00 0. -1.
         -4    1    4    4    0  501 -0.80581671184E+03 -0.35416439153E+03 -0.12381865197E+04  0.15191704470E+04  0.00000000000E+00 0. -1.
<mgrwt>
<rscale>  2 0.11730089E+04</rscale>
<asrwt>0</asrwt>
<pdfrwt beam="1">  1        2 0.71437891E-01 0.11730089E+04</pdfrwt>
<pdfrwt beam="2">  1       -2 0.45853307E+00 0.11730089E+04</pdfrwt>
<totfact> 0.28630141E-01</totfact>
</mgrwt>
</event>
<event>
 8    1  0.1408247E-005  0.1275096E+04  0.7818608E-02  0.8552061E-01
          1   -1    0    0  502    0  0.00000000000E+00  0.00000000000E+00  0.21185269286E+04  0.21185269286E+04  0.00000000000E+00 0.  1.
         -1   -1    0    0    0  501 -0.00000000000E+00 -0.00000000000E+00 -0.76851347652E+03  0.76851347652E+03  0.00000000000E+00 0. -1.
    9000010    2    1    2  502    0  0.24365827596E+03  0.70394227480E+03  0.61595830640E+03  0.14006369371E+04  0.10136444706E+04 0.  0.
   -9000010    2    1    2    0  501 -0.24365827596E+03 -0.70394227480E+03  0.73405514569E+03  0.14864034680E+04  0.10562453461E+04 0.  0.
        -13    1    3    3    0    0 -0.16659344241E+03  0.30344436170E+03 -0.20272759607E+03  0.40116124573E+03  0.10566000000E+00 0.  1.
          4    1    3    3  502    0  0.41025171837E+03  0.40049791310E+03  0.81868590247E+03  0.99947569142E+03  0.00000000000E+00 0.  1.
         13    1    4    4    0    0 -0.26999805811E+03  0.21033658807E+03  0.53677587673E+02  0.34644151923E+03  0.10566000000E+00 0. -1.
         -4    1    4    4    0  501  0.26339782145E+02 -0.91427886286E+03  0.68037755802E+03  0.11399619488E+04  0.00000000000E+00 0. -1.
<mgrwt>
<rscale>  2 0.12750965E+04</rscale>
<asrwt>0</asrwt>
<pdfrwt beam="1">  1        1 0.32592722E+00 0.12750965E+04</pdfrwt>
<pdfrwt beam="2">  1       -1 0.11823284E+00 0.12750965E+04</pdfrwt>
<totfact> 0.20688601E+00</totfact>
</mgrwt>
</event>
<event>
 8    1  0.1408247E-005  0.1221742E+04  0.7818608E-02  0.8590367E-01
         -2   -1    0    0    0  501 -0.00000000000E+00  0.00000000000E+00  0.76350708562E+03  0.76350708562E+03  0.00000000000E+00 0.  1.
          2   -1    0    0  502    0  0.00000000000E+00 -0.00000000000E+00 -0.20419352324E+04  0.20419352324E+04  0.00000000000E+00 0. -1.
    9000010    2    1    2  502    0  0.63319001523E+03 -0.25532942938E+03 -0.35718190144E+03  0.12863116738E+04  0.10299981061E+04 0.  0.
   -9000010    2    1    2    0  501 -0.63319001523E+03  0.25532942938E+03 -0.92124624531E+03  0.15191306442E+04  0.99646402676E+03 0.  0.
        -13    1    3    3    0    0  0.57858615470E+03 -0.26125570992E+02 -0.67580575940E+03  0.89003253844E+03  0.10566000000E+00 0.  1.
          4    1    3    3  502    0  0.54603860533E+02 -0.22920385839E+03  0.31862385797E+03  0.39627913540E+03  0.00000000000E+00 0.  1.
         13    1    4    4    0    0 -0.34992130586E+03 -0.13483886059E+03 -0.96469955447E+03  0.10350225506E+04  0.10566000000E+00 0. -1.
         -4    1    4    4    0  501 -0.28326870937E+03  0.39016828997E+03  0.43453309156E+02  0.48410809360E+03  0.00000000000E+00 0. -1.
<mgrwt>
<rscale>  2 0.12217423E+04</rscale>
<asrwt>0</asrwt>
<pdfrwt beam="2">  1        2 0.31414387E+00 0.12217423E+04</pdfrwt>
<pdfrwt beam="1">  1       -2 0.11746263E+00 0.12217423E+04</pdfrwt>
<totfact> 0.52963226E+00</totfact>
</mgrwt>
</event>
<event>
 8    1  0.1408247E-005  0.1419213E+04  0.7818608E-02  0.8457565E-01
         -2   -1    0    0    0  501 -0.00000000000E+00  0.00000000000E+00  0.96401905306E+03  0.96401905306E+03  0.00000000000E+00 0. -1.
          2   -1    0    0  502    0  0.00000000000E+00 -0.00000000000E+00 -0.21976392353E+04  0.21976392353E+04  0.00000000000E+00 0.  1.
    9000010    2    1    2  502    0  0.10039866664E+04  0.10176703413E+03 -0.96710896560E+03  0.17161577152E+04  0.99576693890E+03 0.  0.
   -9000010    2    1    2    0  501 -0.10039866664E+04 -0.10176703413E+03 -0.26651121662E+03  0.14455005732E+04  0.10000489603E+04 0.  0.
        -13    1    3    3    0    0 -0.63723805094E+02  0.11235999845E+03 -0.55791440374E+03  0.57267266885E+03  0.10566000000E+00 0.  1.
          4    1    3    3  502    0  0.10677104714E+04 -0.10592964326E+02 -0.40919456186E+03  0.11434850463E+04  0.00000000000E+00 0.  1.
         13    1    4    4    0    0 -0.39745623689E+03 -0.53782202348E+03 -0.65680191752E+02  0.67196568955E+03  0.10566000000E+00 0. -1.
         -4    1    4    4    0  501 -0.60653042946E+03  0.43605498935E+03 -0.20083102487E+03  0.77353488360E+03  0.00000000000E+00 0. -1.
<mgrwt>
<rscale>  2 0.14192132E+04</rscale>
<asrwt>0</asrwt>
<pdfrwt beam="2">  1        2 0.33809834E+00 0.14192132E+04</pdfrwt>
<pdfrwt beam="1">  1       -2 0.14831063E+00 0.14192132E+04</pdfrwt>
<totfact> 0.22132848E+00</totfact>
</mgrwt>
</event>
<event>
 8    1  0.1408247E-005  0.1249146E+04  0.7818608E-02  0.8570445E-01
         -4   -1    0    0    0  501 -0.00000000000E+00  0.00000000000E+00  0.65194456871E+03  0.65194456871E+03  0.00000000000E+00 0. -1.
          4   -1    0    0  502    0  0.00000000000E+00 -0.00000000000E+00 -0.24858778842E+04  0.24858778842E+04  0.00000000000E+00 0.  1.
    9000010    2    1    2  502    0  0.59531536652E+03  0.46249211625E+03 -0.59850897265E+03  0.13631324632E+04  0.96520349088E+03 0.  0.
   -9000010    2    1    2    0  501 -0.59531536652E+03 -0.46249211625E+03 -0.12354243429E+04  0.17746899897E+04  0.10271085188E+04 0.  0.
        -13    1    3    3    0    0  0.73100608118E+03  0.92835806329E+02 -0.62810503520E+03  0.96824806949E+03  0.10566000000E+00 0.  1.
          4    1    3    3  502    0 -0.13569071466E+03  0.36965630992E+03  0.29596062549E+02  0.39488439376E+03  0.00000000000E+00 0.  1.
         13    1    4    4    0    0 -0.10708110549E+03 -0.69985622858E+03 -0.52919790863E+03  0.88392055158E+03  0.10566000000E+00 0. -1.
         -4    1    4    4    0  501 -0.48823426104E+03  0.23736411233E+03 -0.70622643425E+03  0.89076943813E+03  0.00000000000E+00 0. -1.
<mgrwt>
<rscale>  2 0.12491461E+04</rscale>
<asrwt>0</asrwt>
<pdfrwt beam="2">  1        4 0.38244275E+00 0.12491461E+04</pdfrwt>
<pdfrwt beam="1">  1       -4 0.10029916E+00 0.12491461E+04</pdfrwt>
<totfact> 0.16110649E-01</totfact>
</mgrwt>
</event>
<event>
 8    1  0.1408247E-005  0.1548389E+04  0.7818608E-02  0.8382183E-01
         -2   -1    0    0    0  501 -0.00000000000E+00  0.00000000000E+00  0.98618267363E+03  0.98618267363E+03  0.00000000000E+00 0. -1.
          2   -1    0    0  502    0  0.00000000000E+00 -0.00000000000E+00 -0.24314137987E+04  0.24314137987E+04  0.00000000000E+00 0.  1.
    9000010    2    1    2  502    0  0.75125800869E+03  0.94436533629E+03 -0.71531215038E+03  0.16898061172E+04  0.94210336858E+03 0.  0.
   -9000010    2    1    2    0  501 -0.75125800869E+03 -0.94436533629E+03 -0.72991897470E+03  0.17277903552E+04  0.99812991031E+03 0.  0.
        -13    1    3    3    0    0  0.26033290823E+03 -0.52239877418E+02  0.12825374908E+03  0.29487499592E+03  0.10566000000E+00 0.  1.
          4    1    3    3  502    0  0.49092510045E+03  0.99660521371E+03 -0.84356589946E+03  0.13949311212E+04  0.00000000000E+00 0.  1.
         13    1    4    4    0    0 -0.95347230989E+03 -0.80641474273E+03 -0.38872586251E+03  0.13078692558E+04  0.10566000000E+00 0. -1.
         -4    1    4    4    0  501  0.20221430120E+03 -0.13795059356E+03 -0.34119311220E+03  0.41992109936E+03  0.00000000000E+00 0. -1.
<mgrwt>
<rscale>  2 0.15483893E+04</rscale>
<asrwt>0</asrwt>
<pdfrwt beam="2">  1        2 0.37406365E+00 0.15483893E+04</pdfrwt>
<pdfrwt beam="1">  1       -2 0.15172041E+00 0.15483893E+04</pdfrwt>
<totfact> 0.15133508E+00</totfact>
</mgrwt>
</event>
<event>
 8    1  0.1408247E-005  0.1252081E+04  0.7818608E-02  0.8568343E-01
          2   -1    0    0  502    0  0.00000000000E+00  0.00000000000E+00  0.20047096670E+04  0.20047096670E+04  0.00000000000E+00 0. -1.
         -2   -1    0    0    0  501 -0.00000000000E+00 -0.00000000000E+00 -0.84829838572E+03  0.84829838572E+03  0.00000000000E+00 0.  1.
    9000010    2    1    2  502    0 -0.70232935531E+03  0.23886591751E+03  0.97590571712E+03  0.15855425796E+04  0.10055992508E+04 0.  0.
   -9000010    2    1    2    0  501  0.70232935531E+03 -0.23886591751E+03  0.18050556412E+03  0.12674654731E+04  0.10117129123E+04 0.  0.
        -13    1    3    3    0    0 -0.81835291904E+03  0.32621870542E+03  0.10895329782E+04  0.14011431996E+04  0.10566000000E+00 0.  1.
          4    1    3    3  502    0  0.11602356373E+03 -0.87352787904E+02 -0.11362726111E+03  0.18439938005E+03  0.00000000000E+00 0.  1.
         13    1    4    4    0    0 -0.18908347792E+03 -0.29005050513E+03  0.14058491853E+03  0.37369237032E+03  0.10566000000E+00 0. -1.
         -4    1    4    4    0  501  0.89141283323E+03  0.51184587620E+02  0.39920645590E+02  0.89377310275E+03  0.00000000000E+00 0. -1.
<mgrwt>
<rscale>  2 0.12520814E+04</rscale>
<asrwt>0</asrwt>
<pdfrwt beam="1">  1        2 0.30841687E+00 0.12520814E+04</pdfrwt>
<pdfrwt beam="2">  1       -2 0.13050744E+00 0.12520814E+04</pdfrwt>
<totfact> 0.41649493E+00</totfact>
</mgrwt>
</event>
<event>
 8    1  0.1408247E-005  0.1308291E+04  0.7818608E-02  0.8529193E-01
          2   -1    0    0  502    0  0.00000000000E+00  0.00000000000E+00  0.11923320199E+04  0.11923320199E+04  0.00000000000E+00 0.  1.
         -2   -1    0    0    0  501 -0.00000000000E+00 -0.00000000000E+00 -0.16281646427E+04  0.16281646427E+04  0.00000000000E+00 0. -1.
    9000010    2    1    2  502    0  0.63000910820E+03  0.56740520644E+03  0.26827769668E+03  0.13276160019E+04  0.98576426250E+03 0.  0.
   -9000010    2    1    2    0  501 -0.63000910820E+03 -0.56740520644E+03 -0.70411031951E+03  0.14928806608E+04  0.10070060479E+04 0.  0.
        -13    1    3    3    0    0  0.11040603918E+03 -0.27252462968E+03  0.15805191097E+03  0.33382568055E+03  0.10566000000E+00 0.  1.
          4    1    3    3  502    0  0.51960306902E+03  0.83992983612E+03  0.11022578571E+03  0.99379032133E+03  0.00000000000E+00 0.  1.
         13    1    4    4    0    0  0.24290930639E+03 -0.31990351606E+03 -0.29056448801E+03  0.49575288560E+03  0.10566000000E+00 0. -1.
         -4    1    4    4    0  501 -0.87291841460E+03 -0.24750169038E+03 -0.41354583150E+03  0.99712777518E+03  0.00000000000E+00 0. -1.
<mgrwt>
<rscale>  2 0.13082911E+04</rscale>
<asrwt>0</asrwt>
<pdfrwt beam="1">  1        2 0.18343570E+00 0.13082911E+04</pdfrwt>
<pdfrwt beam="2">  1       -2 0.25048686E+00 0.13082911E+04</pdfrwt>
<totfact> 0.11469512E+00</totfact>
</mgrwt>
</event>
<event>
 8    1  0.1408247E-005  0.1081472E+04  0.7818608E-02  0.8701597E-01
         -2   -1    0    0    0  501 -0.00000000000E+00  0.00000000000E+00  0.13331374777E+04  0.13331374777E+04  0.00000000000E+00 0.  1.
          2   -1    0    0  502    0  0.00000000000E+00 -0.00000000000E+00 -0.12278618407E+04  0.12278618407E+04  0.00000000000E+00 0. -1.
    9000010    2    1    2  502    0 -0.29528690902E+03  0.28069369827E+03  0.73658799338E+03  0.13035699523E+04  0.99536397247E+03 0.  0.
   -9000010    2    1    2    0  501  0.29528690902E+03 -0.28069369827E+03 -0.63131235639E+03  0.12574293660E+04  0.10082608831E+04 0.  0.
        -13    1    3    3    0    0 -0.33444720016E+03 -0.24524106504E+03  0.21828222165E+02  0.41530060453E+03  0.10566000000E+00 0.  1.
          4    1    3    3  502    0  0.39160291144E+02  0.52593476330E+03  0.71475977122E+03  0.88826934778E+03  0.00000000000E+00 0.  1.
         13    1    4    4    0    0 -0.17199950717E+03  0.29767806463E+03 -0.20804908088E+03  0.40184635353E+03  0.10566000000E+00 0. -1.
         -4    1    4    4    0  501  0.46728641618E+03 -0.57837176290E+03 -0.42326327551E+03  0.85558301249E+03  0.00000000000E+00 0. -1.
<mgrwt>
<rscale>  2 0.10814720E+04</rscale>
<asrwt>0</asrwt>
<pdfrwt beam="2">  1        2 0.18890182E+00 0.10814720E+04</pdfrwt>
<pdfrwt beam="1">  1       -2 0.20509807E+00 0.10814720E+04</pdfrwt>
<totfact> 0.25930662E+00</totfact>
</mgrwt>
</event>
<event>
 8    1  0.1408247E-005  0.1239534E+04  0.7818608E-02  0.8577373E-01
          2   -1    0    0  502    0  0.00000000000E+00  0.00000000000E+00  0.12087453256E+04  0.12087453256E+04  0.00000000000E+00 0. -1.
         -2   -1    0    0    0  501 -0.00000000000E+00 -0.00000000000E+00 -0.13051916870E+04  0.13051916870E+04  0.00000000000E+00 0.  1.
    9000010    2    1    2  502    0 -0.70924950122E+03  0.17652599518E+03  0.15488256649E+03  0.12497706171E+04  0.10018691052E+04 0.  0.
   -9000010    2    1    2    0  501  0.70924950122E+03 -0.17652599518E+03 -0.25132892784E+03  0.12641663955E+04  0.10003770107E+04 0.  0.
        -13    1    3    3    0    0 -0.16204511005E+03 -0.27329734320E+02  0.53055486958E+03  0.55542237340E+03  0.10566000000E+00 0.  1.
          4    1    3    3  502    0 -0.54720439117E+03  0.20385572950E+03 -0.37567230309E+03  0.69434824366E+03  0.00000000000E+00 0.  1.
         13    1    4    4    0    0 -0.25321165890E+03  0.25308359720E+02 -0.30641413726E+02  0.25631146029E+03  0.10566000000E+00 0. -1.
         -4    1    4    4    0  501  0.96246116012E+03 -0.20183435490E+03 -0.22068751412E+03  0.10078549352E+04  0.00000000000E+00 0. -1.
<mgrwt>
<rscale>  2 0.12395336E+04</rscale>
<asrwt>0</asrwt>
<pdfrwt beam="1">  1        2 0.18596082E+00 0.12395336E+04</pdfrwt>
<pdfrwt beam="2">  1       -2 0.20079872E+00 0.12395336E+04</pdfrwt>
<totfact> 0.28342854E+00</totfact>
</mgrwt>
</event>
<event>
 8    1  0.1408247E-005  0.1117224E+04  0.7818608E-02  0.8671645E-01
          2   -1    0    0  502    0  0.00000000000E+00  0.00000000000E+00  0.23468556579E+04  0.23468556579E+04  0.00000000000E+00 0. -1.
         -2   -1    0    0    0  501 -0.00000000000E+00 -0.00000000000E+00 -0.54405688563E+03  0.54405688563E+03  0.00000000000E+00 0.  1.
    9000010    2    1    2  502    0 -0.36652964958E+03 -0.27038245782E+03  0.69012826532E+03  0.13186353976E+04  0.10271667984E+04 0.  0.
   -9000010    2    1    2    0  501  0.36652964958E+03  0.27038245782E+03  0.11126705070E+04  0.15722771460E+04  0.10131974680E+04 0.  0.
        -13    1    3    3    0    0 -0.69988930397E+02 -0.31511048291E+03  0.89766185299E+03  0.95393389724E+03  0.10566000000E+00 0.  1.
          4    1    3    3  502    0 -0.29654071918E+03  0.44728025091E+02 -0.20753358767E+03  0.36470150037E+03  0.00000000000E+00 0.  1.
         13    1    4    4    0    0  0.13235629920E+03 -0.38713487262E+03  0.47454366639E+03  0.62656468302E+03  0.10566000000E+00 0. -1.
         -4    1    4    4    0  501  0.23417335037E+03  0.65751733044E+03  0.63812684061E+03  0.94571246294E+03  0.00000000000E+00 0. -1.
<mgrwt>
<rscale>  2 0.11172241E+04</rscale>
<asrwt>0</asrwt>
<pdfrwt beam="1">  1        2 0.36105471E+00 0.11172241E+04</pdfrwt>
<pdfrwt beam="2">  1       -2 0.83701060E-01 0.11172241E+04</pdfrwt>
<totfact> 0.82422533E+00</totfact>
</mgrwt>
</event>
<event>
 8    1  0.1408247E-005  0.1088420E+04  0.7818608E-02  0.8695682E-01
          4   -1    0    0  502    0  0.00000000000E+00  0.00000000000E+00  0.98156240086E+03  0.98156240086E+03  0.00000000000E+00 0.  1.
         -4   -1    0    0    0  501 -0.00000000000E+00 -0.00000000000E+00 -0.14195030142E+04  0.14195030142E+04  0.00000000000E+00 0. -1.
    9000010    2    1    2  502    0  0.37852046704E+03 -0.21278056350E+03  0.24525894931E+03  0.11177972403E+04  0.10003826298E+04 0.  0.
   -9000010    2    1    2    0  501 -0.37852046704E+03  0.21278056350E+03 -0.68319956261E+03  0.12832681747E+04  0.99572197608E+03 0.  0.
        -13    1    3    3    0    0  0.83824304949E+02  0.40890050121E+02 -0.37462067741E+03  0.38605592005E+03  0.10566000000E+00 0.  1.
          4    1    3    3  502    0  0.29469616209E+03 -0.25367061362E+03  0.61987962672E+03  0.73174132027E+03  0.00000000000E+00 0.  1.
         13    1    4    4    0    0  0.26633927782E+03 -0.15273335892E+03 -0.36406196833E+03  0.47624071412E+03  0.10566000000E+00 0. -1.
         -4    1    4    4    0  501 -0.64485974487E+03  0.36551392242E+03 -0.31913759429E+03  0.80702746057E+03  0.00000000000E+00 0. -1.
<mgrwt>
<rscale>  2 0.10884200E+04</rscale>
<asrwt>0</asrwt>
<pdfrwt beam="1">  1        4 0.15100960E+00 0.10884200E+04</pdfrwt>
<pdfrwt beam="2">  1       -4 0.21838508E+00 0.10884200E+04</pdfrwt>
<totfact> 0.23960347E-01</totfact>
</mgrwt>
</event>
<event>
 8    1  0.1408247E-005  0.1222218E+04  0.7818608E-02  0.8590017E-01
          2   -1    0    0  502    0  0.00000000000E+00  0.00000000000E+00  0.13268764518E+04  0.13268764518E+04  0.00000000000E+00 0. -1.
         -2   -1    0    0    0  501 -0.00000000000E+00 -0.00000000000E+00 -0.11258935518E+04  0.11258935518E+04  0.00000000000E+00 0.  1.
    9000010    2    1    2  502    0  0.58689136369E+02 -0.70720142777E+03  0.11061766727E+03  0.12260531092E+04  0.99367584456E+03 0.  0.
   -9000010    2    1    2    0  501 -0.58689136369E+02  0.70720142777E+03  0.90365232680E+02  0.12267168944E+04  0.99653910588E+03 0.  0.
        -13    1    3    3    0    0 -0.33943342819E+02 -0.79818951076E+03  0.41127373644E+03  0.89855703384E+03  0.10566000000E+00 0.  1.
          4    1    3    3  502    0  0.92632479188E+02  0.90988082987E+02 -0.30065606916E+03  0.32749607535E+03  0.00000000000E+00 0.  1.
         13    1    4    4    0    0  0.10872749104E+03  0.13539289175E+03  0.48293274987E+03  0.51320264468E+03  0.10566000000E+00 0. -1.
         -4    1    4    4    0  501 -0.16741662741E+03  0.57180853602E+03 -0.39256751719E+03  0.71351424972E+03  0.00000000000E+00 0. -1.
<mgrwt>
<rscale>  2 0.12222179E+04</rscale>
<asrwt>0</asrwt>
<pdfrwt beam="1">  1        2 0.20413484E+00 0.12222179E+04</pdfrwt>
<pdfrwt beam="2">  1       -2 0.17321439E+00 0.12222179E+04</pdfrwt>
<totfact> 0.41302375E+00</totfact>
</mgrwt>
</event>
<event>
 8    1  0.1408247E-005  0.1478662E+04  0.7818608E-02  0.8421886E-01
          4   -1    0    0  502    0  0.00000000000E+00  0.00000000000E+00  0.17625622945E+04  0.17625622945E+04  0.00000000000E+00 0.  1.
         -4   -1    0    0    0  501 -0.00000000000E+00 -0.00000000000E+00 -0.19871359274E+04  0.19871359274E+04  0.00000000000E+00 0. -1.
    9000010    2    1    2  502    0  0.65635946013E+03  0.87148261195E+03  0.10366596832E+04  0.18105560803E+04  0.10065586606E+04 0.  0.
   -9000010    2    1    2    0  501 -0.65635946013E+03 -0.87148261195E+03 -0.12612333161E+04  0.19391421416E+04  0.98958227739E+03 0.  0.
        -13    1    3    3    0    0  0.78098748232E+03  0.20903200057E+03  0.61023513282E+03  0.10129278125E+04  0.10566000000E+00 0.  1.
          4    1    3    3  502    0 -0.12462802220E+03  0.66245061138E+03  0.42642455035E+03  0.79762826779E+03  0.00000000000E+00 0.  1.
         13    1    4    4    0    0 -0.15212780780E+03  0.71350572685E+02 -0.72270282875E+03  0.74197922072E+03  0.10566000000E+00 0. -1.
         -4    1    4    4    0  501 -0.50423165232E+03 -0.94283318464E+03 -0.53853048736E+03  0.11971629209E+04  0.00000000000E+00 0. -1.
<mgrwt>
<rscale>  2 0.14786618E+04</rscale>
<asrwt>0</asrwt>
<pdfrwt beam="1">  1        4 0.27116343E+00 0.14786618E+04</pdfrwt>
<pdfrwt beam="2">  1       -4 0.30571322E+00 0.14786618E+04</pdfrwt>
<totfact> 0.63602251E-02</totfact>
</mgrwt>
</event>
<event>
 8    1  0.1408247E-005  0.1131806E+04  0.7818608E-02  0.8659763E-01
          1   -1    0    0  502    0  0.00000000000E+00  0.00000000000E+00  0.19451515746E+04  0.19451515746E+04  0.00000000000E+00 0.  1.
         -1   -1    0    0    0  501 -0.00000000000E+00 -0.00000000000E+00 -0.67697184182E+03  0.67697184182E+03  0.00000000000E+00 0. -1.
    9000010    2    1    2  502    0  0.15935864147E+03  0.52320169074E+03  0.84706400236E+03  0.14090262840E+04  0.98422683313E+03 0.  0.
   -9000010    2    1    2    0  501 -0.15935864147E+03 -0.52320169074E+03  0.42111573037E+03  0.12130971324E+04  0.99756253360E+03 0.  0.
        -13    1    3    3    0    0 -0.27553259117E+03 -0.10764156909E+03  0.46928397990E+03  0.55473631678E+03  0.10566000000E+00 0.  1.
          4    1    3    3  502    0  0.43489123265E+03  0.63084325982E+03  0.37778002246E+03  0.85428996721E+03  0.00000000000E+00 0.  1.
         13    1    4    4    0    0  0.39768495174E+03 -0.76620925058E+02  0.25973447445E+03  0.48113001920E+03  0.10566000000E+00 0. -1.
         -4    1    4    4    0  501 -0.55704359322E+03 -0.44658076568E+03  0.16138125592E+03  0.73196711318E+03  0.00000000000E+00 0. -1.
<mgrwt>
<rscale>  2 0.11318055E+04</rscale>
<asrwt>0</asrwt>
<pdfrwt beam="1">  1        1 0.29925409E+00 0.11318055E+04</pdfrwt>
<pdfrwt beam="2">  1       -1 0.10414951E+00 0.11318055E+04</pdfrwt>
<totfact> 0.38391927E+00</totfact>
</mgrwt>
</event>
<event>
 8    1  0.1408247E-005  0.1172291E+04  0.7818608E-02  0.8627725E-01
          1   -1    0    0  502    0  0.00000000000E+00  0.00000000000E+00  0.21526969653E+04  0.21526969653E+04  0.00000000000E+00 0.  1.
         -1   -1    0    0    0  501 -0.00000000000E+00 -0.00000000000E+00 -0.64361380276E+03  0.64361380276E+03  0.00000000000E+00 0. -1.
    9000010    2    1    2  502    0 -0.30288959069E+03  0.50642314503E+03  0.63754917973E+03  0.13455762243E+04  0.10275699066E+04 0.  0.
   -9000010    2    1    2    0  501  0.30288959069E+03 -0.50642314503E+03  0.87153398277E+03  0.14507345437E+04  0.99842512347E+03 0.  0.
        -13    1    3    3    0    0 -0.94216190970E+02  0.53350661481E+03  0.87447700589E+03  0.10286962835E+04  0.10566000000E+00 0.  1.
          4    1    3    3  502    0 -0.20867339972E+03 -0.27083469788E+02 -0.23692782616E+03  0.31687994082E+03  0.00000000000E+00 0.  1.
         13    1    4    4    0    0  0.30601972991E+03 -0.29135677324E+03 -0.11751061203E+03  0.43857222838E+03  0.10566000000E+00 0. -1.
         -4    1    4    4    0  501 -0.31301392193E+01 -0.21506637179E+03  0.98904459479E+03  0.10121623153E+04  0.00000000000E+00 0. -1.
<mgrwt>
<rscale>  2 0.11722908E+04</rscale>
<asrwt>0</asrwt>
<pdfrwt beam="1">  1        1 0.33118414E+00 0.11722908E+04</pdfrwt>
<pdfrwt beam="2">  1       -1 0.99017509E-01 0.11722908E+04</pdfrwt>
<totfact> 0.29540178E+00</totfact>
</mgrwt>
</event>
<event>
 8    1  0.1408247E-005  0.2092801E+04  0.7818608E-02  0.8131619E-01
          2   -1    0    0  502    0  0.00000000000E+00  0.00000000000E+00  0.41079193962E+04  0.41079193962E+04  0.00000000000E+00 0.  1.
         -2   -1    0    0    0  501 -0.00000000000E+00 -0.00000000000E+00 -0.11264631775E+04  0.11264631775E+04  0.00000000000E+00 0. -1.
    9000010    2    1    2  502    0  0.10136280243E+04  0.14772563310E+04  0.21271228982E+04  0.30204050091E+04  0.11783321075E+04 0.  0.
   -9000010    2    1    2    0  501 -0.10136280243E+04 -0.14772563310E+04  0.85433332048E+03  0.22139775647E+04  0.98085839711E+03 0.  0.
        -13    1    3    3    0    0  0.47231028742E+03  0.87156363059E+03  0.32428714545E+03  0.10430063919E+04  0.10566000000E+00 0.  1.
          4    1    3    3  502    0  0.54131773687E+03  0.60569270043E+03  0.18028357528E+04  0.19773986171E+04  0.00000000000E+00 0.  1.
         13    1    4    4    0    0 -0.11531977903E+04 -0.99262074545E+03  0.76032876032E+03  0.17009588245E+04  0.10566000000E+00 0. -1.
         -4    1    4    4    0  501  0.13956976601E+03 -0.48463558557E+03  0.94004560159E+02  0.51301874012E+03  0.00000000000E+00 0. -1.
<mgrwt>
<rscale>  2 0.20928013E+04</rscale>
<asrwt>0</asrwt>
<pdfrwt beam="1">  1        2 0.63198759E+00 0.20928013E+04</pdfrwt>
<pdfrwt beam="2">  1       -2 0.17330203E+00 0.20928013E+04</pdfrwt>
<totfact> 0.61317137E-02</totfact>
</mgrwt>
</event>
<event>
 8    1  0.1408247E-005  0.1235462E+04  0.7818608E-02  0.8580326E-01
          2   -1    0    0  502    0  0.00000000000E+00  0.00000000000E+00  0.36617622513E+04  0.36617622513E+04  0.00000000000E+00 0.  1.
         -2   -1    0    0    0  501 -0.00000000000E+00 -0.00000000000E+00 -0.75538845634E+03  0.75538845634E+03  0.00000000000E+00 0. -1.
    9000010    2    1    2  502    0  0.69031678204E+03  0.17508831492E+03  0.29332751064E+04  0.31837604568E+04  0.10124399334E+04 0.  0.
   -9000010    2    1    2    0  501 -0.69031678204E+03 -0.17508831492E+03 -0.26901311469E+02  0.12333902508E+04  0.10066452467E+04 0.  0.
        -13    1    3    3    0    0  0.32087248641E+03 -0.72045816370E+01  0.26821480935E+04  0.27012829295E+04  0.10566000000E+00 0.  1.
          4    1    3    3  502    0  0.36944429564E+03  0.18229289656E+03  0.25112701289E+03  0.48247752727E+03  0.00000000000E+00 0.  1.
         13    1    4    4    0    0 -0.57371517206E+02 -0.25690461139E+01 -0.44941504099E+03  0.45306951036E+03  0.10566000000E+00 0. -1.
         -4    1    4    4    0  501 -0.63294526484E+03 -0.17251926881E+03  0.42251372952E+03  0.78032074048E+03  0.00000000000E+00 0. -1.
<mgrwt>
<rscale>  2 0.12354621E+04</rscale>
<asrwt>0</asrwt>
<pdfrwt beam="1">  1        2 0.56334803E+00 0.12354621E+04</pdfrwt>
<pdfrwt beam="2">  1       -2 0.11621361E+00 0.12354621E+04</pdfrwt>
<totfact> 0.53817540E-01</totfact>
</mgrwt>
</event>
<event>
 8    1  0.1408247E-005  0.1102330E+04  0.7818608E-02  0.8683979E-01
         -1   -1    0    0    0  501 -0.00000000000E+00  0.00000000000E+00  0.12069849920E+04  0.12069849920E+04  0.00000000000E+00 0. -1.
          1   -1    0    0  502    0  0.00000000000E+00 -0.00000000000E+00 -0.10394067630E+04  0.10394067630E+04  0.00000000000E+00 0.  1.
    9000010    2    1    2  502    0  0.28151996307E+03  0.35188949019E+03  0.28273920585E+03  0.11362579922E+04  0.10040224417E+04 0.  0.
   -9000010    2    1    2    0  501 -0.28151996307E+03 -0.35188949019E+03 -0.11516097690E+03  0.11101337628E+04  0.10079956437E+04 0.  0.
        -13    1    3    3    0    0 -0.21122280840E+03 -0.22473340543E+03 -0.41854309993E+02  0.31124262679E+03  0.10566000000E+00 0.  1.
          4    1    3    3  502    0  0.49274277147E+03  0.57662289563E+03  0.32459351585E+03  0.82501536539E+03  0.00000000000E+00 0.  1.
         13    1    4    4    0    0 -0.82217459577E+02  0.18004994024E+03 -0.42083719109E+03  0.46506090376E+03  0.10566000000E+00 0. -1.
         -4    1    4    4    0  501 -0.19930250350E+03 -0.53193943043E+03  0.30567621419E+03  0.64507285904E+03  0.00000000000E+00 0. -1.
<mgrwt>
<rscale>  2 0.11023299E+04</rscale>
<asrwt>0</asrwt>
<pdfrwt beam="2">  1        1 0.15990873E+00 0.11023299E+04</pdfrwt>
<pdfrwt beam="1">  1       -1 0.18569000E+00 0.11023299E+04</pdfrwt>
<totfact> 0.35827965E+00</totfact>
</mgrwt>
</event>
<event>
 8    1  0.1408247E-005  0.1412919E+04  0.7818608E-02  0.8461447E-01
          1   -1    0    0  502    0  0.00000000000E+00  0.00000000000E+00  0.24822292558E+04  0.24822292558E+04  0.00000000000E+00 0. -1.
         -1   -1    0    0    0  501 -0.00000000000E+00 -0.00000000000E+00 -0.86296435452E+03  0.86296435452E+03  0.00000000000E+00 0.  1.
    9000010    2    1    2  502    0 -0.26984961468E+02  0.98923880484E+03  0.37619889701E+03  0.14672087396E+04  0.10158022811E+04 0.  0.
   -9000010    2    1    2    0  501  0.26984961468E+02 -0.98923880484E+03  0.12430660043E+04  0.18779848708E+04  0.10011455851E+04 0.  0.
        -13    1    3    3    0    0 -0.41094517538E+02  0.12024231346E+04  0.34241900436E+03  0.12509040490E+04  0.10566000000E+00 0.  1.
          4    1    3    3  502    0  0.14109556070E+02 -0.21318432978E+03  0.33779892643E+02  0.21630469061E+03  0.00000000000E+00 0.  1.
         13    1    4    4    0    0  0.32555363245E+03 -0.41480377302E+03  0.10928204573E+04  0.12133853060E+04  0.10566000000E+00 0. -1.
         -4    1    4    4    0  501 -0.29856867098E+03 -0.57443503183E+03  0.15024554697E+03  0.66459956475E+03  0.00000000000E+00 0. -1.
<mgrwt>
<rscale>  2 0.14129191E+04</rscale>
<asrwt>0</asrwt>
<pdfrwt beam="1">  1        1 0.38188142E+00 0.14129191E+04</pdfrwt>
<pdfrwt beam="2">  1       -1 0.13276375E+00 0.14129191E+04</pdfrwt>
<totfact> 0.74526764E-01</totfact>
</mgrwt>
</event>
<event>
 8    1  0.1408247E-005  0.1861715E+04  0.7818608E-02  0.8227142E-01
          4   -1    0    0  502    0  0.00000000000E+00  0.00000000000E+00  0.14477084220E+04  0.14477084220E+04  0.00000000000E+00 0.  1.
         -4   -1    0    0    0  501 -0.00000000000E+00 -0.00000000000E+00 -0.27670975993E+04  0.27670975993E+04  0.00000000000E+00 0. -1.
    9000010    2    1    2  502    0 -0.15387398108E+04  0.32912325943E+03 -0.14294754064E+04  0.23374056480E+04  0.97160840919E+03 0.  0.
   -9000010    2    1    2    0  501  0.15387398108E+04 -0.32912325943E+03  0.11008622911E+03  0.18774003732E+04  0.10180721283E+04 0.  0.
        -13    1    3    3    0    0 -0.14593681197E+04  0.62644275127E+02 -0.14505167444E+04  0.20585622290E+04  0.10566000000E+00 0.  1.
          4    1    3    3  502    0 -0.79371691086E+02  0.26647898430E+03  0.21041337954E+02  0.27884341901E+03  0.00000000000E+00 0.  1.
         13    1    4    4    0    0  0.15802659005E+04 -0.38120036143E+03 -0.12756566173E+03  0.16305910097E+04  0.10566000000E+00 0. -1.
         -4    1    4    4    0  501 -0.41526089723E+02  0.52077101996E+02  0.23765189084E+03  0.24680936347E+03  0.00000000000E+00 0. -1.
<mgrwt>
<rscale>  2 0.18617145E+04</rscale>
<asrwt>0</asrwt>
<pdfrwt beam="1">  1        4 0.22272437E+00 0.18617145E+04</pdfrwt>
<pdfrwt beam="2">  1       -4 0.42570732E+00 0.18617145E+04</pdfrwt>
<totfact> 0.30341501E-02</totfact>
</mgrwt>
</event>
<event>
 8    1  0.1408247E-005  0.1183463E+04  0.7818608E-02  0.8619120E-01
          2   -1    0    0  502    0  0.00000000000E+00  0.00000000000E+00  0.22088796752E+04  0.22088796752E+04  0.00000000000E+00 0. -1.
         -2   -1    0    0    0  501 -0.00000000000E+00 -0.00000000000E+00 -0.96448780409E+03  0.96448780409E+03  0.00000000000E+00 0.  1.
    9000010    2    1    2  502    0  0.46002664623E+03 -0.43593544333E+03 -0.30738292403E+03  0.12202460575E+04  0.99641956667E+03 0.  0.
   -9000010    2    1    2    0  501 -0.46002664623E+03  0.43593544333E+03  0.15517747951E+04  0.19531214218E+04  0.10025038890E+04 0.  0.
        -13    1    3    3    0    0 -0.20342540283E+03  0.14022227305E+03 -0.23097802416E+03  0.33822335695E+03  0.10566000000E+00 0.  1.
          4    1    3    3  502    0  0.66345204906E+03 -0.57615771638E+03 -0.76404899874E+02  0.88202270054E+03  0.00000000000E+00 0.  1.
         13    1    4    4    0    0  0.20468514850E+03 -0.56230371145E+02  0.82571167688E+03  0.85255946958E+03  0.10566000000E+00 0. -1.
         -4    1    4    4    0  501 -0.66471179473E+03  0.49216581447E+03  0.72606311823E+03  0.11005619522E+04  0.00000000000E+00 0. -1.
<mgrwt>
<rscale>  2 0.11834627E+04</rscale>
<asrwt>0</asrwt>
<pdfrwt beam="1">  1        2 0.33982764E+00 0.11834627E+04</pdfrwt>
<pdfrwt beam="2">  1       -2 0.14838274E+00 0.11834627E+04</pdfrwt>
<totfact> 0.22380901E+00</totfact>
</mgrwt>
</event>
<event>
 8    1  0.1408247E-005  0.1238906E+04  0.7818608E-02  0.8577827E-01
          2   -1    0    0  502    0  0.00000000000E+00  0.00000000000E+00  0.16585462690E+04  0.16585462690E+04  0.00000000000E+00 0. -1.
         -2   -1    0    0    0  501 -0.00000000000E+00 -0.00000000000E+00 -0.92554510919E+03  0.92554510919E+03  0.00000000000E+00 0.  1.
    9000010    2    1    2  502    0 -0.72262906843E+03 -0.19217563910E+03  0.38065226117E+03  0.12983602866E+04  0.99081736108E+03 0.  0.
   -9000010    2    1    2    0  501  0.72262906843E+03  0.19217563910E+03  0.35234889866E+03  0.12857310916E+04  0.98479969884E+03 0.  0.
        -13    1    3    3    0    0 -0.75316583277E+03  0.25208297567E+03  0.21050901727E+03  0.82165604470E+03  0.10566000000E+00 0.  1.
          4    1    3    3  502    0  0.30536764343E+02 -0.44425861477E+03  0.17014324390E+03  0.47670424188E+03  0.00000000000E+00 0.  1.
         13    1    4    4    0    0  0.84214981759E+03  0.32469117500E+03  0.13398728843E+02  0.90267392312E+03  0.10566000000E+00 0. -1.
         -4    1    4    4    0  501 -0.11952074916E+03 -0.13251553589E+03  0.33895016982E+03  0.38305716852E+03  0.00000000000E+00 0. -1.
<mgrwt>
<rscale>  2 0.12389058E+04</rscale>
<asrwt>0</asrwt>
<pdfrwt beam="1">  1        2 0.25516096E+00 0.12389058E+04</pdfrwt>
<pdfrwt beam="2">  1       -2 0.14239156E+00 0.12389058E+04</pdfrwt>
<totfact> 0.50181736E+00</totfact>
</mgrwt>
</event>
<event>
 8    1  0.1408247E-005  0.1124518E+04  0.7818608E-02  0.8665678E-01
         -2   -1    0    0    0  501 -0.00000000000E+00  0.00000000000E+00  0.59151071208E+03  0.59151071208E+03  0.00000000000E+00 0. -1.
          2   -1    0    0  502    0  0.00000000000E+00 -0.00000000000E+00 -0.21932142199E+04  0.21932142199E+04  0.00000000000E+00 0.  1.
    9000010    2    1    2  502    0  0.51058304070E+03 -0.60668422586E+01 -0.57407983137E+03  0.12552737972E+04  0.99267960854E+03 0.  0.
   -9000010    2    1    2    0  501 -0.51058304070E+03  0.60668422586E+01 -0.10276236765E+04  0.15294511348E+04  0.10111767922E+04 0.  0.
        -13    1    3    3    0    0 -0.91906333517E+02 -0.38966420552E+03 -0.17311508222E+03  0.43618093729E+03  0.10566000000E+00 0.  1.
          4    1    3    3  502    0  0.60248937422E+03  0.38359736326E+03 -0.40096474915E+03  0.81909285994E+03  0.00000000000E+00 0.  1.
         13    1    4    4    0    0  0.77347655065E+02  0.27509547826E+03 -0.79086127582E+03  0.84090531611E+03  0.10566000000E+00 0. -1.
         -4    1    4    4    0  501 -0.58793069577E+03 -0.26902863601E+03 -0.23676240064E+03  0.68854581865E+03  0.00000000000E+00 0. -1.
<mgrwt>
<rscale>  2 0.11245184E+04</rscale>
<asrwt>0</asrwt>
<pdfrwt beam="2">  1        2 0.33741757E+00 0.11245184E+04</pdfrwt>
<pdfrwt beam="1">  1       -2 0.91001648E-01 0.11245184E+04</pdfrwt>
<totfact> 0.82617952E+00</totfact>
</mgrwt>
</event>
<event>
 8    1  0.1408247E-005  0.1061213E+04  0.7818608E-02  0.8719110E-01
         -1   -1    0    0    0  501 -0.00000000000E+00  0.00000000000E+00  0.87101013467E+03  0.87101013467E+03  0.00000000000E+00 0.  1.
          1   -1    0    0  502    0  0.00000000000E+00 -0.00000000000E+00 -0.12960332279E+04  0.12960332279E+04  0.00000000000E+00 0. -1.
    9000010    2    1    2  502    0 -0.12062110996E+03 -0.35997487261E+03 -0.16122103234E+03  0.10793613767E+04  0.99744543671E+03 0.  0.
   -9000010    2    1    2    0  501  0.12062110996E+03  0.35997487261E+03 -0.26380206090E+03  0.10876819859E+04  0.98454518126E+03 0.  0.
        -13    1    3    3    0    0  0.36542886919E+03  0.33305264020E+02  0.13045338820E+03  0.38944267448E+03  0.10566000000E+00 0.  1.
          4    1    3    3  502    0 -0.48604997915E+03 -0.39328013663E+03 -0.29167442054E+03  0.68991870224E+03  0.00000000000E+00 0.  1.
         13    1    4    4    0    0 -0.37429644790E+03  0.16154666066E+03 -0.36236042436E+03  0.54543582830E+03  0.10566000000E+00 0. -1.
         -4    1    4    4    0  501  0.49491755786E+03  0.19842821194E+03  0.98558363462E+02  0.54224615755E+03  0.00000000000E+00 0. -1.
<mgrwt>
<rscale>  2 0.10612126E+04</rscale>
<asrwt>0</asrwt>
<pdfrwt beam="2">  1        1 0.19938973E+00 0.10612126E+04</pdfrwt>
<pdfrwt beam="1">  1       -1 0.13400156E+00 0.10612126E+04</pdfrwt>
<totfact> 0.63963416E+00</totfact>
</mgrwt>
</event>
<event>
 8    1  0.1408247E-005  0.1086682E+04  0.7818608E-02  0.8697157E-01
          1   -1    0    0  502    0  0.00000000000E+00  0.00000000000E+00  0.23461498441E+04  0.23461498441E+04  0.00000000000E+00 0.  1.
         -1   -1    0    0    0  501 -0.00000000000E+00 -0.00000000000E+00 -0.50623491071E+03  0.50623491071E+03  0.00000000000E+00 0. -1.
    9000010    2    1    2  502    0  0.18763262465E+03  0.33277414027E+03  0.82237972831E+03  0.13718623399E+04  0.10294431659E+04 0.  0.
   -9000010    2    1    2    0  501 -0.18763262465E+03 -0.33277414027E+03  0.10175352051E+04  0.14805224150E+04  0.10052980142E+04 0.  0.
        -13    1    3    3    0    0  0.20898748041E+03 -0.29763640369E+03  0.38502159809E+02  0.36571248713E+03  0.10566000000E+00 0.  1.
          4    1    3    3  502    0 -0.21354855756E+02  0.63041054396E+03  0.78387756850E+03  0.10061498528E+04  0.00000000000E+00 0.  1.
         13    1    4    4    0    0 -0.72132609075E+02 -0.46500283732E+03  0.23552711808E+02  0.47115336505E+03  0.10566000000E+00 0. -1.
         -4    1    4    4    0  501 -0.11550001558E+03  0.13222869705E+03  0.99398249330E+03  0.10093690499E+04  0.00000000000E+00 0. -1.
<mgrwt>
<rscale>  2 0.10866820E+04</rscale>
<asrwt>0</asrwt>
<pdfrwt beam="1">  1        1 0.36094612E+00 0.10866820E+04</pdfrwt>
<pdfrwt beam="2">  1       -1 0.77882295E-01 0.10866820E+04</pdfrwt>
<totfact> 0.33755545E+00</totfact>
</mgrwt>
</event>
<event>
 8    1  0.1408247E-005  0.1392688E+04  0.7818608E-02  0.8474066E-01
         -1   -1    0    0    0  501 -0.00000000000E+00  0.00000000000E+00  0.70992361459E+03  0.70992361459E+03  0.00000000000E+00 0.  1.
          1   -1    0    0  502    0  0.00000000000E+00 -0.00000000000E+00 -0.28160373254E+04  0.28160373254E+04  0.00000000000E+00 0. -1.
    9000010    2    1    2  502    0  0.78979302169E+03  0.60502558480E+03 -0.13431111526E+04  0.19217615885E+04  0.94836230388E+03 0.  0.
   -9000010    2    1    2    0  501 -0.78979302169E+03 -0.60502558480E+03 -0.76300255827E+03  0.16041993515E+04  0.10007265761E+04 0.  0.
        -13    1    3    3    0    0  0.63562848050E+03 -0.21920565090E+02 -0.10143561119E+04  0.11972562004E+04  0.10566000000E+00 0.  1.
          4    1    3    3  502    0  0.15416454119E+03  0.62694614989E+03 -0.32875504063E+03  0.72450538808E+03  0.00000000000E+00 0.  1.
         13    1    4    4    0    0 -0.86605123821E+03 -0.81406838246E+03 -0.63974261278E+03  0.13498232108E+04  0.10566000000E+00 0. -1.
         -4    1    4    4    0  501  0.76258216517E+02  0.20904279766E+03 -0.12325994550E+03  0.25437614079E+03  0.00000000000E+00 0. -1.
<mgrwt>
<rscale>  2 0.13926881E+04</rscale>
<asrwt>0</asrwt>
<pdfrwt beam="2">  1        1 0.43323650E+00 0.13926881E+04</pdfrwt>
<pdfrwt beam="1">  1       -1 0.10921902E+00 0.13926881E+04</pdfrwt>
<totfact> 0.58433116E-01</totfact>
</mgrwt>
</event>
<event>
 8    1  0.1408247E-005  0.1412383E+04  0.7818608E-02  0.8461778E-01
         -2   -1    0    0    0  501 -0.00000000000E+00  0.00000000000E+00  0.74384036138E+03  0.74384036138E+03  0.00000000000E+00 0. -1.
          2   -1    0    0  502    0  0.00000000000E+00 -0.00000000000E+00 -0.26822800033E+04  0.26822800033E+04  0.00000000000E+00 0.  1.
    9000010    2    1    2  502    0  0.13791017858E+02 -0.10098032077E+04 -0.97688567303E+03  0.17065765061E+04  0.96860985055E+03 0.  0.
   -9000010    2    1    2    0  501 -0.13791017858E+02  0.10098032077E+04 -0.96155396887E+03  0.17195438586E+04  0.10061572124E+04 0.  0.
        -13    1    3    3    0    0 -0.27614078041E+03 -0.10318414474E+04 -0.92121394108E+03  0.14105267242E+04  0.10566000000E+00 0.  1.
          4    1    3    3  502    0  0.28993179827E+03  0.22038239690E+02 -0.55671731948E+02  0.29604978195E+03  0.00000000000E+00 0.  1.
         13    1    4    4    0    0 -0.73425733937E+02  0.10405918949E+04 -0.34411891227E+03  0.10984719692E+04  0.10566000000E+00 0. -1.
         -4    1    4    4    0  501  0.59634716080E+02 -0.30788687215E+02 -0.61743505661E+03  0.62107188936E+03  0.00000000000E+00 0. -1.
<mgrwt>
<rscale>  2 0.14123834E+04</rscale>
<asrwt>0</asrwt>
<pdfrwt beam="2">  1        2 0.41265847E+00 0.14123834E+04</pdfrwt>
<pdfrwt beam="1">  1       -2 0.11443698E+00 0.14123834E+04</pdfrwt>
<totfact> 0.24410349E+00</totfact>
</mgrwt>
</event>
<event>
 8    1  0.1408247E-005  0.1262148E+04  0.7818608E-02  0.8561177E-01
         -1   -1    0    0    0  501 -0.00000000000E+00  0.00000000000E+00  0.39220142867E+03  0.39220142867E+03  0.00000000000E+00 0. -1.
          1   -1    0    0  502    0  0.00000000000E+00 -0.00000000000E+00 -0.40648204405E+04  0.40648204405E+04  0.00000000000E+00 0.  1.
    9000010    2    1    2  502    0  0.66185431577E+03 -0.38780081043E+03 -0.17761872618E+04  0.21794579686E+04  0.10033719369E+04 0.  0.
   -9000010    2    1    2    0  501 -0.66185431577E+03  0.38780081043E+03 -0.18964317500E+04  0.22775639006E+04  0.10012009464E+04 0.  0.
        -13    1    3    3    0    0  0.22437442613E+03  0.38368357428E+02 -0.14859030132E+04  0.15032377689E+04  0.10566000000E+00 0.  1.
          4    1    3    3  502    0  0.43747988964E+03 -0.42616916785E+03 -0.29028424862E+03  0.67622019969E+03  0.00000000000E+00 0.  1.
         13    1    4    4    0    0 -0.89046730027E+03  0.47106645569E+03 -0.16349915469E+04  0.19204252103E+04  0.10566000000E+00 0. -1.
         -4    1    4    4    0  501  0.22861298449E+03 -0.83265645260E+02 -0.26144020308E+03  0.35713869035E+03  0.00000000000E+00 0. -1.
<mgrwt>
<rscale>  2 0.12621483E+04</rscale>
<asrwt>0</asrwt>
<pdfrwt beam="2">  1        1 0.62535697E+00 0.12621483E+04</pdfrwt>
<pdfrwt beam="1">  1       -1 0.60338683E-01 0.12621483E+04</pdfrwt>
<totfact> 0.14213957E-01</totfact>
</mgrwt>
</event>
<event>
 8    1  0.1408247E-005  0.2258214E+04  0.7818608E-02  0.8070687E-01
         -4   -1    0    0    0  501 -0.00000000000E+00  0.00000000000E+00  0.40262080461E+04  0.40262080461E+04  0.00000000000E+00 0.  1.
          4   -1    0    0  502    0  0.00000000000E+00 -0.00000000000E+00 -0.12812929569E+04  0.12812929569E+04  0.00000000000E+00 0. -1.
    9000010    2    1    2  502    0  0.13569623674E+04 -0.14996251304E+04  0.16525761778E+04  0.27928170623E+04  0.98924047711E+03 0.  0.
   -9000010    2    1    2    0  501 -0.13569623674E+04  0.14996251304E+04  0.10923389114E+04  0.25146839407E+04  0.10199061849E+04 0.  0.
        -13    1    3    3    0    0  0.79709725146E+03 -0.11193795190E+04  0.51180738627E+03  0.14663974044E+04  0.10566000000E+00 0.  1.
          4    1    3    3  502    0  0.55986511595E+03 -0.38024561143E+03  0.11407687916E+04  0.13264196579E+04  0.00000000000E+00 0.  1.
         13    1    4    4    0    0 -0.12661209246E+04  0.14818492673E+04  0.63775749256E+03  0.20507740191E+04  0.10566000000E+00 0. -1.
         -4    1    4    4    0  501 -0.90841442767E+02  0.17775863032E+02  0.45458141879E+03  0.46390992158E+03  0.00000000000E+00 0. -1.
<mgrwt>
<rscale>  2 0.22582143E+04</rscale>
<asrwt>0</asrwt>
<pdfrwt beam="2">  1        4 0.19712199E+00 0.22582143E+04</pdfrwt>
<pdfrwt beam="1">  1       -4 0.61941662E+00 0.22582143E+04</pdfrwt>
<totfact> 0.37672190E-03</totfact>
</mgrwt>
</event>
<event>
 8    1  0.1408247E-005  0.1794136E+04  0.7818608E-02  0.8257785E-01
          4   -1    0    0  502    0  0.00000000000E+00  0.00000000000E+00  0.17290635689E+04  0.17290635689E+04  0.00000000000E+00 0.  1.
         -4   -1    0    0    0  501 -0.00000000000E+00 -0.00000000000E+00 -0.20993851574E+04  0.20993851574E+04  0.00000000000E+00 0. -1.
    9000010    2    1    2  502    0 -0.78619328033E+03 -0.12501554364E+04  0.45858596955E+03  0.18559106046E+04  0.10262137164E+04 0.  0.
   -9000010    2    1    2    0  501  0.78619328033E+03  0.12501554364E+04 -0.82890755805E+03  0.19725381217E+04  0.10113507861E+04 0.  0.
        -13    1    3    3    0    0 -0.31748686697E+03  0.97523731224E+02  0.24598460740E+03  0.41330040780E+03  0.10566000000E+00 0.  1.
          4    1    3    3  502    0 -0.46870641336E+03 -0.13476791676E+04  0.21260136215E+03  0.14426101968E+04  0.00000000000E+00 0.  1.
         13    1    4    4    0    0 -0.17809975932E+03  0.20559846902E+03 -0.40721440234E+03  0.48970790821E+03  0.10566000000E+00 0. -1.
         -4    1    4    4    0  501  0.96429303965E+03  0.10445569674E+04 -0.42169315571E+03  0.14828302135E+04  0.00000000000E+00 0. -1.
<mgrwt>
<rscale>  2 0.17941364E+04</rscale>
<asrwt>0</asrwt>
<pdfrwt beam="1">  1        4 0.26600978E+00 0.17941364E+04</pdfrwt>
<pdfrwt beam="2">  1       -4 0.32298233E+00 0.17941364E+04</pdfrwt>
<totfact> 0.57141295E-02</totfact>
</mgrwt>
</event>
<event>
 8    1  0.1408247E-005  0.1325551E+04  0.7818608E-02  0.8517577E-01
         -2   -1    0    0    0  501 -0.00000000000E+00  0.00000000000E+00  0.84911040550E+03  0.84911040550E+03  0.00000000000E+00 0.  1.
          2   -1    0    0  502    0  0.00000000000E+00 -0.00000000000E+00 -0.26700592500E+04  0.26700592500E+04  0.00000000000E+00 0. -1.
    9000010    2    1    2  502    0  0.34723960010E+03 -0.79606228569E+03 -0.76544330860E+02  0.13290590752E+04  0.10031193789E+04 0.  0.
   -9000010    2    1    2    0  501 -0.34723960010E+03  0.79606228569E+03 -0.17444045136E+04  0.21901105803E+04  0.99967331861E+03 0.  0.
        -13    1    3    3    0    0  0.18047499164E+02  0.41395149100E+02  0.33610046346E+03  0.33912063237E+03  0.10566000000E+00 0.  1.
          4    1    3    3  502    0  0.32919210094E+03 -0.83745743479E+03 -0.41264479432E+03  0.98993844288E+03  0.00000000000E+00 0.  1.
         13    1    4    4    0    0 -0.36299707732E+03  0.26658899483E+03 -0.15686246590E+04  0.16319987446E+04  0.10566000000E+00 0. -1.
         -4    1    4    4    0  501  0.15757477225E+02  0.52947329087E+03 -0.17577985465E+03  0.55811183569E+03  0.00000000000E+00 0. -1.
<mgrwt>
<rscale>  2 0.13255507E+04</rscale>
<asrwt>0</asrwt>
<pdfrwt beam="2">  1        2 0.41077834E+00 0.13255507E+04</pdfrwt>
<pdfrwt beam="1">  1       -2 0.13063237E+00 0.13255507E+04</pdfrwt>
<totfact> 0.17575755E+00</totfact>
</mgrwt>
</event>
<event>
 8    1  0.1408247E-005  0.1793126E+04  0.7818608E-02  0.8258254E-01
          1   -1    0    0  502    0  0.00000000000E+00  0.00000000000E+00  0.15898135141E+04  0.15898135141E+04  0.00000000000E+00 0. -1.
         -1   -1    0    0    0  501 -0.00000000000E+00 -0.00000000000E+00 -0.20236042999E+04  0.20236042999E+04  0.00000000000E+00 0.  1.
    9000010    2    1    2  502    0  0.13140619029E+04  0.64223148215E+03 -0.25799336929E+03  0.18308221351E+04  0.10705742153E+04 0.  0.
   -9000010    2    1    2    0  501 -0.13140619029E+04 -0.64223148215E+03 -0.17579741660E+03  0.17825956789E+04  0.10037542833E+04 0.  0.
        -13    1    3    3    0    0  0.14769124890E+04  0.66881175617E+03 -0.32357134578E+03  0.16532628624E+04  0.10566000000E+00 0.  1.
          4    1    3    3  502    0 -0.16285058601E+03 -0.26580274022E+02  0.65577976491E+02  0.17755927273E+03  0.00000000000E+00 0.  1.
         13    1    4    4    0    0 -0.59205771426E+03  0.14984994634E+03 -0.33895346335E+03  0.69848178567E+03  0.10566000000E+00 0. -1.
         -4    1    4    4    0  501 -0.72200418868E+03 -0.79208142849E+03  0.16315604675E+03  0.10841138932E+04  0.00000000000E+00 0. -1.
<mgrwt>
<rscale>  2 0.17931255E+04</rscale>
<asrwt>0</asrwt>
<pdfrwt beam="1">  1        1 0.24458669E+00 0.17931255E+04</pdfrwt>
<pdfrwt beam="2">  1       -1 0.31132374E+00 0.17931255E+04</pdfrwt>
<totfact> 0.88936183E-02</totfact>
</mgrwt>
</event>
<event>
 8    1  0.1408247E-005  0.1025061E+04  0.7818608E-02  0.8751395E-01
         -4   -1    0    0    0  501 -0.00000000000E+00  0.00000000000E+00  0.10871425043E+04  0.10871425043E+04  0.00000000000E+00 0. -1.
          4   -1    0    0  502    0  0.00000000000E+00 -0.00000000000E+00 -0.10345849547E+04  0.10345849547E+04  0.00000000000E+00 0.  1.
    9000010    2    1    2  502    0  0.26144428052E+03 -0.23366978616E+03  0.29844864322E+03  0.10741945899E+04  0.97049870866E+03 0.  0.
   -9000010    2    1    2    0  501 -0.26144428052E+03  0.23366978616E+03 -0.24589109366E+03  0.10475328692E+04  0.95598535618E+03 0.  0.
        -13    1    3    3    0    0 -0.36733187632E+03 -0.52072249947E+02  0.50954237885E+02  0.37448707868E+03  0.10566000000E+00 0.  1.
          4    1    3    3  502    0  0.62877615684E+03 -0.18159753621E+03  0.24749440533E+03  0.69970751121E+03  0.00000000000E+00 0.  1.
         13    1    4    4    0    0 -0.98476053364E+02  0.12669237614E+03 -0.61203829580E+03  0.63272377698E+03  0.10566000000E+00 0. -1.
         -4    1    4    4    0  501 -0.16296822716E+03  0.10697741002E+03  0.36614720214E+03  0.41480909218E+03  0.00000000000E+00 0. -1.
<mgrwt>
<rscale>  2 0.10250608E+04</rscale>
<asrwt>0</asrwt>
<pdfrwt beam="2">  1        4 0.15916692E+00 0.10250608E+04</pdfrwt>
<pdfrwt beam="1">  1       -4 0.16725269E+00 0.10250608E+04</pdfrwt>
<totfact> 0.31667461E-01</totfact>
</mgrwt>
</event>
<event>
 8    1  0.1408247E-005  0.1882938E+04  0.7818608E-02  0.8217793E-01
          1   -1    0    0  502    0  0.00000000000E+00  0.00000000000E+00  0.26427375389E+04  0.26427375389E+04  0.00000000000E+00 0.  1.
         -1   -1    0    0    0  501 -0.00000000000E+00 -0.00000000000E+00 -0.13710048951E+04  0.13710048951E+04  0.00000000000E+00 0. -1.
    9000010    2    1    2  502    0 -0.69895956192E+03  0.14187513048E+04  0.93035294545E+03  0.21016107032E+04  0.10246029527E+04 0.  0.
   -9000010    2    1    2    0  501  0.69895956192E+03 -0.14187513048E+04  0.34137969834E+03  0.19121317307E+04  0.10189739561E+04 0.  0.
        -13    1    3    3    0    0  0.17485079314E+03  0.77022267841E+03  0.30590034520E+03  0.84698926000E+03  0.10566000000E+00 0.  1.
          4    1    3    3  502    0 -0.87381035506E+03  0.64852862635E+03  0.62445260025E+03  0.12546214432E+04  0.00000000000E+00 0.  1.
         13    1    4    4    0    0  0.65557316046E+03 -0.75449455622E+03  0.63543344169E+03  0.11844044386E+04  0.10566000000E+00 0. -1.
         -4    1    4    4    0  501  0.43386401459E+02 -0.66425674853E+03 -0.29405374335E+03  0.72772729218E+03  0.00000000000E+00 0. -1.
<mgrwt>
<rscale>  2 0.18829378E+04</rscale>
<asrwt>0</asrwt>
<pdfrwt beam="1">  1        1 0.40657500E+00 0.18829378E+04</pdfrwt>
<pdfrwt beam="2">  1       -1 0.21092383E+00 0.18829378E+04</pdfrwt>
<totfact> 0.10238363E-01</totfact>
</mgrwt>
</event>
<event>
 8    1  0.1408247E-005  0.1197404E+04  0.7818608E-02  0.8608520E-01
          2   -1    0    0  502    0  0.00000000000E+00  0.00000000000E+00  0.13536177581E+04  0.13536177581E+04  0.00000000000E+00 0. -1.
         -2   -1    0    0    0  501 -0.00000000000E+00 -0.00000000000E+00 -0.11790951310E+04  0.11790951310E+04  0.00000000000E+00 0.  1.
    9000010    2    1    2  502    0 -0.26981575208E+03 -0.56539042789E+03  0.49128129293E+03  0.12978947765E+04  0.10250398363E+04 0.  0.
   -9000010    2    1    2    0  501  0.26981575208E+03  0.56539042789E+03 -0.31675866585E+03  0.12348181125E+04  0.10158606414E+04 0.  0.
        -13    1    3    3    0    0  0.27431170918E+03 -0.35316874407E+03  0.55233013733E+03  0.71066424375E+03  0.10566000000E+00 0.  1.
          4    1    3    3  502    0 -0.54412746126E+03 -0.21222168382E+03 -0.61048844396E+02  0.58723053274E+03  0.00000000000E+00 0.  1.
         13    1    4    4    0    0  0.53770364207E+03  0.14855370249E+03  0.12421853584E+03  0.57150998682E+03  0.10566000000E+00 0. -1.
         -4    1    4    4    0  501 -0.26788789000E+03  0.41683672540E+03 -0.44097720169E+03  0.66330812573E+03  0.00000000000E+00 0. -1.
<mgrwt>
<rscale>  2 0.11974039E+04</rscale>
<asrwt>0</asrwt>
<pdfrwt beam="1">  1        2 0.20824888E+00 0.11974039E+04</pdfrwt>
<pdfrwt beam="2">  1       -2 0.18139925E+00 0.11974039E+04</pdfrwt>
<totfact> 0.34197682E+00</totfact>
</mgrwt>
</event>
<event>
 8    1  0.1408247E-005  0.1067519E+04  0.7818608E-02  0.8713615E-01
          2   -1    0    0  502    0  0.00000000000E+00  0.00000000000E+00  0.17381745467E+04  0.17381745467E+04  0.00000000000E+00 0.  1.
         -2   -1    0    0    0  501 -0.00000000000E+00 -0.00000000000E+00 -0.68786079351E+03  0.68786079351E+03  0.00000000000E+00 0. -1.
    9000010    2    1    2  502    0 -0.55697877955E+03  0.15774849765E+02  0.24127452021E+03  0.10221309596E+04  0.82223117046E+03 0.  0.
   -9000010    2    1    2    0  501  0.55697877955E+03 -0.15774849765E+02  0.80903923298E+03  0.14039043806E+04  0.10029600305E+04 0.  0.
        -13    1    3    3    0    0 -0.48400556814E+03  0.21928778613E+02  0.53361672057E+03  0.72075590664E+03  0.10566000000E+00 0.  1.
          4    1    3    3  502    0 -0.72973211412E+02 -0.61539288477E+01 -0.29234220036E+03  0.30137505294E+03  0.00000000000E+00 0.  1.
         13    1    4    4    0    0  0.12757762433E+03  0.46088882541E+03  0.49971595042E+03  0.69167232263E+03  0.10566000000E+00 0. -1.
         -4    1    4    4    0  501  0.42940115522E+03 -0.47666367517E+03  0.30932328256E+03  0.71223205802E+03  0.00000000000E+00 0. -1.
<mgrwt>
<rscale>  2 0.10675192E+04</rscale>
<asrwt>0</asrwt>
<pdfrwt beam="1">  1        2 0.26741147E+00 0.10675192E+04</pdfrwt>
<pdfrwt beam="2">  1       -2 0.10582474E+00 0.10675192E+04</pdfrwt>
<totfact> 0.10253898E+01</totfact>
</mgrwt>
</event>
<event>
 8    1  0.1408247E-005  0.1311848E+04  0.7818608E-02  0.8526785E-01
          1   -1    0    0  502    0  0.00000000000E+00  0.00000000000E+00  0.12965166110E+04  0.12965166110E+04  0.00000000000E+00 0. -1.
         -1   -1    0    0    0  501 -0.00000000000E+00 -0.00000000000E+00 -0.13724625242E+04  0.13724625242E+04  0.00000000000E+00 0.  1.
    9000010    2    1    2  502    0  0.83743102729E+03 -0.14230130567E+03 -0.27984219167E+03  0.13398777005E+04  0.99770747861E+03 0.  0.
   -9000010    2    1    2    0  501 -0.83743102729E+03  0.14230130567E+03  0.20389627846E+03  0.13291014347E+04  0.10016968326E+04 0.  0.
        -13    1    3    3    0    0 -0.14752971588E+03  0.53888900611E+02 -0.29638709019E+03  0.33543158628E+03  0.10566000000E+00 0.  1.
          4    1    3    3  502    0  0.98496074317E+03 -0.19619020628E+03  0.16544898519E+02  0.10044461142E+04  0.00000000000E+00 0.  1.
         13    1    4    4    0    0 -0.53410889580E+03  0.55696431633E+03 -0.12133131963E+02  0.77176990502E+03  0.10566000000E+00 0. -1.
         -4    1    4    4    0  501 -0.30332213149E+03 -0.41466301066E+03  0.21602941042E+03  0.55733152973E+03  0.00000000000E+00 0. -1.
<mgrwt>
<rscale>  2 0.13118476E+04</rscale>
<asrwt>0</asrwt>
<pdfrwt beam="1">  1        1 0.19946409E+00 0.13118476E+04</pdfrwt>
<pdfrwt beam="2">  1       -1 0.21114808E+00 0.13118476E+04</pdfrwt>
<totfact> 0.13044296E+00</totfact>
</mgrwt>
</event>
<event>
 8    1  0.1408247E-005  0.9911841E+03  0.7818608E-02  0.8782919E-01
         -2   -1    0    0    0  501 -0.00000000000E+00  0.00000000000E+00  0.93730649398E+03  0.93730649398E+03  0.00000000000E+00 0. -1.
          2   -1    0    0  502    0  0.00000000000E+00 -0.00000000000E+00 -0.12752769534E+04  0.12752769534E+04  0.00000000000E+00 0.  1.
    9000010    2    1    2  502    0 -0.62593414044E+02  0.42995819153E+03 -0.63571341767E+03  0.12760182368E+04  0.10175013559E+04 0.  0.
   -9000010    2    1    2    0  501  0.62593414044E+02 -0.42995819153E+03  0.29774295823E+03  0.93656521066E+03  0.77441690496E+03 0.  0.
        -13    1    3    3    0    0  0.28942886515E+03 -0.82735862211E+02 -0.57767892131E+03  0.65140405139E+03  0.10566000000E+00 0.  1.
          4    1    3    3  502    0 -0.35202227919E+03  0.51269405374E+03 -0.58034496359E+02  0.62461418536E+03  0.00000000000E+00 0.  1.
         13    1    4    4    0    0  0.30891908607E+03 -0.16220031086E+03  0.42612848513E+03  0.55074988841E+03  0.10566000000E+00 0. -1.
         -4    1    4    4    0  501 -0.24632567203E+03 -0.26775788067E+03 -0.12838552690E+03  0.38581532224E+03  0.00000000000E+00 0. -1.
<mgrwt>
<rscale>  2 0.99118412E+03</rscale>
<asrwt>0</asrwt>
<pdfrwt beam="2">  1        2 0.19619645E+00 0.99118412E+03</pdfrwt>
<pdfrwt beam="1">  1       -2 0.14420100E+00 0.99118412E+03</pdfrwt>
<totfact> 0.80650305E+00</totfact>
</mgrwt>
</event>
<event>
 8    1  0.1408247E-005  0.1333718E+04  0.7818608E-02  0.8512144E-01
          2   -1    0    0  502    0  0.00000000000E+00  0.00000000000E+00  0.21546229764E+04  0.21546229764E+04  0.00000000000E+00 0. -1.
         -2   -1    0    0    0  501 -0.00000000000E+00 -0.00000000000E+00 -0.82988510724E+03  0.82988510724E+03  0.00000000000E+00 0.  1.
    9000010    2    1    2  502    0  0.86600318740E+03  0.14030658083E+03  0.76944103656E+03  0.15389565990E+04  0.10033446305E+04 0.  0.
   -9000010    2    1    2    0  501 -0.86600318740E+03 -0.14030658083E+03  0.55529683262E+03  0.14455514847E+04  0.10057917605E+04 0.  0.
        -13    1    3    3    0    0  0.45167621758E+03 -0.14541195597E+03 -0.14414084721E+03  0.49591595806E+03  0.10566000000E+00 0.  1.
          4    1    3    3  502    0  0.41432696982E+03  0.28571853680E+03  0.91358188377E+03  0.10430406409E+04  0.00000000000E+00 0.  1.
         13    1    4    4    0    0 -0.10118016213E+04 -0.31393986639E+03  0.59550005130E+03  0.12152864201E+04  0.10566000000E+00 0. -1.
         -4    1    4    4    0  501  0.14579843392E+03  0.17363328556E+03 -0.40203218674E+02  0.23026506461E+03  0.00000000000E+00 0. -1.
<mgrwt>
<rscale>  2 0.13337183E+04</rscale>
<asrwt>0</asrwt>
<pdfrwt beam="1">  1        2 0.33148046E+00 0.13337183E+04</pdfrwt>
<pdfrwt beam="2">  1       -2 0.12767463E+00 0.13337183E+04</pdfrwt>
<totfact> 0.36325049E+00</totfact>
</mgrwt>
</event>
<event>
 8    1  0.1408247E-005  0.1288118E+04  0.7818608E-02  0.8543006E-01
          4   -1    0    0  502    0  0.00000000000E+00  0.00000000000E+00  0.39513164463E+04  0.39513164463E+04  0.00000000000E+00 0.  1.
         -4   -1    0    0    0  501 -0.00000000000E+00 -0.00000000000E+00 -0.48253163004E+03  0.48253163004E+03  0.00000000000E+00 0. -1.
    9000010    2    1    2  502    0  0.19987317069E+03  0.77235362128E+03  0.94479938327E+03  0.16035861754E+04  0.10209619713E+04 0.  0.
   -9000010    2    1    2    0  501 -0.19987317069E+03 -0.77235362128E+03  0.25239854330E+04  0.28302619009E+04  0.10016988375E+04 0.  0.
        -13    1    3    3    0    0  0.21197623563E+03  0.98533419772E+03  0.53376617853E+03  0.11404927664E+04  0.10566000000E+00 0.  1.
          4    1    3    3  502    0 -0.12103064940E+02 -0.21298057644E+03  0.41103320474E+03  0.46309340907E+03  0.00000000000E+00 0.  1.
         13    1    4    4    0    0 -0.90405467365E+02 -0.10116016397E+04  0.20639335160E+04  0.23002896764E+04  0.10566000000E+00 0. -1.
         -4    1    4    4    0  501 -0.10946770333E+03  0.23924801838E+03  0.46005191700E+03  0.52997222446E+03  0.00000000000E+00 0. -1.
<mgrwt>
<rscale>  2 0.12881176E+04</rscale>
<asrwt>0</asrwt>
<pdfrwt beam="1">  1        4 0.60789481E+00 0.12881176E+04</pdfrwt>
<pdfrwt beam="2">  1       -4 0.74235638E-01 0.12881176E+04</pdfrwt>
<totfact> 0.25103893E-02</totfact>
</mgrwt>
</event>
<event>
 8    1  0.1408247E-005  0.1398300E+04  0.7818608E-02  0.8470544E-01
         -2   -1    0    0    0  501 -0.00000000000E+00  0.00000000000E+00  0.79751558447E+03  0.79751558447E+03  0.00000000000E+00 0. -1.
          2   -1    0    0  502    0  0.00000000000E+00 -0.00000000000E+00 -0.24550995640E+04  0.24550995640E+04  0.00000000000E+00 0.  1.
    9000010    2    1    2  502    0  0.17972462843E+03  0.97679807720E+03 -0.76756130546E+03  0.15944750076E+04  0.98324196740E+03 0.  0.
   -9000010    2    1    2    0  501 -0.17972462843E+03 -0.97679807720E+03 -0.89002267412E+03  0.16581401409E+04  0.98531870015E+03 0.  0.
        -13    1    3    3    0    0  0.37907427507E+03  0.92139718668E+03 -0.90507347938E+03  0.13460416397E+04  0.10566000000E+00 0.  1.
          4    1    3    3  502    0 -0.19934964663E+03  0.55400890520E+02  0.13751217392E+03  0.24843336785E+03  0.00000000000E+00 0.  1.
         13    1    4    4    0    0 -0.43414514170E+03 -0.89942795827E+03 -0.95773495545E+03  0.13837300720E+04  0.10566000000E+00 0. -1.
         -4    1    4    4    0  501  0.25442051327E+03 -0.77370118937E+02  0.67712281336E+02  0.27441006891E+03  0.00000000000E+00 0. -1.
<mgrwt>
<rscale>  2 0.13983001E+04</rscale>
<asrwt>0</asrwt>
<pdfrwt beam="2">  1        2 0.37770762E+00 0.13983001E+04</pdfrwt>
<pdfrwt beam="1">  1       -2 0.12269471E+00 0.13983001E+04</pdfrwt>
<totfact> 0.27456682E+00</totfact>
</mgrwt>
</event>
<event>
 8    1  0.1408247E-005  0.1069079E+04  0.7818608E-02  0.8712262E-01
          2   -1    0    0  502    0  0.00000000000E+00  0.00000000000E+00  0.18993071284E+04  0.18993071284E+04  0.00000000000E+00 0.  1.
         -2   -1    0    0    0  501 -0.00000000000E+00 -0.00000000000E+00 -0.72871010397E+03  0.72871010397E+03  0.00000000000E+00 0. -1.
    9000010    2    1    2  502    0  0.38056450241E+01 -0.39303741876E+03  0.11196864623E+04  0.15287158580E+04  0.96373310881E+03 0.  0.
   -9000010    2    1    2    0  501 -0.38056450241E+01  0.39303741876E+03  0.50910562127E+02  0.10993013744E+04  0.10253676077E+04 0.  0.
        -13    1    3    3    0    0  0.40566587640E+03 -0.42851808311E+02  0.82332106568E+03  0.91883549621E+03  0.10566000000E+00 0.  1.
          4    1    3    3  502    0 -0.40186023138E+03 -0.35018561045E+03  0.29636539665E+03  0.60988036175E+03  0.00000000000E+00 0.  1.
         13    1    4    4    0    0 -0.42324130634E+03 -0.80805000549E+02 -0.11329276028E+03  0.44553104516E+03  0.10566000000E+00 0. -1.
         -4    1    4    4    0  501  0.41943566132E+03  0.47384241931E+03  0.16420332241E+03  0.65377032925E+03  0.00000000000E+00 0. -1.
<mgrwt>
<rscale>  2 0.10690792E+04</rscale>
<asrwt>0</asrwt>
<pdfrwt beam="1">  1        2 0.29220110E+00 0.10690792E+04</pdfrwt>
<pdfrwt beam="2">  1       -2 0.11210925E+00 0.10690792E+04</pdfrwt>
<totfact> 0.72619847E+00</totfact>
</mgrwt>
</event>
<event>
 8    1  0.1408247E-005  0.1210021E+04  0.7818608E-02  0.8599054E-01
          2   -1    0    0  502    0  0.00000000000E+00  0.00000000000E+00  0.20849873173E+04  0.20849873173E+04  0.00000000000E+00 0. -1.
         -2   -1    0    0    0  501 -0.00000000000E+00 -0.00000000000E+00 -0.71079102381E+03  0.71079102381E+03  0.00000000000E+00 0.  1.
    9000010    2    1    2  502    0 -0.60459829119E+03 -0.29646734899E+03  0.52971643054E+03  0.13139527634E+04  0.99621302186E+03 0.  0.
   -9000010    2    1    2    0  501  0.60459829119E+03  0.29646734899E+03  0.84447986290E+03  0.14818255777E+04  0.10145091528E+04 0.  0.
        -13    1    3    3    0    0 -0.74720998376E+03 -0.43339188429E+03  0.65132834177E+03  0.10818409796E+04  0.10566000000E+00 0.  1.
          4    1    3    3  502    0  0.14261169256E+03  0.13692453531E+03 -0.12161191123E+03  0.23211178379E+03  0.00000000000E+00 0.  1.
         13    1    4    4    0    0  0.64098981073E+03  0.19594911637E+02  0.98019609635E+03  0.11713395308E+04  0.10566000000E+00 0. -1.
         -4    1    4    4    0  501 -0.36391519538E+02  0.27687243735E+03 -0.13571623345E+03  0.31048604684E+03  0.00000000000E+00 0. -1.
<mgrwt>
<rscale>  2 0.12100211E+04</rscale>
<asrwt>0</asrwt>
<pdfrwt beam="1">  1        2 0.32076728E+00 0.12100211E+04</pdfrwt>
<pdfrwt beam="2">  1       -2 0.10935247E+00 0.12100211E+04</pdfrwt>
<totfact> 0.60316211E+00</totfact>
</mgrwt>
</event>
<event>
 8    1  0.1408247E-005  0.1807962E+04  0.7818608E-02  0.8251405E-01
          2   -1    0    0  502    0  0.00000000000E+00  0.00000000000E+00  0.32255405233E+04  0.32255405233E+04  0.00000000000E+00 0.  1.
         -2   -1    0    0    0  501 -0.00000000000E+00 -0.00000000000E+00 -0.11160459315E+04  0.11160459315E+04  0.00000000000E+00 0. -1.
    9000010    2    1    2  502    0  0.58387284671E+03 -0.13879145553E+04  0.17113186553E+04  0.24869945720E+04  0.99464372864E+03 0.  0.
   -9000010    2    1    2    0  501 -0.58387284671E+03  0.13879145553E+04  0.39817593640E+03  0.18545918828E+04  0.10068528500E+04 0.  0.
        -13    1    3    3    0    0  0.47221138517E+03 -0.99025433144E+03  0.17570533749E+04  0.20714303769E+04  0.10566000000E+00 0.  1.
          4    1    3    3  502    0  0.11166146154E+03 -0.39766022383E+03 -0.45734719512E+02  0.41556419502E+03  0.00000000000E+00 0.  1.
         13    1    4    4    0    0  0.10590671326E+03  0.18669460367E+03 -0.24640303226E+03  0.32678061819E+03  0.10566000000E+00 0. -1.
         -4    1    4    4    0  501 -0.68977955997E+03  0.12012199516E+04  0.64457896866E+03  0.15278112646E+04  0.00000000000E+00 0. -1.
<mgrwt>
<rscale>  2 0.18079618E+04</rscale>
<asrwt>0</asrwt>
<pdfrwt beam="1">  1        2 0.49623700E+00 0.18079618E+04</pdfrwt>
<pdfrwt beam="2">  1       -2 0.17169938E+00 0.18079618E+04</pdfrwt>
<totfact> 0.32801163E-01</totfact>
</mgrwt>
</event>
<event>
 8    1  0.1408247E-005  0.1198965E+04  0.7818608E-02  0.8607342E-01
         -2   -1    0    0    0  501 -0.00000000000E+00  0.00000000000E+00  0.68990689524E+03  0.68990689524E+03  0.00000000000E+00 0.  1.
          2   -1    0    0  502    0  0.00000000000E+00 -0.00000000000E+00 -0.21542326732E+04  0.21542326732E+04  0.00000000000E+00 0. -1.
    9000010    2    1    2  502    0  0.64069542457E+03  0.21148602187E+03 -0.47620160264E+03  0.12923577919E+04  0.99408436840E+03 0.  0.
   -9000010    2    1    2    0  501 -0.64069542457E+03 -0.21148602187E+03 -0.98812417536E+03  0.15517817766E+04  0.98813983403E+03 0.  0.
        -13    1    3    3    0    0  0.45458333512E+03 -0.50682735259E+02 -0.74438117189E+03  0.87368077033E+03  0.10566000000E+00 0.  1.
          4    1    3    3  502    0  0.18611208945E+03  0.26216875713E+03  0.26817956925E+03  0.41867702160E+03  0.00000000000E+00 0.  1.
         13    1    4    4    0    0  0.17567030883E+03 -0.32656570845E+03 -0.27405538310E+03  0.46109823629E+03  0.10566000000E+00 0. -1.
         -4    1    4    4    0  501 -0.81636573340E+03  0.11507968657E+03 -0.71406879226E+03  0.10906835403E+04  0.00000000000E+00 0. -1.
<mgrwt>
<rscale>  2 0.11989649E+04</rscale>
<asrwt>0</asrwt>
<pdfrwt beam="2">  1        2 0.33142041E+00 0.11989649E+04</pdfrwt>
<pdfrwt beam="1">  1       -2 0.10613952E+00 0.11989649E+04</pdfrwt>
<totfact> 0.59596337E+00</totfact>
</mgrwt>
</event>
<event>
 8    1  0.1408247E-005  0.1327122E+04  0.7818608E-02  0.8516529E-01
         -4   -1    0    0    0  501 -0.00000000000E+00  0.00000000000E+00  0.90045445453E+03  0.90045445453E+03  0.00000000000E+00 0. -1.
          4   -1    0    0  502    0  0.00000000000E+00 -0.00000000000E+00 -0.19579525657E+04  0.19579525657E+04  0.00000000000E+00 0.  1.
    9000010    2    1    2  502    0 -0.47727910079E+03 -0.74701633573E+03 -0.57278575902E+03  0.14422170166E+04  0.98289249223E+03 0.  0.
   -9000010    2    1    2    0  501  0.47727910079E+03  0.74701633573E+03 -0.48471235218E+03  0.14161900037E+04  0.99238063074E+03 0.  0.
        -13    1    3    3    0    0 -0.59779531966E+03 -0.19748373073E+03  0.13431947714E+02  0.62971382111E+03  0.10566000000E+00 0.  1.
          4    1    3    3  502    0  0.12051621887E+03 -0.54953260500E+03 -0.58621770673E+03  0.81250319547E+03  0.00000000000E+00 0.  1.
         13    1    4    4    0    0 -0.15384064402E+03  0.23624020086E+02 -0.42696610075E+03  0.45445032779E+03  0.10566000000E+00 0. -1.
         -4    1    4    4    0  501  0.63111974481E+03  0.72339231564E+03 -0.57746251431E+02  0.96173967589E+03  0.00000000000E+00 0. -1.
<mgrwt>
<rscale>  2 0.13271218E+04</rscale>
<asrwt>0</asrwt>
<pdfrwt beam="2">  1        4 0.30122347E+00 0.13271218E+04</pdfrwt>
<pdfrwt beam="1">  1       -4 0.13853145E+00 0.13271218E+04</pdfrwt>
<totfact> 0.16794005E-01</totfact>
</mgrwt>
</event>
<event>
 8    1  0.1408247E-005  0.1056775E+04  0.7818608E-02  0.8723001E-01
          2   -1    0    0  502    0  0.00000000000E+00  0.00000000000E+00  0.28447674659E+04  0.28447674659E+04  0.00000000000E+00 0.  1.
         -2   -1    0    0    0  501 -0.00000000000E+00 -0.00000000000E+00 -0.82754308962E+03  0.82754308962E+03  0.00000000000E+00 0. -1.
    9000010    2    1    2  502    0 -0.24569563674E+03 -0.20849272111E+03  0.23362744206E+04  0.25610076564E+04  0.99837191839E+03 0.  0.
   -9000010    2    1    2    0  501  0.24569563674E+03  0.20849272111E+03 -0.31905004430E+03  0.11113028991E+04  0.10145765827E+04 0.  0.
        -13    1    3    3    0    0 -0.39552200400E+03  0.18782578099E+03  0.45051202389E+03  0.62823345541E+03  0.10566000000E+00 0.  1.
          4    1    3    3  502    0  0.14982636726E+03 -0.39631850211E+03  0.18857623967E+04  0.19327742010E+04  0.00000000000E+00 0.  1.
         13    1    4    4    0    0  0.13282525119E+03 -0.41037021444E+03 -0.17797773109E+03  0.46660726975E+03  0.10566000000E+00 0. -1.
         -4    1    4    4    0  501  0.11287038555E+03  0.61886293555E+03 -0.14107231320E+03  0.64469562934E+03  0.00000000000E+00 0. -1.
<mgrwt>
<rscale>  2 0.10567746E+04</rscale>
<asrwt>0</asrwt>
<pdfrwt beam="1">  1        2 0.43765653E+00 0.10567746E+04</pdfrwt>
<pdfrwt beam="2">  1       -2 0.12731432E+00 0.10567746E+04</pdfrwt>
<totfact> 0.15455113E+00</totfact>
</mgrwt>
</event>
<event>
 8    1  0.1408247E-005  0.1399150E+04  0.7818608E-02  0.8470012E-01
         -2   -1    0    0    0  501 -0.00000000000E+00  0.00000000000E+00  0.85036258539E+03  0.85036258539E+03  0.00000000000E+00 0. -1.
          2   -1    0    0  502    0  0.00000000000E+00 -0.00000000000E+00 -0.30688232162E+04  0.30688232162E+04  0.00000000000E+00 0.  1.
    9000010    2    1    2  502    0  0.81764654422E+03 -0.47776759128E+03 -0.12305030824E+03  0.13931816378E+04  0.10143993074E+04 0.  0.
   -9000010    2    1    2    0  501 -0.81764654422E+03  0.47776759128E+03 -0.20954103226E+04  0.25260041639E+04  0.10455356872E+04 0.  0.
        -13    1    3    3    0    0  0.96772129245E+02 -0.33334416410E+03  0.37049034097E+03  0.50768718780E+03  0.10566000000E+00 0.  1.
          4    1    3    3  502    0  0.72087441498E+03 -0.14442342718E+03 -0.49354064921E+03  0.88549444996E+03  0.00000000000E+00 0.  1.
         13    1    4    4    0    0 -0.48777995463E+03  0.61778685099E+02 -0.18962781028E+04  0.19589835487E+04  0.10566000000E+00 0. -1.
         -4    1    4    4    0  501 -0.32986658959E+03  0.41598890618E+03 -0.19913221985E+03  0.56702061512E+03  0.00000000000E+00 0. -1.
<mgrwt>
<rscale>  2 0.13991499E+04</rscale>
<asrwt>0</asrwt>
<pdfrwt beam="2">  1        2 0.47212664E+00 0.13991499E+04</pdfrwt>
<pdfrwt beam="1">  1       -2 0.13082502E+00 0.13991499E+04</pdfrwt>
<totfact> 0.99553386E-01</totfact>
</mgrwt>
</event>
<event>
 8    1  0.1408247E-005  0.1359976E+04  0.7818608E-02  0.8494944E-01
          1   -1    0    0  502    0  0.00000000000E+00  0.00000000000E+00  0.10802530687E+04  0.10802530687E+04  0.00000000000E+00 0. -1.
         -1   -1    0    0    0  501 -0.00000000000E+00 -0.00000000000E+00 -0.18655546701E+04  0.18655546701E+04  0.00000000000E+00 0.  1.
    9000010    2    1    2  502    0 -0.72070574134E+03  0.58699104161E+03  0.32895516526E+02  0.13476899035E+04  0.97530031916E+03 0.  0.
   -9000010    2    1    2    0  501  0.72070574134E+03 -0.58699104161E+03 -0.81819711792E+03  0.15981178352E+04  0.10102271244E+04 0.  0.
        -13    1    3    3    0    0 -0.58613117055E+03  0.81805474668E+03  0.20857189779E+03  0.10277478121E+04  0.10566000000E+00 0.  1.
          4    1    3    3  502    0 -0.13457457079E+03 -0.23106370508E+03 -0.17567638126E+03  0.31994209139E+03  0.00000000000E+00 0.  1.
         13    1    4    4    0    0  0.49278156576E+03 -0.65625407933E+03 -0.10034781881E+04  0.12963300403E+04  0.10566000000E+00 0. -1.
         -4    1    4    4    0  501  0.22792417558E+03  0.69263037725E+02  0.18528107017E+03  0.30178779494E+03  0.00000000000E+00 0. -1.
<mgrwt>
<rscale>  2 0.13599761E+04</rscale>
<asrwt>0</asrwt>
<pdfrwt beam="1">  1        1 0.16619278E+00 0.13599761E+04</pdfrwt>
<pdfrwt beam="2">  1       -1 0.28700841E+00 0.13599761E+04</pdfrwt>
<totfact> 0.35802663E-01</totfact>
</mgrwt>
</event>
<event>
 8    1  0.1408247E-005  0.1588317E+04  0.7818608E-02  0.8360411E-01
          2   -1    0    0  502    0  0.00000000000E+00  0.00000000000E+00  0.19484604746E+04  0.19484604746E+04  0.00000000000E+00 0.  1.
         -2   -1    0    0    0  501 -0.00000000000E+00 -0.00000000000E+00 -0.12973366101E+04  0.12973366101E+04  0.00000000000E+00 0. -1.
    9000010    2    1    2  502    0 -0.90142688661E+03  0.84921816717E+03  0.25337821640E+03  0.16103108053E+04  0.99757628368E+03 0.  0.
   -9000010    2    1    2    0  501  0.90142688661E+03 -0.84921816717E+03  0.39774564810E+03  0.16354862793E+04  0.99139893176E+03 0.  0.
        -13    1    3    3    0    0 -0.81430694333E+03  0.59430998587E+03  0.59858438858E+03  0.11724348334E+04  0.10566000000E+00 0.  1.
          4    1    3    3  502    0 -0.87119943287E+02  0.25490818130E+03 -0.34520617219E+03  0.43787597185E+03  0.00000000000E+00 0.  1.
         13    1    4    4    0    0 -0.12882085204E+03  0.54077352316E+01  0.25952598993E+03  0.28978924434E+03  0.10566000000E+00 0. -1.
         -4    1    4    4    0  501  0.10302477387E+04 -0.85462590240E+03  0.13821965817E+03  0.13456970350E+04  0.00000000000E+00 0. -1.
<mgrwt>
<rscale>  2 0.15883166E+04</rscale>
<asrwt>0</asrwt>
<pdfrwt beam="1">  1        2 0.29976315E+00 0.15883166E+04</pdfrwt>
<pdfrwt beam="2">  1       -2 0.19959025E+00 0.15883166E+04</pdfrwt>
<totfact> 0.10939468E+00</totfact>
</mgrwt>
</event>
<event>
 8    1  0.1408247E-005  0.1233108E+04  0.7818608E-02  0.8582039E-01
         -1   -1    0    0    0  501 -0.00000000000E+00  0.00000000000E+00  0.10756935963E+04  0.10756935963E+04  0.00000000000E+00 0. -1.
          1   -1    0    0  502    0  0.00000000000E+00 -0.00000000000E+00 -0.15313622607E+04  0.15313622607E+04  0.00000000000E+00 0.  1.
    9000010    2    1    2  502    0  0.65613963975E+03  0.29930160184E+03 -0.58972185588E+03  0.13687241027E+04  0.10027627468E+04 0.  0.
   -9000010    2    1    2    0  501 -0.65613963975E+03 -0.29930160184E+03  0.13405319141E+03  0.12383317543E+04  0.99769464258E+03 0.  0.
        -13    1    3    3    0    0  0.19172072141E+03 -0.17828815756E+03 -0.64910686302E+03  0.69991658998E+03  0.10566000000E+00 0.  1.
          4    1    3    3  502    0  0.46441891833E+03  0.47758975940E+03  0.59385007143E+02  0.66880751272E+03  0.00000000000E+00 0.  1.
         13    1    4    4    0    0  0.15397375512E+03 -0.49628133351E+02 -0.25786080095E+03  0.30440609835E+03  0.10566000000E+00 0. -1.
         -4    1    4    4    0  501 -0.81011339487E+03 -0.24967346849E+03  0.39191399236E+03  0.93392565594E+03  0.00000000000E+00 0. -1.
<mgrwt>
<rscale>  2 0.12331083E+04</rscale>
<asrwt>0</asrwt>
<pdfrwt beam="2">  1        1 0.23559419E+00 0.12331083E+04</pdfrwt>
<pdfrwt beam="1">  1       -1 0.16549132E+00 0.12331083E+04</pdfrwt>
<totfact> 0.22281732E+00</totfact>
</mgrwt>
</event>
<event>
 8    1  0.1408247E-005  0.1194700E+04  0.7818608E-02  0.8610564E-01
          2   -1    0    0  502    0  0.00000000000E+00  0.00000000000E+00  0.32677925041E+04  0.32677925041E+04  0.00000000000E+00 0.  1.
         -2   -1    0    0    0  501 -0.00000000000E+00 -0.00000000000E+00 -0.60809539395E+03  0.60809539395E+03  0.00000000000E+00 0. -1.
    9000010    2    1    2  502    0  0.53214497176E+03  0.37849061422E+03  0.23606699462E+04  0.26470183231E+04  0.10037479724E+04 0.  0.
   -9000010    2    1    2    0  501 -0.53214497176E+03 -0.37849061422E+03  0.29902716390E+03  0.12288695749E+04  0.99713076941E+03 0.  0.
        -13    1    3    3    0    0  0.44944502312E+03  0.71199571197E+03  0.14975891792E+04  0.17180547382E+04  0.10566000000E+00 0.  1.
          4    1    3    3  502    0  0.82699948641E+02 -0.33350509775E+03  0.86308076698E+03  0.92896358490E+03  0.00000000000E+00 0.  1.
         13    1    4    4    0    0 -0.44525397789E+03 -0.64834305094E+03 -0.39269662802E+02  0.78749091049E+03  0.10566000000E+00 0. -1.
         -4    1    4    4    0  501 -0.86890993869E+02  0.26985243672E+03  0.33829682671E+03  0.44137866439E+03  0.00000000000E+00 0. -1.
<mgrwt>
<rscale>  2 0.11946999E+04</rscale>
<asrwt>0</asrwt>
<pdfrwt beam="1">  1        2 0.50273730E+00 0.11946999E+04</pdfrwt>
<pdfrwt beam="2">  1       -2 0.93553140E-01 0.11946999E+04</pdfrwt>
<totfact> 0.17854567E+00</totfact>
</mgrwt>
</event>
<event>
 8    1  0.1408247E-005  0.1298680E+04  0.7818608E-02  0.8535742E-01
         -2   -1    0    0    0  501 -0.00000000000E+00  0.00000000000E+00  0.73777832233E+03  0.73777832233E+03  0.00000000000E+00 0. -1.
          2   -1    0    0  502    0  0.00000000000E+00 -0.00000000000E+00 -0.28269824726E+04  0.28269824726E+04  0.00000000000E+00 0.  1.
    9000010    2    1    2  502    0 -0.43708634226E+03  0.68668928163E+03 -0.18411035506E+04  0.22689716258E+04  0.10468922172E+04 0.  0.
   -9000010    2    1    2    0  501  0.43708634226E+03 -0.68668928163E+03 -0.24810059967E+03  0.12957891692E+04  0.97720469873E+03 0.  0.
        -13    1    3    3    0    0 -0.24725028501E+03  0.45449330763E+03 -0.13229188321E+03  0.53403934653E+03  0.10566000000E+00 0.  1.
          4    1    3    3  502    0 -0.18983605726E+03  0.23219597400E+03 -0.17088116674E+04  0.17349322792E+04  0.00000000000E+00 0.  1.
         13    1    4    4    0    0 -0.28040331385E+03 -0.35095470759E+03  0.44291694987E+02  0.45139449554E+03  0.10566000000E+00 0. -1.
         -4    1    4    4    0  501  0.71748965612E+03 -0.33573457404E+03 -0.29239229465E+03  0.84439467361E+03  0.00000000000E+00 0. -1.
<mgrwt>
<rscale>  2 0.12986797E+04</rscale>
<asrwt>0</asrwt>
<pdfrwt beam="2">  1        2 0.43492037E+00 0.12986797E+04</pdfrwt>
<pdfrwt beam="1">  1       -2 0.11350436E+00 0.12986797E+04</pdfrwt>
<totfact> 0.20751352E+00</totfact>
</mgrwt>
</event>
<event>
 8    1  0.1408247E-005  0.1060643E+04  0.7818608E-02  0.8719608E-01
          2   -1    0    0  502    0  0.00000000000E+00  0.00000000000E+00  0.15008843454E+04  0.15008843454E+04  0.00000000000E+00 0.  1.
         -2   -1    0    0    0  501 -0.00000000000E+00 -0.00000000000E+00 -0.76965635813E+03  0.76965635813E+03  0.00000000000E+00 0. -1.
    9000010    2    1    2  502    0  0.26779056292E+03  0.20745845613E+03  0.54633996937E+03  0.11861122248E+04  0.99680692765E+03 0.  0.
   -9000010    2    1    2    0  501 -0.26779056292E+03 -0.20745845613E+03  0.18488801795E+03  0.10844284788E+04  0.10134351237E+04 0.  0.
        -13    1    3    3    0    0 -0.32954947124E+02 -0.31101838921E+03 -0.76215961339E+02  0.32191202353E+03  0.10566000000E+00 0.  1.
          4    1    3    3  502    0  0.30074551005E+03  0.51847684534E+03  0.62255593071E+03  0.86420020124E+03  0.00000000000E+00 0.  1.
         13    1    4    4    0    0 -0.24029688528E+02  0.32351533840E+03  0.35007106407E+03  0.47727283724E+03  0.10566000000E+00 0. -1.
         -4    1    4    4    0  501 -0.24376087440E+03 -0.53097379453E+03 -0.16518304612E+03  0.60715564157E+03  0.00000000000E+00 0. -1.
<mgrwt>
<rscale>  2 0.10606432E+04</rscale>
<asrwt>0</asrwt>
<pdfrwt beam="1">  1        2 0.23090528E+00 0.10606432E+04</pdfrwt>
<pdfrwt beam="2">  1       -2 0.11840867E+00 0.10606432E+04</pdfrwt>
<totfact> 0.10390648E+01</totfact>
</mgrwt>
</event>
<event>
 8    1  0.1408247E-005  0.1326975E+04  0.7818608E-02  0.8516627E-01
         -2   -1    0    0    0  501 -0.00000000000E+00  0.00000000000E+00  0.85681802323E+03  0.85681802323E+03  0.00000000000E+00 0.  1.
          2   -1    0    0  502    0  0.00000000000E+00 -0.00000000000E+00 -0.23779806909E+04  0.23779806909E+04  0.00000000000E+00 0. -1.
    9000010    2    1    2  502    0  0.76936680397E+03  0.34070644028E+03 -0.13626346651E+04  0.19109248625E+04  0.10425231135E+04 0.  0.
   -9000010    2    1    2    0  501 -0.76936680397E+03 -0.34070644028E+03 -0.15852800252E+03  0.13238738516E+04  0.10097052489E+04 0.  0.
        -13    1    3    3    0    0  0.18005981915E+03 -0.35674511826E+03 -0.60183671014E+03  0.72242373626E+03  0.10566000000E+00 0.  1.
          4    1    3    3  502    0  0.58930698482E+03  0.69745155854E+03 -0.76079795498E+03  0.11885011263E+04  0.00000000000E+00 0.  1.
         13    1    4    4    0    0 -0.57658908949E+03 -0.66451336191E+02 -0.55611252925E+03  0.80382331053E+03  0.10566000000E+00 0. -1.
         -4    1    4    4    0  501 -0.19277771448E+03 -0.27425510409E+03  0.39758452674E+03  0.52005054102E+03  0.00000000000E+00 0. -1.
<mgrwt>
<rscale>  2 0.13269754E+04</rscale>
<asrwt>0</asrwt>
<pdfrwt beam="2">  1        2 0.36584318E+00 0.13269754E+04</pdfrwt>
<pdfrwt beam="1">  1       -2 0.13181816E+00 0.13269754E+04</pdfrwt>
<totfact> 0.25069957E+00</totfact>
</mgrwt>
</event>
<event>
 8    1  0.1408247E-005  0.1296522E+04  0.7818608E-02  0.8537220E-01
          2   -1    0    0  502    0  0.00000000000E+00  0.00000000000E+00  0.23849016551E+04  0.23849016551E+04  0.00000000000E+00 0. -1.
         -2   -1    0    0    0  501 -0.00000000000E+00 -0.00000000000E+00 -0.74182667580E+03  0.74182667580E+03  0.00000000000E+00 0.  1.
    9000010    2    1    2  502    0  0.66734461908E+03 -0.49397504636E+03  0.11747176566E+04  0.17547257352E+04  0.10048585204E+04 0.  0.
   -9000010    2    1    2    0  501 -0.66734461908E+03  0.49397504636E+03  0.46835732269E+03  0.13720025957E+04  0.98674837410E+03 0.  0.
        -13    1    3    3    0    0 -0.17699485156E+03  0.82767874751E+02 -0.25381917284E+01  0.19540765633E+03  0.10566000000E+00 0.  1.
          4    1    3    3  502    0  0.84433947064E+03 -0.57674292111E+03  0.11772558483E+04  0.15593180789E+04  0.00000000000E+00 0.  1.
         13    1    4    4    0    0 -0.81810528582E+03  0.39720617686E+03  0.64925704821E+03  0.11174093840E+04  0.10566000000E+00 0. -1.
         -4    1    4    4    0  501  0.15076066674E+03  0.96768869502E+02 -0.18089972552E+03  0.25459321168E+03  0.00000000000E+00 0. -1.
<mgrwt>
<rscale>  2 0.12965223E+04</rscale>
<asrwt>0</asrwt>
<pdfrwt beam="1">  1        2 0.36690794E+00 0.12965223E+04</pdfrwt>
<pdfrwt beam="2">  1       -2 0.11412718E+00 0.12965223E+04</pdfrwt>
<totfact> 0.36703014E+00</totfact>
</mgrwt>
</event>
<event>
 8    1  0.1408247E-005  0.1172607E+04  0.7818608E-02  0.8627480E-01
         -4   -1    0    0    0  501 -0.00000000000E+00  0.00000000000E+00  0.24729429777E+04  0.24729429777E+04  0.00000000000E+00 0. -1.
          4   -1    0    0  502    0  0.00000000000E+00 -0.00000000000E+00 -0.56643242459E+03  0.56643242459E+03  0.00000000000E+00 0.  1.
    9000010    2    1    2  502    0  0.45183310247E+03  0.37454825505E+03  0.73732075835E+03  0.13739668197E+04  0.99985167551E+03 0.  0.
   -9000010    2    1    2    0  501 -0.45183310247E+03 -0.37454825505E+03  0.11691897947E+04  0.16654085826E+04  0.10306024563E+04 0.  0.
        -13    1    3    3    0    0  0.51750783559E+03  0.22714596481E+03  0.95096354829E+03  0.11062284260E+04  0.10566000000E+00 0.  1.
          4    1    3    3  502    0 -0.65674733118E+02  0.14740229025E+03 -0.21364278994E+03  0.26773839364E+03  0.00000000000E+00 0.  1.
         13    1    4    4    0    0 -0.48981100372E+03 -0.17702486043E+03  0.13167078689E+04  0.14159704247E+04  0.10566000000E+00 0. -1.
         -4    1    4    4    0  501  0.37977901246E+02 -0.19752339463E+03 -0.14751807413E+03  0.24943815788E+03  0.00000000000E+00 0. -1.
<mgrwt>
<rscale>  2 0.11726072E+04</rscale>
<asrwt>0</asrwt>
<pdfrwt beam="2">  1        4 0.87143451E-01 0.11726072E+04</pdfrwt>
<pdfrwt beam="1">  1       -4 0.38045276E+00 0.11726072E+04</pdfrwt>
<totfact> 0.21749526E-01</totfact>
</mgrwt>
</event>
<event>
 8    1  0.1408247E-005  0.1231354E+04  0.7818608E-02  0.8583319E-01
          2   -1    0    0  502    0  0.00000000000E+00  0.00000000000E+00  0.21858245062E+04  0.21858245062E+04  0.00000000000E+00 0.  1.
         -2   -1    0    0    0  501 -0.00000000000E+00 -0.00000000000E+00 -0.70671747756E+03  0.70671747756E+03  0.00000000000E+00 0. -1.
    9000010    2    1    2  502    0 -0.38679203379E+02  0.70195089194E+03  0.53687261526E+03  0.13331328033E+04  0.99738645006E+03 0.  0.
   -9000010    2    1    2    0  501  0.38679203379E+02 -0.70195089194E+03  0.94223441339E+03  0.15594091805E+04  0.10245585229E+04 0.  0.
        -13    1    3    3    0    0  0.30621607192E+03 -0.11919611158E+03  0.12076265831E+03  0.35008517039E+03  0.10566000000E+00 0.  1.
          4    1    3    3  502    0 -0.34489527530E+03  0.82114700352E+03  0.41610995694E+03  0.98304763292E+03  0.00000000000E+00 0.  1.
         13    1    4    4    0    0 -0.41704634158E+03 -0.41971500460E+03  0.16321691965E+03  0.61378180988E+03  0.10566000000E+00 0. -1.
         -4    1    4    4    0  501  0.45572554496E+03 -0.28223588734E+03  0.77901749374E+03  0.94562737058E+03  0.00000000000E+00 0. -1.
<mgrwt>
<rscale>  2 0.12313538E+04</rscale>
<asrwt>0</asrwt>
<pdfrwt beam="1">  1        2 0.33628069E+00 0.12313538E+04</pdfrwt>
<pdfrwt beam="2">  1       -2 0.10872577E+00 0.12313538E+04</pdfrwt>
<totfact> 0.53759456E+00</totfact>
</mgrwt>
</event>
<event>
 8    1  0.1408247E-005  0.1941223E+04  0.7818608E-02  0.8192751E-01
          2   -1    0    0  502    0  0.00000000000E+00  0.00000000000E+00  0.39786744710E+04  0.39786744710E+04  0.00000000000E+00 0. -1.
         -2   -1    0    0    0  501 -0.00000000000E+00 -0.00000000000E+00 -0.97359480392E+03  0.97359480392E+03  0.00000000000E+00 0.  1.
    9000010    2    1    2  502    0 -0.11989510381E+04 -0.11434624538E+04  0.10954355791E+04  0.22302328008E+04  0.10143812215E+04 0.  0.
   -9000010    2    1    2    0  501  0.11989510381E+04  0.11434624538E+04  0.19096440880E+04  0.27220364742E+04  0.10088369783E+04 0.  0.
        -13    1    3    3    0    0 -0.33113778388E+03 -0.42106231368E+02 -0.13949008007E+03  0.36177708638E+03  0.10566000000E+00 0.  1.
          4    1    3    3  502    0 -0.86781325422E+03 -0.11013562225E+04  0.12349256591E+04  0.18684557144E+04  0.00000000000E+00 0.  1.
         13    1    4    4    0    0  0.36099079310E+03  0.91448113934E+03  0.60416178151E+03  0.11539504219E+04  0.10566000000E+00 0. -1.
         -4    1    4    4    0  501  0.83796024500E+03  0.22898131450E+03  0.13054823065E+04  0.15680860523E+04  0.00000000000E+00 0. -1.
<mgrwt>
<rscale>  2 0.19412229E+04</rscale>
<asrwt>0</asrwt>
<pdfrwt beam="1">  1        2 0.61210376E+00 0.19412229E+04</pdfrwt>
<pdfrwt beam="2">  1       -2 0.14978382E+00 0.19412229E+04</pdfrwt>
<totfact> 0.13078548E-01</totfact>
</mgrwt>
</event>
<event>
 8    1  0.1408247E-005  0.2153141E+04  0.7818608E-02  0.8108740E-01
         -2   -1    0    0    0  501 -0.00000000000E+00  0.00000000000E+00  0.16694861958E+04  0.16694861958E+04  0.00000000000E+00 0.  1.
          2   -1    0    0  502    0  0.00000000000E+00 -0.00000000000E+00 -0.27827187590E+04  0.27827187590E+04  0.00000000000E+00 0. -1.
    9000010    2    1    2  502    0 -0.11446262089E+04 -0.15243018661E+04 -0.65761384013E+03  0.22488758980E+04  0.99565129680E+03 0.  0.
   -9000010    2    1    2    0  501  0.11446262089E+04  0.15243018661E+04 -0.45561872309E+03  0.22033290567E+04  0.10066802741E+04 0.  0.
        -13    1    3    3    0    0 -0.15519919572E+03 -0.13000984994E+03  0.24316202069E+03  0.31641291204E+03  0.10566000000E+00 0.  1.
          4    1    3    3  502    0 -0.98942701321E+03 -0.13942920162E+04 -0.90077586081E+03  0.19324629860E+04  0.00000000000E+00 0.  1.
         13    1    4    4    0    0  0.18445232010E+03  0.26236311917E+03 -0.52601336786E+03  0.61607397204E+03  0.10566000000E+00 0. -1.
         -4    1    4    4    0  501  0.96017388883E+03  0.12619387470E+04  0.70394644776E+02  0.15872550847E+04  0.00000000000E+00 0. -1.
<mgrwt>
<rscale>  2 0.21531409E+04</rscale>
<asrwt>0</asrwt>
<pdfrwt beam="2">  1        2 0.42811057E+00 0.21531409E+04</pdfrwt>
<pdfrwt beam="1">  1       -2 0.25684404E+00 0.21531409E+04</pdfrwt>
<totfact> 0.12218222E-01</totfact>
</mgrwt>
</event>
<event>
 8    1  0.1408247E-005  0.1135852E+04  0.7818608E-02  0.8656499E-01
          2   -1    0    0  502    0  0.00000000000E+00  0.00000000000E+00  0.14339361473E+04  0.14339361473E+04  0.00000000000E+00 0.  1.
         -2   -1    0    0    0  501 -0.00000000000E+00 -0.00000000000E+00 -0.90560442852E+03  0.90560442852E+03  0.00000000000E+00 0. -1.
    9000010    2    1    2  502    0 -0.25897010586E+03 -0.47725632180E+03  0.35085103401E+03  0.11686657334E+04  0.97357282002E+03 0.  0.
   -9000010    2    1    2    0  501  0.25897010586E+03  0.47725632180E+03  0.17748068479E+03  0.11708748425E+04  0.10220613440E+04 0.  0.
        -13    1    3    3    0    0 -0.61315672490E+02  0.29771500338E+03  0.17155665120E+03  0.34903514245E+03  0.10566000000E+00 0.  1.
          4    1    3    3  502    0 -0.19765443337E+03 -0.77497132518E+03  0.17929438281E+03  0.81963059093E+03  0.00000000000E+00 0.  1.
         13    1    4    4    0    0  0.60308017624E+03  0.51375604673E+03  0.22002248264E+03  0.82222921290E+03  0.10566000000E+00 0. -1.
         -4    1    4    4    0  501 -0.34411007037E+03 -0.36499724935E+02 -0.42541797849E+02  0.34864562957E+03  0.00000000000E+00 0. -1.
<mgrwt>
<rscale>  2 0.11358516E+04</rscale>
<asrwt>0</asrwt>
<pdfrwt beam="1">  1        2 0.22060556E+00 0.11358516E+04</pdfrwt>
<pdfrwt beam="2">  1       -2 0.13932376E+00 0.11358516E+04</pdfrwt>
<totfact> 0.71680430E+00</totfact>
</mgrwt>
</event>
<event>
 8    1  0.1408247E-005  0.1290925E+04  0.7818608E-02  0.8541068E-01
          4   -1    0    0  502    0  0.00000000000E+00  0.00000000000E+00  0.14848236248E+04  0.14848236248E+04  0.00000000000E+00 0. -1.
         -4   -1    0    0    0  501 -0.00000000000E+00 -0.00000000000E+00 -0.11272491206E+04  0.11272491206E+04  0.00000000000E+00 0.  1.
    9000010    2    1    2  502    0  0.91044431926E+03 -0.35761682128E+03  0.93458900546E+02  0.12672689965E+04  0.80027338709E+03 0.  0.
   -9000010    2    1    2    0  501 -0.91044431926E+03  0.35761682128E+03  0.26411560362E+03  0.13448037488E+04  0.88427451705E+03 0.  0.
        -13    1    3    3    0    0  0.95129712237E+03 -0.50603756111E+02  0.44288770822E+02  0.95367104472E+03  0.10566000000E+00 0.  1.
          4    1    3    3  502    0 -0.40852803113E+02 -0.30701306516E+03  0.49170129724E+02  0.31359795178E+03  0.00000000000E+00 0.  1.
         13    1    4    4    0    0  0.38922547338E+02  0.35343119157E+03  0.15942497323E+03  0.38967281804E+03  0.10566000000E+00 0. -1.
         -4    1    4    4    0  501 -0.94936686659E+03  0.41856297039E+01  0.10469063039E+03  0.95513093080E+03  0.00000000000E+00 0. -1.
<mgrwt>
<rscale>  2 0.12909248E+04</rscale>
<asrwt>0</asrwt>
<pdfrwt beam="1">  1        4 0.22843440E+00 0.12909248E+04</pdfrwt>
<pdfrwt beam="2">  1       -4 0.17342294E+00 0.12909248E+04</pdfrwt>
<totfact> 0.18443386E-01</totfact>
</mgrwt>
</event>
<event>
 8    1  0.1408247E-005  0.1196110E+04  0.7818608E-02  0.8609498E-01
         -2   -1    0    0    0  501 -0.00000000000E+00  0.00000000000E+00  0.76664205248E+03  0.76664205248E+03  0.00000000000E+00 0. -1.
          2   -1    0    0  502    0  0.00000000000E+00 -0.00000000000E+00 -0.20098780711E+04  0.20098780711E+04  0.00000000000E+00 0.  1.
    9000010    2    1    2  502    0  0.55151811052E+03  0.33351873144E+03 -0.99252103334E+03  0.15537623720E+04  0.10068130595E+04 0.  0.
   -9000010    2    1    2    0  501 -0.55151811052E+03 -0.33351873144E+03 -0.25071498527E+03  0.12227577515E+04  0.10084004882E+04 0.  0.
        -13    1    3    3    0    0  0.36810638884E+03 -0.33472990936E+03 -0.34587389125E+03  0.60594982097E+03  0.10566000000E+00 0.  1.
          4    1    3    3  502    0  0.18341172168E+03  0.66824864080E+03 -0.64664714209E+03  0.94781255107E+03  0.00000000000E+00 0.  1.
         13    1    4    4    0    0  0.21712640287E+03  0.67771612573E+02  0.14488783580E+03  0.26968381935E+03  0.10566000000E+00 0. -1.
         -4    1    4    4    0  501 -0.76864451339E+03 -0.40129034402E+03 -0.39560282107E+03  0.95307393218E+03  0.00000000000E+00 0. -1.
<mgrwt>
<rscale>  2 0.11961096E+04</rscale>
<asrwt>0</asrwt>
<pdfrwt beam="2">  1        2 0.30921202E+00 0.11961096E+04</pdfrwt>
<pdfrwt beam="1">  1       -2 0.11794493E+00 0.11961096E+04</pdfrwt>
<totfact> 0.54702008E+00</totfact>
</mgrwt>
</event>
<event>
 8    1  0.1408247E-005  0.1180657E+04  0.7818608E-02  0.8621272E-01
         -2   -1    0    0    0  501 -0.00000000000E+00  0.00000000000E+00  0.12100418466E+04  0.12100418466E+04  0.00000000000E+00 0.  1.
          2   -1    0    0  502    0  0.00000000000E+00 -0.00000000000E+00 -0.11543934960E+04  0.11543934960E+04  0.00000000000E+00 0. -1.
    9000010    2    1    2  502    0  0.33051659251E+01 -0.52483457229E+03  0.78486437925E+02  0.12032778744E+04  0.10799329931E+04 0.  0.
   -9000010    2    1    2    0  501 -0.33051659251E+01  0.52483457229E+03 -0.22838087378E+02  0.11611574682E+04  0.10355205625E+04 0.  0.
        -13    1    3    3    0    0  0.48933300468E+03 -0.46799142685E+03  0.18617527120E+03  0.70222788882E+03  0.10566000000E+00 0.  1.
          4    1    3    3  502    0 -0.48602783875E+03 -0.56843145440E+02 -0.10768883328E+03  0.50104998557E+03  0.00000000000E+00 0.  1.
         13    1    4    4    0    0  0.32992775363E+03  0.42952679302E+03  0.35565470538E+03  0.64794742777E+03  0.10566000000E+00 0. -1.
         -4    1    4    4    0  501 -0.33323291956E+03  0.95307779271E+02 -0.37849279276E+03  0.51321004046E+03  0.00000000000E+00 0. -1.
<mgrwt>
<rscale>  2 0.11806566E+04</rscale>
<asrwt>0</asrwt>
<pdfrwt beam="2">  1        2 0.17759900E+00 0.11806566E+04</pdfrwt>
<pdfrwt beam="1">  1       -2 0.18616029E+00 0.11806566E+04</pdfrwt>
<totfact> 0.40537398E+00</totfact>
</mgrwt>
</event>
<event>
 8    1  0.1408247E-005  0.1069710E+04  0.7818608E-02  0.8711715E-01
         -1   -1    0    0    0  501 -0.00000000000E+00  0.00000000000E+00  0.29314094190E+04  0.29314094190E+04  0.00000000000E+00 0.  1.
          1   -1    0    0  502    0  0.00000000000E+00 -0.00000000000E+00 -0.45961199407E+03  0.45961199407E+03  0.00000000000E+00 0. -1.
    9000010    2    1    2  502    0  0.11332049814E+03 -0.40031071797E+03  0.58479718356E+03  0.12254017891E+04  0.99324296755E+03 0.  0.
   -9000010    2    1    2    0  501 -0.11332049814E+03  0.40031071797E+03  0.18870002413E+04  0.21656196239E+04  0.97777719273E+03 0.  0.
        -13    1    3    3    0    0  0.25832696922E+03 -0.65326087223E+03  0.61318358316E+03  0.93245734918E+03  0.10566000000E+00 0.  1.
          4    1    3    3  502    0 -0.14500647108E+03  0.25295015426E+03 -0.28386399600E+02  0.29294443992E+03  0.00000000000E+00 0.  1.
         13    1    4    4    0    0 -0.24490423778E+03 -0.27398937241E+03  0.53467359993E+03  0.64878666101E+03  0.10566000000E+00 0. -1.
         -4    1    4    4    0  501  0.13158373965E+03  0.67430009037E+03  0.13523266414E+04  0.15168329629E+04  0.00000000000E+00 0. -1.
<mgrwt>
<rscale>  2 0.10697096E+04</rscale>
<asrwt>0</asrwt>
<pdfrwt beam="2">  1        1 0.70709539E-01 0.10697096E+04</pdfrwt>
<pdfrwt beam="1">  1       -1 0.45098605E+00 0.10697096E+04</pdfrwt>
<totfact> 0.77132845E-01</totfact>
</mgrwt>
</event>
<event>
 8    1  0.1408247E-005  0.1741909E+04  0.7818608E-02  0.8282432E-01
         -1   -1    0    0    0  501 -0.00000000000E+00  0.00000000000E+00  0.23016204941E+04  0.23016204941E+04  0.00000000000E+00 0.  1.
          1   -1    0    0  502    0  0.00000000000E+00 -0.00000000000E+00 -0.16177040352E+04  0.16177040352E+04  0.00000000000E+00 0. -1.
    9000010    2    1    2  502    0  0.13725999896E+04  0.34139540548E+03 -0.50069953198E+03  0.18147804897E+04  0.10208558419E+04 0.  0.
   -9000010    2    1    2    0  501 -0.13725999896E+04 -0.34139540548E+03  0.11846159909E+04  0.21045440396E+04  0.10125260561E+04 0.  0.
        -13    1    3    3    0    0  0.73696695230E+03  0.11318200455E+03 -0.78442389259E+03  0.10822436460E+04  0.10566000000E+00 0.  1.
          4    1    3    3  502    0  0.63563303733E+03  0.22821340092E+03  0.28372436062E+03  0.73253684365E+03  0.00000000000E+00 0.  1.
         13    1    4    4    0    0 -0.10302843736E+04 -0.13315387571E+03  0.22261784963E+03  0.10624380279E+04  0.10566000000E+00 0. -1.
         -4    1    4    4    0  501 -0.34231561604E+03 -0.20824152976E+03  0.96199814123E+03  0.10421060116E+04  0.00000000000E+00 0. -1.
<mgrwt>
<rscale>  2 0.17419092E+04</rscale>
<asrwt>0</asrwt>
<pdfrwt beam="2">  1        1 0.24887754E+00 0.17419092E+04</pdfrwt>
<pdfrwt beam="1">  1       -1 0.35409546E+00 0.17419092E+04</pdfrwt>
<totfact> 0.62613290E-02</totfact>
</mgrwt>
</event>
<event>
 8    1  0.1408247E-005  0.1312396E+04  0.7818608E-02  0.8526414E-01
         -2   -1    0    0    0  501 -0.00000000000E+00  0.00000000000E+00  0.99218794646E+03  0.99218794646E+03  0.00000000000E+00 0.  1.
          2   -1    0    0  502    0  0.00000000000E+00 -0.00000000000E+00 -0.17644766809E+04  0.17644766809E+04  0.00000000000E+00 0. -1.
    9000010    2    1    2  502    0  0.44238849611E+03 -0.71626334318E+03 -0.20774313916E+03  0.13164428820E+04  0.99051698186E+03 0.  0.
   -9000010    2    1    2    0  501 -0.44238849611E+03  0.71626334318E+03 -0.56454559529E+03  0.14402217454E+04  0.10231256954E+04 0.  0.
        -13    1    3    3    0    0 -0.17069853321E+03 -0.65425164551E+03 -0.37732611798E+02  0.67720526138E+03  0.10566000000E+00 0.  1.
          4    1    3    3  502    0  0.61308702932E+03 -0.62011697670E+02 -0.17001052736E+03  0.63923762059E+03  0.00000000000E+00 0.  1.
         13    1    4    4    0    0 -0.24025790416E+03 -0.21067871762E+03 -0.33736348207E+03  0.46467570710E+03  0.10566000000E+00 0. -1.
         -4    1    4    4    0  501 -0.20213059195E+03  0.92694206080E+03 -0.22718211322E+03  0.97554603830E+03  0.00000000000E+00 0. -1.
<mgrwt>
<rscale>  2 0.13123959E+04</rscale>
<asrwt>0</asrwt>
<pdfrwt beam="2">  1        2 0.27145795E+00 0.13123959E+04</pdfrwt>
<pdfrwt beam="1">  1       -2 0.15264430E+00 0.13123959E+04</pdfrwt>
<totfact> 0.35334955E+00</totfact>
</mgrwt>
</event>
<event>
 8    1  0.1408247E-005  0.1197533E+04  0.7818608E-02  0.8608423E-01
          2   -1    0    0  502    0  0.00000000000E+00  0.00000000000E+00  0.13187500182E+04  0.13187500182E+04  0.00000000000E+00 0.  1.
         -2   -1    0    0    0  501 -0.00000000000E+00 -0.00000000000E+00 -0.10977412898E+04  0.10977412898E+04  0.00000000000E+00 0. -1.
    9000010    2    1    2  502    0  0.32119529124E+03  0.55863154808E+03  0.22759607930E+03  0.12206734194E+04  0.10114385794E+04 0.  0.
   -9000010    2    1    2    0  501 -0.32119529124E+03 -0.55863154808E+03 -0.65873508978E+01  0.11958178886E+04  0.10073238843E+04 0.  0.
        -13    1    3    3    0    0  0.52251274669E+03  0.25390740168E+03 -0.23896499786E+03  0.62816623632E+03  0.10566000000E+00 0.  1.
          4    1    3    3  502    0 -0.20131745546E+03  0.30472414640E+03  0.46656107715E+03  0.59250718307E+03  0.00000000000E+00 0.  1.
         13    1    4    4    0    0 -0.13731388570E+03 -0.79459176088E+03 -0.21097824751E+03  0.83351244847E+03  0.10566000000E+00 0. -1.
         -4    1    4    4    0  501 -0.18388140554E+03  0.23596021280E+03  0.20439089661E+03  0.36230544012E+03  0.00000000000E+00 0. -1.
<mgrwt>
<rscale>  2 0.11975326E+04</rscale>
<asrwt>0</asrwt>
<pdfrwt beam="1">  1        2 0.20288462E+00 0.11975326E+04</pdfrwt>
<pdfrwt beam="2">  1       -2 0.16888327E+00 0.11975326E+04</pdfrwt>
<totfact> 0.45496416E+00</totfact>
</mgrwt>
</event>
<event>
 8    1  0.1408247E-005  0.9539480E+03  0.7818608E-02  0.8819107E-01
         -2   -1    0    0    0  501 -0.00000000000E+00  0.00000000000E+00  0.85226534445E+03  0.85226534445E+03  0.00000000000E+00 0. -1.
          2   -1    0    0  502    0  0.00000000000E+00 -0.00000000000E+00 -0.10850995820E+04  0.10850995820E+04  0.00000000000E+00 0.  1.
    9000010    2    1    2  502    0  0.39681034764E+03 -0.95701160035E+02 -0.18514128575E+03  0.10840692877E+04  0.98707231796E+03 0.  0.
   -9000010    2    1    2    0  501 -0.39681034764E+03  0.95701160035E+02 -0.47692951825E+02  0.85329563875E+03  0.74781124987E+03 0.  0.
        -13    1    3    3    0    0  0.32822847215E+03  0.67163706419E+02 -0.56966618288E+03  0.66088158128E+03  0.10566000000E+00 0.  1.
          4    1    3    3  502    0  0.68581875484E+02 -0.16286486645E+03  0.38452489714E+03  0.42318770645E+03  0.00000000000E+00 0.  1.
         13    1    4    4    0    0 -0.37897225790E+02 -0.28833621368E+03 -0.13470201303E+03  0.32049744978E+03  0.10566000000E+00 0. -1.
         -4    1    4    4    0  501 -0.35891312185E+03  0.38403737371E+03  0.87009061202E+02  0.53279818897E+03  0.00000000000E+00 0. -1.
<mgrwt>
<rscale>  2 0.95394799E+03</rscale>
<asrwt>0</asrwt>
<pdfrwt beam="2">  1        2 0.16693840E+00 0.95394799E+03</pdfrwt>
<pdfrwt beam="1">  1       -2 0.13111775E+00 0.95394799E+03</pdfrwt>
<totfact> 0.13652250E+01</totfact>
</mgrwt>
</event>
<event>
 8    1  0.1408247E-005  0.1532452E+04  0.7818608E-02  0.8391064E-01
          1   -1    0    0  502    0  0.00000000000E+00  0.00000000000E+00  0.12241407083E+04  0.12241407083E+04  0.00000000000E+00 0. -1.
         -1   -1    0    0    0  501 -0.00000000000E+00 -0.00000000000E+00 -0.19341776125E+04  0.19341776125E+04  0.00000000000E+00 0.  1.
    9000010    2    1    2  502    0  0.86493908065E+03 -0.75646563243E+03 -0.21364400574E+03  0.15520174501E+04  0.10211535330E+04 0.  0.
   -9000010    2    1    2    0  501 -0.86493908065E+03  0.75646563243E+03 -0.49639289844E+03  0.16063008707E+04  0.10066959378E+04 0.  0.
        -13    1    3    3    0    0 -0.10861165677E+03  0.33958681398E+02 -0.27384806661E+03  0.29655093791E+03  0.10566000000E+00 0.  1.
          4    1    3    3  502    0  0.97355073741E+03 -0.79042431383E+03  0.60204060869E+02  0.12554665122E+04  0.00000000000E+00 0.  1.
         13    1    4    4    0    0 -0.61219443980E+02 -0.20462390933E+03  0.78871548532E+02  0.22768288676E+03  0.10566000000E+00 0. -1.
         -4    1    4    4    0  501 -0.80371963667E+03  0.96108954176E+03 -0.57526444697E+03  0.13786179839E+04  0.00000000000E+00 0. -1.
<mgrwt>
<rscale>  2 0.15324522E+04</rscale>
<asrwt>0</asrwt>
<pdfrwt beam="1">  1        1 0.18832934E+00 0.15324522E+04</pdfrwt>
<pdfrwt beam="2">  1       -1 0.29756579E+00 0.15324522E+04</pdfrwt>
<totfact> 0.21908000E-01</totfact>
</mgrwt>
</event>
<event>
 8    1  0.1408247E-005  0.1267100E+04  0.7818608E-02  0.8557678E-01
          2   -1    0    0  502    0  0.00000000000E+00  0.00000000000E+00  0.24458995064E+04  0.24458995064E+04  0.00000000000E+00 0. -1.
         -2   -1    0    0    0  501 -0.00000000000E+00 -0.00000000000E+00 -0.79169294322E+03  0.79169294322E+03  0.00000000000E+00 0.  1.
    9000010    2    1    2  502    0 -0.79639781076E+03 -0.12141130627E+03  0.14454324198E+03  0.12494548115E+04  0.94406270917E+03 0.  0.
   -9000010    2    1    2    0  501  0.79639781076E+03  0.12141130627E+03  0.15096633212E+04  0.19881376381E+04  0.10122340374E+04 0.  0.
        -13    1    3    3    0    0 -0.68860650624E+03  0.10938524075E+03  0.46650606582E+03  0.83891118239E+03  0.10566000000E+00 0.  1.
          4    1    3    3  502    0 -0.10779130452E+03 -0.23079654702E+03 -0.32196282384E+03  0.41054362909E+03  0.00000000000E+00 0.  1.
         13    1    4    4    0    0  0.24068679269E+03  0.22548736254E+03  0.13653745697E+04  0.14046431609E+04  0.10566000000E+00 0. -1.
         -4    1    4    4    0  501  0.55571101808E+03 -0.10407605626E+03  0.14428875150E+03  0.58349447719E+03  0.00000000000E+00 0. -1.
<mgrwt>
<rscale>  2 0.12670999E+04</rscale>
<asrwt>0</asrwt>
<pdfrwt beam="1">  1        2 0.37629223E+00 0.12670999E+04</pdfrwt>
<pdfrwt beam="2">  1       -2 0.12179892E+00 0.12670999E+04</pdfrwt>
<totfact> 0.28743817E+00</totfact>
</mgrwt>
</event>
<event>
 8    1  0.1408247E-005  0.1031877E+04  0.7818608E-02  0.8745204E-01
          2   -1    0    0  502    0  0.00000000000E+00  0.00000000000E+00  0.16474517941E+04  0.16474517941E+04  0.00000000000E+00 0.  1.
         -2   -1    0    0    0  501 -0.00000000000E+00 -0.00000000000E+00 -0.74065790561E+03  0.74065790561E+03  0.00000000000E+00 0. -1.
    9000010    2    1    2  502    0  0.28530943238E+03  0.80288904939E+02  0.27239910819E+02  0.10322454693E+04  0.98840321517E+03 0.  0.
   -9000010    2    1    2    0  501 -0.28530943238E+03 -0.80288904939E+02  0.87955397766E+03  0.13558642304E+04  0.98838496097E+03 0.  0.
        -13    1    3    3    0    0 -0.27370959269E+02 -0.21936178383E+03  0.40249342251E+03  0.45920553998E+03  0.10566000000E+00 0.  1.
          4    1    3    3  502    0  0.31268039165E+03  0.29965068877E+03 -0.37525351170E+03  0.57303992936E+03  0.00000000000E+00 0.  1.
         13    1    4    4    0    0 -0.65207644916E+02  0.23544153085E+03 -0.12906925400E+03  0.27630351952E+03  0.10566000000E+00 0. -1.
         -4    1    4    4    0  501 -0.22010178747E+03 -0.31573043579E+03  0.10086232317E+04  0.10795607108E+04  0.00000000000E+00 0. -1.
<mgrwt>
<rscale>  2 0.10318772E+04</rscale>
<asrwt>0</asrwt>
<pdfrwt beam="1">  1        2 0.25345412E+00 0.10318772E+04</pdfrwt>
<pdfrwt beam="2">  1       -2 0.11394737E+00 0.10318772E+04</pdfrwt>
<totfact> 0.95819459E+00</totfact>
</mgrwt>
</event>
<event>
 8    1  0.1408247E-005  0.1058433E+04  0.7818608E-02  0.8721545E-01
          2   -1    0    0  502    0  0.00000000000E+00  0.00000000000E+00  0.21187202769E+04  0.21187202769E+04  0.00000000000E+00 0.  1.
         -2   -1    0    0    0  501 -0.00000000000E+00 -0.00000000000E+00 -0.71475109133E+03  0.71475109133E+03  0.00000000000E+00 0. -1.
    9000010    2    1    2  502    0 -0.27799148859E+03 -0.27189785365E+03 -0.39743098317E+01  0.10906715585E+04  0.10189901584E+04 0.  0.
   -9000010    2    1    2    0  501  0.27799148859E+03  0.27189785365E+03  0.14079434954E+04  0.17427998097E+04  0.95070425467E+03 0.  0.
        -13    1    3    3    0    0 -0.53353650895E+03 -0.35636231899E+03  0.27944809673E+03  0.69981894709E+03  0.10566000000E+00 0.  1.
          4    1    3    3  502    0  0.25554502036E+03  0.84464465343E+02 -0.28342240656E+03  0.39085261145E+03  0.00000000000E+00 0.  1.
         13    1    4    4    0    0  0.32170806026E+03 -0.23754730549E+02  0.14074373297E+04  0.14439322046E+04  0.10566000000E+00 0. -1.
         -4    1    4    4    0  501 -0.43716571670E+02  0.29565258420E+03  0.50616571428E+00  0.29886760511E+03  0.00000000000E+00 0. -1.
<mgrwt>
<rscale>  2 0.10584331E+04</rscale>
<asrwt>0</asrwt>
<pdfrwt beam="1">  1        2 0.32595696E+00 0.10584331E+04</pdfrwt>
<pdfrwt beam="2">  1       -2 0.10996171E+00 0.10584331E+04</pdfrwt>
<totfact> 0.58009556E+00</totfact>
</mgrwt>
</event>
<event>
 8    1  0.1408247E-005  0.1180580E+04  0.7818608E-02  0.8621331E-01
          1   -1    0    0  502    0  0.00000000000E+00  0.00000000000E+00  0.22259755813E+04  0.22259755813E+04  0.00000000000E+00 0.  1.
         -1   -1    0    0    0  501 -0.00000000000E+00 -0.00000000000E+00 -0.62637428735E+03  0.62637428735E+03  0.00000000000E+00 0. -1.
    9000010    2    1    2  502    0  0.62560619337E+03  0.82493551136E+02  0.79367969275E+03  0.14371814808E+04  0.10185160081E+04 0.  0.
   -9000010    2    1    2    0  501 -0.62560619337E+03 -0.82493551136E+02  0.80592160121E+03  0.14151683879E+04  0.97724287853E+03 0.  0.
        -13    1    3    3    0    0  0.49636010663E+03 -0.32855731875E+03  0.81092677387E+03  0.10059450834E+04  0.10566000000E+00 0.  1.
          4    1    3    3  502    0  0.12924608675E+03  0.41105086989E+03 -0.17247081112E+02  0.43123639733E+03  0.00000000000E+00 0.  1.
         13    1    4    4    0    0 -0.30229721922E+03 -0.27585743943E+03 -0.11086847685E+03  0.42399618626E+03  0.10566000000E+00 0. -1.
         -4    1    4    4    0  501 -0.32330897416E+03  0.19336388830E+03  0.91679007807E+03  0.99117220164E+03  0.00000000000E+00 0. -1.
<mgrwt>
<rscale>  2 0.11805800E+04</rscale>
<asrwt>0</asrwt>
<pdfrwt beam="1">  1        1 0.34245778E+00 0.11805800E+04</pdfrwt>
<pdfrwt beam="2">  1       -1 0.96365276E-01 0.11805800E+04</pdfrwt>
<totfact> 0.27274108E+00</totfact>
</mgrwt>
</event>
<event>
 8    1  0.1408247E-005  0.1328639E+04  0.7818608E-02  0.8515518E-01
          2   -1    0    0  502    0  0.00000000000E+00  0.00000000000E+00  0.78442851120E+03  0.78442851120E+03  0.00000000000E+00 0.  1.
         -2   -1    0    0    0  501 -0.00000000000E+00 -0.00000000000E+00 -0.22721040439E+04  0.22721040439E+04  0.00000000000E+00 0. -1.
    9000010    2    1    2  502    0  0.77098289234E+03  0.31666760851E+03 -0.58299935786E+03  0.14271301151E+04  0.10010589991E+04 0.  0.
   -9000010    2    1    2    0  501 -0.77098289234E+03 -0.31666760851E+03 -0.90467617488E+03  0.16294024400E+04  0.10685599354E+04 0.  0.
        -13    1    3    3    0    0  0.45382667366E+03  0.68173677479E+03 -0.37232882651E+03  0.89964017587E+03  0.10566000000E+00 0.  1.
          4    1    3    3  502    0  0.31715621868E+03 -0.36506916628E+03 -0.21067053135E+03  0.52748993924E+03  0.00000000000E+00 0.  1.
         13    1    4    4    0    0 -0.95770621941E+03 -0.42483601114E+03 -0.47869871812E+03  0.11518851127E+04  0.10566000000E+00 0. -1.
         -4    1    4    4    0  501  0.18672332707E+03  0.10816840263E+03 -0.42597745676E+03  0.47751732730E+03  0.00000000000E+00 0. -1.
<mgrwt>
<rscale>  2 0.13286389E+04</rscale>
<asrwt>0</asrwt>
<pdfrwt beam="1">  1        2 0.12068131E+00 0.13286389E+04</pdfrwt>
<pdfrwt beam="2">  1       -2 0.34955447E+00 0.13286389E+04</pdfrwt>
<totfact> 0.41484221E-01</totfact>
</mgrwt>
</event>
<event>
 8    1  0.1408247E-005  0.1440097E+04  0.7818608E-02  0.8444830E-01
         -1   -1    0    0    0  501 -0.00000000000E+00  0.00000000000E+00  0.57631600140E+03  0.57631600140E+03  0.00000000000E+00 0.  1.
          1   -1    0    0  502    0  0.00000000000E+00 -0.00000000000E+00 -0.38218018201E+04  0.38218018201E+04  0.00000000000E+00 0. -1.
    9000010    2    1    2  502    0 -0.15083442644E+03  0.10276126141E+04 -0.10900552182E+04  0.18052648478E+04  0.99600305383E+03 0.  0.
   -9000010    2    1    2    0  501  0.15083442644E+03 -0.10276126141E+04 -0.21554306005E+04  0.25928529736E+04  0.99913300430E+03 0.  0.
        -13    1    3    3    0    0 -0.44494036777E+03  0.59880967449E+03 -0.10441448048E+04  0.12832705645E+04  0.10566000000E+00 0.  1.
          4    1    3    3  502    0  0.29410594133E+03  0.42880293966E+03 -0.45910413353E+02  0.52199428334E+03  0.00000000000E+00 0.  1.
         13    1    4    4    0    0 -0.42878934460E+03 -0.46808248117E+03 -0.90821144906E+03  0.11080656833E+04  0.10566000000E+00 0. -1.
         -4    1    4    4    0  501  0.57962377104E+03 -0.55953013298E+03 -0.12472191515E+04  0.14847872903E+04  0.00000000000E+00 0. -1.
<mgrwt>
<rscale>  2 0.14400975E+04</rscale>
<asrwt>0</asrwt>
<pdfrwt beam="2">  1        1 0.58796951E+00 0.14400975E+04</pdfrwt>
<pdfrwt beam="1">  1       -1 0.88664001E-01 0.14400975E+04</pdfrwt>
<totfact> 0.93907686E-02</totfact>
</mgrwt>
</event>
<event>
 8    1  0.1408247E-005  0.1130419E+04  0.7818608E-02  0.8660885E-01
          2   -1    0    0  502    0  0.00000000000E+00  0.00000000000E+00  0.22235432779E+04  0.22235432779E+04  0.00000000000E+00 0.  1.
         -2   -1    0    0    0  501 -0.00000000000E+00 -0.00000000000E+00 -0.67021094051E+03  0.67021094051E+03  0.00000000000E+00 0. -1.
    9000010    2    1    2  502    0 -0.42334057940E+03 -0.28085468374E+03  0.13169028555E+04  0.17291137325E+04  0.99875150543E+03 0.  0.
   -9000010    2    1    2    0  501  0.42334057940E+03  0.28085468374E+03  0.23642948183E+03  0.11646404858E+04  0.10209759850E+04 0.  0.
        -13    1    3    3    0    0  0.21311269687E+03  0.19374799594E+03  0.57211138331E+03  0.64052068942E+03  0.10566000000E+00 0.  1.
          4    1    3    3  502    0 -0.63645327628E+03 -0.47460267967E+03  0.74479147223E+03  0.10885930431E+04  0.00000000000E+00 0.  1.
         13    1    4    4    0    0  0.24284505991E+03  0.61079116673E+03 -0.94044764558E+02  0.66399096483E+03  0.10566000000E+00 0. -1.
         -4    1    4    4    0  501  0.18049551949E+03 -0.32993648299E+03  0.33047424639E+03  0.50064952102E+03  0.00000000000E+00 0. -1.
<mgrwt>
<rscale>  2 0.11304193E+04</rscale>
<asrwt>0</asrwt>
<pdfrwt beam="1">  1        2 0.34208358E+00 0.11304193E+04</pdfrwt>
<pdfrwt beam="2">  1       -2 0.10310938E+00 0.11304193E+04</pdfrwt>
<totfact> 0.59095714E+00</totfact>
</mgrwt>
</event>
<event>
 8    1  0.1408247E-005  0.1374625E+04  0.7818608E-02  0.8485521E-01
          1   -1    0    0  502    0  0.00000000000E+00  0.00000000000E+00  0.31446987518E+04  0.31446987518E+04  0.00000000000E+00 0. -1.
         -1   -1    0    0    0  501 -0.00000000000E+00 -0.00000000000E+00 -0.70350468197E+03  0.70350468197E+03  0.00000000000E+00 0.  1.
    9000010    2    1    2  502    0  0.45047059078E+03  0.82460371493E+03  0.49077816773E+03  0.14658384910E+04  0.10123854167E+04 0.  0.
   -9000010    2    1    2    0  501 -0.45047059078E+03 -0.82460371493E+03  0.19504159022E+04  0.23823649428E+04  0.99430653698E+03 0.  0.
        -13    1    3    3    0    0 -0.71302753082E+02 -0.19458902066E+03  0.19199222743E+03  0.28250663021E+03  0.10566000000E+00 0.  1.
          4    1    3    3  502    0  0.52177334386E+03  0.10191927356E+04  0.29878594030E+03  0.11833318608E+04  0.00000000000E+00 0.  1.
         13    1    4    4    0    0  0.26243849559E+03 -0.29268559931E+03  0.10296201421E+04  0.11021145458E+04  0.10566000000E+00 0. -1.
         -4    1    4    4    0  501 -0.71290908637E+03 -0.53191811562E+03  0.92079576010E+03  0.12802503970E+04  0.00000000000E+00 0. -1.
<mgrwt>
<rscale>  2 0.13746246E+04</rscale>
<asrwt>0</asrwt>
<pdfrwt beam="1">  1        1 0.48379980E+00 0.13746246E+04</pdfrwt>
<pdfrwt beam="2">  1       -1 0.10823149E+00 0.13746246E+04</pdfrwt>
<totfact> 0.26309614E-01</totfact>
</mgrwt>
</event>
<event>
 8    1  0.1408247E-005  0.1699806E+04  0.7818608E-02  0.8302958E-01
          2   -1    0    0  502    0  0.00000000000E+00  0.00000000000E+00  0.32283221283E+04  0.32283221283E+04  0.00000000000E+00 0. -1.
         -2   -1    0    0    0  501 -0.00000000000E+00 -0.00000000000E+00 -0.90474126933E+03  0.90474126933E+03  0.00000000000E+00 0.  1.
    9000010    2    1    2  502    0  0.13498375296E+04 -0.25829324683E+03  0.13751437182E+04  0.21851507687E+04  0.99754041449E+03 0.  0.
   -9000010    2    1    2    0  501 -0.13498375296E+04  0.25829324683E+03  0.94843714078E+03  0.19479126289E+04  0.10030223539E+04 0.  0.
        -13    1    3    3    0    0  0.13371696754E+04  0.98550612739E+02  0.11033252412E+04  0.17363932628E+04  0.10566000000E+00 0.  1.
          4    1    3    3  502    0  0.12667854185E+02 -0.35684385957E+03  0.27181847699E+03  0.44875750587E+03  0.00000000000E+00 0.  1.
         13    1    4    4    0    0 -0.62894539982E+03 -0.13308220052E+03  0.92605755097E+03  0.11273268323E+04  0.10566000000E+00 0. -1.
         -4    1    4    4    0  501 -0.72089212976E+03  0.39137544735E+03  0.22379589809E+02  0.82058579660E+03  0.00000000000E+00 0. -1.
<mgrwt>
<rscale>  2 0.16998064E+04</rscale>
<asrwt>0</asrwt>
<pdfrwt beam="1">  1        2 0.49666494E+00 0.16998064E+04</pdfrwt>
<pdfrwt beam="2">  1       -2 0.13919097E+00 0.16998064E+04</pdfrwt>
<totfact> 0.63697067E-01</totfact>
</mgrwt>
</event>
<event>
 8    1  0.1408247E-005  0.1154427E+04  0.7818608E-02  0.8641693E-01
          1   -1    0    0  502    0  0.00000000000E+00  0.00000000000E+00  0.13947563625E+04  0.13947563625E+04  0.00000000000E+00 0.  1.
         -1   -1    0    0    0  501 -0.00000000000E+00 -0.00000000000E+00 -0.14340023558E+04  0.14340023558E+04  0.00000000000E+00 0. -1.
    9000010    2    1    2  502    0  0.40717687838E+03  0.40147285828E+03  0.79739246447E+03  0.14028933611E+04  0.10026472829E+04 0.  0.
   -9000010    2    1    2    0  501 -0.40717687838E+03 -0.40147285828E+03 -0.83663845780E+03  0.14258653572E+04  0.10030726003E+04 0.  0.
        -13    1    3    3    0    0  0.17020228399E+03  0.62957184288E+03  0.13886590517E+03  0.66679327651E+03  0.10566000000E+00 0.  1.
          4    1    3    3  502    0  0.23697459439E+03 -0.22809898460E+03  0.65852655930E+03  0.73610008455E+03  0.00000000000E+00 0.  1.
         13    1    4    4    0    0 -0.53390264226E+03 -0.44695407632E+03 -0.13226745503E+03  0.70874160917E+03  0.10566000000E+00 0. -1.
         -4    1    4    4    0  501  0.12672576388E+03  0.45481218036E+02 -0.70437100277E+03  0.71712374801E+03  0.00000000000E+00 0. -1.
<mgrwt>
<rscale>  2 0.11544269E+04</rscale>
<asrwt>0</asrwt>
<pdfrwt beam="1">  1        1 0.21457790E+00 0.11544269E+04</pdfrwt>
<pdfrwt beam="2">  1       -1 0.22061575E+00 0.11544269E+04</pdfrwt>
<totfact> 0.91959632E-01</totfact>
</mgrwt>
</event>
<event>
 8    1  0.1408247E-005  0.1171085E+04  0.7818608E-02  0.8628660E-01
         -2   -1    0    0    0  501 -0.00000000000E+00  0.00000000000E+00  0.60525199291E+03  0.60525199291E+03  0.00000000000E+00 0.  1.
          2   -1    0    0  502    0  0.00000000000E+00 -0.00000000000E+00 -0.23306254817E+04  0.23306254817E+04  0.00000000000E+00 0. -1.
    9000010    2    1    2  502    0  0.26985328786E+03 -0.51547443704E+03 -0.11029020335E+04  0.16043170394E+04  0.10094085274E+04 0.  0.
   -9000010    2    1    2    0  501 -0.26985328786E+03  0.51547443704E+03 -0.62247145531E+03  0.13315604352E+04  0.10232535305E+04 0.  0.
        -13    1    3    3    0    0  0.32479942884E+03 -0.23142009694E+02  0.68252204572E+02  0.33269895729E+03  0.10566000000E+00 0.  1.
          4    1    3    3  502    0 -0.54946140977E+02 -0.49233242734E+03 -0.11711542381E+04  0.12716180821E+04  0.00000000000E+00 0.  1.
         13    1    4    4    0    0  0.21202201380E+03 -0.20969366752E+03 -0.22960606806E+03  0.37635585048E+03  0.10566000000E+00 0. -1.
         -4    1    4    4    0  501 -0.48187530166E+03  0.72516810456E+03 -0.39286538726E+03  0.95520458475E+03  0.00000000000E+00 0. -1.
<mgrwt>
<rscale>  2 0.11710846E+04</rscale>
<asrwt>0</asrwt>
<pdfrwt beam="2">  1        2 0.35855777E+00 0.11710846E+04</pdfrwt>
<pdfrwt beam="1">  1       -2 0.93115691E-01 0.11710846E+04</pdfrwt>
<totfact> 0.65504523E+00</totfact>
</mgrwt>
</event>
<event>
 8    1  0.1408247E-005  0.1089981E+04  0.7818608E-02  0.8694360E-01
         -2   -1    0    0    0  501 -0.00000000000E+00  0.00000000000E+00  0.97933145964E+03  0.97933145964E+03  0.00000000000E+00 0.  1.
          2   -1    0    0  502    0  0.00000000000E+00 -0.00000000000E+00 -0.13551310223E+04  0.13551310223E+04  0.00000000000E+00 0. -1.
    9000010    2    1    2  502    0 -0.43093940745E+03  0.16619452920E+02  0.18955539249E+03  0.11087549230E+04  0.10037037677E+04 0.  0.
   -9000010    2    1    2    0  501  0.43093940745E+03 -0.16619452920E+02 -0.56535495519E+03  0.12257075590E+04  0.99837258359E+03 0.  0.
        -13    1    3    3    0    0  0.27162113674E+03 -0.22135062833E+03  0.72359300657E+02  0.35778488249E+03  0.10566000000E+00 0.  1.
          4    1    3    3  502    0 -0.70256054419E+03  0.23797008125E+03  0.11719609184E+03  0.75097004052E+03  0.00000000000E+00 0.  1.
         13    1    4    4    0    0  0.68964414838E+03  0.13735064431E+03 -0.59774253805E+03  0.92291408259E+03  0.10566000000E+00 0. -1.
         -4    1    4    4    0  501 -0.25870474093E+03 -0.15397009723E+03  0.32387582857E+02  0.30279347639E+03  0.00000000000E+00 0. -1.
<mgrwt>
<rscale>  2 0.10899805E+04</rscale>
<asrwt>0</asrwt>
<pdfrwt beam="2">  1        2 0.20848170E+00 0.10899805E+04</pdfrwt>
<pdfrwt beam="1">  1       -2 0.15066638E+00 0.10899805E+04</pdfrwt>
<totfact> 0.63113006E+00</totfact>
</mgrwt>
</event>
<event>
 8    1  0.1408247E-005  0.1100442E+04  0.7818608E-02  0.8685557E-01
         -1   -1    0    0    0  501 -0.00000000000E+00  0.00000000000E+00  0.11018158840E+04  0.11018158840E+04  0.00000000000E+00 0. -1.
          1   -1    0    0  502    0  0.00000000000E+00 -0.00000000000E+00 -0.11847679742E+04  0.11847679742E+04  0.00000000000E+00 0.  1.
    9000010    2    1    2  502    0 -0.31285474428E+03  0.36114485907E+03  0.26607268503E+03  0.11302300569E+04  0.98910141418E+03 0.  0.
   -9000010    2    1    2    0  501  0.31285474428E+03 -0.36114485907E+03 -0.34902477522E+03  0.11563538012E+04  0.99349490166E+03 0.  0.
        -13    1    3    3    0    0 -0.27236817062E+03  0.70234617909E+03  0.15464425220E+03  0.76901848583E+03  0.10566000000E+00 0.  1.
          4    1    3    3  502    0 -0.40486573659E+02 -0.34120132002E+03  0.11142843284E+03  0.36121157107E+03  0.00000000000E+00 0.  1.
         13    1    4    4    0    0  0.59132226397E+03 -0.11253568584E+00 -0.37408894349E+03  0.69971750110E+03  0.10566000000E+00 0. -1.
         -4    1    4    4    0  501 -0.27846751970E+03 -0.36103232339E+03  0.25064168269E+02  0.45663630012E+03  0.00000000000E+00 0. -1.
<mgrwt>
<rscale>  2 0.11004421E+04</rscale>
<asrwt>0</asrwt>
<pdfrwt beam="2">  1        1 0.18227200E+00 0.11004421E+04</pdfrwt>
<pdfrwt beam="1">  1       -1 0.16951014E+00 0.11004421E+04</pdfrwt>
<totfact> 0.38118121E+00</totfact>
</mgrwt>
</event>
<event>
 8    1  0.1408247E-005  0.1116527E+04  0.7818608E-02  0.8672218E-01
         -2   -1    0    0    0  501 -0.00000000000E+00  0.00000000000E+00  0.11783526424E+04  0.11783526424E+04  0.00000000000E+00 0.  1.
          2   -1    0    0  502    0  0.00000000000E+00 -0.00000000000E+00 -0.10707058192E+04  0.10707058192E+04  0.00000000000E+00 0. -1.
    9000010    2    1    2  502    0 -0.16642385922E+03  0.46144813836E+03 -0.69030068502E+02  0.11163928325E+04  0.10004681508E+04 0.  0.
   -9000010    2    1    2    0  501  0.16642385922E+03 -0.46144813836E+03  0.17667689168E+03  0.11326656291E+04  0.10055274327E+04 0.  0.
        -13    1    3    3    0    0 -0.52410619067E+03  0.22093853994E+02  0.79855163315E+02  0.53061501652E+03  0.10566000000E+00 0.  1.
          4    1    3    3  502    0  0.35768233145E+03  0.43935428437E+03 -0.14888523182E+03  0.58577781597E+03  0.00000000000E+00 0.  1.
         13    1    4    4    0    0  0.57011937726E+03 -0.34964967260E+03  0.23680075737E+03  0.70948263384E+03  0.10566000000E+00 0. -1.
         -4    1    4    4    0  501 -0.40369551804E+03 -0.11179846576E+03 -0.60123865685E+02  0.42318299523E+03  0.00000000000E+00 0. -1.
<mgrwt>
<rscale>  2 0.11165267E+04</rscale>
<asrwt>0</asrwt>
<pdfrwt beam="2">  1        2 0.16472397E+00 0.11165267E+04</pdfrwt>
<pdfrwt beam="1">  1       -2 0.18128502E+00 0.11165267E+04</pdfrwt>
<totfact> 0.50122812E+00</totfact>
</mgrwt>
</event>
<event>
 8    1  0.1408247E-005  0.1313137E+04  0.7818608E-02  0.8525913E-01
         -2   -1    0    0    0  501 -0.00000000000E+00  0.00000000000E+00  0.86086262703E+03  0.86086262703E+03  0.00000000000E+00 0.  1.
          2   -1    0    0  502    0  0.00000000000E+00 -0.00000000000E+00 -0.22718859812E+04  0.22718859812E+04  0.00000000000E+00 0. -1.
    9000010    2    1    2  502    0 -0.75252698453E+03  0.41232130364E+03 -0.12452805768E+04  0.18111321575E+04  0.99657927782E+03 0.  0.
   -9000010    2    1    2    0  501  0.75252698453E+03 -0.41232130364E+03 -0.16574277741E+03  0.13216164508E+04  0.99140993281E+03 0.  0.
        -13    1    3    3    0    0 -0.75050978093E+03  0.70063077092E+03 -0.96497177705E+03  0.14090134670E+04  0.10566000000E+00 0.  1.
          4    1    3    3  502    0 -0.20172036007E+01 -0.28830946728E+03 -0.28030879976E+03  0.40211869051E+03  0.00000000000E+00 0.  1.
         13    1    4    4    0    0  0.64566186384E+03 -0.73078045459E+03 -0.13108310627E+03  0.98392179930E+03  0.10566000000E+00 0. -1.
         -4    1    4    4    0  501  0.10686512069E+03  0.31845915095E+03 -0.34659671142E+02  0.33769465150E+03  0.00000000000E+00 0. -1.
<mgrwt>
<rscale>  2 0.13131375E+04</rscale>
<asrwt>0</asrwt>
<pdfrwt beam="2">  1        2 0.34952092E+00 0.13131375E+04</pdfrwt>
<pdfrwt beam="1">  1       -2 0.13244041E+00 0.13131375E+04</pdfrwt>
<totfact> 0.28337424E+00</totfact>
</mgrwt>
</event>
<event>
 8    1  0.1408247E-005  0.1766201E+04  0.7818608E-02  0.8270859E-01
         -2   -1    0    0    0  501 -0.00000000000E+00  0.00000000000E+00  0.88536551830E+03  0.88536551830E+03  0.00000000000E+00 0. -1.
          2   -1    0    0  502    0  0.00000000000E+00 -0.00000000000E+00 -0.36756474485E+04  0.36756474485E+04  0.00000000000E+00 0.  1.
    9000010    2    1    2  502    0  0.62470520480E+03 -0.13158891332E+04 -0.93218750386E+03  0.19985377360E+04  0.10016779603E+04 0.  0.
   -9000010    2    1    2    0  501 -0.62470520480E+03  0.13158891332E+04 -0.18580944263E+04  0.25624752307E+04  0.99596365767E+03 0.  0.
        -13    1    3    3    0    0 -0.90133597946E+02  0.66831117394E+02  0.83529804499E+02  0.13988460650E+03  0.10566000000E+00 0.  1.
          4    1    3    3  502    0  0.71483880275E+03 -0.13827202506E+04 -0.10157173084E+04  0.18586531295E+04  0.00000000000E+00 0.  1.
         13    1    4    4    0    0 -0.81985494890E+03  0.92988176899E+03 -0.16955412191E+04  0.21004052652E+04  0.10566000000E+00 0. -1.
         -4    1    4    4    0  501  0.19514974410E+03  0.38600736421E+03 -0.16255320722E+03  0.46206996550E+03  0.00000000000E+00 0. -1.
<mgrwt>
<rscale>  2 0.17662012E+04</rscale>
<asrwt>0</asrwt>
<pdfrwt beam="2">  1        2 0.56548423E+00 0.17662012E+04</pdfrwt>
<pdfrwt beam="1">  1       -2 0.13621008E+00 0.17662012E+04</pdfrwt>
<totfact> 0.31701134E-01</totfact>
</mgrwt>
</event>
<event>
 8    1  0.1408247E-005  0.1291642E+04  0.7818608E-02  0.8540574E-01
          2   -1    0    0  502    0  0.00000000000E+00  0.00000000000E+00  0.48223611945E+03  0.48223611945E+03  0.00000000000E+00 0.  1.
         -2   -1    0    0    0  501 -0.00000000000E+00 -0.00000000000E+00 -0.37436654636E+04  0.37436654636E+04  0.00000000000E+00 0. -1.
    9000010    2    1    2  502    0  0.57117164323E+03 -0.55192150301E+03 -0.22155429609E+04  0.25657680218E+04  0.10216068414E+04 0.  0.
   -9000010    2    1    2    0  501 -0.57117164323E+03  0.55192150301E+03 -0.10458863832E+04  0.16601335613E+04  0.10155346981E+04 0.  0.
        -13    1    3    3    0    0 -0.21394535997E+03  0.16170051867E+02 -0.93816728965E+03  0.96238867520E+03  0.10566000000E+00 0.  1.
          4    1    3    3  502    0  0.78511700320E+03 -0.56809155488E+03 -0.12773756713E+04  0.16033793466E+04  0.00000000000E+00 0.  1.
         13    1    4    4    0    0 -0.76848028147E+03  0.83446208013E+02 -0.53971756220E+03  0.94277265062E+03  0.10566000000E+00 0. -1.
         -4    1    4    4    0  501  0.19730863823E+03  0.46847529500E+03 -0.50616882101E+03  0.71736091064E+03  0.00000000000E+00 0. -1.
<mgrwt>
<rscale>  2 0.12916418E+04</rscale>
<asrwt>0</asrwt>
<pdfrwt beam="1">  1        2 0.74190171E-01 0.12916418E+04</pdfrwt>
<pdfrwt beam="2">  1       -2 0.57594854E+00 0.12916418E+04</pdfrwt>
<totfact> 0.44178485E-01</totfact>
</mgrwt>
</event>
<event>
 8    1  0.1408247E-005  0.1368020E+04  0.7818608E-02  0.8489755E-01
          2   -1    0    0  502    0  0.00000000000E+00  0.00000000000E+00  0.29078094538E+04  0.29078094538E+04  0.00000000000E+00 0.  1.
         -2   -1    0    0    0  501 -0.00000000000E+00 -0.00000000000E+00 -0.64971202050E+03  0.64971202050E+03  0.00000000000E+00 0. -1.
    9000010    2    1    2  502    0 -0.66128370744E+01  0.93956910770E+03  0.13046425829E+04  0.18932283760E+04  0.99969374146E+03 0.  0.
   -9000010    2    1    2    0  501  0.66128370744E+01 -0.93956910770E+03  0.95345485045E+03  0.16642930984E+04  0.98891937371E+03 0.  0.
        -13    1    3    3    0    0  0.24588576691E+03  0.44395882169E+03  0.36913957254E+02  0.50884368634E+03  0.10566000000E+00 0.  1.
          4    1    3    3  502    0 -0.25249860398E+03  0.49561028601E+03  0.12677286256E+04  0.13843846896E+04  0.00000000000E+00 0.  1.
         13    1    4    4    0    0  0.14477218829E+03 -0.10791389803E+04  0.98152587611E+03  0.14659102913E+04  0.10566000000E+00 0. -1.
         -4    1    4    4    0  501 -0.13815935122E+03  0.13956987264E+03 -0.28071025664E+02  0.19838280711E+03  0.00000000000E+00 0. -1.
<mgrwt>
<rscale>  2 0.13680196E+04</rscale>
<asrwt>0</asrwt>
<pdfrwt beam="1">  1        2 0.44735529E+00 0.13680196E+04</pdfrwt>
<pdfrwt beam="2">  1       -2 0.99955697E-01 0.13680196E+04</pdfrwt>
<totfact> 0.25212371E+00</totfact>
</mgrwt>
</event>
<event>
 8    1  0.1408247E-005  0.1088192E+04  0.7818608E-02  0.8695876E-01
          2   -1    0    0  502    0  0.00000000000E+00  0.00000000000E+00  0.31161871278E+04  0.31161871278E+04  0.00000000000E+00 0.  1.
         -2   -1    0    0    0  501 -0.00000000000E+00 -0.00000000000E+00 -0.38130149921E+03  0.38130149921E+03  0.00000000000E+00 0. -1.
    9000010    2    1    2  502    0 -0.13837341811E+03  0.37180851106E+03  0.14537055734E+04  0.18091654962E+04  0.10012148256E+04 0.  0.
   -9000010    2    1    2    0  501  0.13837341811E+03 -0.37180851106E+03  0.12811800552E+04  0.16883231307E+04  0.10254871468E+04 0.  0.
        -13    1    3    3    0    0 -0.36080391921E+03 -0.17786985752E+03  0.26774593303E+03  0.48322360264E+03  0.10566000000E+00 0.  1.
          4    1    3    3  502    0  0.22243050109E+03  0.54967836858E+03  0.11859596403E+04  0.13259418936E+04  0.00000000000E+00 0.  1.
         13    1    4    4    0    0  0.52568399585E+03 -0.11380331943E+03  0.33437052388E+03  0.63332339086E+03  0.10566000000E+00 0. -1.
         -4    1    4    4    0  501 -0.38731057774E+03 -0.25800519163E+03  0.94680953131E+03  0.10549997399E+04  0.00000000000E+00 0. -1.
<mgrwt>
<rscale>  2 0.10881916E+04</rscale>
<asrwt>0</asrwt>
<pdfrwt beam="1">  1        2 0.47941339E+00 0.10881916E+04</pdfrwt>
<pdfrwt beam="2">  1       -2 0.58661771E-01 0.10881916E+04</pdfrwt>
<totfact> 0.61812569E+00</totfact>
</mgrwt>
</event>
<event>
 8    1  0.1408247E-005  0.1156690E+04  0.7818608E-02  0.8639909E-01
          1   -1    0    0  502    0  0.00000000000E+00  0.00000000000E+00  0.25465253492E+04  0.25465253492E+04  0.00000000000E+00 0. -1.
         -1   -1    0    0    0  501 -0.00000000000E+00 -0.00000000000E+00 -0.53512887645E+03  0.53512887645E+03  0.00000000000E+00 0.  1.
    9000010    2    1    2  502    0 -0.50586875539E+03 -0.28850696982E+03  0.12115513331E+04  0.16734890263E+04  0.99677952385E+03 0.  0.
   -9000010    2    1    2    0  501  0.50586875539E+03  0.28850696982E+03  0.79984513962E+03  0.14081651993E+04  0.10020167223E+04 0.  0.
        -13    1    3    3    0    0  0.29083282893E+03  0.37636398357E+02  0.32457843822E+03  0.43743731732E+03  0.10566000000E+00 0.  1.
          4    1    3    3  502    0 -0.79670158432E+03 -0.32614336818E+03  0.88697289490E+03  0.12360517090E+04  0.00000000000E+00 0.  1.
         13    1    4    4    0    0  0.16425927298E+03  0.96107674126E+02  0.96437788800E+03  0.98297635568E+03  0.10566000000E+00 0. -1.
         -4    1    4    4    0  501  0.34160948240E+03  0.19239929570E+03 -0.16453274839E+03  0.42518884363E+03  0.00000000000E+00 0. -1.
<mgrwt>
<rscale>  2 0.11566904E+04</rscale>
<asrwt>0</asrwt>
<pdfrwt beam="1">  1        1 0.39177312E+00 0.11566904E+04</pdfrwt>
<pdfrwt beam="2">  1       -1 0.82327521E-01 0.11566904E+04</pdfrwt>
<totfact> 0.19929524E+00</totfact>
</mgrwt>
</event>
<event>
 8    1  0.1408247E-005  0.1597879E+04  0.7818608E-02  0.8355295E-01
          4   -1    0    0  502    0  0.00000000000E+00  0.00000000000E+00  0.13185574014E+04  0.13185574014E+04  0.00000000000E+00 0.  1.
         -4   -1    0    0    0  501 -0.00000000000E+00 -0.00000000000E+00 -0.30035036491E+04  0.30035036491E+04  0.00000000000E+00 0. -1.
    9000010    2    1    2  502    0  0.10423009699E+04  0.66152871889E+03  0.44391383372E+03  0.16632689542E+04  0.10224444065E+04 0.  0.
   -9000010    2    1    2    0  501 -0.10423009699E+04 -0.66152871889E+03 -0.21288600815E+04  0.26587920963E+04  0.10065379312E+04 0.  0.
        -13    1    3    3    0    0  0.39087652250E+03  0.79461271214E+03  0.42405912507E+02  0.88656194974E+03  0.10566000000E+00 0.  1.
          4    1    3    3  502    0  0.65142444743E+03 -0.13308399326E+03  0.40150792121E+03  0.77670700445E+03  0.00000000000E+00 0.  1.
         13    1    4    4    0    0 -0.10888813435E+04 -0.86079982772E+03 -0.18677790571E+04  0.23270662949E+04  0.10566000000E+00 0. -1.
         -4    1    4    4    0  501  0.46580373546E+02  0.19927110883E+03 -0.26108102443E+03  0.33172580143E+03  0.00000000000E+00 0. -1.
<mgrwt>
<rscale>  2 0.15978786E+04</rscale>
<asrwt>0</asrwt>
<pdfrwt beam="1">  1        4 0.20285499E+00 0.15978786E+04</pdfrwt>
<pdfrwt beam="2">  1       -4 0.46207748E+00 0.15978786E+04</pdfrwt>
<totfact> 0.23749139E-02</totfact>
</mgrwt>
</event>
<event>
 8    1  0.1408247E-005  0.1222026E+04  0.7818608E-02  0.8590158E-01
          2   -1    0    0  502    0  0.00000000000E+00  0.00000000000E+00  0.16016174373E+04  0.16016174373E+04  0.00000000000E+00 0. -1.
         -2   -1    0    0    0  501 -0.00000000000E+00 -0.00000000000E+00 -0.11943900373E+04  0.11943900373E+04  0.00000000000E+00 0.  1.
    9000010    2    1    2  502    0  0.44864855001E+03  0.54210588791E+03 -0.45129147111E+03  0.13015868047E+04  0.99764718373E+03 0.  0.
   -9000010    2    1    2    0  501 -0.44864855001E+03 -0.54210588791E+03  0.85851887104E+03  0.14944206699E+04  0.10005369416E+04 0.  0.
        -13    1    3    3    0    0  0.55463883146E+03  0.19963099496E+03  0.14388572488E+03  0.60677827952E+03  0.10566000000E+00 0.  1.
          4    1    3    3  502    0 -0.10599028145E+03  0.34247489294E+03 -0.59517719600E+03  0.69480852520E+03  0.00000000000E+00 0.  1.
         13    1    4    4    0    0 -0.64194393163E+03 -0.41258752460E+03  0.18975716596E+03  0.78633852125E+03  0.10566000000E+00 0. -1.
         -4    1    4    4    0  501  0.19329538162E+03 -0.12951836331E+03  0.66876170508E+03  0.70808214860E+03  0.00000000000E+00 0. -1.
<mgrwt>
<rscale>  2 0.12220264E+04</rscale>
<asrwt>0</asrwt>
<pdfrwt beam="1">  1        2 0.24640268E+00 0.12220264E+04</pdfrwt>
<pdfrwt beam="2">  1       -2 0.18375231E+00 0.12220264E+04</pdfrwt>
<totfact> 0.23821665E+00</totfact>
</mgrwt>
</event>
<event>
 8    1  0.1408247E-005  0.2015350E+04  0.7818608E-02  0.8162171E-01
         -2   -1    0    0    0  501 -0.00000000000E+00  0.00000000000E+00  0.13187461528E+04  0.13187461528E+04  0.00000000000E+00 0. -1.
          2   -1    0    0  502    0  0.00000000000E+00 -0.00000000000E+00 -0.31146224768E+04  0.31146224768E+04  0.00000000000E+00 0.  1.
    9000010    2    1    2  502    0 -0.16663069508E+04 -0.51821700837E+03 -0.66780745528E+03  0.21310201133E+04  0.10247693419E+04 0.  0.
   -9000010    2    1    2    0  501  0.16663069508E+04  0.51821700837E+03 -0.11280688687E+04  0.23023485163E+04  0.99153496974E+03 0.  0.
        -13    1    3    3    0    0  0.10558983597E+03  0.13811378482E+02  0.82405851628E+02  0.13465029960E+03  0.10566000000E+00 0.  1.
          4    1    3    3  502    0 -0.17718967867E+04 -0.53202838685E+03 -0.75021330691E+03  0.19963698137E+04  0.00000000000E+00 0.  1.
         13    1    4    4    0    0  0.15623838582E+04  0.50627580103E+03 -0.13043916127E+04  0.20973306839E+04  0.10566000000E+00 0. -1.
         -4    1    4    4    0  501  0.10392309252E+03  0.11941207344E+02  0.17632274395E+03  0.20501783246E+03  0.00000000000E+00 0. -1.
<mgrwt>
<rscale>  2 0.20153502E+04</rscale>
<asrwt>0</asrwt>
<pdfrwt beam="2">  1        2 0.47917269E+00 0.20153502E+04</pdfrwt>
<pdfrwt beam="1">  1       -2 0.20288402E+00 0.20153502E+04</pdfrwt>
<totfact> 0.20792464E-01</totfact>
</mgrwt>
</event>
<event>
 8    1  0.1408247E-005  0.9873541E+03  0.7818608E-02  0.8786565E-01
          1   -1    0    0  502    0  0.00000000000E+00  0.00000000000E+00  0.34807029881E+03  0.34807029881E+03  0.00000000000E+00 0. -1.
         -1   -1    0    0    0  501 -0.00000000000E+00 -0.00000000000E+00 -0.35768996564E+04  0.35768996564E+04  0.00000000000E+00 0.  1.
    9000010    2    1    2  502    0  0.37448164910E+03 -0.29726224229E+01 -0.26213497384E+04  0.28329351937E+04  0.10068773602E+04 0.  0.
   -9000010    2    1    2    0  501 -0.37448164910E+03  0.29726224229E+01 -0.60747961923E+03  0.10920347616E+04  0.82659729659E+03 0.  0.
        -13    1    3    3    0    0 -0.14861298287E+03  0.31688612979E+03 -0.16311237567E+04  0.16682527862E+04  0.10566000000E+00 0.  1.
          4    1    3    3  502    0  0.52309463197E+03 -0.31985875221E+03 -0.99022598167E+03  0.11646824074E+04  0.00000000000E+00 0.  1.
         13    1    4    4    0    0  0.18627789351E+02  0.27302011864E+03 -0.54654826406E+03  0.61122990423E+03  0.10566000000E+00 0. -1.
         -4    1    4    4    0  501 -0.39310943845E+03 -0.27004749622E+03 -0.60931355175E+02  0.48080485735E+03  0.00000000000E+00 0. -1.
<mgrwt>
<rscale>  2 0.98735407E+03</rscale>
<asrwt>0</asrwt>
<pdfrwt beam="1">  1        1 0.53549277E-01 0.98735407E+03</pdfrwt>
<pdfrwt beam="2">  1       -1 0.55029225E+00 0.98735407E+03</pdfrwt>
<totfact> 0.60467174E-01</totfact>
</mgrwt>
</event>
<event>
 8    1  0.1408247E-005  0.1576328E+04  0.7818608E-02  0.8366878E-01
          2   -1    0    0  502    0  0.00000000000E+00  0.00000000000E+00  0.15676237516E+04  0.15676237516E+04  0.00000000000E+00 0. -1.
         -2   -1    0    0    0  501 -0.00000000000E+00 -0.00000000000E+00 -0.15874054637E+04  0.15874054637E+04  0.00000000000E+00 0.  1.
    9000010    2    1    2  502    0  0.11871535328E+04 -0.52390661712E+03 -0.23641978275E+02  0.16364686126E+04  0.99682441945E+03 0.  0.
   -9000010    2    1    2    0  501 -0.11871535328E+04  0.52390661712E+03  0.38602661188E+01  0.15185606026E+04  0.78879639225E+03 0.  0.
        -13    1    3    3    0    0  0.90329070091E+03 -0.81736213190E+03 -0.95389043818E+02  0.12219304505E+04  0.10566000000E+00 0.  1.
          4    1    3    3  502    0  0.28386283185E+03  0.29345551478E+03  0.71747065543E+02  0.41453816215E+03  0.00000000000E+00 0.  1.
         13    1    4    4    0    0 -0.16651440160E+03 -0.14577743638E+03  0.17989689014E+03  0.28520345219E+03  0.10566000000E+00 0. -1.
         -4    1    4    4    0  501 -0.10206391312E+04  0.66968405350E+03 -0.17603662402E+03  0.12333571505E+04  0.00000000000E+00 0. -1.
<mgrwt>
<rscale>  2 0.15763278E+04</rscale>
<asrwt>0</asrwt>
<pdfrwt beam="1">  1        2 0.24117288E+00 0.15763278E+04</pdfrwt>
<pdfrwt beam="2">  1       -2 0.24421623E+00 0.15763278E+04</pdfrwt>
<totfact> 0.77047884E-01</totfact>
</mgrwt>
</event>
<event>
 8    1  0.1408247E-005  0.1404741E+04  0.7818608E-02  0.8466522E-01
          1   -1    0    0  502    0  0.00000000000E+00  0.00000000000E+00  0.12905912377E+04  0.12905912377E+04  0.00000000000E+00 0. -1.
         -1   -1    0    0    0  501 -0.00000000000E+00 -0.00000000000E+00 -0.15797582214E+04  0.15797582214E+04  0.00000000000E+00 0.  1.
    9000010    2    1    2  502    0  0.94977683539E+03  0.31830088072E+03 -0.40125010874E+03  0.14555568160E+04  0.97685848881E+03 0.  0.
   -9000010    2    1    2    0  501 -0.94977683539E+03 -0.31830088072E+03  0.11208312505E+03  0.14147926431E+04  0.99281625110E+03 0.  0.
        -13    1    3    3    0    0  0.38313220550E+03 -0.11997250798E+03  0.26191848888E+03  0.47935894228E+03  0.10566000000E+00 0.  1.
          4    1    3    3  502    0  0.56664462989E+03  0.43827338870E+03 -0.66316859762E+03  0.97619787374E+03  0.00000000000E+00 0.  1.
         13    1    4    4    0    0 -0.44187801263E+03 -0.42593721006E+03  0.47942616374E+03  0.77879916705E+03  0.10566000000E+00 0. -1.
         -4    1    4    4    0  501 -0.50789882276E+03  0.10763632934E+03 -0.36734303869E+03  0.63599347609E+03  0.00000000000E+00 0. -1.
<mgrwt>
<rscale>  2 0.14047410E+04</rscale>
<asrwt>0</asrwt>
<pdfrwt beam="1">  1        1 0.19855250E+00 0.14047410E+04</pdfrwt>
<pdfrwt beam="2">  1       -1 0.24303973E+00 0.14047410E+04</pdfrwt>
<totfact> 0.65483942E-01</totfact>
</mgrwt>
</event>
<event>
 8    1  0.1408247E-005  0.1287146E+04  0.7818608E-02  0.8543678E-01
          2   -1    0    0  502    0  0.00000000000E+00  0.00000000000E+00  0.31836910608E+04  0.31836910608E+04  0.00000000000E+00 0.  1.
         -2   -1    0    0    0  501 -0.00000000000E+00 -0.00000000000E+00 -0.58805846991E+03  0.58805846991E+03  0.00000000000E+00 0. -1.
    9000010    2    1    2  502    0 -0.26960116870E+03  0.74906023942E+03  0.66674643447E+03  0.14581124922E+04  0.10236040247E+04 0.  0.
   -9000010    2    1    2    0  501  0.26960116870E+03 -0.74906023942E+03  0.19288861564E+04  0.23136370385E+04  0.99926898746E+03 0.  0.
        -13    1    3    3    0    0  0.31379244756E+03  0.28206546793E+03  0.56315498527E+03  0.70368329306E+03  0.10566000000E+00 0.  1.
          4    1    3    3  502    0 -0.58339361626E+03  0.46699477149E+03  0.10359144921E+03  0.75442919909E+03  0.00000000000E+00 0.  1.
         13    1    4    4    0    0  0.40346593375E+03 -0.57639477531E+03  0.19695150650E+04  0.20914122739E+04  0.10566000000E+00 0. -1.
         -4    1    4    4    0  501 -0.13386476505E+03 -0.17266546411E+03 -0.40628908632E+02  0.22222476467E+03  0.00000000000E+00 0. -1.
<mgrwt>
<rscale>  2 0.12871461E+04</rscale>
<asrwt>0</asrwt>
<pdfrwt beam="1">  1        2 0.48979862E+00 0.12871461E+04</pdfrwt>
<pdfrwt beam="2">  1       -2 0.90470535E-01 0.12871461E+04</pdfrwt>
<totfact> 0.21641761E+00</totfact>
</mgrwt>
</event>
<event>
 8    1  0.1408247E-005  0.1154266E+04  0.7818608E-02  0.8641820E-01
         -2   -1    0    0    0  501 -0.00000000000E+00  0.00000000000E+00  0.91383263155E+03  0.91383263155E+03  0.00000000000E+00 0.  1.
          2   -1    0    0  502    0  0.00000000000E+00 -0.00000000000E+00 -0.14729761649E+04  0.14729761649E+04  0.00000000000E+00 0. -1.
    9000010    2    1    2  502    0 -0.56619802351E+03 -0.13032024471E+03 -0.40056824830E+03  0.12238513113E+04  0.99989676600E+03 0.  0.
   -9000010    2    1    2    0  501  0.56619802351E+03  0.13032024471E+03 -0.15857528502E+03  0.11629574851E+04  0.99486703791E+03 0.  0.
        -13    1    3    3    0    0  0.26734184767E+03  0.45884238936E+02 -0.22854595815E+03  0.35469746693E+03  0.10566000000E+00 0.  1.
          4    1    3    3  502    0 -0.83353987118E+03 -0.17620448365E+03 -0.17202229015E+03  0.86915384438E+03  0.00000000000E+00 0.  1.
         13    1    4    4    0    0 -0.26976398623E+03 -0.81219361777E+02  0.19688377532E+02  0.28241252870E+03  0.10566000000E+00 0. -1.
         -4    1    4    4    0  501  0.83596200974E+03  0.21153960649E+03 -0.17826366255E+03  0.88054495639E+03  0.00000000000E+00 0. -1.
<mgrwt>
<rscale>  2 0.11542665E+04</rscale>
<asrwt>0</asrwt>
<pdfrwt beam="2">  1        2 0.22661172E+00 0.11542665E+04</pdfrwt>
<pdfrwt beam="1">  1       -2 0.14058964E+00 0.11542665E+04</pdfrwt>
<totfact> 0.66335305E+00</totfact>
</mgrwt>
</event>
<event>
 8    1  0.1408247E-005  0.1156548E+04  0.7818608E-02  0.8640021E-01
          2   -1    0    0  502    0  0.00000000000E+00  0.00000000000E+00  0.12077689924E+04  0.12077689924E+04  0.00000000000E+00 0. -1.
         -2   -1    0    0    0  501 -0.00000000000E+00 -0.00000000000E+00 -0.12458203302E+04  0.12458203302E+04  0.00000000000E+00 0.  1.
    9000010    2    1    2  502    0 -0.57844646777E+03  0.44908867190E+02  0.38978691820E+03  0.12170808844E+04  0.99636083581E+03 0.  0.
   -9000010    2    1    2    0  501  0.57844646777E+03 -0.44908867190E+02 -0.42783825593E+03  0.12365084382E+04  0.10046344719E+04 0.  0.
        -13    1    3    3    0    0 -0.66539850475E+03 -0.33673440311E+03  0.15842458145E+03  0.76239332863E+03  0.10566000000E+00 0.  1.
          4    1    3    3  502    0  0.86952036986E+02  0.38164327030E+03  0.23136233675E+03  0.45468755577E+03  0.00000000000E+00 0.  1.
         13    1    4    4    0    0  0.11580468260E+03  0.18755995412E+02 -0.69071238684E+03  0.70060411387E+03  0.10566000000E+00 0. -1.
         -4    1    4    4    0  501  0.46264178517E+03 -0.63664862603E+02  0.26287413091E+03  0.53590432431E+03  0.00000000000E+00 0. -1.
<mgrwt>
<rscale>  2 0.11565484E+04</rscale>
<asrwt>0</asrwt>
<pdfrwt beam="1">  1        2 0.18581061E+00 0.11565484E+04</pdfrwt>
<pdfrwt beam="2">  1       -2 0.19166467E+00 0.11565484E+04</pdfrwt>
<totfact> 0.34084320E+00</totfact>
</mgrwt>
</event>
<event>
 8    1  0.1408247E-005  0.1116453E+04  0.7818608E-02  0.8672279E-01
         -1   -1    0    0    0  501 -0.00000000000E+00  0.00000000000E+00  0.76146825090E+03  0.76146825090E+03  0.00000000000E+00 0.  1.
          1   -1    0    0  502    0  0.00000000000E+00 -0.00000000000E+00 -0.16584390498E+04  0.16584390498E+04  0.00000000000E+00 0. -1.
    9000010    2    1    2  502    0  0.13298217757E+03 -0.53088637514E+03 -0.59309856240E+03  0.12845858569E+04  0.99943499851E+03 0.  0.
   -9000010    2    1    2    0  501 -0.13298217757E+03  0.53088637514E+03 -0.30387223646E+03  0.11353214437E+04  0.94714932382E+03 0.  0.
        -13    1    3    3    0    0  0.31947688915E+03 -0.77104258949E+03 -0.41326148840E+03  0.93132015251E+03  0.10566000000E+00 0.  1.
          4    1    3    3  502    0 -0.18649471157E+03  0.24015621436E+03 -0.17983707399E+03  0.35326570442E+03  0.00000000000E+00 0.  1.
         13    1    4    4    0    0 -0.39222782328E+03  0.68528244407E+03 -0.25433823565E+03  0.82954363524E+03  0.10566000000E+00 0. -1.
         -4    1    4    4    0  501  0.25924564571E+03 -0.15439606893E+03 -0.49534000811E+02  0.30577780847E+03  0.00000000000E+00 0. -1.
<mgrwt>
<rscale>  2 0.11164530E+04</rscale>
<asrwt>0</asrwt>
<pdfrwt beam="2">  1        1 0.25514446E+00 0.11164530E+04</pdfrwt>
<pdfrwt beam="1">  1       -1 0.11714896E+00 0.11164530E+04</pdfrwt>
<totfact> 0.48068589E+00</totfact>
</mgrwt>
</event>
<event>
 8    1  0.1408247E-005  0.1186534E+04  0.7818608E-02  0.8616772E-01
          2   -1    0    0  502    0  0.00000000000E+00  0.00000000000E+00  0.24437241509E+04  0.24437241509E+04  0.00000000000E+00 0. -1.
         -2   -1    0    0    0  501 -0.00000000000E+00 -0.00000000000E+00 -0.61501554892E+03  0.61501554892E+03  0.00000000000E+00 0.  1.
    9000010    2    1    2  502    0 -0.60410534650E+03 -0.21731068250E+03  0.52727137340E+03  0.12952927256E+04  0.99378113350E+03 0.  0.
   -9000010    2    1    2    0  501  0.60410534650E+03  0.21731068250E+03  0.13014372286E+04  0.17634469743E+04  0.10019177455E+04 0.  0.
        -13    1    3    3    0    0 -0.64769967296E+03 -0.10955032871E+03  0.77841513273E+03  0.10185510645E+04  0.10566000000E+00 0.  1.
          4    1    3    3  502    0  0.43594326452E+02 -0.10776035379E+03 -0.25114375933E+03  0.27674166112E+03  0.00000000000E+00 0.  1.
         13    1    4    4    0    0  0.30271288771E+03 -0.52149854697E+02  0.13233852491E+04  0.13585666081E+04  0.10566000000E+00 0. -1.
         -4    1    4    4    0  501  0.30139245880E+03  0.26946053720E+03 -0.21948020556E+02  0.40488036620E+03  0.00000000000E+00 0. -1.
<mgrwt>
<rscale>  2 0.11865344E+04</rscale>
<asrwt>0</asrwt>
<pdfrwt beam="1">  1        2 0.37595756E+00 0.11865344E+04</pdfrwt>
<pdfrwt beam="2">  1       -2 0.94617778E-01 0.11865344E+04</pdfrwt>
<totfact> 0.54589832E+00</totfact>
</mgrwt>
</event>
<event>
 8    1  0.1408247E-005  0.1232239E+04  0.7818608E-02  0.8582673E-01
         -2   -1    0    0    0  501 -0.00000000000E+00  0.00000000000E+00  0.42765694335E+03  0.42765694335E+03  0.00000000000E+00 0. -1.
          2   -1    0    0  502    0  0.00000000000E+00 -0.00000000000E+00 -0.35800377476E+04  0.35800377476E+04  0.00000000000E+00 0.  1.
    9000010    2    1    2  502    0 -0.58700747858E+03  0.40059318803E+03 -0.17465341655E+04  0.21325038946E+04  0.99606153781E+03 0.  0.
   -9000010    2    1    2    0  501  0.58700747858E+03 -0.40059318803E+03 -0.14058466388E+04  0.18751907963E+04  0.10172920273E+04 0.  0.
        -13    1    3    3    0    0 -0.64108769898E+02  0.64342127601E+03 -0.95241490567E+03  0.11511711586E+04  0.10566000000E+00 0.  1.
          4    1    3    3  502    0 -0.52289870868E+03 -0.24282808798E+03 -0.79411925984E+03  0.98133273598E+03  0.00000000000E+00 0.  1.
         13    1    4    4    0    0 -0.21845587208E+03 -0.33601819620E+03 -0.67835939573E+03  0.78791032305E+03  0.10566000000E+00 0. -1.
         -4    1    4    4    0  501  0.80546335067E+03 -0.64574991832E+02 -0.72748724303E+03  0.10872804733E+04  0.00000000000E+00 0. -1.
<mgrwt>
<rscale>  2 0.12322391E+04</rscale>
<asrwt>0</asrwt>
<pdfrwt beam="2">  1        2 0.55077501E+00 0.12322391E+04</pdfrwt>
<pdfrwt beam="1">  1       -2 0.65793379E-01 0.12322391E+04</pdfrwt>
<totfact> 0.22986651E+00</totfact>
</mgrwt>
</event>
<event>
 8    1  0.1408247E-005  0.1154577E+04  0.7818608E-02  0.8641575E-01
         -2   -1    0    0    0  501 -0.00000000000E+00  0.00000000000E+00  0.54058661238E+03  0.54058661238E+03  0.00000000000E+00 0.  1.
          2   -1    0    0  502    0  0.00000000000E+00 -0.00000000000E+00 -0.36996082504E+04  0.36996082504E+04  0.00000000000E+00 0. -1.
    9000010    2    1    2  502    0  0.12451177416E+03 -0.55105900115E+03 -0.28094981691E+04  0.30399006421E+04  0.10141729376E+04 0.  0.
   -9000010    2    1    2    0  501 -0.12451177416E+03  0.55105900115E+03 -0.34952346891E+03  0.12002942206E+04  0.99968512846E+03 0.  0.
        -13    1    3    3    0    0 -0.20035983569E+03 -0.70981754367E+02 -0.47598356373E+02  0.21782582010E+03  0.10566000000E+00 0.  1.
          4    1    3    3  502    0  0.32487160985E+03 -0.48007724678E+03 -0.27618998127E+04  0.28220748220E+04  0.00000000000E+00 0.  1.
         13    1    4    4    0    0  0.34367370645E+03  0.42680708392E+03 -0.44582125401E+03  0.70642232771E+03  0.10566000000E+00 0. -1.
         -4    1    4    4    0  501 -0.46818548061E+03  0.12425191723E+03  0.96297785103E+02  0.49387189291E+03  0.00000000000E+00 0. -1.
<mgrwt>
<rscale>  2 0.11545770E+04</rscale>
<asrwt>0</asrwt>
<pdfrwt beam="2">  1        2 0.56917052E+00 0.11545770E+04</pdfrwt>
<pdfrwt beam="1">  1       -2 0.83167169E-01 0.11545770E+04</pdfrwt>
<totfact> 0.11304756E+00</totfact>
</mgrwt>
</event>
<event>
 8    1  0.1408247E-005  0.1082581E+04  0.7818608E-02  0.8700650E-01
         -1   -1    0    0    0  501 -0.00000000000E+00  0.00000000000E+00  0.52578931250E+03  0.52578931250E+03  0.00000000000E+00 0. -1.
          1   -1    0    0  502    0  0.00000000000E+00 -0.00000000000E+00 -0.25360679505E+04  0.25360679505E+04  0.00000000000E+00 0.  1.
    9000010    2    1    2  502    0  0.16451950415E+03  0.38918805482E+03 -0.15323472893E+04  0.18723674326E+04  0.98951380913E+03 0.  0.
   -9000010    2    1    2    0  501 -0.16451950415E+03 -0.38918805482E+03 -0.47793134875E+03  0.11894898304E+04  0.10039589998E+04 0.  0.
        -13    1    3    3    0    0  0.22947900167E+03  0.43005842844E+03 -0.16563212726E+04  0.17265604633E+04  0.10566000000E+00 0.  1.
          4    1    3    3  502    0 -0.64959497524E+02 -0.40870373621E+02  0.12397398334E+03  0.14580696932E+03  0.00000000000E+00 0.  1.
         13    1    4    4    0    0  0.36874415718E+03 -0.91521126939E+02 -0.43457103533E+03  0.57723510465E+03  0.10566000000E+00 0. -1.
         -4    1    4    4    0  501 -0.53326366133E+03 -0.29766692788E+03 -0.43360313418E+02  0.61225472577E+03  0.00000000000E+00 0. -1.
<mgrwt>
<rscale>  2 0.10825808E+04</rscale>
<asrwt>0</asrwt>
<pdfrwt beam="2">  1        1 0.39016431E+00 0.10825808E+04</pdfrwt>
<pdfrwt beam="1">  1       -1 0.80890662E-01 0.10825808E+04</pdfrwt>
<totfact> 0.21312938E+00</totfact>
</mgrwt>
</event>
<event>
 8    1  0.1408247E-005  0.1868251E+04  0.7818608E-02  0.8224249E-01
          1   -1    0    0  502    0  0.00000000000E+00  0.00000000000E+00  0.12680603324E+04  0.12680603324E+04  0.00000000000E+00 0. -1.
         -1   -1    0    0    0  501 -0.00000000000E+00 -0.00000000000E+00 -0.33439855567E+04  0.33439855567E+04  0.00000000000E+00 0.  1.
    9000010    2    1    2  502    0 -0.74937795299E+03  0.13880455853E+04 -0.69048540870E+02  0.18715266636E+04  0.10047917636E+04 0.  0.
   -9000010    2    1    2    0  501  0.74937795299E+03 -0.13880455853E+04 -0.20068766835E+04  0.27405192255E+04  0.99732328724E+03 0.  0.
        -13    1    3    3    0    0 -0.58548821098E+03  0.12444898752E+04  0.33224945340E+03  0.14148997156E+04  0.10566000000E+00 0.  1.
          4    1    3    3  502    0 -0.16388974201E+03  0.14355571012E+03 -0.40129799427E+03  0.45662694801E+03  0.00000000000E+00 0.  1.
         13    1    4    4    0    0  0.19171758523E+03 -0.49786302426E+03 -0.71255084076E+02  0.53823835016E+03  0.10566000000E+00 0. -1.
         -4    1    4    4    0  501  0.55766036777E+03 -0.89018256107E+03 -0.19356215994E+04  0.22022808754E+04  0.00000000000E+00 0. -1.
<mgrwt>
<rscale>  2 0.18682505E+04</rscale>
<asrwt>0</asrwt>
<pdfrwt beam="1">  1        1 0.19508620E+00 0.18682505E+04</pdfrwt>
<pdfrwt beam="2">  1       -1 0.51445932E+00 0.18682505E+04</pdfrwt>
<totfact> 0.97410055E-02</totfact>
</mgrwt>
</event>
<event>
 8    1  0.1408247E-005  0.1230637E+04  0.7818608E-02  0.8583842E-01
          1   -1    0    0  502    0  0.00000000000E+00  0.00000000000E+00  0.20812170170E+04  0.20812170170E+04  0.00000000000E+00 0. -1.
         -1   -1    0    0    0  501 -0.00000000000E+00 -0.00000000000E+00 -0.72769753141E+03  0.72769753141E+03  0.00000000000E+00 0.  1.
    9000010    2    1    2  502    0 -0.71360030831E+03 -0.11682252434E+03  0.67611948920E+03  0.14082246191E+04  0.10015418673E+04 0.  0.
   -9000010    2    1    2    0  501  0.71360030831E+03  0.11682252434E+03  0.67739999638E+03  0.14006899293E+04  0.99004475690E+03 0.  0.
        -13    1    3    3    0    0 -0.46297595521E+02  0.32436054509E+03  0.48575329511E+03  0.58592619452E+03  0.10566000000E+00 0.  1.
          4    1    3    3  502    0 -0.66730271279E+03 -0.44118306943E+03  0.19036619410E+03  0.82229842460E+03  0.00000000000E+00 0.  1.
         13    1    4    4    0    0  0.83000406271E+02  0.30637254791E+03 -0.14348560625E+03  0.34834083298E+03  0.10566000000E+00 0. -1.
         -4    1    4    4    0  501  0.63059990203E+03 -0.18955002357E+03  0.82088560262E+03  0.10523490963E+04  0.00000000000E+00 0. -1.
<mgrwt>
<rscale>  2 0.12306368E+04</rscale>
<asrwt>0</asrwt>
<pdfrwt beam="1">  1        1 0.32018723E+00 0.12306368E+04</pdfrwt>
<pdfrwt beam="2">  1       -1 0.11195347E+00 0.12306368E+04</pdfrwt>
<totfact> 0.25316078E+00</totfact>
</mgrwt>
</event>
<event>
 8    1  0.1408247E-005  0.1315420E+04  0.7818608E-02  0.8524373E-01
         -1   -1    0    0    0  501 -0.00000000000E+00  0.00000000000E+00  0.10232738341E+04  0.10232738341E+04  0.00000000000E+00 0. -1.
          1   -1    0    0  502    0  0.00000000000E+00 -0.00000000000E+00 -0.19809208202E+04  0.19809208202E+04  0.00000000000E+00 0.  1.
    9000010    2    1    2  502    0 -0.79835693139E+03  0.31709536615E+03  0.96696305382E+02  0.13162373558E+04  0.99257611301E+03 0.  0.
   -9000010    2    1    2    0  501  0.79835693139E+03 -0.31709536615E+03 -0.10543432916E+04  0.16879572985E+04  0.99981838552E+03 0.  0.
        -13    1    3    3    0    0 -0.43207390563E+03  0.29052977185E+02 -0.43187602665E+03  0.61159533106E+03  0.10566000000E+00 0.  1.
          4    1    3    3  502    0 -0.36628302576E+03  0.28804238896E+03  0.52857233203E+03  0.70464202471E+03  0.00000000000E+00 0.  1.
         13    1    4    4    0    0  0.99679796118E+03 -0.41417412590E+03 -0.76088229491E+03  0.13206393375E+04  0.10566000000E+00 0. -1.
         -4    1    4    4    0  501 -0.19844102979E+03  0.97078759754E+02 -0.29346099667E+03  0.36731796099E+03  0.00000000000E+00 0. -1.
<mgrwt>
<rscale>  2 0.13154202E+04</rscale>
<asrwt>0</asrwt>
<pdfrwt beam="2">  1        1 0.30475705E+00 0.13154202E+04</pdfrwt>
<pdfrwt beam="1">  1       -1 0.15742674E+00 0.13154202E+04</pdfrwt>
<totfact> 0.11927150E+00</totfact>
</mgrwt>
</event>
<event>
 8    1  0.1408247E-005  0.1308376E+04  0.7818608E-02  0.8529136E-01
         -1   -1    0    0    0  501 -0.00000000000E+00  0.00000000000E+00  0.33825675760E+04  0.33825675760E+04  0.00000000000E+00 0.  1.
          1   -1    0    0  502    0  0.00000000000E+00 -0.00000000000E+00 -0.54156624393E+03  0.54156624393E+03  0.00000000000E+00 0. -1.
    9000010    2    1    2  502    0 -0.18172698680E+03 -0.81603810271E+03  0.19166026034E+04  0.23172445379E+04  0.99865601001E+03 0.  0.
   -9000010    2    1    2    0  501  0.18172698680E+03  0.81603810271E+03  0.92439872864E+03  0.16068892820E+04  0.10142175665E+04 0.  0.
        -13    1    3    3    0    0 -0.53581089632E+03 -0.21189384186E+03  0.10979373819E+04  0.12399430723E+04  0.10566000000E+00 0.  1.
          4    1    3    3  502    0  0.35408390951E+03 -0.60414426085E+03  0.81866522147E+03  0.10773014656E+04  0.00000000000E+00 0.  1.
         13    1    4    4    0    0  0.54213585961E+03  0.36459792166E+03  0.76826187570E+03  0.10084985154E+04  0.10566000000E+00 0. -1.
         -4    1    4    4    0  501 -0.36040887281E+03  0.45144018105E+03  0.15613685294E+03  0.59839076657E+03  0.00000000000E+00 0. -1.
<mgrwt>
<rscale>  2 0.13083756E+04</rscale>
<asrwt>0</asrwt>
<pdfrwt beam="2">  1        1 0.83317886E-01 0.13083756E+04</pdfrwt>
<pdfrwt beam="1">  1       -1 0.52039500E+00 0.13083756E+04</pdfrwt>
<totfact> 0.43605602E-01</totfact>
</mgrwt>
</event>
<event>
 8    1  0.1408247E-005  0.1041527E+04  0.7818608E-02  0.8736522E-01
         -1   -1    0    0    0  501 -0.00000000000E+00  0.00000000000E+00  0.50873026493E+03  0.50873026493E+03  0.00000000000E+00 0. -1.
          1   -1    0    0  502    0  0.00000000000E+00 -0.00000000000E+00 -0.21387195905E+04  0.21387195905E+04  0.00000000000E+00 0.  1.
    9000010    2    1    2  502    0 -0.44957887173E+02  0.33171863658E+03 -0.76048613721E+03  0.13044033055E+04  0.10055199416E+04 0.  0.
   -9000010    2    1    2    0  501  0.44957887173E+02 -0.33171863658E+03 -0.86950318839E+03  0.13430465499E+04  0.96730541983E+03 0.  0.
        -13    1    3    3    0    0  0.73073093526E+02  0.45471776475E+03 -0.94618820166E+03  0.10523212659E+04  0.10566000000E+00 0.  1.
          4    1    3    3  502    0 -0.11803098070E+03 -0.12299912818E+03  0.18570206445E+03  0.25208203958E+03  0.00000000000E+00 0.  1.
         13    1    4    4    0    0 -0.40075283806E+03  0.38331794630E+02 -0.17587219223E+03  0.43932129797E+03  0.10566000000E+00 0. -1.
         -4    1    4    4    0  501  0.44571072523E+03 -0.37005043121E+03 -0.69363099616E+03  0.90372525198E+03  0.00000000000E+00 0. -1.
<mgrwt>
<rscale>  2 0.10415271E+04</rscale>
<asrwt>0</asrwt>
<pdfrwt beam="2">  1        1 0.32903379E+00 0.10415271E+04</pdfrwt>
<pdfrwt beam="1">  1       -1 0.78266194E-01 0.10415271E+04</pdfrwt>
<totfact> 0.49734461E+00</totfact>
</mgrwt>
</event>
<event>
 8    1  0.1408247E-005  0.1212568E+04  0.7818608E-02  0.8597158E-01
          2   -1    0    0  502    0  0.00000000000E+00  0.00000000000E+00  0.59106537374E+04  0.59106537374E+04  0.00000000000E+00 0.  1.
         -2   -1    0    0    0  501 -0.00000000000E+00 -0.00000000000E+00 -0.24876322891E+03  0.24876322891E+03  0.00000000000E+00 0. -1.
    9000010    2    1    2  502    0 -0.65383222092E+03  0.20850712629E+03  0.28146200221E+04  0.30643616261E+04  0.99862631233E+03 0.  0.
   -9000010    2    1    2    0  501  0.65383222092E+03 -0.20850712629E+03  0.28472704864E+04  0.30950553402E+04  0.10007230095E+04 0.  0.
        -13    1    3    3    0    0 -0.71180896525E+03  0.46035893284E+03  0.25786060608E+04  0.27143713044E+04  0.10566000000E+00 0.  1.
          4    1    3    3  502    0  0.57976744331E+02 -0.25185180655E+03  0.23601396129E+03  0.34999032168E+03  0.00000000000E+00 0.  1.
         13    1    4    4    0    0  0.52102528755E+03 -0.40025027052E+03  0.80305594324E+03  0.10375772205E+04  0.10566000000E+00 0. -1.
         -4    1    4    4    0  501  0.13280693337E+03  0.19174314422E+03  0.20442145432E+04  0.20574781198E+04  0.00000000000E+00 0. -1.
<mgrwt>
<rscale>  2 0.12125679E+04</rscale>
<asrwt>0</asrwt>
<pdfrwt beam="1">  1        2 0.90933123E+00 0.12125679E+04</pdfrwt>
<pdfrwt beam="2">  1       -2 0.38271271E-01 0.12125679E+04</pdfrwt>
<totfact> 0.33440109E-02</totfact>
</mgrwt>
</event>
<event>
 8    1  0.1408247E-005  0.1082328E+04  0.7818608E-02  0.8700865E-01
         -1   -1    0    0    0  501 -0.00000000000E+00  0.00000000000E+00  0.15124218831E+04  0.15124218831E+04  0.00000000000E+00 0.  1.
          1   -1    0    0  502    0  0.00000000000E+00 -0.00000000000E+00 -0.97554491950E+03  0.97554491950E+03  0.00000000000E+00 0. -1.
    9000010    2    1    2  502    0  0.32668355694E+03  0.25475310340E+03  0.83146094179E+03  0.13585281041E+04  0.99128705321E+03 0.  0.
   -9000010    2    1    2    0  501 -0.32668355694E+03 -0.25475310340E+03 -0.29458397817E+03  0.11294386985E+04  0.10085785856E+04 0.  0.
        -13    1    3    3    0    0  0.30076088305E+03  0.23284978490E+03 -0.12582971889E+03  0.40063606980E+03  0.10566000000E+00 0.  1.
          4    1    3    3  502    0  0.25922673888E+02  0.21903318493E+02  0.95729066068E+03  0.95789203432E+03  0.00000000000E+00 0.  1.
         13    1    4    4    0    0 -0.28301314064E+03 -0.56063535284E+03 -0.46046740243E+03  0.77874172643E+03  0.10566000000E+00 0. -1.
         -4    1    4    4    0  501 -0.43670416301E+02  0.30588224944E+03  0.16588342425E+03  0.35069697208E+03  0.00000000000E+00 0. -1.
<mgrwt>
<rscale>  2 0.10823281E+04</rscale>
<asrwt>0</asrwt>
<pdfrwt beam="2">  1        1 0.15008383E+00 0.10823281E+04</pdfrwt>
<pdfrwt beam="1">  1       -1 0.23268029E+00 0.10823281E+04</pdfrwt>
<totfact> 0.15148531E+00</totfact>
</mgrwt>
</event>
<event>
 8    1  0.1408247E-005  0.1203207E+04  0.7818608E-02  0.8604151E-01
         -1   -1    0    0    0  501 -0.00000000000E+00  0.00000000000E+00  0.11355639920E+04  0.11355639920E+04  0.00000000000E+00 0. -1.
          1   -1    0    0  502    0  0.00000000000E+00 -0.00000000000E+00 -0.12872261059E+04  0.12872261059E+04  0.00000000000E+00 0.  1.
    9000010    2    1    2  502    0  0.19171379876E+03 -0.65025335105E+03 -0.19320102468E+03  0.12073856508E+04  0.98023970165E+03 0.  0.
   -9000010    2    1    2    0  501 -0.19171379876E+03  0.65025335105E+03  0.41538910695E+02  0.12154044471E+04  0.10079180957E+04 0.  0.
        -13    1    3    3    0    0  0.28599228506E+03  0.18679917961E+03 -0.11921323107E+03  0.36179735522E+03  0.10566000000E+00 0.  1.
          4    1    3    3  502    0 -0.94278486299E+02 -0.83705253066E+03 -0.73987793612E+02  0.84558829561E+03  0.00000000000E+00 0.  1.
         13    1    4    4    0    0 -0.28713097696E+03  0.21521497496E+03 -0.43449016699E+03  0.56350989322E+03  0.10566000000E+00 0. -1.
         -4    1    4    4    0  501  0.95417178200E+02  0.43503837609E+03  0.47602907768E+03  0.65189455387E+03  0.00000000000E+00 0. -1.
<mgrwt>
<rscale>  2 0.12032068E+04</rscale>
<asrwt>0</asrwt>
<pdfrwt beam="2">  1        1 0.19803479E+00 0.12032068E+04</pdfrwt>
<pdfrwt beam="1">  1       -1 0.17470215E+00 0.12032068E+04</pdfrwt>
<totfact> 0.28313144E+00</totfact>
</mgrwt>
</event>
<event>
 8    1  0.1408247E-005  0.1338266E+04  0.7818608E-02  0.8509136E-01
          2   -1    0    0  502    0  0.00000000000E+00  0.00000000000E+00  0.25961501585E+04  0.25961501585E+04  0.00000000000E+00 0. -1.
         -2   -1    0    0    0  501 -0.00000000000E+00 -0.00000000000E+00 -0.69642653087E+03  0.69642653087E+03  0.00000000000E+00 0.  1.
    9000010    2    1    2  502    0 -0.86567536985E+03 -0.23921020383E+03  0.78207545447E+03  0.15396458555E+04  0.97583399021E+03 0.  0.
   -9000010    2    1    2    0  501  0.86567536985E+03  0.23921020383E+03  0.11176481732E+04  0.17529308338E+04  0.10084709721E+04 0.  0.
        -13    1    3    3    0    0 -0.65270450516E+03 -0.56878381656E+03  0.29602452868E+03  0.91496925291E+03  0.10566000000E+00 0.  1.
          4    1    3    3  502    0 -0.21297086469E+03  0.32957361273E+03  0.48605092579E+03  0.62467660263E+03  0.00000000000E+00 0.  1.
         13    1    4    4    0    0  0.71445784395E+03 -0.23407651506E+02  0.13872895208E+03  0.72817831761E+03  0.10566000000E+00 0. -1.
         -4    1    4    4    0  501  0.15121752590E+03  0.26261785534E+03  0.97891922108E+03  0.10247525162E+04  0.00000000000E+00 0. -1.
<mgrwt>
<rscale>  2 0.13382659E+04</rscale>
<asrwt>0</asrwt>
<pdfrwt beam="1">  1        2 0.39940771E+00 0.13382659E+04</pdfrwt>
<pdfrwt beam="2">  1       -2 0.10714254E+00 0.13382659E+04</pdfrwt>
<totfact> 0.32597526E+00</totfact>
</mgrwt>
</event>
<event>
 8    1  0.1408247E-005  0.1586847E+04  0.7818608E-02  0.8361200E-01
         -2   -1    0    0    0  501 -0.00000000000E+00  0.00000000000E+00  0.20232282466E+04  0.20232282466E+04  0.00000000000E+00 0.  1.
          2   -1    0    0  502    0  0.00000000000E+00 -0.00000000000E+00 -0.12497519132E+04  0.12497519132E+04  0.00000000000E+00 0. -1.
    9000010    2    1    2  502    0  0.42630830098E+03  0.11691466702E+04  0.28778951545E+03  0.16310809683E+04  0.10143764667E+04 0.  0.
   -9000010    2    1    2    0  501 -0.42630830098E+03 -0.11691466702E+04  0.48568681797E+03  0.16418991915E+04  0.95461959223E+03 0.  0.
        -13    1    3    3    0    0 -0.22222588470E+03 -0.41938481177E+02 -0.59625773170E+01  0.22622719449E+03  0.10566000000E+00 0.  1.
          4    1    3    3  502    0  0.64853418567E+03  0.12110851514E+04  0.29375209277E+03  0.14048537739E+04  0.00000000000E+00 0.  1.
         13    1    4    4    0    0 -0.64388447398E+02 -0.10283827143E+03  0.50126107664E+03  0.51573661917E+03  0.10566000000E+00 0. -1.
         -4    1    4    4    0  501 -0.36191985358E+03 -0.10663083988E+04 -0.15574258675E+02  0.11261625723E+04  0.00000000000E+00 0. -1.
<mgrwt>
<rscale>  2 0.15868474E+04</rscale>
<asrwt>0</asrwt>
<pdfrwt beam="2">  1        2 0.19226953E+00 0.15868474E+04</pdfrwt>
<pdfrwt beam="1">  1       -2 0.31126588E+00 0.15868474E+04</pdfrwt>
<totfact> 0.37639750E-01</totfact>
</mgrwt>
</event>
<event>
 8    1  0.1408247E-005  0.1420838E+04  0.7818608E-02  0.8456566E-01
         -1   -1    0    0    0  501 -0.00000000000E+00  0.00000000000E+00  0.11624749651E+04  0.11624749651E+04  0.00000000000E+00 0. -1.
          1   -1    0    0  502    0  0.00000000000E+00 -0.00000000000E+00 -0.19496495717E+04  0.19496495717E+04  0.00000000000E+00 0.  1.
    9000010    2    1    2  502    0  0.90030186187E+03  0.48744025001E+03 -0.90642992506E+03  0.16803240551E+04  0.97659217751E+03 0.  0.
   -9000010    2    1    2    0  501 -0.90030186187E+03 -0.48744025001E+03  0.11925531854E+03  0.14318004817E+04  0.99382561284E+03 0.  0.
        -13    1    3    3    0    0  0.70025083511E+03  0.53108840285E+03 -0.10935488066E+04  0.14029451619E+04  0.10566000000E+00 0.  1.
          4    1    3    3  502    0  0.20005102676E+03 -0.43648152841E+02  0.18711888153E+03  0.27737889317E+03  0.00000000000E+00 0.  1.
         13    1    4    4    0    0 -0.61156201905E+03  0.63193059463E+02  0.41654208940E+03  0.74263637759E+03  0.10566000000E+00 0. -1.
         -4    1    4    4    0  501 -0.28873984281E+03 -0.55063330947E+03 -0.29728677087E+03  0.68916410416E+03  0.00000000000E+00 0. -1.
<mgrwt>
<rscale>  2 0.14208381E+04</rscale>
<asrwt>0</asrwt>
<pdfrwt beam="2">  1        1 0.29994609E+00 0.14208381E+04</pdfrwt>
<pdfrwt beam="1">  1       -1 0.17884230E+00 0.14208381E+04</pdfrwt>
<totfact> 0.80844544E-01</totfact>
</mgrwt>
</event>
<event>
 8    1  0.1408247E-005  0.1255634E+04  0.7818608E-02  0.8565806E-01
          1   -1    0    0  502    0  0.00000000000E+00  0.00000000000E+00  0.10582526186E+04  0.10582526186E+04  0.00000000000E+00 0.  1.
         -1   -1    0    0    0  501 -0.00000000000E+00 -0.00000000000E+00 -0.15245680797E+04  0.15245680797E+04  0.00000000000E+00 0. -1.
    9000010    2    1    2  502    0  0.11327086662E+03 -0.74201659950E+03 -0.41601223122E+02  0.12715833233E+04  0.10255606093E+04 0.  0.
   -9000010    2    1    2    0  501 -0.11327086662E+03  0.74201659950E+03 -0.42471423798E+03  0.13112373750E+04  0.98769547252E+03 0.  0.
        -13    1    3    3    0    0  0.51422737620E+03 -0.64084862047E+03  0.11446650660E+03  0.82958986318E+03  0.10566000000E+00 0.  1.
          4    1    3    3  502    0 -0.40095650958E+03 -0.10116797903E+03 -0.15606772972E+03  0.44199346015E+03  0.00000000000E+00 0.  1.
         13    1    4    4    0    0  0.26442132173E+03  0.52877632994E+02  0.17606505989E+03  0.32204595314E+03  0.10566000000E+00 0. -1.
         -4    1    4    4    0  501 -0.37769218835E+03  0.68913896651E+03 -0.60077929786E+03  0.98919142184E+03  0.00000000000E+00 0. -1.
<mgrwt>
<rscale>  2 0.12556340E+04</rscale>
<asrwt>0</asrwt>
<pdfrwt beam="1">  1        1 0.16280810E+00 0.12556340E+04</pdfrwt>
<pdfrwt beam="2">  1       -1 0.23454893E+00 0.12556340E+04</pdfrwt>
<totfact> 0.12183113E+00</totfact>
</mgrwt>
</event>
<event>
 8    1  0.1408247E-005  0.1495899E+04  0.7818608E-02  0.8411863E-01
          2   -1    0    0  502    0  0.00000000000E+00  0.00000000000E+00  0.24631058199E+04  0.24631058199E+04  0.00000000000E+00 0.  1.
         -2   -1    0    0    0  501 -0.00000000000E+00 -0.00000000000E+00 -0.10192257921E+04  0.10192257921E+04  0.00000000000E+00 0. -1.
    9000010    2    1    2  502    0 -0.10897157195E+04  0.16968668477E+03  0.12999104035E+04  0.19891405156E+04  0.10250068358E+04 0.  0.
   -9000010    2    1    2    0  501  0.10897157195E+04 -0.16968668477E+03  0.14396962431E+03  0.14931910964E+04  0.99630240256E+03 0.  0.
        -13    1    3    3    0    0 -0.52662681674E+03 -0.42515057260E+03  0.47661815949E+03  0.82780051620E+03  0.10566000000E+00 0.  1.
          4    1    3    3  502    0 -0.56308890271E+03  0.59483725737E+03  0.82329224401E+03  0.11613399994E+04  0.00000000000E+00 0.  1.
         13    1    4    4    0    0  0.17731839031E+03 -0.38642226819E+03 -0.23023735342E+03  0.48350101445E+03  0.10566000000E+00 0. -1.
         -4    1    4    4    0  501  0.91239732915E+03  0.21673558342E+03  0.37420697774E+03  0.10096900819E+04  0.00000000000E+00 0. -1.
<mgrwt>
<rscale>  2 0.14958993E+04</rscale>
<asrwt>0</asrwt>
<pdfrwt beam="1">  1        2 0.37893936E+00 0.14958993E+04</pdfrwt>
<pdfrwt beam="2">  1       -2 0.15680397E+00 0.14958993E+04</pdfrwt>
<totfact> 0.13171033E+00</totfact>
</mgrwt>
</event>
<event>
 8    1  0.1408247E-005  0.1242751E+04  0.7818608E-02  0.8575047E-01
          4   -1    0    0  502    0  0.00000000000E+00  0.00000000000E+00  0.18673166256E+04  0.18673166256E+04  0.00000000000E+00 0.  1.
         -4   -1    0    0    0  501 -0.00000000000E+00 -0.00000000000E+00 -0.85691752686E+03  0.85691752686E+03  0.00000000000E+00 0. -1.
    9000010    2    1    2  502    0  0.21613061358E+02 -0.79970344574E+03  0.74119842151E+03  0.14152741915E+04  0.90201619251E+03 0.  0.
   -9000010    2    1    2    0  501 -0.21613061358E+02  0.79970344574E+03  0.26920067725E+03  0.13089599610E+04  0.10004571202E+04 0.  0.
        -13    1    3    3    0    0  0.39850354704E+03 -0.71613321422E+03  0.49643508769E+03  0.95817517447E+03  0.10566000000E+00 0.  1.
          4    1    3    3  502    0 -0.37689048568E+03 -0.83570231515E+02  0.24476333382E+03  0.45709901704E+03  0.00000000000E+00 0.  1.
         13    1    4    4    0    0 -0.35765504444E+03  0.78742393704E+03 -0.20537600143E+02  0.86508692721E+03  0.10566000000E+00 0. -1.
         -4    1    4    4    0  501  0.33604198308E+03  0.12279508693E+02  0.28973827739E+03  0.44387303378E+03  0.00000000000E+00 0. -1.
<mgrwt>
<rscale>  2 0.12427511E+04</rscale>
<asrwt>0</asrwt>
<pdfrwt beam="1">  1        4 0.28727948E+00 0.12427511E+04</pdfrwt>
<pdfrwt beam="2">  1       -4 0.13183347E+00 0.12427511E+04</pdfrwt>
<totfact> 0.19886884E-01</totfact>
</mgrwt>
</event>
<event>
 8    1  0.1408247E-005  0.1754005E+04  0.7818608E-02  0.8276646E-01
         -2   -1    0    0    0  501 -0.00000000000E+00  0.00000000000E+00  0.12241340544E+04  0.12241340544E+04  0.00000000000E+00 0.  1.
          2   -1    0    0  502    0  0.00000000000E+00 -0.00000000000E+00 -0.25998261087E+04  0.25998261087E+04  0.00000000000E+00 0. -1.
    9000010    2    1    2  502    0  0.14192481426E+04  0.34022060685E+03 -0.10425018598E+04  0.20544759278E+04  0.10020208873E+04 0.  0.
   -9000010    2    1    2    0  501 -0.14192481426E+04 -0.34022060685E+03 -0.33319019440E+03  0.17694842352E+04  0.94342111565E+03 0.  0.
        -13    1    3    3    0    0  0.13167069286E+04  0.25267406631E+03 -0.40166053670E+03  0.13996044147E+04  0.10566000000E+00 0.  1.
          4    1    3    3  502    0  0.10254121399E+03  0.87546540543E+02 -0.64084132312E+03  0.65487151316E+03  0.00000000000E+00 0.  1.
         13    1    4    4    0    0 -0.14187852096E+04 -0.53001020231E+02 -0.39909354601E+03  0.14748004098E+04  0.10566000000E+00 0. -1.
         -4    1    4    4    0  501 -0.46293306851E+00 -0.28721958662E+03  0.65903351610E+02  0.29468382548E+03  0.00000000000E+00 0. -1.
<mgrwt>
<rscale>  2 0.17540046E+04</rscale>
<asrwt>0</asrwt>
<pdfrwt beam="2">  1        2 0.39997324E+00 0.17540046E+04</pdfrwt>
<pdfrwt beam="1">  1       -2 0.18832832E+00 0.17540046E+04</pdfrwt>
<totfact> 0.57993703E-01</totfact>
</mgrwt>
</event>
<event>
 8    1  0.1408247E-005  0.1372893E+04  0.7818608E-02  0.8486629E-01
          1   -1    0    0  502    0  0.00000000000E+00  0.00000000000E+00  0.16369517325E+04  0.16369517325E+04  0.00000000000E+00 0.  1.
         -1   -1    0    0    0  501 -0.00000000000E+00 -0.00000000000E+00 -0.11899160343E+04  0.11899160343E+04  0.00000000000E+00 0. -1.
    9000010    2    1    2  502    0  0.39621431366E+03 -0.89075684933E+03  0.47916058207E+03  0.14642374659E+04  0.98181614682E+03 0.  0.
   -9000010    2    1    2    0  501 -0.39621431366E+03  0.89075684933E+03 -0.32124883917E+02  0.13626303009E+04  0.95147032635E+03 0.  0.
        -13    1    3    3    0    0  0.14611596549E+03 -0.65216365749E+03 -0.20386320572E+03  0.69873280253E+03  0.10566000000E+00 0.  1.
          4    1    3    3  502    0  0.25009834817E+03 -0.23859319184E+03  0.68302378779E+03  0.76550466337E+03  0.00000000000E+00 0.  1.
         13    1    4    4    0    0 -0.32179541299E+03 -0.10916588057E+03  0.92639895286E+02  0.35220965158E+03  0.10566000000E+00 0. -1.
         -4    1    4    4    0  501 -0.74418900669E+02  0.99992272990E+03 -0.12476477920E+03  0.10104206494E+04  0.00000000000E+00 0. -1.
<mgrwt>
<rscale>  2 0.13728928E+04</rscale>
<asrwt>0</asrwt>
<pdfrwt beam="1">  1        1 0.25183873E+00 0.13728928E+04</pdfrwt>
<pdfrwt beam="2">  1       -1 0.18306400E+00 0.13728928E+04</pdfrwt>
<totfact> 0.12837515E+00</totfact>
</mgrwt>
</event>
<event>
 8    1  0.1408247E-005  0.1036994E+04  0.7818608E-02  0.8740588E-01
          2   -1    0    0  502    0  0.00000000000E+00  0.00000000000E+00  0.29715946318E+04  0.29715946318E+04  0.00000000000E+00 0.  1.
         -2   -1    0    0    0  501 -0.00000000000E+00 -0.00000000000E+00 -0.42692715208E+03  0.42692715208E+03  0.00000000000E+00 0. -1.
    9000010    2    1    2  502    0 -0.14175257183E+03 -0.33540974006E+03  0.19517320331E+04  0.22177145121E+04  0.98813270508E+03 0.  0.
   -9000010    2    1    2    0  501  0.14175257183E+03  0.33540974006E+03  0.59293544663E+03  0.11808072718E+04  0.95401251766E+03 0.  0.
        -13    1    3    3    0    0 -0.42736724162E+03  0.11959174748E+03  0.12968300116E+04  0.13706615321E+04  0.10566000000E+00 0.  1.
          4    1    3    3  502    0  0.28561466979E+03 -0.45500148754E+03  0.65490202149E+03  0.84705298005E+03  0.00000000000E+00 0.  1.
         13    1    4    4    0    0 -0.14431870822E+03  0.51374027078E+03  0.64778080148E+03  0.83927166834E+03  0.10566000000E+00 0. -1.
         -4    1    4    4    0  501  0.28607128005E+03 -0.17833053072E+03 -0.54845354850E+02  0.34153560343E+03  0.00000000000E+00 0. -1.
<mgrwt>
<rscale>  2 0.10369938E+04</rscale>
<asrwt>0</asrwt>
<pdfrwt beam="1">  1        2 0.45716839E+00 0.10369938E+04</pdfrwt>
<pdfrwt beam="2">  1       -2 0.65681102E-01 0.10369938E+04</pdfrwt>
<totfact> 0.60838382E+00</totfact>
</mgrwt>
</event>
<event>
 8    1  0.1408247E-005  0.1251522E+04  0.7818608E-02  0.8568743E-01
         -2   -1    0    0    0  501 -0.00000000000E+00  0.00000000000E+00  0.11050806396E+04  0.11050806396E+04  0.00000000000E+00 0. -1.
          2   -1    0    0  502    0  0.00000000000E+00 -0.00000000000E+00 -0.14230939513E+04  0.14230939513E+04  0.00000000000E+00 0.  1.
    9000010    2    1    2  502    0 -0.70906295515E+03 -0.22462634983E+03 -0.23803011657E+03  0.12673120366E+04  0.99809528123E+03 0.  0.
   -9000010    2    1    2    0  501  0.70906295515E+03  0.22462634983E+03 -0.79983195094E+02  0.12608625543E+04  0.10149629539E+04 0.  0.
        -13    1    3    3    0    0 -0.40434849092E+03 -0.61945547520E+03 -0.20427611406E+03  0.76743177534E+03  0.10566000000E+00 0.  1.
          4    1    3    3  502    0 -0.30471446424E+03  0.39482912537E+03 -0.33754002514E+02  0.49988026130E+03  0.00000000000E+00 0.  1.
         13    1    4    4    0    0  0.85304217791E+03  0.41686800838E+03 -0.23100050383E+03  0.97714949605E+03  0.10566000000E+00 0. -1.
         -4    1    4    4    0  501 -0.14397922276E+03 -0.19224165855E+03  0.15101730874E+03  0.28371305822E+03  0.00000000000E+00 0. -1.
<mgrwt>
<rscale>  2 0.12515220E+04</rscale>
<asrwt>0</asrwt>
<pdfrwt beam="2">  1        2 0.21893753E+00 0.12515220E+04</pdfrwt>
<pdfrwt beam="1">  1       -2 0.17001241E+00 0.12515220E+04</pdfrwt>
<totfact> 0.38740350E+00</totfact>
</mgrwt>
</event>
<event>
 8    1  0.1408247E-005  0.1381884E+04  0.7818608E-02  0.8480896E-01
         -2   -1    0    0    0  501 -0.00000000000E+00  0.00000000000E+00  0.10610772638E+04  0.10610772638E+04  0.00000000000E+00 0. -1.
          2   -1    0    0  502    0  0.00000000000E+00 -0.00000000000E+00 -0.19552770766E+04  0.19552770766E+04  0.00000000000E+00 0.  1.
    9000010    2    1    2  502    0 -0.31920996975E+03  0.91412934093E+03 -0.24615965174E+02  0.13916528834E+04  0.99928191489E+03 0.  0.
   -9000010    2    1    2    0  501  0.31920996975E+03 -0.91412934093E+03 -0.86958384758E+03  0.16247014570E+04  0.97260027746E+03 0.  0.
        -13    1    3    3    0    0  0.53109957234E+02  0.88198992556E+03  0.26096729799E+03  0.92132016050E+03  0.10566000000E+00 0.  1.
          4    1    3    3  502    0 -0.37231992698E+03  0.32139415368E+02 -0.28558326317E+03  0.47033272292E+03  0.00000000000E+00 0.  1.
         13    1    4    4    0    0  0.27282448426E+03 -0.91500837522E+03 -0.22828523706E+03  0.98172689001E+03  0.10566000000E+00 0. -1.
         -4    1    4    4    0  501  0.46385485490E+02  0.87903429240E+00 -0.64129861051E+03  0.64297456700E+03  0.00000000000E+00 0. -1.
<mgrwt>
<rscale>  2 0.13818843E+04</rscale>
<asrwt>0</asrwt>
<pdfrwt beam="2">  1        2 0.30081185E+00 0.13818843E+04</pdfrwt>
<pdfrwt beam="1">  1       -2 0.16324266E+00 0.13818843E+04</pdfrwt>
<totfact> 0.22317922E+00</totfact>
</mgrwt>
</event>
<event>
 8    1  0.1408247E-005  0.1279324E+04  0.7818608E-02  0.8549109E-01
          1   -1    0    0  502    0  0.00000000000E+00  0.00000000000E+00  0.42801766098E+04  0.42801766098E+04  0.00000000000E+00 0.  1.
         -1   -1    0    0    0  501 -0.00000000000E+00 -0.00000000000E+00 -0.40620342131E+03  0.40620342131E+03  0.00000000000E+00 0. -1.
    9000010    2    1    2  502    0 -0.72295922659E+03  0.35383677396E+03  0.13743003162E+04  0.18798475556E+04  0.99862654037E+03 0.  0.
   -9000010    2    1    2    0  501  0.72295922659E+03 -0.35383677396E+03  0.24996728722E+04  0.28065324755E+04  0.99014623262E+03 0.  0.
        -13    1    3    3    0    0 -0.21559496252E+03  0.60155706797E+03  0.40035514657E+03  0.75407980243E+03  0.10566000000E+00 0.  1.
          4    1    3    3  502    0 -0.50736426407E+03 -0.24772029402E+03  0.97394516968E+03  0.11257677532E+04  0.00000000000E+00 0.  1.
         13    1    4    4    0    0  0.20064180855E+03 -0.84836253027E+02 -0.20481490692E+02  0.21880088617E+03  0.10566000000E+00 0. -1.
         -4    1    4    4    0  501  0.52231741804E+03 -0.26900052093E+03  0.25201543629E+04  0.25877315893E+04  0.00000000000E+00 0. -1.
<mgrwt>
<rscale>  2 0.12793244E+04</rscale>
<asrwt>0</asrwt>
<pdfrwt beam="1">  1        1 0.65848868E+00 0.12793244E+04</pdfrwt>
<pdfrwt beam="2">  1       -1 0.62492837E-01 0.12793244E+04</pdfrwt>
<totfact> 0.10406187E-01</totfact>
</mgrwt>
</event>
<event>
 8    1  0.1408247E-005  0.1918106E+04  0.7818608E-02  0.8202574E-01
         -2   -1    0    0    0  501 -0.00000000000E+00  0.00000000000E+00  0.34140534303E+04  0.34140534303E+04  0.00000000000E+00 0. -1.
          2   -1    0    0  502    0  0.00000000000E+00 -0.00000000000E+00 -0.11349176261E+04  0.11349176261E+04  0.00000000000E+00 0.  1.
    9000010    2    1    2  502    0  0.47793466720E+03 -0.15505871985E+04  0.16634795211E+04  0.25575731145E+04  0.10683042230E+04 0.  0.
   -9000010    2    1    2    0  501 -0.47793466720E+03  0.15505871985E+04  0.61565628310E+03  0.19913979418E+04  0.97667338333E+03 0.  0.
        -13    1    3    3    0    0  0.41822005837E+03 -0.15738888713E+04  0.10431896903E+04  0.19339800768E+04  0.10566000000E+00 0.  1.
          4    1    3    3  502    0  0.59714608831E+02  0.23301672854E+02  0.62028983080E+03  0.62359303769E+03  0.00000000000E+00 0.  1.
         13    1    4    4    0    0  0.20224601496E+03  0.22572533903E+03 -0.12534229112E+03  0.32797268234E+03  0.10566000000E+00 0. -1.
         -4    1    4    4    0  501 -0.68018068217E+03  0.13248618594E+04  0.74099857422E+03  0.16634252595E+04  0.00000000000E+00 0. -1.
<mgrwt>
<rscale>  2 0.19181063E+04</rscale>
<asrwt>0</asrwt>
<pdfrwt beam="2">  1        2 0.17460271E+00 0.19181063E+04</pdfrwt>
<pdfrwt beam="1">  1       -2 0.52523898E+00 0.19181063E+04</pdfrwt>
<totfact> 0.90308203E-02</totfact>
</mgrwt>
</event>
<event>
 8    1  0.1408247E-005  0.1066675E+04  0.7818608E-02  0.8714348E-01
          2   -1    0    0  502    0  0.00000000000E+00  0.00000000000E+00  0.40616252951E+04  0.40616252951E+04  0.00000000000E+00 0. -1.
         -2   -1    0    0    0  501 -0.00000000000E+00 -0.00000000000E+00 -0.36265044542E+03  0.36265044542E+03  0.00000000000E+00 0.  1.
    9000010    2    1    2  502    0 -0.21039225920E+03 -0.18254068071E+03  0.75526593766E+03  0.12826102803E+04  0.99853717594E+03 0.  0.
   -9000010    2    1    2    0  501  0.21039225920E+03  0.18254068071E+03  0.29437089121E+04  0.31416654603E+04  0.10616278549E+04 0.  0.
        -13    1    3    3    0    0 -0.21298582645E+03 -0.54360161238E+03  0.70921693916E+03  0.91861545448E+03  0.10566000000E+00 0.  1.
          4    1    3    3  502    0  0.25935672594E+01  0.36106093167E+03  0.46048998499E+02  0.36399482583E+03  0.00000000000E+00 0.  1.
         13    1    4    4    0    0  0.45211501808E+03 -0.11101796486E+03  0.25580113116E+04  0.26000297805E+04  0.10566000000E+00 0. -1.
         -4    1    4    4    0  501 -0.24172275889E+03  0.29355864557E+03  0.38569760043E+03  0.54163567971E+03  0.00000000000E+00 0. -1.
<mgrwt>
<rscale>  2 0.10666755E+04</rscale>
<asrwt>0</asrwt>
<pdfrwt beam="1">  1        2 0.62486540E+00 0.10666755E+04</pdfrwt>
<pdfrwt beam="2">  1       -2 0.55792379E-01 0.10666755E+04</pdfrwt>
<totfact> 0.13063237E+00</totfact>
</mgrwt>
</event>
<event>
 8    1  0.1408247E-005  0.1346288E+04  0.7818608E-02  0.8503860E-01
          2   -1    0    0  502    0  0.00000000000E+00  0.00000000000E+00  0.24738018216E+04  0.24738018216E+04  0.00000000000E+00 0.  1.
         -2   -1    0    0    0  501 -0.00000000000E+00 -0.00000000000E+00 -0.74901699447E+03  0.74901699447E+03  0.00000000000E+00 0. -1.
    9000010    2    1    2  502    0 -0.43513486357E+03 -0.78755032670E+03  0.62300848184E+03  0.14814659914E+04  0.99851091563E+03 0.  0.
   -9000010    2    1    2    0  501  0.43513486357E+03  0.78755032670E+03  0.11017763453E+04  0.17413528246E+04  0.10044006563E+04 0.  0.
        -13    1    3    3    0    0 -0.41343735818E+02  0.86212231763E+02  0.50715371897E+03  0.51608793749E+03  0.10566000000E+00 0.  1.
          4    1    3    3  502    0 -0.39379112776E+03 -0.87376255846E+03  0.11585476287E+03  0.96537805390E+03  0.00000000000E+00 0.  1.
         13    1    4    4    0    0  0.25345071681E+03  0.57482769685E+03  0.24881914817E+02  0.62871556985E+03  0.10566000000E+00 0. -1.
         -4    1    4    4    0  501  0.18168414676E+03  0.21272262985E+03  0.10768944304E+04  0.11126372548E+04  0.00000000000E+00 0. -1.
<mgrwt>
<rscale>  2 0.13462877E+04</rscale>
<asrwt>0</asrwt>
<pdfrwt beam="1">  1        2 0.38058489E+00 0.13462877E+04</pdfrwt>
<pdfrwt beam="2">  1       -2 0.11523339E+00 0.13462877E+04</pdfrwt>
<totfact> 0.31783072E+00</totfact>
</mgrwt>
</event>
<event>
 8    1  0.1408247E-005  0.1237029E+04  0.7818608E-02  0.8579188E-01
          2   -1    0    0  502    0  0.00000000000E+00  0.00000000000E+00  0.14657583012E+04  0.14657583012E+04  0.00000000000E+00 0.  1.
         -2   -1    0    0    0  501 -0.00000000000E+00 -0.00000000000E+00 -0.10936756064E+04  0.10936756064E+04  0.00000000000E+00 0. -1.
    9000010    2    1    2  502    0  0.72538740432E+03  0.45101897146E+02 -0.86777344488E+02  0.12396242354E+04  0.10004583300E+04 0.  0.
   -9000010    2    1    2    0  501 -0.72538740432E+03 -0.45101897146E+02  0.45886003933E+03  0.13198096722E+04  0.10015607659E+04 0.  0.
        -13    1    3    3    0    0 -0.37031140613E+01  0.26118108624E+03 -0.34839754689E+03  0.43544245855E+03  0.10566000000E+00 0.  1.
          4    1    3    3  502    0  0.72909051838E+03 -0.21607918909E+03  0.26162020240E+03  0.80418177687E+03  0.00000000000E+00 0.  1.
         13    1    4    4    0    0 -0.67377332657E+02 -0.38252545108E+03  0.43044513634E+03  0.57978310793E+03  0.10566000000E+00 0. -1.
         -4    1    4    4    0  501 -0.65801007166E+03  0.33742355393E+03  0.28414902992E+02  0.74002656430E+03  0.00000000000E+00 0. -1.
<mgrwt>
<rscale>  2 0.12370291E+04</rscale>
<asrwt>0</asrwt>
<pdfrwt beam="1">  1        2 0.22550128E+00 0.12370291E+04</pdfrwt>
<pdfrwt beam="2">  1       -2 0.16825778E+00 0.12370291E+04</pdfrwt>
<totfact> 0.38023901E+00</totfact>
</mgrwt>
</event>
<event>
 8    1  0.1408247E-005  0.1117920E+04  0.7818608E-02  0.8671074E-01
          2   -1    0    0  502    0  0.00000000000E+00  0.00000000000E+00  0.15295284761E+04  0.15295284761E+04  0.00000000000E+00 0. -1.
         -2   -1    0    0    0  501 -0.00000000000E+00 -0.00000000000E+00 -0.83817830305E+03  0.83817830305E+03  0.00000000000E+00 0.  1.
    9000010    2    1    2  502    0  0.17868850395E+03  0.48088700893E+03  0.15765165869E+03  0.11283527191E+04  0.99254416346E+03 0.  0.
   -9000010    2    1    2    0  501 -0.17868850395E+03 -0.48088700893E+03  0.53369851438E+03  0.12393540601E+04  0.99397308069E+03 0.  0.
        -13    1    3    3    0    0 -0.34377462506E+03  0.48523827847E+03  0.75338664594E+02  0.59942731442E+03  0.10566000000E+00 0.  1.
          4    1    3    3  502    0  0.52246312901E+03 -0.43512695419E+01  0.82312994094E+02  0.52892540468E+03  0.00000000000E+00 0.  1.
         13    1    4    4    0    0 -0.27894474468E+03 -0.47282614204E+02 -0.22383731438E+03  0.36076165354E+03  0.10566000000E+00 0. -1.
         -4    1    4    4    0  501  0.10025624073E+03 -0.43360439473E+03  0.75753582876E+03  0.87859240652E+03  0.00000000000E+00 0. -1.
<mgrwt>
<rscale>  2 0.11179196E+04</rscale>
<asrwt>0</asrwt>
<pdfrwt beam="1">  1        2 0.23531207E+00 0.11179196E+04</pdfrwt>
<pdfrwt beam="2">  1       -2 0.12895051E+00 0.11179196E+04</pdfrwt>
<totfact> 0.79241341E+00</totfact>
</mgrwt>
</event>
<event>
 8    1  0.1408247E-005  0.1222704E+04  0.7818608E-02  0.8589659E-01
         -2   -1    0    0    0  501 -0.00000000000E+00  0.00000000000E+00  0.92621467653E+03  0.92621467653E+03  0.00000000000E+00 0.  1.
          2   -1    0    0  502    0  0.00000000000E+00 -0.00000000000E+00 -0.16785828811E+04  0.16785828811E+04  0.00000000000E+00 0. -1.
    9000010    2    1    2  502    0 -0.63302841627E+03  0.40130333468E+02 -0.13648647706E+03  0.12710427037E+04  0.10929709863E+04 0.  0.
   -9000010    2    1    2    0  501  0.63302841627E+03 -0.40130333468E+02 -0.61588172748E+03  0.13337548538E+04  0.99862720194E+03 0.  0.
        -13    1    3    3    0    0  0.79031438293E+02  0.33523515831E+03 -0.32928667576E+03  0.47650635421E+03  0.10566000000E+00 0.  1.
          4    1    3    3  502    0 -0.71205985456E+03 -0.29510482485E+03  0.19280019870E+03  0.79453634954E+03  0.00000000000E+00 0.  1.
         13    1    4    4    0    0 -0.16932445484E+03 -0.90586822903E+02  0.13416730228E+03  0.23425972692E+03  0.10566000000E+00 0. -1.
         -4    1    4    4    0  501  0.80235287111E+03  0.50456489436E+02 -0.75004902976E+03  0.10994951269E+04  0.00000000000E+00 0. -1.
<mgrwt>
<rscale>  2 0.12227036E+04</rscale>
<asrwt>0</asrwt>
<pdfrwt beam="2">  1        2 0.25824352E+00 0.12227036E+04</pdfrwt>
<pdfrwt beam="1">  1       -2 0.14249457E+00 0.12227036E+04</pdfrwt>
<totfact> 0.48915153E+00</totfact>
</mgrwt>
</event>
<event>
 8    1  0.1408247E-005  0.1019579E+04  0.7818608E-02  0.8756410E-01
          4   -1    0    0  502    0  0.00000000000E+00  0.00000000000E+00  0.20374505228E+04  0.20374505228E+04  0.00000000000E+00 0.  1.
         -4   -1    0    0    0  501 -0.00000000000E+00 -0.00000000000E+00 -0.53932419850E+03  0.53932419850E+03  0.00000000000E+00 0. -1.
    9000010    2    1    2  502    0  0.25101533972E+03 -0.19494866628E+03  0.10719750436E+04  0.15078995816E+04  0.10117395766E+04 0.  0.
   -9000010    2    1    2    0  501 -0.25101533972E+03  0.19494866628E+03  0.42615128070E+03  0.10688751397E+04  0.92729470341E+03 0.  0.
        -13    1    3    3    0    0  0.18911802562E+03 -0.29950376480E+03  0.12461598255E+04  0.12955240077E+04  0.10566000000E+00 0.  1.
          4    1    3    3  502    0  0.61897314109E+02  0.10455509853E+03 -0.17418478191E+03  0.21237557386E+03  0.00000000000E+00 0.  1.
         13    1    4    4    0    0 -0.25695589873E+03  0.53646535171E+03  0.11296836498E+03  0.60546120447E+03  0.10566000000E+00 0. -1.
         -4    1    4    4    0  501  0.59405590036E+01 -0.34151668543E+03  0.31318291571E+03  0.46341393523E+03  0.00000000000E+00 0. -1.
<mgrwt>
<rscale>  2 0.10195788E+04</rscale>
<asrwt>0</asrwt>
<pdfrwt beam="1">  1        4 0.31345392E+00 0.10195788E+04</pdfrwt>
<pdfrwt beam="2">  1       -4 0.82972955E-01 0.10195788E+04</pdfrwt>
<totfact> 0.40091119E-01</totfact>
</mgrwt>
</event>
<event>
 8    1  0.1408247E-005  0.1316637E+04  0.7818608E-02  0.8523553E-01
          2   -1    0    0  502    0  0.00000000000E+00  0.00000000000E+00  0.13875257839E+04  0.13875257839E+04  0.00000000000E+00 0. -1.
         -2   -1    0    0    0  501 -0.00000000000E+00 -0.00000000000E+00 -0.16310034792E+04  0.16310034792E+04  0.00000000000E+00 0.  1.
    9000010    2    1    2  502    0 -0.84120840617E+03  0.73733905599E+02  0.60873041795E+03  0.14449605919E+04  0.10021427638E+04 0.  0.
   -9000010    2    1    2    0  501  0.84120840617E+03 -0.73733905599E+02 -0.85220811322E+03  0.15735686712E+04  0.10182295533E+04 0.  0.
        -13    1    3    3    0    0 -0.39556921846E+03 -0.26535755809E+03  0.73032498162E+03  0.87193132194E+03  0.10566000000E+00 0.  1.
          4    1    3    3  502    0 -0.44563918771E+03  0.33909146369E+03 -0.12159456368E+03  0.57302927000E+03  0.00000000000E+00 0.  1.
         13    1    4    4    0    0  0.85294077185E+03  0.10284109659E+03 -0.10173127612E+04  0.13315440348E+04  0.10566000000E+00 0. -1.
         -4    1    4    4    0  501 -0.11732365683E+02 -0.17657500219E+03  0.16510464799E+03  0.24202463633E+03  0.00000000000E+00 0. -1.
<mgrwt>
<rscale>  2 0.13166370E+04</rscale>
<asrwt>0</asrwt>
<pdfrwt beam="1">  1        2 0.21346551E+00 0.13166370E+04</pdfrwt>
<pdfrwt beam="2">  1       -2 0.25092361E+00 0.13166370E+04</pdfrwt>
<totfact> 0.88276846E-01</totfact>
</mgrwt>
</event>
<event>
 8    1  0.1408247E-005  0.1223925E+04  0.7818608E-02  0.8588761E-01
          2   -1    0    0  502    0  0.00000000000E+00  0.00000000000E+00  0.13462316335E+04  0.13462316335E+04  0.00000000000E+00 0.  1.
         -2   -1    0    0    0  501 -0.00000000000E+00 -0.00000000000E+00 -0.13327633562E+04  0.13327633562E+04  0.00000000000E+00 0. -1.
    9000010    2    1    2  502    0 -0.26742743857E+03 -0.52921919489E+03 -0.53281313346E+03  0.12741141793E+04  0.99392490437E+03 0.  0.
   -9000010    2    1    2    0  501  0.26742743857E+03  0.52921919489E+03  0.54628141078E+03  0.14048808104E+04  0.11505113301E+04 0.  0.
        -13    1    3    3    0    0 -0.58503419019E+03 -0.26281424775E+03 -0.56982045232E+03  0.85792289371E+03  0.10566000000E+00 0.  1.
          4    1    3    3  502    0  0.31760675162E+03 -0.26640494714E+03  0.37007318865E+02  0.41619128557E+03  0.00000000000E+00 0.  1.
         13    1    4    4    0    0 -0.24193530312E+03 -0.19776251235E+03 -0.75051039718E+02  0.32136485793E+03  0.10566000000E+00 0. -1.
         -4    1    4    4    0  501  0.50936274169E+03  0.72698170724E+03  0.62133245050E+03  0.10835159525E+04  0.00000000000E+00 0. -1.
<mgrwt>
<rscale>  2 0.12239250E+04</rscale>
<asrwt>0</asrwt>
<pdfrwt beam="1">  1        2 0.20711256E+00 0.12239250E+04</pdfrwt>
<pdfrwt beam="2">  1       -2 0.20504052E+00 0.12239250E+04</pdfrwt>
<totfact> 0.21914755E+00</totfact>
</mgrwt>
</event>
<event>
 8    1  0.1408247E-005  0.1143914E+04  0.7818608E-02  0.8650037E-01
          1   -1    0    0  502    0  0.00000000000E+00  0.00000000000E+00  0.20021398896E+04  0.20021398896E+04  0.00000000000E+00 0. -1.
         -1   -1    0    0    0  501 -0.00000000000E+00 -0.00000000000E+00 -0.66918850005E+03  0.66918850005E+03  0.00000000000E+00 0.  1.
    9000010    2    1    2  502    0  0.53219904512E+03 -0.32398839823E+03  0.87975240607E+03  0.14576330845E+04  0.98108389406E+03 0.  0.
   -9000010    2    1    2    0  501 -0.53219904512E+03  0.32398839823E+03  0.45319898351E+03  0.12136953052E+04  0.93779671005E+03 0.  0.
        -13    1    3    3    0    0  0.32972761768E+03 -0.48515244794E+03  0.10099500839E+04  0.11679436557E+04  0.10566000000E+00 0.  1.
          4    1    3    3  502    0  0.20247142745E+03  0.16116404971E+03 -0.13019767786E+03  0.28968942882E+03  0.00000000000E+00 0.  1.
         13    1    4    4    0    0 -0.23100943147E+03 -0.20506717950E+02  0.66878832269E+03  0.70785854140E+03  0.10566000000E+00 0. -1.
         -4    1    4    4    0  501 -0.30118961365E+03  0.34449511618E+03 -0.21558933917E+03  0.50583676380E+03  0.00000000000E+00 0. -1.
<mgrwt>
<rscale>  2 0.11439141E+04</rscale>
<asrwt>0</asrwt>
<pdfrwt beam="1">  1        1 0.30802152E+00 0.11439141E+04</pdfrwt>
<pdfrwt beam="2">  1       -1 0.10295208E+00 0.11439141E+04</pdfrwt>
<totfact> 0.35610281E+00</totfact>
</mgrwt>
</event>
<event>
 8    1  0.1408247E-005  0.1248298E+04  0.7818608E-02  0.8571054E-01
          1   -1    0    0  502    0  0.00000000000E+00  0.00000000000E+00  0.16255880835E+04  0.16255880835E+04  0.00000000000E+00 0. -1.
         -1   -1    0    0    0  501 -0.00000000000E+00 -0.00000000000E+00 -0.95919011654E+03  0.95919011654E+03  0.00000000000E+00 0.  1.
    9000010    2    1    2  502    0 -0.67775832192E+03 -0.22710595356E+03  0.36175797026E+03  0.13219861782E+04  0.10515917312E+04 0.  0.
   -9000010    2    1    2    0  501  0.67775832192E+03  0.22710595356E+03  0.30463999671E+03  0.12627920219E+04  0.99544196508E+03 0.  0.
        -13    1    3    3    0    0 -0.67200045072E+03 -0.59044538353E+03  0.16804062411E+03  0.91019119926E+03  0.10566000000E+00 0.  1.
          4    1    3    3  502    0 -0.57578711953E+01  0.36333942997E+03  0.19371734615E+03  0.41179497891E+03  0.00000000000E+00 0.  1.
         13    1    4    4    0    0  0.58357081486E+03  0.17238078746E+03 -0.27875883643E+03  0.66931048990E+03  0.10566000000E+00 0. -1.
         -4    1    4    4    0  501  0.94187507060E+02  0.54725166099E+02  0.58339883314E+03  0.59348153198E+03  0.00000000000E+00 0. -1.
<mgrwt>
<rscale>  2 0.12482984E+04</rscale>
<asrwt>0</asrwt>
<pdfrwt beam="1">  1        1 0.25009047E+00 0.12482984E+04</pdfrwt>
<pdfrwt beam="2">  1       -1 0.14756771E+00 0.12482984E+04</pdfrwt>
<totfact> 0.27045902E+00</totfact>
</mgrwt>
</event>
<event>
 8    1  0.1408247E-005  0.1569601E+04  0.7818608E-02  0.8370533E-01
         -2   -1    0    0    0  501 -0.00000000000E+00  0.00000000000E+00  0.13256326513E+04  0.13256326513E+04  0.00000000000E+00 0. -1.
          2   -1    0    0  502    0  0.00000000000E+00 -0.00000000000E+00 -0.21946614206E+04  0.21946614206E+04  0.00000000000E+00 0.  1.
    9000010    2    1    2  502    0 -0.12908922401E+03 -0.12065749503E+04 -0.11254817115E+04  0.19388451370E+04  0.10099129883E+04 0.  0.
   -9000010    2    1    2    0  501  0.12908922401E+03  0.12065749503E+04  0.25645294212E+03  0.15814489349E+04  0.98118575396E+03 0.  0.
        -13    1    3    3    0    0  0.47420434298E+02 -0.98817134232E+02 -0.74697586434E+03  0.75497448744E+03  0.10566000000E+00 0.  1.
          4    1    3    3  502    0 -0.17650965830E+03 -0.11077578161E+04 -0.37850584714E+03  0.11838706495E+04  0.00000000000E+00 0.  1.
         13    1    4    4    0    0  0.62280814291E+02  0.63252051328E+02 -0.29662401999E+03  0.30962161136E+03  0.10566000000E+00 0. -1.
         -4    1    4    4    0  501  0.66808409714E+02  0.11433228990E+04  0.55307696211E+03  0.12718273235E+04  0.00000000000E+00 0. -1.
<mgrwt>
<rscale>  2 0.15696006E+04</rscale>
<asrwt>0</asrwt>
<pdfrwt beam="2">  1        2 0.33764022E+00 0.15696006E+04</pdfrwt>
<pdfrwt beam="1">  1       -2 0.20394348E+00 0.15696006E+04</pdfrwt>
<totfact> 0.73848337E-01</totfact>
</mgrwt>
</event>
<event>
 8    1  0.1408247E-005  0.1118192E+04  0.7818608E-02  0.8670851E-01
         -2   -1    0    0    0  501 -0.00000000000E+00  0.00000000000E+00  0.34941101144E+03  0.34941101144E+03  0.00000000000E+00 0.  1.
          2   -1    0    0  502    0  0.00000000000E+00 -0.00000000000E+00 -0.35793330643E+04  0.35793330643E+04  0.00000000000E+00 0. -1.
    9000010    2    1    2  502    0  0.44386946585E+03  0.22361342475E+03 -0.16519116425E+04  0.19977849047E+04  0.10076256172E+04 0.  0.
   -9000010    2    1    2    0  501 -0.44386946585E+03 -0.22361342475E+03 -0.15780104104E+04  0.19309591711E+04  0.99572255098E+03 0.  0.
        -13    1    3    3    0    0  0.59913784572E+03 -0.32981862621E+02 -0.42642720478E+03  0.73613458931E+03  0.10566000000E+00 0.  1.
          4    1    3    3  502    0 -0.15526837986E+03  0.25659528737E+03 -0.12254844377E+04  0.12616503154E+04  0.00000000000E+00 0.  1.
         13    1    4    4    0    0 -0.38757123739E+03 -0.10898303831E+03 -0.59367725405E+02  0.40695614589E+03  0.10566000000E+00 0. -1.
         -4    1    4    4    0  501 -0.56298228460E+02 -0.11463038643E+03 -0.15186426850E+04  0.15240030252E+04  0.00000000000E+00 0. -1.
<mgrwt>
<rscale>  2 0.11181917E+04</rscale>
<asrwt>0</asrwt>
<pdfrwt beam="2">  1        2 0.55066659E+00 0.11181917E+04</pdfrwt>
<pdfrwt beam="1">  1       -2 0.53755544E-01 0.11181917E+04</pdfrwt>
<totfact> 0.35107501E+00</totfact>
</mgrwt>
</event>
<event>
 8    1  0.1408247E-005  0.1395394E+04  0.7818608E-02  0.8472365E-01
          2   -1    0    0  502    0  0.00000000000E+00  0.00000000000E+00  0.31200887194E+04  0.31200887194E+04  0.00000000000E+00 0. -1.
         -2   -1    0    0    0  501 -0.00000000000E+00 -0.00000000000E+00 -0.69656780408E+03  0.69656780408E+03  0.00000000000E+00 0.  1.
    9000010    2    1    2  502    0 -0.74797473583E+03 -0.63323752665E+03  0.18274382493E+04  0.22992638718E+04  0.99329141064E+03 0.  0.
   -9000010    2    1    2    0  501  0.74797473583E+03  0.63323752665E+03  0.59608266598E+03  0.15173926517E+04  0.99333274588E+03 0.  0.
        -13    1    3    3    0    0 -0.52796187957E+03 -0.11098913909E+03  0.16002055530E+04  0.16887036917E+04  0.10566000000E+00 0.  1.
          4    1    3    3  502    0 -0.22001285625E+03 -0.52224838757E+03  0.22723269628E+03  0.61056018007E+03  0.00000000000E+00 0.  1.
         13    1    4    4    0    0  0.27232670205E+03  0.83532067465E+03  0.37934976301E+03  0.95698940224E+03  0.10566000000E+00 0. -1.
         -4    1    4    4    0  501  0.47564803377E+03 -0.20208314799E+03  0.21673290297E+03  0.56040324942E+03  0.00000000000E+00 0. -1.
<mgrwt>
<rscale>  2 0.13953942E+04</rscale>
<asrwt>0</asrwt>
<pdfrwt beam="1">  1        2 0.48001364E+00 0.13953942E+04</pdfrwt>
<pdfrwt beam="2">  1       -2 0.10716428E+00 0.13953942E+04</pdfrwt>
<totfact> 0.15630407E+00</totfact>
</mgrwt>
</event>
<event>
 8    1  0.1408247E-005  0.1142586E+04  0.7818608E-02  0.8651098E-01
          2   -1    0    0  502    0  0.00000000000E+00  0.00000000000E+00  0.57579043912E+03  0.57579043912E+03  0.00000000000E+00 0.  1.
         -2   -1    0    0    0  501 -0.00000000000E+00 -0.00000000000E+00 -0.22761113012E+04  0.22761113012E+04  0.00000000000E+00 0. -1.
    9000010    2    1    2  502    0 -0.50082770697E+03  0.16570810412E+03 -0.93222617284E+03  0.14684179747E+04  0.10044491740E+04 0.  0.
   -9000010    2    1    2    0  501  0.50082770697E+03 -0.16570810412E+03 -0.76809468925E+03  0.13834837656E+04  0.10226291167E+04 0.  0.
        -13    1    3    3    0    0  0.85318539053E+02  0.45376583970E+03 -0.25447667484E+03  0.52720117563E+03  0.10566000000E+00 0.  1.
          4    1    3    3  502    0 -0.58614624602E+03 -0.28805773559E+03 -0.67774949800E+03  0.94121679904E+03  0.00000000000E+00 0.  1.
         13    1    4    4    0    0  0.60351733578E+03  0.44529302051E+02 -0.92240912490E+03  0.11032019934E+04  0.10566000000E+00 0. -1.
         -4    1    4    4    0  501 -0.10268962881E+03 -0.21023740617E+03  0.15431443565E+03  0.28028177227E+03  0.00000000000E+00 0. -1.
<mgrwt>
<rscale>  2 0.11425856E+04</rscale>
<asrwt>0</asrwt>
<pdfrwt beam="1">  1        2 0.88583144E-01 0.11425856E+04</pdfrwt>
<pdfrwt beam="2">  1       -2 0.35017097E+00 0.11425856E+04</pdfrwt>
<totfact> 0.61075220E-01</totfact>
</mgrwt>
</event>
<event>
 8    1  0.1408247E-005  0.1468907E+04  0.7818608E-02  0.8427621E-01
         -2   -1    0    0    0  501 -0.00000000000E+00  0.00000000000E+00  0.78582833989E+03  0.78582833989E+03  0.00000000000E+00 0.  1.
          2   -1    0    0  502    0  0.00000000000E+00 -0.00000000000E+00 -0.32903353324E+04  0.32903353324E+04  0.00000000000E+00 0. -1.
    9000010    2    1    2  502    0  0.81636225200E+03 -0.69887769553E+03 -0.42011696727E+03  0.15237507399E+04  0.99520886818E+03 0.  0.
   -9000010    2    1    2    0  501 -0.81636225200E+03  0.69887769553E+03 -0.20843900252E+04  0.25524129324E+04  0.10075974595E+04 0.  0.
        -13    1    3    3    0    0  0.25721309958E+03 -0.84491485844E+03 -0.30584825887E+03  0.93465654934E+03  0.10566000000E+00 0.  1.
          4    1    3    3  502    0  0.55914915241E+03  0.14603716292E+03 -0.11426870840E+03  0.58909419053E+03  0.00000000000E+00 0.  1.
         13    1    4    4    0    0 -0.61973103303E+01  0.58809601723E+03 -0.12638817369E+04  0.13940202252E+04  0.10566000000E+00 0. -1.
         -4    1    4    4    0  501 -0.81016494167E+03  0.11078167830E+03 -0.82050828832E+03  0.11583927072E+04  0.00000000000E+00 0. -1.
<mgrwt>
<rscale>  2 0.14689072E+04</rscale>
<asrwt>0</asrwt>
<pdfrwt beam="2">  1        2 0.50620543E+00 0.14689072E+04</pdfrwt>
<pdfrwt beam="1">  1       -2 0.12089667E+00 0.14689072E+04</pdfrwt>
<totfact> 0.88002410E-01</totfact>
</mgrwt>
</event>
<event>
 8    1  0.1408247E-005  0.1175326E+04  0.7818608E-02  0.8625378E-01
         -2   -1    0    0    0  501 -0.00000000000E+00  0.00000000000E+00  0.36836681658E+03  0.36836681658E+03  0.00000000000E+00 0. -1.
          2   -1    0    0  502    0  0.00000000000E+00 -0.00000000000E+00 -0.37600398596E+04  0.37600398596E+04  0.00000000000E+00 0.  1.
    9000010    2    1    2  502    0  0.32768758190E+03  0.53669658507E+03 -0.17899620912E+04  0.21370186947E+04  0.98359658290E+03 0.  0.
   -9000010    2    1    2    0  501 -0.32768758190E+03 -0.53669658507E+03 -0.16017109519E+04  0.19913879815E+04  0.10023600869E+04 0.  0.
        -13    1    3    3    0    0  0.25836228644E+03 -0.23397690603E+03 -0.85543617316E+03  0.92372469986E+03  0.10566000000E+00 0.  1.
          4    1    3    3  502    0  0.69325295459E+02  0.77067349110E+03 -0.93452591799E+03  0.12132939948E+04  0.00000000000E+00 0.  1.
         13    1    4    4    0    0  0.29396602841E+03 -0.13996001784E+02 -0.79031284743E+03  0.84333049388E+03  0.10566000000E+00 0. -1.
         -4    1    4    4    0  501 -0.62165361031E+03 -0.52270058328E+03 -0.81139810443E+03  0.11480574876E+04  0.00000000000E+00 0. -1.
<mgrwt>
<rscale>  2 0.11753258E+04</rscale>
<asrwt>0</asrwt>
<pdfrwt beam="2">  1        2 0.57846769E+00 0.11753258E+04</pdfrwt>
<pdfrwt beam="1">  1       -2 0.56671816E-01 0.11753258E+04</pdfrwt>
<totfact> 0.22396106E+00</totfact>
</mgrwt>
</event>
<event>
 8    1  0.1408247E-005  0.1139085E+04  0.7818608E-02  0.8653901E-01
          2   -1    0    0  502    0  0.00000000000E+00  0.00000000000E+00  0.19883372097E+04  0.19883372097E+04  0.00000000000E+00 0. -1.
         -2   -1    0    0    0  501 -0.00000000000E+00 -0.00000000000E+00 -0.65711708325E+03  0.65711708325E+03  0.00000000000E+00 0.  1.
    9000010    2    1    2  502    0  0.23879458477E+03  0.44677338778E+03  0.77124300962E+03  0.13696930253E+04  0.10122321325E+04 0.  0.
   -9000010    2    1    2    0  501 -0.23879458477E+03 -0.44677338778E+03  0.55997711679E+03  0.12757612676E+04  0.10282816378E+04 0.  0.
        -13    1    3    3    0    0  0.26977232604E+03 -0.65304288401E+02 -0.14980522244E+03  0.31540985054E+03  0.10566000000E+00 0.  1.
          4    1    3    3  502    0 -0.30977741273E+02  0.51207767618E+03  0.92104823206E+03  0.10542831748E+04  0.00000000000E+00 0.  1.
         13    1    4    4    0    0 -0.57330264299E+03 -0.52428623718E+03  0.25832739745E+03  0.81870937114E+03  0.10566000000E+00 0. -1.
         -4    1    4    4    0  501  0.33450805823E+03  0.77512849400E+02  0.30164971933E+03  0.45705189641E+03  0.00000000000E+00 0. -1.
<mgrwt>
<rscale>  2 0.11390849E+04</rscale>
<asrwt>0</asrwt>
<pdfrwt beam="1">  1        2 0.30589803E+00 0.11390849E+04</pdfrwt>
<pdfrwt beam="2">  1       -2 0.10109494E+00 0.11390849E+04</pdfrwt>
<totfact> 0.83224533E+00</totfact>
</mgrwt>
</event>
<event>
 8    1  0.1408247E-005  0.1400463E+04  0.7818608E-02  0.8469190E-01
          2   -1    0    0  502    0  0.00000000000E+00  0.00000000000E+00  0.20197187480E+04  0.20197187480E+04  0.00000000000E+00 0.  1.
         -2   -1    0    0    0  501 -0.00000000000E+00 -0.00000000000E+00 -0.11450448009E+04  0.11450448009E+04  0.00000000000E+00 0. -1.
    9000010    2    1    2  502    0 -0.88794285357E+03 -0.40283122237E+03  0.10505657618E+04  0.17405188529E+04  0.98742187162E+03 0.  0.
   -9000010    2    1    2    0  501  0.88794285357E+03  0.40283122237E+03 -0.17589181466E+03  0.14242446959E+04  0.10231419836E+04 0.  0.
        -13    1    3    3    0    0  0.56417720014E+02 -0.43395639428E+03  0.40418803500E+03  0.59570889709E+03  0.10566000000E+00 0.  1.
          4    1    3    3  502    0 -0.94436057358E+03  0.31125171906E+02  0.64637772681E+03  0.11448099558E+04  0.00000000000E+00 0.  1.
         13    1    4    4    0    0  0.31935974246E+03  0.14836324190E+03  0.42963537183E+03  0.55550775021E+03  0.10566000000E+00 0. -1.
         -4    1    4    4    0  501  0.56858311110E+03  0.25446798047E+03 -0.60552718649E+03  0.86873694574E+03  0.00000000000E+00 0. -1.
<mgrwt>
<rscale>  2 0.14004633E+04</rscale>
<asrwt>0</asrwt>
<pdfrwt beam="1">  1        2 0.31072596E+00 0.14004633E+04</pdfrwt>
<pdfrwt beam="2">  1       -2 0.17616074E+00 0.14004633E+04</pdfrwt>
<totfact> 0.15978401E+00</totfact>
</mgrwt>
</event>
<event>
 8    1  0.1408247E-005  0.1183891E+04  0.7818608E-02  0.8618792E-01
          2   -1    0    0  502    0  0.00000000000E+00  0.00000000000E+00  0.74677239413E+03  0.74677239413E+03  0.00000000000E+00 0. -1.
         -2   -1    0    0    0  501 -0.00000000000E+00 -0.00000000000E+00 -0.19295941365E+04  0.19295941365E+04  0.00000000000E+00 0.  1.
    9000010    2    1    2  502    0 -0.58703600795E+03  0.16732726259E+03 -0.37530843550E+03  0.12514269061E+04  0.10259645179E+04 0.  0.
   -9000010    2    1    2    0  501  0.58703600795E+03 -0.16732726259E+03 -0.80751330684E+03  0.14249396245E+04  0.10028786095E+04 0.  0.
        -13    1    3    3    0    0  0.77162068502E+02 -0.19125217189E+03 -0.44793588721E+03  0.49313076185E+03  0.10566000000E+00 0.  1.
          4    1    3    3  502    0 -0.66419807645E+03  0.35857943448E+03  0.72627451704E+02  0.75829614421E+03  0.00000000000E+00 0.  1.
         13    1    4    4    0    0 -0.16600920389E+03  0.18952282007E+03  0.17179021435E+02  0.25253333452E+03  0.10566000000E+00 0. -1.
         -4    1    4    4    0  501  0.75304521184E+03 -0.35685008266E+03 -0.82469232828E+03  0.11724062900E+04  0.00000000000E+00 0. -1.
<mgrwt>
<rscale>  2 0.11838912E+04</rscale>
<asrwt>0</asrwt>
<pdfrwt beam="1">  1        2 0.11488806E+00 0.11838912E+04</pdfrwt>
<pdfrwt beam="2">  1       -2 0.29686063E+00 0.11838912E+04</pdfrwt>
<totfact> 0.99891572E-01</totfact>
</mgrwt>
</event>
<event>
 8    1  0.1408247E-005  0.1165314E+04  0.7818608E-02  0.8633150E-01
         -2   -1    0    0    0  501 -0.00000000000E+00  0.00000000000E+00  0.36672045080E+03  0.36672045080E+03  0.00000000000E+00 0. -1.
          2   -1    0    0  502    0  0.00000000000E+00 -0.00000000000E+00 -0.42270246709E+04  0.42270246709E+04  0.00000000000E+00 0.  1.
    9000010    2    1    2  502    0 -0.45097239066E+03 -0.37694932928E+03 -0.27317984831E+04  0.29680685216E+04  0.10006202591E+04 0.  0.
   -9000010    2    1    2    0  501  0.45097239066E+03  0.37694932928E+03 -0.11285057370E+04  0.16256766000E+04  0.10118459940E+04 0.  0.
        -13    1    3    3    0    0 -0.75651825412E+03 -0.35673534268E+03 -0.17496709776E+04  0.19393113506E+04  0.10566000000E+00 0.  1.
          4    1    3    3  502    0  0.30554586346E+03 -0.20213986597E+02 -0.98212750546E+03  0.10287571710E+04  0.00000000000E+00 0.  1.
         13    1    4    4    0    0  0.21570627132E+03 -0.24557515627E+03 -0.83808812788E+03  0.89957105007E+03  0.10566000000E+00 0. -1.
         -4    1    4    4    0  501  0.23526611934E+03  0.62252448555E+03 -0.29041760911E+03  0.72610554998E+03  0.00000000000E+00 0. -1.
<mgrwt>
<rscale>  2 0.11653139E+04</rscale>
<asrwt>0</asrwt>
<pdfrwt beam="2">  1        2 0.65031148E+00 0.11653139E+04</pdfrwt>
<pdfrwt beam="1">  1       -2 0.56418531E-01 0.11653139E+04</pdfrwt>
<totfact> 0.88551343E-01</totfact>
</mgrwt>
</event>
<event>
 8    1  0.1408247E-005  0.9953700E+03  0.7818608E-02  0.8778954E-01
          2   -1    0    0  502    0  0.00000000000E+00  0.00000000000E+00  0.18279343396E+04  0.18279343396E+04  0.00000000000E+00 0. -1.
         -2   -1    0    0    0  501 -0.00000000000E+00 -0.00000000000E+00 -0.66008838537E+03  0.66008838537E+03  0.00000000000E+00 0.  1.
    9000010    2    1    2  502    0  0.16595514534E+03 -0.76343683976E+02  0.11200494296E+04  0.15134160988E+04  0.10012732369E+04 0.  0.
   -9000010    2    1    2    0  501 -0.16595514534E+03  0.76343683976E+02  0.47796524598E+02  0.97460662615E+03  0.95614020918E+03 0.  0.
        -13    1    3    3    0    0 -0.13413640116E+03  0.39282501693E+03  0.70767678211E+03  0.82043312168E+03  0.10566000000E+00 0.  1.
          4    1    3    3  502    0  0.30009154650E+03 -0.46916870090E+03  0.41237264753E+03  0.69298297715E+03  0.00000000000E+00 0.  1.
         13    1    4    4    0    0  0.12185498413E+03  0.44264741865E+03 -0.12811348663E+03  0.47665338666E+03  0.10566000000E+00 0. -1.
         -4    1    4    4    0  501 -0.28781012947E+03 -0.36630373468E+03  0.17591001122E+03  0.49795323948E+03  0.00000000000E+00 0. -1.
<mgrwt>
<rscale>  2 0.99536997E+03</rscale>
<asrwt>0</asrwt>
<pdfrwt beam="1">  1        2 0.28122067E+00 0.99536997E+03</pdfrwt>
<pdfrwt beam="2">  1       -2 0.10155206E+00 0.99536997E+03</pdfrwt>
<totfact> 0.10224912E+01</totfact>
</mgrwt>
</event>
<event>
 8    1  0.1408247E-005  0.1166521E+04  0.7818608E-02  0.8632208E-01
          2   -1    0    0  502    0  0.00000000000E+00  0.00000000000E+00  0.20121490410E+04  0.20121490410E+04  0.00000000000E+00 0. -1.
         -2   -1    0    0    0  501 -0.00000000000E+00 -0.00000000000E+00 -0.68461848894E+03  0.68461848894E+03  0.00000000000E+00 0.  1.
    9000010    2    1    2  502    0  0.17190379459E+02  0.66938285733E+03  0.57719565378E+03  0.13657852272E+04  0.10410790293E+04 0.  0.
   -9000010    2    1    2    0  501 -0.17190379459E+02 -0.66938285733E+03  0.75033489830E+03  0.13309823028E+04  0.87186152105E+03 0.  0.
        -13    1    3    3    0    0  0.35706192201E+03  0.59167615763E+03  0.71177808206E+03  0.99206952424E+03  0.10566000000E+00 0.  1.
          4    1    3    3  502    0 -0.33987154256E+03  0.77706699703E+02 -0.13458242829E+03  0.37371570294E+03  0.00000000000E+00 0.  1.
         13    1    4    4    0    0 -0.15627814482E+03 -0.53241371193E+02  0.67495651179E+03  0.69485524113E+03  0.10566000000E+00 0. -1.
         -4    1    4    4    0  501  0.13908776536E+03 -0.61614148614E+03  0.75378386508E+02  0.63612706165E+03  0.00000000000E+00 0. -1.
<mgrwt>
<rscale>  2 0.11665210E+04</rscale>
<asrwt>0</asrwt>
<pdfrwt beam="1">  1        2 0.30956139E+00 0.11665210E+04</pdfrwt>
<pdfrwt beam="2">  1       -2 0.10532592E+00 0.11665210E+04</pdfrwt>
<totfact> 0.72881046E+00</totfact>
</mgrwt>
</event>
<event>
 8    1  0.1408247E-005  0.1042579E+04  0.7818608E-02  0.8735582E-01
          1   -1    0    0  502    0  0.00000000000E+00  0.00000000000E+00  0.19407681875E+04  0.19407681875E+04  0.00000000000E+00 0.  1.
         -1   -1    0    0    0  501 -0.00000000000E+00 -0.00000000000E+00 -0.58722475963E+03  0.58722475963E+03  0.00000000000E+00 0. -1.
    9000010    2    1    2  502    0 -0.21769481730E+03 -0.63377458747E+02  0.40380609590E+03  0.11162742635E+04  0.10156776716E+04 0.  0.
   -9000010    2    1    2    0  501  0.21769481730E+03  0.63377458747E+02  0.94973733196E+03  0.14117186836E+04  0.10195787886E+04 0.  0.
        -13    1    3    3    0    0  0.12570320384E+02  0.43987139995E+03  0.34609728952E+03  0.55984659187E+03  0.10566000000E+00 0.  1.
          4    1    3    3  502    0 -0.23026513769E+03 -0.50324885870E+03  0.57708806382E+02  0.55642767163E+03  0.00000000000E+00 0.  1.
         13    1    4    4    0    0  0.28632067198E+03  0.15551952842E+03  0.11420939667E+04  0.11876634586E+04  0.10566000000E+00 0. -1.
         -4    1    4    4    0  501 -0.68625854672E+02 -0.92142069673E+02 -0.19235663474E+03  0.22405522503E+03  0.00000000000E+00 0. -1.
<mgrwt>
<rscale>  2 0.10425793E+04</rscale>
<asrwt>0</asrwt>
<pdfrwt beam="1">  1        1 0.29857972E+00 0.10425793E+04</pdfrwt>
<pdfrwt beam="2">  1       -1 0.90342272E-01 0.10425793E+04</pdfrwt>
<totfact> 0.52955619E+00</totfact>
</mgrwt>
</event>
<event>
 8    1  0.1408247E-005  0.1309160E+04  0.7818608E-02  0.8528604E-01
         -2   -1    0    0    0  501 -0.00000000000E+00  0.00000000000E+00  0.79715763992E+03  0.79715763992E+03  0.00000000000E+00 0. -1.
          2   -1    0    0  502    0  0.00000000000E+00 -0.00000000000E+00 -0.24750027940E+04  0.24750027940E+04  0.00000000000E+00 0.  1.
    9000010    2    1    2  502    0 -0.80131480371E+03 -0.23519669005E+03 -0.14324293675E+04  0.19413424330E+04  0.10097195905E+04 0.  0.
   -9000010    2    1    2    0  501  0.80131480371E+03  0.23519669005E+03 -0.24541578655E+03  0.13308180009E+04  0.10066899948E+04 0.  0.
        -13    1    3    3    0    0 -0.17194244974E+03  0.30743152127E+03 -0.86809358116E+03  0.93683767170E+03  0.10566000000E+00 0.  1.
          4    1    3    3  502    0 -0.62937235397E+03 -0.54262821132E+03 -0.56433578637E+03  0.10045047613E+04  0.00000000000E+00 0.  1.
         13    1    4    4    0    0  0.49573222511E+03 -0.33906156388E+03 -0.31220888859E+03  0.67689554910E+03  0.10566000000E+00 0. -1.
         -4    1    4    4    0  501  0.30558257859E+03  0.57425825393E+03  0.66793102048E+02  0.65392245184E+03  0.00000000000E+00 0. -1.
<mgrwt>
<rscale>  2 0.13091598E+04</rscale>
<asrwt>0</asrwt>
<pdfrwt beam="2">  1        2 0.38076966E+00 0.13091598E+04</pdfrwt>
<pdfrwt beam="1">  1       -2 0.12263964E+00 0.13091598E+04</pdfrwt>
<totfact> 0.27053491E+00</totfact>
</mgrwt>
</event>
<event>
 8    1  0.1408247E-005  0.1042534E+04  0.7818608E-02  0.8735622E-01
         -1   -1    0    0    0  501 -0.00000000000E+00  0.00000000000E+00  0.10910742937E+04  0.10910742937E+04  0.00000000000E+00 0. -1.
          1   -1    0    0  502    0  0.00000000000E+00 -0.00000000000E+00 -0.21519988765E+04  0.21519988765E+04  0.00000000000E+00 0.  1.
    9000010    2    1    2  502    0  0.17257430352E+03  0.25428199243E+03 -0.17173087715E+04  0.20056891698E+04  0.98954454525E+03 0.  0.
   -9000010    2    1    2    0  501 -0.17257430352E+03 -0.25428199243E+03  0.65638418868E+03  0.12373840004E+04  0.10029146222E+04 0.  0.
        -13    1    3    3    0    0  0.30134532360E+03  0.18486345554E+03 -0.18022026399E+04  0.18365505350E+04  0.10566000000E+00 0.  1.
          4    1    3    3  502    0 -0.12877102008E+03  0.69418536895E+02  0.84893868373E+02  0.16913863474E+03  0.00000000000E+00 0.  1.
         13    1    4    4    0    0 -0.53624456699E+03 -0.27047104242E+03  0.15948633910E+03  0.62140866098E+03  0.10566000000E+00 0. -1.
         -4    1    4    4    0  501  0.36367026346E+03  0.16189049991E+02  0.49689784959E+03  0.61597533943E+03  0.00000000000E+00 0. -1.
<mgrwt>
<rscale>  2 0.10425343E+04</rscale>
<asrwt>0</asrwt>
<pdfrwt beam="2">  1        1 0.33107675E+00 0.10425343E+04</pdfrwt>
<pdfrwt beam="1">  1       -1 0.16785759E+00 0.10425343E+04</pdfrwt>
<totfact> 0.74492161E-01</totfact>
</mgrwt>
</event>
<event>
 8    1  0.1408247E-005  0.1155619E+04  0.7818608E-02  0.8640753E-01
         -2   -1    0    0    0  501 -0.00000000000E+00  0.00000000000E+00  0.33419098304E+04  0.33419098304E+04  0.00000000000E+00 0.  1.
          2   -1    0    0  502    0  0.00000000000E+00 -0.00000000000E+00 -0.40259054605E+03  0.40259054605E+03  0.00000000000E+00 0. -1.
    9000010    2    1    2  502    0  0.54814971113E+03 -0.21095759932E+03  0.13063383578E+04  0.17429709654E+04  0.99320524903E+03 0.  0.
   -9000010    2    1    2    0  501 -0.54814971113E+03  0.21095759932E+03  0.16329809266E+04  0.20015294111E+04  0.99725726986E+03 0.  0.
        -13    1    3    3    0    0  0.39312919225E+03  0.21966001658E+03  0.11215563262E+03  0.46409048878E+03  0.10566000000E+00 0.  1.
          4    1    3    3  502    0  0.15502051887E+03 -0.43061761591E+03  0.11941827251E+04  0.12788804766E+04  0.00000000000E+00 0.  1.
         13    1    4    4    0    0 -0.69204531970E+03 -0.20110598269E+03  0.10361028467E+04  0.12620932854E+04  0.10566000000E+00 0. -1.
         -4    1    4    4    0  501  0.14389560858E+03  0.41206358201E+03  0.59687807985E+03  0.73943612571E+03  0.00000000000E+00 0. -1.
<mgrwt>
<rscale>  2 0.11556187E+04</rscale>
<asrwt>0</asrwt>
<pdfrwt beam="2">  1        2 0.61937009E-01 0.11556187E+04</pdfrwt>
<pdfrwt beam="1">  1       -2 0.51413996E+00 0.11556187E+04</pdfrwt>
<totfact> 0.32136355E-01</totfact>
</mgrwt>
</event>
<event>
 8    1  0.1408247E-005  0.1268549E+04  0.7818608E-02  0.8556657E-01
         -2   -1    0    0    0  501 -0.00000000000E+00  0.00000000000E+00  0.10671797613E+04  0.10671797613E+04  0.00000000000E+00 0. -1.
          2   -1    0    0  502    0  0.00000000000E+00 -0.00000000000E+00 -0.15471534100E+04  0.15471534100E+04  0.00000000000E+00 0.  1.
    9000010    2    1    2  502    0  0.33465152644E+03  0.68289005636E+03 -0.29202783878E+02  0.12497017912E+04  0.99124734100E+03 0.  0.
   -9000010    2    1    2    0  501 -0.33465152644E+03 -0.68289005636E+03 -0.45077086487E+03  0.13646313801E+04  0.10395643115E+04 0.  0.
        -13    1    3    3    0    0  0.20744140039E+03 -0.22387873510E+03  0.10815665199E+03  0.32380780590E+03  0.10566000000E+00 0.  1.
          4    1    3    3  502    0  0.12721012605E+03  0.90676879146E+03 -0.13735943587E+03  0.92589398527E+03  0.00000000000E+00 0.  1.
         13    1    4    4    0    0 -0.10294627801E+03 -0.43464858542E+03  0.30174699709E+03  0.53904414511E+03  0.10566000000E+00 0. -1.
         -4    1    4    4    0  501 -0.23170524842E+03 -0.24824147094E+03 -0.75251786196E+03  0.82558723501E+03  0.00000000000E+00 0. -1.
<mgrwt>
<rscale>  2 0.12685485E+04</rscale>
<asrwt>0</asrwt>
<pdfrwt beam="2">  1        2 0.23802360E+00 0.12685485E+04</pdfrwt>
<pdfrwt beam="1">  1       -2 0.16418150E+00 0.12685485E+04</pdfrwt>
<totfact> 0.37024269E+00</totfact>
</mgrwt>
</event>
<event>
 8    1  0.1408247E-005  0.1113132E+04  0.7818608E-02  0.8675014E-01
          2   -1    0    0  502    0  0.00000000000E+00  0.00000000000E+00  0.24203651308E+04  0.24203651308E+04  0.00000000000E+00 0. -1.
         -2   -1    0    0    0  501 -0.00000000000E+00 -0.00000000000E+00 -0.57342705650E+03  0.57342705650E+03  0.00000000000E+00 0.  1.
    9000010    2    1    2  502    0 -0.32746591542E+03 -0.36867708332E+03  0.14145803852E+04  0.18007930367E+04  0.99933036439E+03 0.  0.
   -9000010    2    1    2    0  501  0.32746591542E+03  0.36867708332E+03  0.43235768911E+03  0.11929991507E+04  0.99657266900E+03 0.  0.
        -13    1    3    3    0    0 -0.64708799621E+03 -0.27326879869E+03  0.12379684884E+04  0.14233638679E+04  0.10566000000E+00 0.  1.
          4    1    3    3  502    0  0.31962208079E+03 -0.95408284629E+02  0.17661189680E+03  0.37742916871E+03  0.00000000000E+00 0.  1.
         13    1    4    4    0    0  0.64907432368E+03  0.27226339071E+03  0.83466079452E+02  0.70879575984E+03  0.10566000000E+00 0. -1.
         -4    1    4    4    0  501 -0.32160840826E+03  0.96413692612E+02  0.34889160966E+03  0.48420339082E+03  0.00000000000E+00 0. -1.
<mgrwt>
<rscale>  2 0.11131320E+04</rscale>
<asrwt>0</asrwt>
<pdfrwt beam="1">  1        2 0.37236386E+00 0.11131320E+04</pdfrwt>
<pdfrwt beam="2">  1       -2 0.88219549E-01 0.11131320E+04</pdfrwt>
<totfact> 0.66731050E+00</totfact>
</mgrwt>
</event>
<event>
 8    1  0.1408247E-005  0.1277079E+04  0.7818608E-02  0.8550675E-01
         -1   -1    0    0    0  501 -0.00000000000E+00  0.00000000000E+00  0.11640138558E+04  0.11640138558E+04  0.00000000000E+00 0.  1.
          1   -1    0    0  502    0  0.00000000000E+00 -0.00000000000E+00 -0.15471366364E+04  0.15471366364E+04  0.00000000000E+00 0. -1.
    9000010    2    1    2  502    0  0.80653849392E+03 -0.48207123705E+01 -0.60828882103E+03  0.14165125260E+04  0.99295763505E+03 0.  0.
   -9000010    2    1    2    0  501 -0.80653849392E+03  0.48207123705E+01  0.22516604039E+03  0.12946379662E+04  0.98735005767E+03 0.  0.
        -13    1    3    3    0    0  0.74509883627E+01  0.36761391542E+03 -0.32433749105E+03  0.49029616285E+03  0.10566000000E+00 0.  1.
          4    1    3    3  502    0  0.79908750556E+03 -0.37243462779E+03 -0.28395132997E+03  0.92621636312E+03  0.00000000000E+00 0.  1.
         13    1    4    4    0    0 -0.16696525676E+03  0.35797873694E+02  0.55052211910E+03  0.57639699818E+03  0.10566000000E+00 0. -1.
         -4    1    4    4    0  501 -0.63957323716E+03 -0.30977161323E+02 -0.32535607871E+03  0.71824096804E+03  0.00000000000E+00 0. -1.
<mgrwt>
<rscale>  2 0.12770789E+04</rscale>
<asrwt>0</asrwt>
<pdfrwt beam="2">  1        1 0.23802102E+00 0.12770789E+04</pdfrwt>
<pdfrwt beam="1">  1       -1 0.17907906E+00 0.12770789E+04</pdfrwt>
<totfact> 0.16415296E+00</totfact>
</mgrwt>
</event>
<event>
 8    1  0.1408247E-005  0.1055566E+04  0.7818608E-02  0.8724064E-01
          1   -1    0    0  502    0  0.00000000000E+00  0.00000000000E+00  0.13622185041E+04  0.13622185041E+04  0.00000000000E+00 0.  1.
         -1   -1    0    0    0  501 -0.00000000000E+00 -0.00000000000E+00 -0.82977728803E+03  0.82977728803E+03  0.00000000000E+00 0. -1.
    9000010    2    1    2  502    0  0.35081166806E+03 -0.78739097454E+02  0.13886399919E+03  0.10764619121E+04  0.10050961974E+04 0.  0.
   -9000010    2    1    2    0  501 -0.35081166806E+03  0.78739097454E+02  0.39357721687E+03  0.11155338800E+04  0.97992047636E+03 0.  0.
        -13    1    3    3    0    0  0.45228054315E+03  0.70434777192E+02  0.49686619914E+03  0.67556996570E+03  0.10566000000E+00 0.  1.
          4    1    3    3  502    0 -0.10146887509E+03 -0.14917387465E+03 -0.35800219996E+03  0.40089194637E+03  0.00000000000E+00 0.  1.
         13    1    4    4    0    0 -0.61607869492E+03 -0.17303922450E+02  0.52000173313E+03  0.80638340613E+03  0.10566000000E+00 0. -1.
         -4    1    4    4    0  501  0.26526702686E+03  0.96043019904E+02 -0.12642451626E+03  0.30915047392E+03  0.00000000000E+00 0. -1.
<mgrwt>
<rscale>  2 0.10555661E+04</rscale>
<asrwt>0</asrwt>
<pdfrwt beam="1">  1        1 0.20957208E+00 0.10555661E+04</pdfrwt>
<pdfrwt beam="2">  1       -1 0.12765804E+00 0.10555661E+04</pdfrwt>
<totfact> 0.64912281E+00</totfact>
</mgrwt>
</event>
<event>
 8    1  0.1408247E-005  0.1405936E+04  0.7818608E-02  0.8465778E-01
          2   -1    0    0  502    0  0.00000000000E+00  0.00000000000E+00  0.25182101766E+04  0.25182101766E+04  0.00000000000E+00 0.  1.
         -2   -1    0    0    0  501 -0.00000000000E+00 -0.00000000000E+00 -0.82486661259E+03  0.82486661259E+03  0.00000000000E+00 0. -1.
    9000010    2    1    2  502    0  0.59159777319E+03  0.81478078145E+03  0.12188300383E+04  0.18667229800E+04  0.99259879855E+03 0.  0.
   -9000010    2    1    2    0  501 -0.59159777319E+03 -0.81478078145E+03  0.47451352572E+03  0.14763538091E+04  0.96984629534E+03 0.  0.
        -13    1    3    3    0    0  0.31018618980E+03 -0.57510892385E+02  0.79814239459E+03  0.85822739894E+03  0.10566000000E+00 0.  1.
          4    1    3    3  502    0  0.28141158339E+03  0.87229167384E+03  0.42068764367E+03  0.10084955811E+04  0.00000000000E+00 0.  1.
         13    1    4    4    0    0 -0.50553904166E+02  0.53989342205E+02  0.44641276306E+03  0.45249852208E+03  0.10566000000E+00 0. -1.
         -4    1    4    4    0  501 -0.54104386902E+03 -0.86877012366E+03  0.28100762659E+02  0.10238552871E+04  0.00000000000E+00 0. -1.
<mgrwt>
<rscale>  2 0.14059362E+04</rscale>
<asrwt>0</asrwt>
<pdfrwt beam="1">  1        2 0.38741695E+00 0.14059362E+04</pdfrwt>
<pdfrwt beam="2">  1       -2 0.12690256E+00 0.14059362E+04</pdfrwt>
<totfact> 0.23065700E+00</totfact>
</mgrwt>
</event>
<event>
 8    1  0.1408247E-005  0.1051946E+04  0.7818608E-02  0.8727257E-01
         -1   -1    0    0    0  501 -0.00000000000E+00  0.00000000000E+00  0.50698392969E+03  0.50698392969E+03  0.00000000000E+00 0. -1.
          1   -1    0    0  502    0  0.00000000000E+00 -0.00000000000E+00 -0.22213354644E+04  0.22213354644E+04  0.00000000000E+00 0.  1.
    9000010    2    1    2  502    0 -0.68387003646E+02  0.34843376008E+03 -0.67976229933E+03  0.12550566376E+04  0.99348251744E+03 0.  0.
   -9000010    2    1    2    0  501  0.68387003646E+02 -0.34843376008E+03 -0.10345892354E+04  0.14732627566E+04  0.98693738222E+03 0.  0.
        -13    1    3    3    0    0  0.45463101756E+03  0.63991928077E+02 -0.31623265261E+03  0.55748312147E+03  0.10566000000E+00 0.  1.
          4    1    3    3  502    0 -0.52301802121E+03  0.28444183200E+03 -0.36352964672E+03  0.69757351609E+03  0.00000000000E+00 0.  1.
         13    1    4    4    0    0  0.16720826468E+03  0.14672827233E+03 -0.93179049453E+03  0.95797772758E+03  0.10566000000E+00 0. -1.
         -4    1    4    4    0  501 -0.98821261030E+02 -0.49516203241E+03 -0.10279874088E+03  0.51528502899E+03  0.00000000000E+00 0. -1.
<mgrwt>
<rscale>  2 0.10519460E+04</rscale>
<asrwt>0</asrwt>
<pdfrwt beam="2">  1        1 0.34174392E+00 0.10519460E+04</pdfrwt>
<pdfrwt beam="1">  1       -1 0.77997527E-01 0.10519460E+04</pdfrwt>
<totfact> 0.42908393E+00</totfact>
</mgrwt>
</event>
<event>
 8    1  0.1408247E-005  0.1110621E+04  0.7818608E-02  0.8677088E-01
          2   -1    0    0  502    0  0.00000000000E+00  0.00000000000E+00  0.15183071262E+04  0.15183071262E+04  0.00000000000E+00 0. -1.
         -2   -1    0    0    0  501 -0.00000000000E+00 -0.00000000000E+00 -0.81289160179E+03  0.81289160179E+03  0.00000000000E+00 0.  1.
    9000010    2    1    2  502    0 -0.49463036406E+03 -0.18082683199E+03  0.33356631446E+03  0.11740179594E+04  0.99483372618E+03 0.  0.
   -9000010    2    1    2    0  501  0.49463036406E+03  0.18082683199E+03  0.37184920998E+03  0.11571807686E+04  0.96095679194E+03 0.  0.
        -13    1    3    3    0    0 -0.62110563700E+03  0.22499811701E+03  0.35201942814E+03  0.74854128405E+03  0.10566000000E+00 0.  1.
          4    1    3    3  502    0  0.12647527295E+03 -0.40582494900E+03 -0.18453113684E+02  0.42547667539E+03  0.00000000000E+00 0.  1.
         13    1    4    4    0    0  0.37614351472E+03  0.49990941420E+03  0.49234119857E+03  0.79611131951E+03  0.10566000000E+00 0. -1.
         -4    1    4    4    0  501  0.11848684933E+03 -0.31908258221E+03 -0.12049198859E+03  0.36106944907E+03  0.00000000000E+00 0. -1.
<mgrwt>
<rscale>  2 0.11106209E+04</rscale>
<asrwt>0</asrwt>
<pdfrwt beam="1">  1        2 0.23358571E+00 0.11106209E+04</pdfrwt>
<pdfrwt beam="2">  1       -2 0.12506025E+00 0.11106209E+04</pdfrwt>
<totfact> 0.87461012E+00</totfact>
</mgrwt>
</event>
<event>
 8    1  0.1408247E-005  0.1326962E+04  0.7818608E-02  0.8516635E-01
         -1   -1    0    0    0  501 -0.00000000000E+00  0.00000000000E+00  0.78346307580E+03  0.78346307580E+03  0.00000000000E+00 0. -1.
          1   -1    0    0  502    0  0.00000000000E+00 -0.00000000000E+00 -0.22840097590E+04  0.22840097590E+04  0.00000000000E+00 0.  1.
    9000010    2    1    2  502    0 -0.93361520925E+03  0.27848351417E+02 -0.91258434116E+03  0.15747055376E+04  0.88004230620E+03 0.  0.
   -9000010    2    1    2    0  501  0.93361520925E+03 -0.27848351417E+02 -0.58796234204E+03  0.14927672972E+04  0.10051077546E+04 0.  0.
        -13    1    3    3    0    0 -0.73704796410E+03  0.25125632268E+03 -0.99731070796E+03  0.12653055364E+04  0.10566000000E+00 0.  1.
          4    1    3    3  502    0 -0.19656724515E+03 -0.22340797127E+03  0.84726366802E+02  0.30940000117E+03  0.00000000000E+00 0.  1.
         13    1    4    4    0    0  0.67119290561E+03  0.11300151950E+03  0.14999911014E+03  0.69697130799E+03  0.10566000000E+00 0. -1.
         -4    1    4    4    0  501  0.26242230364E+03 -0.14084987092E+03 -0.73796145218E+03  0.79579598924E+03  0.00000000000E+00 0. -1.
<mgrwt>
<rscale>  2 0.13269624E+04</rscale>
<asrwt>0</asrwt>
<pdfrwt beam="2">  1        1 0.35138612E+00 0.13269624E+04</pdfrwt>
<pdfrwt beam="1">  1       -1 0.12053278E+00 0.13269624E+04</pdfrwt>
<totfact> 0.14410906E+00</totfact>
</mgrwt>
</event>
<event>
 8    1  0.1408247E-005  0.1098592E+04  0.7818608E-02  0.8687106E-01
          2   -1    0    0  502    0  0.00000000000E+00  0.00000000000E+00  0.18868927751E+04  0.18868927751E+04  0.00000000000E+00 0.  1.
         -2   -1    0    0    0  501 -0.00000000000E+00 -0.00000000000E+00 -0.86203453301E+03  0.86203453301E+03  0.00000000000E+00 0. -1.
    9000010    2    1    2  502    0 -0.39536978878E+03  0.19241127126E+03 -0.18169383027E+03  0.11246692837E+04  0.10190824219E+04 0.  0.
   -9000010    2    1    2    0  501  0.39536978878E+03 -0.19241127126E+03  0.12065520723E+04  0.16242580243E+04  0.99453851567E+03 0.  0.
        -13    1    3    3    0    0 -0.96686097217E+01  0.27429334829E+03  0.36123103630E+03  0.45367190312E+03  0.10566000000E+00 0.  1.
          4    1    3    3  502    0 -0.38570117906E+03 -0.81882077027E+02 -0.54292486657E+03  0.67099738063E+03  0.00000000000E+00 0.  1.
         13    1    4    4    0    0  0.68059513352E+03 -0.26495870826E+02  0.50153375259E+03  0.84584152363E+03  0.10566000000E+00 0. -1.
         -4    1    4    4    0  501 -0.28522534474E+03 -0.16591540044E+03  0.70501831976E+03  0.77841650071E+03  0.00000000000E+00 0. -1.
<mgrwt>
<rscale>  2 0.10985920E+04</rscale>
<asrwt>0</asrwt>
<pdfrwt beam="1">  1        2 0.29029119E+00 0.10985920E+04</pdfrwt>
<pdfrwt beam="2">  1       -2 0.13262070E+00 0.10985920E+04</pdfrwt>
<totfact> 0.46970553E+00</totfact>
</mgrwt>
</event>
<event>
 8    1  0.1408247E-005  0.1213730E+04  0.7818608E-02  0.8596295E-01
         -2   -1    0    0    0  501 -0.00000000000E+00  0.00000000000E+00  0.85064825857E+03  0.85064825857E+03  0.00000000000E+00 0.  1.
          2   -1    0    0  502    0  0.00000000000E+00 -0.00000000000E+00 -0.17541862735E+04  0.17541862735E+04  0.00000000000E+00 0. -1.
    9000010    2    1    2  502    0 -0.10955322397E+02  0.68593067902E+03 -0.30349445068E+03  0.12481175198E+04  0.99753072438E+03 0.  0.
   -9000010    2    1    2    0  501  0.10955322397E+02 -0.68593067902E+03 -0.60004356423E+03  0.13567170123E+04  0.10049914711E+04 0.  0.
        -13    1    3    3    0    0  0.29129514969E+03  0.15887206840E+03 -0.50825037947E+03  0.60696923953E+03  0.10566000000E+00 0.  1.
          4    1    3    3  502    0 -0.30225047208E+03  0.52705861062E+03  0.20475592878E+03  0.64114828025E+03  0.00000000000E+00 0.  1.
         13    1    4    4    0    0 -0.24245018545E+03 -0.86791884081E+03 -0.39872084294E+03  0.98541540906E+03  0.10566000000E+00 0. -1.
         -4    1    4    4    0  501  0.25340550784E+03  0.18198816179E+03 -0.20132272130E+03  0.37130160321E+03  0.00000000000E+00 0. -1.
<mgrwt>
<rscale>  2 0.12137297E+04</rscale>
<asrwt>0</asrwt>
<pdfrwt beam="2">  1        2 0.26987481E+00 0.12137297E+04</pdfrwt>
<pdfrwt beam="1">  1       -2 0.13086896E+00 0.12137297E+04</pdfrwt>
<totfact> 0.56792630E+00</totfact>
</mgrwt>
</event>
<event>
 8    1  0.1408247E-005  0.1396629E+04  0.7818608E-02  0.8471591E-01
         -2   -1    0    0    0  501 -0.00000000000E+00  0.00000000000E+00  0.12637631442E+04  0.12637631442E+04  0.00000000000E+00 0.  1.
          2   -1    0    0  502    0  0.00000000000E+00 -0.00000000000E+00 -0.15498868189E+04  0.15498868189E+04  0.00000000000E+00 0. -1.
    9000010    2    1    2  502    0  0.39107812145E+03 -0.90025968663E+03 -0.52548391372E+02  0.13980870428E+04  0.99422152725E+03 0.  0.
   -9000010    2    1    2    0  501 -0.39107812145E+03  0.90025968663E+03 -0.23357528332E+03  0.14155629204E+04  0.99290048253E+03 0.  0.
        -13    1    3    3    0    0 -0.15986953263E+03 -0.61541947475E+03  0.27950874459E+03  0.69456788497E+03  0.10566000000E+00 0.  1.
          4    1    3    3  502    0  0.55094765408E+03 -0.28484021188E+03 -0.33205713596E+03  0.70351915779E+03  0.00000000000E+00 0.  1.
         13    1    4    4    0    0  0.20926803205E+03  0.70861837283E+03  0.12638563960E+02  0.73898095511E+03  0.10566000000E+00 0. -1.
         -4    1    4    4    0  501 -0.60034615350E+03  0.19164131380E+03 -0.24621384728E+03  0.67658196530E+03  0.00000000000E+00 0. -1.
<mgrwt>
<rscale>  2 0.13966292E+04</rscale>
<asrwt>0</asrwt>
<pdfrwt beam="2">  1        2 0.23844413E+00 0.13966292E+04</pdfrwt>
<pdfrwt beam="1">  1       -2 0.19442510E+00 0.13966292E+04</pdfrwt>
<totfact> 0.20337674E+00</totfact>
</mgrwt>
</event>
<event>
 8    1  0.1408247E-005  0.1503006E+04  0.7818608E-02  0.8407771E-01
          2   -1    0    0  502    0  0.00000000000E+00  0.00000000000E+00  0.20717902436E+04  0.20717902436E+04  0.00000000000E+00 0.  1.
         -2   -1    0    0    0  501 -0.00000000000E+00 -0.00000000000E+00 -0.11632832984E+04  0.11632832984E+04  0.00000000000E+00 0. -1.
    9000010    2    1    2  502    0 -0.87512142497E+03 -0.67748251639E+03  0.86297733597E+03  0.17456541673E+04  0.10381514924E+04 0.  0.
   -9000010    2    1    2    0  501  0.87512142497E+03  0.67748251639E+03  0.45529609259E+02  0.14894193746E+04  0.99572941090E+03 0.  0.
        -13    1    3    3    0    0 -0.47441011622E+02 -0.67666903959E+03  0.49567501368E+03  0.84013413755E+03  0.10566000000E+00 0.  1.
          4    1    3    3  502    0 -0.82768041335E+03 -0.81347679965E+00  0.36730232229E+03  0.90552002978E+03  0.00000000000E+00 0.  1.
         13    1    4    4    0    0  0.56176753519E+02 -0.37540276009E+02 -0.33181923888E+03  0.33862828944E+03  0.10566000000E+00 0. -1.
         -4    1    4    4    0  501  0.81894467145E+03  0.71502279240E+03  0.37734884814E+03  0.11507910852E+04  0.00000000000E+00 0. -1.
<mgrwt>
<rscale>  2 0.15030056E+04</rscale>
<asrwt>0</asrwt>
<pdfrwt beam="1">  1        2 0.31873696E+00 0.15030056E+04</pdfrwt>
<pdfrwt beam="2">  1       -2 0.17896666E+00 0.15030056E+04</pdfrwt>
<totfact> 0.14027271E+00</totfact>
</mgrwt>
</event>
<event>
 8    1  0.1408247E-005  0.1694472E+04  0.7818608E-02  0.8305602E-01
          2   -1    0    0  502    0  0.00000000000E+00  0.00000000000E+00  0.31645836316E+04  0.31645836316E+04  0.00000000000E+00 0.  1.
         -2   -1    0    0    0  501 -0.00000000000E+00 -0.00000000000E+00 -0.91664688902E+03  0.91664688902E+03  0.00000000000E+00 0. -1.
    9000010    2    1    2  502    0 -0.12080067316E+04 -0.63370183214E+03  0.13294439062E+04  0.21530907738E+04  0.10037532093E+04 0.  0.
   -9000010    2    1    2    0  501  0.12080067316E+04  0.63370183214E+03  0.91849283642E+03  0.19281397468E+04  0.10065960048E+04 0.  0.
        -13    1    3    3    0    0 -0.86803227571E+03  0.26947590795E+02  0.10419448960E+04  0.13564126886E+04  0.10566000000E+00 0.  1.
          4    1    3    3  502    0 -0.33997445590E+03 -0.66064942293E+03  0.28749901020E+03  0.79667808527E+03  0.00000000000E+00 0.  1.
         13    1    4    4    0    0 -0.11916698838E+03  0.13969993375E+03  0.36329657539E+03  0.40706419084E+03  0.10566000000E+00 0. -1.
         -4    1    4    4    0  501  0.13271737200E+04  0.49400189839E+03  0.55519626104E+03  0.15210755560E+04  0.00000000000E+00 0. -1.
<mgrwt>
<rscale>  2 0.16944719E+04</rscale>
<asrwt>0</asrwt>
<pdfrwt beam="1">  1        2 0.48685902E+00 0.16944719E+04</pdfrwt>
<pdfrwt beam="2">  1       -2 0.14102260E+00 0.16944719E+04</pdfrwt>
<totfact> 0.67500133E-01</totfact>
</mgrwt>
</event>
<event>
 8    1  0.1408247E-005  0.1227113E+04  0.7818608E-02  0.8586421E-01
          2   -1    0    0  502    0  0.00000000000E+00  0.00000000000E+00  0.25791638386E+04  0.25791638386E+04  0.00000000000E+00 0. -1.
         -2   -1    0    0    0  501 -0.00000000000E+00 -0.00000000000E+00 -0.59940861697E+03  0.59940861697E+03  0.00000000000E+00 0.  1.
    9000010    2    1    2  502    0 -0.70185778413E+03  0.11322925852E+03  0.12561873565E+04  0.17657181486E+04  0.10170195139E+04 0.  0.
   -9000010    2    1    2    0  501  0.70185778413E+03 -0.11322925852E+03  0.72356786515E+03  0.14128543070E+04  0.98345392526E+03 0.  0.
        -13    1    3    3    0    0 -0.91847672833E+03  0.28738458008E+03  0.95276557997E+03  0.13542347134E+04  0.10566000000E+00 0.  1.
          4    1    3    3  502    0  0.21661894420E+03 -0.17415532157E+03  0.30342177655E+03  0.41148343527E+03  0.00000000000E+00 0.  1.
         13    1    4    4    0    0 -0.16635712155E+03 -0.19249227741E+03  0.41741038168E+03  0.48883474371E+03  0.10566000000E+00 0. -1.
         -4    1    4    4    0  501  0.86821490567E+03  0.79263018896E+02  0.30615748347E+03  0.92401956326E+03  0.00000000000E+00 0. -1.
<mgrwt>
<rscale>  2 0.12271129E+04</rscale>
<asrwt>0</asrwt>
<pdfrwt beam="1">  1        2 0.39679443E+00 0.12271129E+04</pdfrwt>
<pdfrwt beam="2">  1       -2 0.92216712E-01 0.12271129E+04</pdfrwt>
<totfact> 0.48399528E+00</totfact>
</mgrwt>
</event>
<event>
 8    1  0.1408247E-005  0.1320861E+04  0.7818608E-02  0.8520715E-01
         -4   -1    0    0    0  501 -0.00000000000E+00  0.00000000000E+00  0.14596010166E+04  0.14596010166E+04  0.00000000000E+00 0. -1.
          4   -1    0    0  502    0  0.00000000000E+00 -0.00000000000E+00 -0.15422079721E+04  0.15422079721E+04  0.00000000000E+00 0.  1.
    9000010    2    1    2  502    0  0.87665790739E+03  0.17608943845E+03 -0.75324048949E+03  0.15410878798E+04  0.10040139647E+04 0.  0.
   -9000010    2    1    2    0  501 -0.87665790739E+03 -0.17608943845E+03  0.67063353401E+03  0.14607211089E+04  0.94043619884E+03 0.  0.
        -13    1    3    3    0    0  0.96550466523E+03 -0.16060198600E+03 -0.44159043335E+03  0.10737757580E+04  0.10566000000E+00 0.  1.
          4    1    3    3  502    0 -0.88846757840E+02  0.33669142446E+03 -0.31165005614E+03  0.46731212179E+03  0.00000000000E+00 0.  1.
         13    1    4    4    0    0  0.16450005805E+03 -0.12193061608E+03 -0.26621802928E+02  0.20648504980E+03  0.10566000000E+00 0. -1.
         -4    1    4    4    0  501 -0.10411579654E+04 -0.54158822380E+02  0.69725533694E+03  0.12542360591E+04  0.00000000000E+00 0. -1.
<mgrwt>
<rscale>  2 0.13208611E+04</rscale>
<asrwt>0</asrwt>
<pdfrwt beam="2">  1        4 0.23726276E+00 0.13208611E+04</pdfrwt>
<pdfrwt beam="1">  1       -4 0.22455400E+00 0.13208611E+04</pdfrwt>
<totfact> 0.12420218E-01</totfact>
</mgrwt>
</event>
<event>
 8    1  0.1408247E-005  0.1080775E+04  0.7818608E-02  0.8702192E-01
          2   -1    0    0  502    0  0.00000000000E+00  0.00000000000E+00  0.30510343011E+04  0.30510343011E+04  0.00000000000E+00 0. -1.
         -2   -1    0    0    0  501 -0.00000000000E+00 -0.00000000000E+00 -0.39456132321E+03  0.39456132321E+03  0.00000000000E+00 0.  1.
    9000010    2    1    2  502    0  0.34751063055E+03 -0.19472462536E+03  0.16140476903E+04  0.19375163807E+04  0.99505701382E+03 0.  0.
   -9000010    2    1    2    0  501 -0.34751063055E+03  0.19472462536E+03  0.10424252876E+04  0.15080792437E+04  0.10143821799E+04 0.  0.
        -13    1    3    3    0    0  0.51638986366E+03 -0.12570238457E+03  0.29885984583E+03  0.60973502392E+03  0.10566000000E+00 0.  1.
          4    1    3    3  502    0 -0.16887923311E+03 -0.69022240795E+02  0.13151878445E+04  0.13277813568E+04  0.00000000000E+00 0.  1.
         13    1    4    4    0    0 -0.29370051793E+03  0.58094892162E+03  0.42367583879E+03  0.77669998796E+03  0.10566000000E+00 0. -1.
         -4    1    4    4    0  501 -0.53810112623E+02 -0.38622429626E+03  0.61874944882E+03  0.73137925569E+03  0.00000000000E+00 0. -1.
<mgrwt>
<rscale>  2 0.10807751E+04</rscale>
<asrwt>0</asrwt>
<pdfrwt beam="1">  1        2 0.46938988E+00 0.10807751E+04</pdfrwt>
<pdfrwt beam="2">  1       -2 0.60701744E-01 0.10807751E+04</pdfrwt>
<totfact> 0.63440346E+00</totfact>
</mgrwt>
</event>
<event>
 8    1  0.1408247E-005  0.1142524E+04  0.7818608E-02  0.8651147E-01
          1   -1    0    0  502    0  0.00000000000E+00  0.00000000000E+00  0.10366648999E+04  0.10366648999E+04  0.00000000000E+00 0. -1.
         -1   -1    0    0    0  501 -0.00000000000E+00 -0.00000000000E+00 -0.13317376630E+04  0.13317376630E+04  0.00000000000E+00 0.  1.
    9000010    2    1    2  502    0  0.55560255525E+03 -0.27932448831E+02 -0.42285802131E+03  0.12110146381E+04  0.98907690622E+03 0.  0.
   -9000010    2    1    2    0  501 -0.55560255525E+03  0.27932448831E+02  0.12778525824E+03  0.11573879248E+04  0.10068482086E+04 0.  0.
        -13    1    3    3    0    0  0.82786149845E+03 -0.12283048655E+03 -0.38137427242E+03  0.91972187963E+03  0.10566000000E+00 0.  1.
          4    1    3    3  502    0 -0.27225894320E+03  0.94898037719E+02 -0.41483748893E+02  0.29129275847E+03  0.00000000000E+00 0.  1.
         13    1    4    4    0    0 -0.24983946645E+03 -0.15666144287E+03  0.53797204604E+03  0.61349531389E+03  0.10566000000E+00 0. -1.
         -4    1    4    4    0  501 -0.30576308880E+03  0.18459389170E+03 -0.41018678779E+03  0.54389261091E+03  0.00000000000E+00 0. -1.
<mgrwt>
<rscale>  2 0.11425245E+04</rscale>
<asrwt>0</asrwt>
<pdfrwt beam="1">  1        1 0.15948691E+00 0.11425245E+04</pdfrwt>
<pdfrwt beam="2">  1       -1 0.20488272E+00 0.11425245E+04</pdfrwt>
<totfact> 0.24192530E+00</totfact>
</mgrwt>
</event>
<event>
 8    1  0.1408247E-005  0.1154063E+04  0.7818608E-02  0.8641980E-01
         -2   -1    0    0    0  501 -0.00000000000E+00  0.00000000000E+00  0.79698920406E+03  0.79698920406E+03  0.00000000000E+00 0. -1.
          2   -1    0    0  502    0  0.00000000000E+00 -0.00000000000E+00 -0.17041416551E+04  0.17041416551E+04  0.00000000000E+00 0.  1.
    9000010    2    1    2  502    0  0.30659235042E+03 -0.32334577678E+03 -0.58903392760E+03  0.12410130016E+04  0.99729681713E+03 0.  0.
   -9000010    2    1    2    0  501 -0.30659235042E+03  0.32334577678E+03 -0.31811852342E+03  0.12601178576E+04  0.11349653120E+04 0.  0.
        -13    1    3    3    0    0  0.57997485820E+03 -0.48268198486E+03 -0.52212957680E+03  0.91759034476E+03  0.10566000000E+00 0.  1.
          4    1    3    3  502    0 -0.27338250779E+03  0.15933620809E+03 -0.66904350800E+02  0.32342265679E+03  0.00000000000E+00 0.  1.
         13    1    4    4    0    0 -0.71992021956E+03  0.28500472593E+03 -0.33732483916E+03  0.84457141475E+03  0.10566000000E+00 0. -1.
         -4    1    4    4    0  501  0.41332786915E+03  0.38341050844E+02  0.19206315732E+02  0.41554644284E+03  0.00000000000E+00 0. -1.
<mgrwt>
<rscale>  2 0.11540633E+04</rscale>
<asrwt>0</asrwt>
<pdfrwt beam="2">  1        2 0.26217564E+00 0.11540633E+04</pdfrwt>
<pdfrwt beam="1">  1       -2 0.12261373E+00 0.11540633E+04</pdfrwt>
<totfact> 0.72741269E+00</totfact>
</mgrwt>
</event>
<event>
 8    1  0.1408247E-005  0.1602663E+04  0.7818608E-02  0.8352749E-01
         -2   -1    0    0    0  501 -0.00000000000E+00  0.00000000000E+00  0.10518552407E+04  0.10518552407E+04  0.00000000000E+00 0. -1.
          2   -1    0    0  502    0  0.00000000000E+00 -0.00000000000E+00 -0.26479134178E+04  0.26479134178E+04  0.00000000000E+00 0.  1.
    9000010    2    1    2  502    0 -0.22858233427E+03 -0.12213031543E+04 -0.13145321286E+04  0.20736806801E+04  0.10140638873E+04 0.  0.
   -9000010    2    1    2    0  501  0.22858233427E+03  0.12213031543E+04 -0.28152604852E+03  0.16260879784E+04  0.10104820231E+04 0.  0.
        -13    1    3    3    0    0 -0.18346316175E+03  0.12110331832E+03 -0.37447291563E+03  0.43422888104E+03  0.10566000000E+00 0.  1.
          4    1    3    3  502    0 -0.45119172525E+02 -0.13424064726E+04 -0.94005921302E+03  0.16394517991E+04  0.00000000000E+00 0.  1.
         13    1    4    4    0    0 -0.16806795966E+02 -0.13161409891E+03  0.13510433761E+03  0.18936190913E+03  0.10566000000E+00 0. -1.
         -4    1    4    4    0  501  0.24538913024E+03  0.13529172532E+04 -0.41663038614E+03  0.14367260692E+04  0.00000000000E+00 0. -1.
<mgrwt>
<rscale>  2 0.16026629E+04</rscale>
<asrwt>0</asrwt>
<pdfrwt beam="2">  1        2 0.40737130E+00 0.16026629E+04</pdfrwt>
<pdfrwt beam="1">  1       -2 0.16182388E+00 0.16026629E+04</pdfrwt>
<totfact> 0.92330087E-01</totfact>
</mgrwt>
</event>
<event>
 8    1  0.1408247E-005  0.1069895E+04  0.7818608E-02  0.8711555E-01
         -2   -1    0    0    0  501 -0.00000000000E+00  0.00000000000E+00  0.69438985420E+03  0.69438985420E+03  0.00000000000E+00 0.  1.
          2   -1    0    0  502    0  0.00000000000E+00 -0.00000000000E+00 -0.17016613045E+04  0.17016613045E+04  0.00000000000E+00 0. -1.
    9000010    2    1    2  502    0  0.37732506331E+03  0.47752817260E+03 -0.65132293369E+03  0.11814735260E+04  0.77540361725E+03 0.  0.
   -9000010    2    1    2    0  501 -0.37732506331E+03 -0.47752817260E+03 -0.35594851666E+03  0.12145776328E+04  0.98898539951E+03 0.  0.
        -13    1    3    3    0    0  0.71829691853E+02  0.40133711113E+03  0.51879828837E+02  0.41100183601E+03  0.10566000000E+00 0.  1.
          4    1    3    3  502    0  0.30549537146E+03  0.76191061466E+02 -0.70320276253E+03  0.77047168998E+03  0.00000000000E+00 0.  1.
         13    1    4    4    0    0  0.21286063914E+03 -0.33639359309E+03 -0.44966518625E+03  0.60055731788E+03  0.10566000000E+00 0. -1.
         -4    1    4    4    0  501 -0.59018570246E+03 -0.14113457951E+03  0.93716669595E+02  0.61402031487E+03  0.00000000000E+00 0. -1.
<mgrwt>
<rscale>  2 0.10698948E+04</rscale>
<asrwt>0</asrwt>
<pdfrwt beam="2">  1        2 0.26179405E+00 0.10698948E+04</pdfrwt>
<pdfrwt beam="1">  1       -2 0.10682921E+00 0.10698948E+04</pdfrwt>
<totfact> 0.10486225E+01</totfact>
</mgrwt>
</event>
<event>
 8    1  0.1408247E-005  0.1038188E+04  0.7818608E-02  0.8739515E-01
          1   -1    0    0  502    0  0.00000000000E+00  0.00000000000E+00  0.25873789186E+04  0.25873789186E+04  0.00000000000E+00 0. -1.
         -1   -1    0    0    0  501 -0.00000000000E+00 -0.00000000000E+00 -0.45639003788E+03  0.45639003788E+03  0.00000000000E+00 0.  1.
    9000010    2    1    2  502    0 -0.32130725858E+03  0.11237821142E+03  0.59495229206E+03  0.11761514252E+04  0.95577022780E+03 0.  0.
   -9000010    2    1    2    0  501  0.32130725858E+03 -0.11237821142E+03  0.15360365886E+04  0.18676175312E+04  0.10063397163E+04 0.  0.
        -13    1    3    3    0    0  0.10147681334E+03  0.10036197709E+02  0.71711473896E+03  0.72432853658E+03  0.10566000000E+00 0.  1.
          4    1    3    3  502    0 -0.42278407193E+03  0.10234201371E+03 -0.12216244690E+03  0.45182288862E+03  0.00000000000E+00 0.  1.
         13    1    4    4    0    0  0.52123251260E+03  0.30190147684E+03  0.87146861337E+03  0.10593797191E+04  0.10566000000E+00 0. -1.
         -4    1    4    4    0  501 -0.19992525402E+03 -0.41427968826E+03  0.66456797525E+03  0.80823781217E+03  0.00000000000E+00 0. -1.
<mgrwt>
<rscale>  2 0.10381879E+04</rscale>
<asrwt>0</asrwt>
<pdfrwt beam="1">  1        1 0.39805829E+00 0.10381879E+04</pdfrwt>
<pdfrwt beam="2">  1       -1 0.70213853E-01 0.10381879E+04</pdfrwt>
<totfact> 0.25269337E+00</totfact>
</mgrwt>
</event>
<event>
 8    1  0.1408247E-005  0.1748419E+04  0.7818608E-02  0.8279312E-01
         -1   -1    0    0    0  501 -0.00000000000E+00  0.00000000000E+00  0.11426025623E+04  0.11426025623E+04  0.00000000000E+00 0.  1.
          1   -1    0    0  502    0  0.00000000000E+00 -0.00000000000E+00 -0.26829032725E+04  0.26829032725E+04  0.00000000000E+00 0. -1.
    9000010    2    1    2  502    0 -0.22511058021E+01 -0.14282976537E+04 -0.87552409870E+03  0.19664855688E+04  0.10297979363E+04 0.  0.
   -9000010    2    1    2    0  501  0.22511058021E+01  0.14282976537E+04 -0.66477661147E+03  0.18590202661E+04  0.98690888718E+03 0.  0.
        -13    1    3    3    0    0  0.40408884239E+03 -0.12539857254E+04 -0.68665232722E+03  0.14856848326E+04  0.10566000000E+00 0.  1.
          4    1    3    3  502    0 -0.40633994819E+03 -0.17431192826E+03 -0.18887177149E+03  0.48080073616E+03  0.00000000000E+00 0.  1.
         13    1    4    4    0    0  0.47083680742E+03  0.45846976152E+03 -0.21077503556E+03  0.69015067067E+03  0.10566000000E+00 0. -1.
         -4    1    4    4    0  501 -0.46858570162E+03  0.96982789218E+03 -0.45400157591E+03  0.11688695954E+04  0.00000000000E+00 0. -1.
<mgrwt>
<rscale>  2 0.17484192E+04</rscale>
<asrwt>0</asrwt>
<pdfrwt beam="2">  1        1 0.41275434E+00 0.17484192E+04</pdfrwt>
<pdfrwt beam="1">  1       -1 0.17578501E+00 0.17484192E+04</pdfrwt>
<totfact> 0.19607524E-01</totfact>
</mgrwt>
</event>
<event>
 8    1  0.1408247E-005  0.1288181E+04  0.7818608E-02  0.8542963E-01
         -2   -1    0    0    0  501 -0.00000000000E+00  0.00000000000E+00  0.54633502413E+03  0.54633502413E+03  0.00000000000E+00 0.  1.
          2   -1    0    0  502    0  0.00000000000E+00 -0.00000000000E+00 -0.30627286286E+04  0.30627286286E+04  0.00000000000E+00 0. -1.
    9000010    2    1    2  502    0 -0.29992663777E+03 -0.70091827051E+03 -0.14351919050E+04  0.19382341935E+04  0.10562829046E+04 0.  0.
   -9000010    2    1    2    0  501  0.29992663777E+03  0.70091827051E+03 -0.10812016995E+04  0.16708294592E+04  0.10205055399E+04 0.  0.
        -13    1    3    3    0    0 -0.44150282686E+03 -0.81419405438E+03 -0.64785329742E+03  0.11302878441E+04  0.10566000000E+00 0.  1.
          4    1    3    3  502    0  0.14157618908E+03  0.11327578387E+03 -0.78733860760E+03  0.80794634942E+03  0.00000000000E+00 0.  1.
         13    1    4    4    0    0  0.55730944818E+03  0.57078667695E+03 -0.32483482200E+03  0.86134135182E+03  0.10566000000E+00 0. -1.
         -4    1    4    4    0  501 -0.25738281040E+03  0.13013159356E+03 -0.75636687746E+03  0.80948810742E+03  0.00000000000E+00 0. -1.
<mgrwt>
<rscale>  2 0.12881806E+04</rscale>
<asrwt>0</asrwt>
<pdfrwt beam="2">  1        2 0.47118903E+00 0.12881806E+04</pdfrwt>
<pdfrwt beam="1">  1       -2 0.84051541E-01 0.12881806E+04</pdfrwt>
<totfact> 0.30542167E+00</totfact>
</mgrwt>
</event>
<event>
 8    1  0.1408247E-005  0.1002071E+04  0.7818608E-02  0.8772648E-01
          2   -1    0    0  502    0  0.00000000000E+00  0.00000000000E+00  0.20199035650E+04  0.20199035650E+04  0.00000000000E+00 0.  1.
         -2   -1    0    0    0  501 -0.00000000000E+00 -0.00000000000E+00 -0.50791908817E+03  0.50791908817E+03  0.00000000000E+00 0. -1.
    9000010    2    1    2  502    0  0.25890632812E+03 -0.15118671458E+02  0.59140232009E+03  0.11840155074E+04  0.99240866412E+03 0.  0.
   -9000010    2    1    2    0  501 -0.25890632812E+03  0.15118671458E+02  0.92058215671E+03  0.13438071457E+04  0.94397302752E+03 0.  0.
        -13    1    3    3    0    0 -0.29238579751E+03  0.11932213443E+03  0.52504790136E+03  0.61270101700E+03  0.10566000000E+00 0.  1.
          4    1    3    3  502    0  0.55129212563E+03 -0.13444080589E+03  0.66354418724E+02  0.57131449041E+03  0.00000000000E+00 0.  1.
         13    1    4    4    0    0  0.86891082655E+01 -0.26468257695E+03 -0.75293072492E+02  0.27532058599E+03  0.10566000000E+00 0. -1.
         -4    1    4    4    0  501 -0.26759543639E+03  0.27980124841E+03  0.99587522920E+03  0.10684865597E+04  0.00000000000E+00 0. -1.
<mgrwt>
<rscale>  2 0.10020712E+04</rscale>
<asrwt>0</asrwt>
<pdfrwt beam="1">  1        2 0.31075439E+00 0.10020712E+04</pdfrwt>
<pdfrwt beam="2">  1       -2 0.78141399E-01 0.10020712E+04</pdfrwt>
<totfact> 0.14642659E+01</totfact>
</mgrwt>
</event>
<event>
 8    1  0.1408247E-005  0.9913325E+03  0.7818608E-02  0.8782778E-01
         -2   -1    0    0    0  501 -0.00000000000E+00  0.00000000000E+00  0.64878415092E+03  0.64878415092E+03  0.00000000000E+00 0. -1.
          2   -1    0    0  502    0  0.00000000000E+00 -0.00000000000E+00 -0.18592568442E+04  0.18592568442E+04  0.00000000000E+00 0.  1.
    9000010    2    1    2  502    0 -0.25520925173E+03  0.13626954495E+02 -0.11664123443E+04  0.15645531044E+04  0.10109358059E+04 0.  0.
   -9000010    2    1    2    0  501  0.25520925173E+03 -0.13626954495E+02 -0.44060348971E+02  0.94348789069E+03  0.90714421647E+03 0.  0.
        -13    1    3    3    0    0 -0.54794105699E+02 -0.26193542606E+03  0.74441877531E+02  0.27776638699E+03  0.10566000000E+00 0.  1.
          4    1    3    3  502    0 -0.20041514603E+03  0.27556238056E+03 -0.12408542218E+04  0.12867867174E+04  0.00000000000E+00 0.  1.
         13    1    4    4    0    0  0.47447880960E+03  0.14000379680E+03  0.24281946400E+03  0.55108303108E+03  0.10566000000E+00 0. -1.
         -4    1    4    4    0  501 -0.21926955788E+03 -0.15363075129E+03 -0.28687981298E+03  0.39240485961E+03  0.00000000000E+00 0. -1.
<mgrwt>
<rscale>  2 0.99133248E+03</rscale>
<asrwt>0</asrwt>
<pdfrwt beam="2">  1        2 0.28603952E+00 0.99133248E+03</pdfrwt>
<pdfrwt beam="1">  1       -2 0.99812946E-01 0.99133248E+03</pdfrwt>
<totfact> 0.10256818E+01</totfact>
</mgrwt>
</event>
<event>
 8    1  0.1408247E-005  0.1218058E+04  0.7818608E-02  0.8593087E-01
          2   -1    0    0  502    0  0.00000000000E+00  0.00000000000E+00  0.13720560082E+04  0.13720560082E+04  0.00000000000E+00 0. -1.
         -2   -1    0    0    0  501 -0.00000000000E+00 -0.00000000000E+00 -0.11393716809E+04  0.11393716809E+04  0.00000000000E+00 0.  1.
    9000010    2    1    2  502    0 -0.74006199471E+03  0.20076651453E+03 -0.15672952435E+03  0.12825550098E+04  0.10160631182E+04 0.  0.
   -9000010    2    1    2    0  501  0.74006199471E+03 -0.20076651453E+03  0.38941385169E+03  0.12288726793E+04  0.87777329908E+03 0.  0.
        -13    1    3    3    0    0 -0.41363301393E+03  0.46366973164E+03  0.27619899644E+03  0.67997631360E+03  0.10566000000E+00 0.  1.
          4    1    3    3  502    0 -0.32642898078E+03 -0.26290321711E+03 -0.43292852079E+03  0.60257869625E+03  0.00000000000E+00 0.  1.
         13    1    4    4    0    0  0.18547363180E+03 -0.35036238521E+03 -0.16606853208E+03  0.42980581380E+03  0.10566000000E+00 0. -1.
         -4    1    4    4    0  501  0.55458836291E+03  0.14959587068E+03  0.55548238377E+03  0.79906686546E+03  0.00000000000E+00 0. -1.
<mgrwt>
<rscale>  2 0.12180585E+04</rscale>
<asrwt>0</asrwt>
<pdfrwt beam="1">  1        2 0.21108554E+00 0.12180585E+04</pdfrwt>
<pdfrwt beam="2">  1       -2 0.17528795E+00 0.12180585E+04</pdfrwt>
<totfact> 0.37467768E+00</totfact>
</mgrwt>
</event>
<event>
 8    1  0.1408247E-005  0.1413501E+04  0.7818608E-02  0.8461087E-01
         -1   -1    0    0    0  501 -0.00000000000E+00  0.00000000000E+00  0.18028200286E+04  0.18028200286E+04  0.00000000000E+00 0. -1.
          1   -1    0    0  502    0  0.00000000000E+00 -0.00000000000E+00 -0.11310128828E+04  0.11310128828E+04  0.00000000000E+00 0.  1.
    9000010    2    1    2  502    0 -0.99297584364E+03 -0.17277486510E+03  0.12889480093E+03  0.14237380966E+04  0.99727835526E+03 0.  0.
   -9000010    2    1    2    0  501  0.99297584364E+03  0.17277486510E+03  0.54291234486E+03  0.15100948148E+04  0.98477426626E+03 0.  0.
        -13    1    3    3    0    0 -0.38466571046E+03 -0.53709915253E+03 -0.12158126601E+03  0.67173300042E+03  0.10566000000E+00 0.  1.
          4    1    3    3  502    0 -0.60831013318E+03  0.36432428743E+03  0.25047606694E+03  0.75200509616E+03  0.00000000000E+00 0.  1.
         13    1    4    4    0    0  0.56288761985E+03  0.59416678016E+02  0.81233466330E+03  0.99008102222E+03  0.10566000000E+00 0. -1.
         -4    1    4    4    0  501  0.43008822379E+03  0.11335818708E+03 -0.26942231844E+03  0.52001379260E+03  0.00000000000E+00 0. -1.
<mgrwt>
<rscale>  2 0.14135013E+04</rscale>
<asrwt>0</asrwt>
<pdfrwt beam="2">  1        1 0.17400198E+00 0.14135013E+04</pdfrwt>
<pdfrwt beam="1">  1       -1 0.27735693E+00 0.14135013E+04</pdfrwt>
<totfact> 0.40037406E-01</totfact>
</mgrwt>
</event>
<event>
 8    1  0.1408247E-005  0.1123489E+04  0.7818608E-02  0.8666517E-01
          2   -1    0    0  502    0  0.00000000000E+00  0.00000000000E+00  0.41882229777E+03  0.41882229777E+03  0.00000000000E+00 0. -1.
         -2   -1    0    0    0  501 -0.00000000000E+00 -0.00000000000E+00 -0.30553550429E+04  0.30553550429E+04  0.00000000000E+00 0.  1.
    9000010    2    1    2  502    0  0.41523327847E+03  0.26902491694E+03 -0.11054122798E+04  0.15695969011E+04  0.99845132190E+03 0.  0.
   -9000010    2    1    2    0  501 -0.41523327847E+03 -0.26902491694E+03 -0.15311204653E+04  0.19045804395E+04  0.10189718789E+04 0.  0.
        -13    1    3    3    0    0 -0.64620724538E+02 -0.32316236149E+03 -0.19767463231E+03  0.38429808918E+03  0.10566000000E+00 0.  1.
          4    1    3    3  502    0  0.47985400301E+03  0.59218727843E+03 -0.90773764752E+03  0.11852988120E+04  0.00000000000E+00 0.  1.
         13    1    4    4    0    0 -0.30546754811E+03 -0.49825348649E+03 -0.31845465883E+03  0.66556768300E+03  0.10566000000E+00 0. -1.
         -4    1    4    4    0  501 -0.10976573036E+03  0.22922856956E+03 -0.12126658065E+04  0.12390127565E+04  0.00000000000E+00 0. -1.
<mgrwt>
<rscale>  2 0.11234891E+04</rscale>
<asrwt>0</asrwt>
<pdfrwt beam="1">  1        2 0.64434199E-01 0.11234891E+04</pdfrwt>
<pdfrwt beam="2">  1       -2 0.47005463E+00 0.11234891E+04</pdfrwt>
<totfact> 0.31418772E-01</totfact>
</mgrwt>
</event>
<event>
 8    1  0.1408247E-005  0.1136058E+04  0.7818608E-02  0.8656333E-01
          2   -1    0    0  502    0  0.00000000000E+00  0.00000000000E+00  0.36404434759E+04  0.36404434759E+04  0.00000000000E+00 0. -1.
         -2   -1    0    0    0  501 -0.00000000000E+00 -0.00000000000E+00 -0.37662602063E+03  0.37662602063E+03  0.00000000000E+00 0.  1.
    9000010    2    1    2  502    0  0.15587458140E+03  0.71825306495E+03  0.10394758266E+04  0.14678267217E+04  0.73063050887E+03 0.  0.
   -9000010    2    1    2    0  501 -0.15587458140E+03 -0.71825306495E+03  0.22243416287E+04  0.25492427748E+04  0.10053649553E+04 0.  0.
        -13    1    3    3    0    0 -0.27301210973E+03  0.11831039713E+03  0.33289619810E+03  0.44648947581E+03  0.10566000000E+00 0.  1.
          4    1    3    3  502    0  0.42888669113E+03  0.59994266782E+03  0.70657962846E+03  0.10213372459E+04  0.00000000000E+00 0.  1.
         13    1    4    4    0    0 -0.35930143992E+03 -0.52044389612E+03  0.51240885539E+03  0.81395467931E+03  0.10566000000E+00 0. -1.
         -4    1    4    4    0  501  0.20342685851E+03 -0.19780916883E+03  0.17119327733E+04  0.17352880955E+04  0.00000000000E+00 0. -1.
<mgrwt>
<rscale>  2 0.11360582E+04</rscale>
<asrwt>0</asrwt>
<pdfrwt beam="1">  1        2 0.56006820E+00 0.11360582E+04</pdfrwt>
<pdfrwt beam="2">  1       -2 0.57942467E-01 0.11360582E+04</pdfrwt>
<totfact> 0.27052520E+00</totfact>
</mgrwt>
</event>
<event>
 8    1  0.1408247E-005  0.1648537E+04  0.7818608E-02  0.8328795E-01
          4   -1    0    0  502    0  0.00000000000E+00  0.00000000000E+00  0.19384545401E+04  0.19384545401E+04  0.00000000000E+00 0.  1.
         -4   -1    0    0    0  501 -0.00000000000E+00 -0.00000000000E+00 -0.15774363594E+04  0.15774363594E+04  0.00000000000E+00 0. -1.
    9000010    2    1    2  502    0 -0.93649295562E+03 -0.90621030347E+03  0.76591686614E+03  0.18101851102E+04  0.99594443485E+03 0.  0.
   -9000010    2    1    2    0  501  0.93649295562E+03  0.90621030347E+03 -0.40489868545E+03  0.17057057893E+04  0.10233538607E+04 0.  0.
        -13    1    3    3    0    0 -0.69726970205E+03 -0.72862930428E+00  0.40599358163E+03  0.80685585317E+03  0.10566000000E+00 0.  1.
          4    1    3    3  502    0 -0.23922325357E+03 -0.90548167416E+03  0.35992328450E+03  0.10033292570E+04  0.00000000000E+00 0.  1.
         13    1    4    4    0    0 -0.86061825578E+02  0.30253029357E+03  0.20032612918E+03  0.37290988931E+03  0.10566000000E+00 0. -1.
         -4    1    4    4    0  501  0.10225547812E+04  0.60368000989E+03 -0.60522481462E+03  0.13327959000E+04  0.00000000000E+00 0. -1.
<mgrwt>
<rscale>  2 0.16485371E+04</rscale>
<asrwt>0</asrwt>
<pdfrwt beam="1">  1        4 0.29822377E+00 0.16485371E+04</pdfrwt>
<pdfrwt beam="2">  1       -4 0.24268252E+00 0.16485371E+04</pdfrwt>
<totfact> 0.77260114E-02</totfact>
</mgrwt>
</event>
<event>
 8    1  0.1408247E-005  0.1273750E+04  0.7818608E-02  0.8553004E-01
         -2   -1    0    0    0  501 -0.00000000000E+00  0.00000000000E+00  0.81189716721E+03  0.81189716721E+03  0.00000000000E+00 0.  1.
          2   -1    0    0  502    0  0.00000000000E+00 -0.00000000000E+00 -0.29784919791E+04  0.29784919791E+04  0.00000000000E+00 0. -1.
    9000010    2    1    2  502    0 -0.34956324538E+03  0.72428658270E+03  0.54348648600E+01  0.12710440875E+04  0.98424489755E+03 0.  0.
   -9000010    2    1    2    0  501  0.34956324538E+03 -0.72428658270E+03 -0.21720296768E+04  0.25193450588E+04  0.99126237295E+03 0.  0.
        -13    1    3    3    0    0 -0.26756252567E+03  0.92845720403E+03 -0.18052750401E+03  0.98296117712E+03  0.10566000000E+00 0.  1.
          4    1    3    3  502    0 -0.82000719709E+02 -0.20417062133E+03  0.18596236887E+03  0.28808291043E+03  0.00000000000E+00 0.  1.
         13    1    4    4    0    0 -0.34321853687E+02  0.23271749184E+03 -0.29052462104E+03  0.37381812054E+03  0.10566000000E+00 0. -1.
         -4    1    4    4    0  501  0.38388509907E+03 -0.95700407454E+03 -0.18815050557E+04  0.21455269382E+04  0.00000000000E+00 0. -1.
<mgrwt>
<rscale>  2 0.12737505E+04</rscale>
<asrwt>0</asrwt>
<pdfrwt beam="2">  1        2 0.45822954E+00 0.12737505E+04</pdfrwt>
<pdfrwt beam="1">  1       -2 0.12490725E+00 0.12737505E+04</pdfrwt>
<totfact> 0.13081906E+00</totfact>
</mgrwt>
</event>
<event>
 8    1  0.1408247E-005  0.1219868E+04  0.7818608E-02  0.8591750E-01
          2   -1    0    0  502    0  0.00000000000E+00  0.00000000000E+00  0.71068934321E+03  0.71068934321E+03  0.00000000000E+00 0. -1.
         -2   -1    0    0    0  501 -0.00000000000E+00 -0.00000000000E+00 -0.21384103416E+04  0.21384103416E+04  0.00000000000E+00 0.  1.
    9000010    2    1    2  502    0  0.62862894497E+03  0.29069746912E+03 -0.90363755633E+03  0.14988752057E+04  0.97487777703E+03 0.  0.
   -9000010    2    1    2    0  501 -0.62862894497E+03 -0.29069746912E+03 -0.52408344204E+03  0.13502244791E+04  0.10338100989E+04 0.  0.
        -13    1    3    3    0    0  0.30172252918E+03  0.64208456499E+03 -0.61448265503E+03  0.93856167496E+03  0.10566000000E+00 0.  1.
          4    1    3    3  502    0  0.32690641579E+03 -0.35138709587E+03 -0.28915490130E+03  0.56031353078E+03  0.00000000000E+00 0.  1.
         13    1    4    4    0    0  0.14954364680E+03  0.20613770375E+03  0.54800255710E+02  0.26049785871E+03  0.10566000000E+00 0. -1.
         -4    1    4    4    0  501 -0.77817259176E+03 -0.49683517287E+03 -0.57888369775E+03  0.10897266203E+04  0.00000000000E+00 0. -1.
<mgrwt>
<rscale>  2 0.12198679E+04</rscale>
<asrwt>0</asrwt>
<pdfrwt beam="1">  1        2 0.10933682E+00 0.12198679E+04</pdfrwt>
<pdfrwt beam="2">  1       -2 0.32898620E+00 0.12198679E+04</pdfrwt>
<totfact> 0.65692105E-01</totfact>
</mgrwt>
</event>
<event>
 8    1  0.1408247E-005  0.1686874E+04  0.7818608E-02  0.8309386E-01
         -2   -1    0    0    0  501 -0.00000000000E+00  0.00000000000E+00  0.10708222908E+04  0.10708222908E+04  0.00000000000E+00 0. -1.
          2   -1    0    0  502    0  0.00000000000E+00 -0.00000000000E+00 -0.26676924001E+04  0.26676924001E+04  0.00000000000E+00 0.  1.
    9000010    2    1    2  502    0 -0.44029330972E+03 -0.11683337190E+04 -0.89463503562E+03  0.19955678773E+04  0.12739927114E+04 0.  0.
   -9000010    2    1    2    0  501  0.44029330972E+03  0.11683337190E+04 -0.70223507368E+03  0.17429468136E+04  0.99290866595E+03 0.  0.
        -13    1    3    3    0    0 -0.49526615785E+03 -0.31402598853E+03  0.18757360119E+03  0.61569859153E+03  0.10566000000E+00 0.  1.
          4    1    3    3  502    0  0.54972848132E+02 -0.85430773045E+03 -0.10822086368E+04  0.13798692858E+04  0.00000000000E+00 0.  1.
         13    1    4    4    0    0  0.20719611745E+03 -0.12551843443E+03  0.19767009597E+02  0.24305524948E+03  0.10566000000E+00 0. -1.
         -4    1    4    4    0  501  0.23309719227E+03  0.12938521534E+04 -0.72200208328E+03  0.14998915641E+04  0.00000000000E+00 0. -1.
<mgrwt>
<rscale>  2 0.16868742E+04</rscale>
<asrwt>0</asrwt>
<pdfrwt beam="2">  1        2 0.41041421E+00 0.16868742E+04</pdfrwt>
<pdfrwt beam="1">  1       -2 0.16474189E+00 0.16868742E+04</pdfrwt>
<totfact> 0.84163251E-01</totfact>
</mgrwt>
</event>
<event>
 8    1  0.1408247E-005  0.1147443E+04  0.7818608E-02  0.8647226E-01
         -4   -1    0    0    0  501 -0.00000000000E+00  0.00000000000E+00  0.36836957293E+03  0.36836957293E+03  0.00000000000E+00 0. -1.
          4   -1    0    0  502    0  0.00000000000E+00 -0.00000000000E+00 -0.37972799789E+04  0.37972799789E+04  0.00000000000E+00 0.  1.
    9000010    2    1    2  502    0  0.20817636879E+03  0.51200109522E+03 -0.12174338672E+04  0.16767300181E+04  0.10118279551E+04 0.  0.
   -9000010    2    1    2    0  501 -0.20817636879E+03 -0.51200109522E+03 -0.22114765387E+04  0.24889195337E+04  0.99930447897E+03 0.  0.
        -13    1    3    3    0    0  0.52475321677E+03  0.46715654795E+01 -0.38092100698E+03  0.64845091314E+03  0.10566000000E+00 0.  1.
          4    1    3    3  502    0 -0.31657684798E+03  0.50732952974E+03 -0.83651286019E+03  0.10282791050E+04  0.00000000000E+00 0.  1.
         13    1    4    4    0    0 -0.40510788354E+03 -0.12254617410E+03 -0.19152721225E+04  0.19614783395E+04  0.10566000000E+00 0. -1.
         -4    1    4    4    0  501  0.19693151475E+03 -0.38945492112E+03 -0.29620441627E+03  0.52744119417E+03  0.00000000000E+00 0. -1.
<mgrwt>
<rscale>  2 0.11474428E+04</rscale>
<asrwt>0</asrwt>
<pdfrwt beam="2">  1        4 0.58419691E+00 0.11474428E+04</pdfrwt>
<pdfrwt beam="1">  1       -4 0.56672243E-01 0.11474428E+04</pdfrwt>
<totfact> 0.59938903E-02</totfact>
</mgrwt>
</event>
<event>
 8    1  0.1408247E-005  0.1357606E+04  0.7818608E-02  0.8496480E-01
         -2   -1    0    0    0  501 -0.00000000000E+00  0.00000000000E+00  0.69013439746E+03  0.69013439746E+03  0.00000000000E+00 0. -1.
          2   -1    0    0  502    0  0.00000000000E+00 -0.00000000000E+00 -0.27057457304E+04  0.27057457304E+04  0.00000000000E+00 0.  1.
    9000010    2    1    2  502    0  0.84092661882E+03 -0.37382797272E+03 -0.12050258023E+04  0.18192605729E+04  0.10053441781E+04 0.  0.
   -9000010    2    1    2    0  501 -0.84092661882E+03  0.37382797272E+03 -0.81058553057E+03  0.15766195549E+04  0.99084579387E+03 0.  0.
        -13    1    3    3    0    0  0.41735808403E+03 -0.49695155937E+03 -0.12156575350E+04  0.13780318850E+04  0.10566000000E+00 0.  1.
          4    1    3    3  502    0  0.42356853479E+03  0.12312358665E+03  0.10631732634E+02  0.44122868786E+03  0.00000000000E+00 0.  1.
         13    1    4    4    0    0  0.16834372654E+03 -0.94014068365E+02 -0.29037699774E+03  0.34856429435E+03  0.10566000000E+00 0. -1.
         -4    1    4    4    0  501 -0.10092703454E+04  0.46784204108E+03 -0.52020853284E+03  0.12280552606E+04  0.00000000000E+00 0. -1.
<mgrwt>
<rscale>  2 0.13576061E+04</rscale>
<asrwt>0</asrwt>
<pdfrwt beam="2">  1        2 0.41626857E+00 0.13576061E+04</pdfrwt>
<pdfrwt beam="1">  1       -2 0.10617452E+00 0.13576061E+04</pdfrwt>
<totfact> 0.28751210E+00</totfact>
</mgrwt>
</event>
<event>
 8    1  0.1408247E-005  0.1234172E+04  0.7818608E-02  0.8581265E-01
          2   -1    0    0  502    0  0.00000000000E+00  0.00000000000E+00  0.41229988165E+04  0.41229988165E+04  0.00000000000E+00 0. -1.
         -2   -1    0    0    0  501 -0.00000000000E+00 -0.00000000000E+00 -0.37033676278E+03  0.37033676278E+03  0.00000000000E+00 0.  1.
    9000010    2    1    2  502    0  0.25716512162E+03  0.69374087538E+03  0.17805611211E+04  0.21716967904E+04  0.99922907357E+03 0.  0.
   -9000010    2    1    2    0  501 -0.25716512162E+03 -0.69374087538E+03  0.19721009326E+04  0.23216387888E+04  0.97642935003E+03 0.  0.
        -13    1    3    3    0    0 -0.11122195711E+03  0.76337426852E+03  0.15505479123E+04  0.17318514478E+04  0.10566000000E+00 0.  1.
          4    1    3    3  502    0  0.36838707873E+03 -0.69633393135E+02  0.23001320878E+03  0.43984534263E+03  0.00000000000E+00 0.  1.
         13    1    4    4    0    0 -0.44201127368E+03 -0.58983782334E+03  0.19765865998E+04  0.21095443161E+04  0.10566000000E+00 0. -1.
         -4    1    4    4    0  501  0.18484615206E+03 -0.10390305204E+03 -0.44856672285E+01  0.21209447273E+03  0.00000000000E+00 0. -1.
<mgrwt>
<rscale>  2 0.12341719E+04</rscale>
<asrwt>0</asrwt>
<pdfrwt beam="1">  1        2 0.63430748E+00 0.12341719E+04</pdfrwt>
<pdfrwt beam="2">  1       -2 0.56974889E-01 0.12341719E+04</pdfrwt>
<totfact> 0.10669596E+00</totfact>
</mgrwt>
</event>
<event>
 8    1  0.1408247E-005  0.1126695E+04  0.7818608E-02  0.8663907E-01
         -2   -1    0    0    0  501 -0.00000000000E+00  0.00000000000E+00  0.14130231706E+04  0.14130231706E+04  0.00000000000E+00 0. -1.
          2   -1    0    0  502    0  0.00000000000E+00 -0.00000000000E+00 -0.99569885537E+03  0.99569885537E+03  0.00000000000E+00 0.  1.
    9000010    2    1    2  502    0 -0.87791103084E+00 -0.46448540048E+03  0.58947652360E+03  0.13083203900E+04  0.10716679584E+04 0.  0.
   -9000010    2    1    2    0  501  0.87791103084E+00  0.46448540048E+03 -0.17215220833E+03  0.11004016360E+04  0.98259855466E+03 0.  0.
        -13    1    3    3    0    0  0.38847197185E+03  0.11909602906E+03  0.42454843062E+03  0.58765271901E+03  0.10566000000E+00 0.  1.
          4    1    3    3  502    0 -0.38934988288E+03 -0.58358142954E+03  0.16492809298E+03  0.72066767102E+03  0.00000000000E+00 0.  1.
         13    1    4    4    0    0  0.22158337611E+03  0.71438700476E+03 -0.16975310064E+03  0.76698377524E+03  0.10566000000E+00 0. -1.
         -4    1    4    4    0  501 -0.22070546508E+03 -0.24990160428E+03 -0.23991076895E+01  0.33341786073E+03  0.00000000000E+00 0. -1.
<mgrwt>
<rscale>  2 0.11266948E+04</rscale>
<asrwt>0</asrwt>
<pdfrwt beam="2">  1        2 0.15318444E+00 0.11266948E+04</pdfrwt>
<pdfrwt beam="1">  1       -2 0.21738818E+00 0.11266948E+04</pdfrwt>
<totfact> 0.27943350E+00</totfact>
</mgrwt>
</event>
<event>
 8    1  0.1408247E-005  0.1193970E+04  0.7818608E-02  0.8611117E-01
         -2   -1    0    0    0  501 -0.00000000000E+00  0.00000000000E+00  0.83128073940E+03  0.83128073940E+03  0.00000000000E+00 0.  1.
          2   -1    0    0  502    0  0.00000000000E+00 -0.00000000000E+00 -0.17237184060E+04  0.17237184060E+04  0.00000000000E+00 0. -1.
    9000010    2    1    2  502    0  0.30604327324E+03  0.54684834290E+03 -0.35923694376E+03  0.12565256637E+04  0.10281536688E+04 0.  0.
   -9000010    2    1    2    0  501 -0.30604327324E+03 -0.54684834290E+03 -0.53320072280E+03  0.12984734816E+04  0.10045022531E+04 0.  0.
        -13    1    3    3    0    0 -0.33029777835E+02 -0.26462754016E+03  0.73125834154E+02  0.27652504411E+03  0.10566000000E+00 0.  1.
          4    1    3    3  502    0  0.33907305108E+03  0.81147588306E+03 -0.43236277792E+03  0.98000061964E+03  0.00000000000E+00 0.  1.
         13    1    4    4    0    0 -0.19095746155E+03 -0.74999908501E+03 -0.66688936870E+02  0.77679521439E+03  0.10566000000E+00 0. -1.
         -4    1    4    4    0  501 -0.11508581169E+03  0.20315074211E+03 -0.46651178593E+03  0.52167826722E+03  0.00000000000E+00 0. -1.
<mgrwt>
<rscale>  2 0.11939704E+04</rscale>
<asrwt>0</asrwt>
<pdfrwt beam="2">  1        2 0.26518745E+00 0.11939704E+04</pdfrwt>
<pdfrwt beam="1">  1       -2 0.12788934E+00 0.11939704E+04</pdfrwt>
<totfact> 0.63037865E+00</totfact>
</mgrwt>
</event>
<event>
 8    1  0.1408247E-005  0.1210329E+04  0.7818608E-02  0.8598825E-01
         -1   -1    0    0    0  501 -0.00000000000E+00  0.00000000000E+00  0.55567979725E+03  0.55567979725E+03  0.00000000000E+00 0. -1.
          1   -1    0    0  502    0  0.00000000000E+00 -0.00000000000E+00 -0.29981831260E+04  0.29981831260E+04  0.00000000000E+00 0.  1.
    9000010    2    1    2  502    0  0.54251025523E+03  0.41267490200E+03 -0.60746895595E+03  0.13578504484E+04  0.10050479372E+04 0.  0.
   -9000010    2    1    2    0  501 -0.54251025523E+03 -0.41267490200E+03 -0.18350343728E+04  0.21960124748E+04  0.99523951316E+03 0.  0.
        -13    1    3    3    0    0  0.39035436451E+03  0.73268368763E+03 -0.28214311897E+03  0.87681621036E+03  0.10566000000E+00 0.  1.
          4    1    3    3  502    0  0.15215589072E+03 -0.32000878563E+03 -0.32532583698E+03  0.48103423804E+03  0.00000000000E+00 0.  1.
         13    1    4    4    0    0  0.88665855680E+02 -0.53871905371E+03 -0.66289727992E+03  0.85878557725E+03  0.10566000000E+00 0. -1.
         -4    1    4    4    0  501 -0.63117611091E+03  0.12604415172E+03 -0.11721370929E+04  0.13372268976E+04  0.00000000000E+00 0. -1.
<mgrwt>
<rscale>  2 0.12103291E+04</rscale>
<asrwt>0</asrwt>
<pdfrwt beam="2">  1        1 0.46125893E+00 0.12103291E+04</pdfrwt>
<pdfrwt beam="1">  1       -1 0.85489202E-01 0.12103291E+04</pdfrwt>
<totfact> 0.65557388E-01</totfact>
</mgrwt>
</event>
<event>
 8    1  0.1408247E-005  0.1053797E+04  0.7818608E-02  0.8725623E-01
         -1   -1    0    0    0  501 -0.00000000000E+00  0.00000000000E+00  0.26370829765E+04  0.26370829765E+04  0.00000000000E+00 0. -1.
          1   -1    0    0  502    0  0.00000000000E+00 -0.00000000000E+00 -0.50413229459E+03  0.50413229459E+03  0.00000000000E+00 0.  1.
    9000010    2    1    2  502    0 -0.30732584715E+03  0.10223654242E+03  0.17066210264E+04  0.20074803670E+04  0.10062408306E+04 0.  0.
   -9000010    2    1    2    0  501  0.30732584715E+03 -0.10223654242E+03  0.42632965558E+03  0.11337349042E+04  0.99934797282E+03 0.  0.
        -13    1    3    3    0    0 -0.60128352806E+03  0.47764787948E+02  0.15639209717E+04  0.16762076759E+04  0.10566000000E+00 0.  1.
          4    1    3    3  502    0  0.29395768091E+03  0.54471754467E+02  0.14270005471E+03  0.33127269102E+03  0.00000000000E+00 0.  1.
         13    1    4    4    0    0 -0.36533189678E+03 -0.96263101445E+02  0.14877303301E+03  0.40603867552E+03  0.10566000000E+00 0. -1.
         -4    1    4    4    0  501  0.67265774392E+03 -0.59734409708E+01  0.27755662257E+03  0.72769622865E+03  0.00000000000E+00 0. -1.
<mgrwt>
<rscale>  2 0.10537972E+04</rscale>
<asrwt>0</asrwt>
<pdfrwt beam="2">  1        1 0.77558816E-01 0.10537972E+04</pdfrwt>
<pdfrwt beam="1">  1       -1 0.40570507E+00 0.10537972E+04</pdfrwt>
<totfact> 0.69067552E-01</totfact>
</mgrwt>
</event>
<event>
 8    1  0.1408247E-005  0.1236595E+04  0.7818608E-02  0.8579504E-01
          1   -1    0    0  502    0  0.00000000000E+00  0.00000000000E+00  0.12939566138E+04  0.12939566138E+04  0.00000000000E+00 0.  1.
         -1   -1    0    0    0  501 -0.00000000000E+00 -0.00000000000E+00 -0.13850932196E+04  0.13850932196E+04  0.00000000000E+00 0. -1.
    9000010    2    1    2  502    0  0.62097269358E+03  0.38913571141E+03 -0.55892843210E+03  0.13623937654E+04  0.10033354831E+04 0.  0.
   -9000010    2    1    2    0  501 -0.62097269358E+03 -0.38913571141E+03  0.46779182630E+03  0.13166560681E+04  0.98879741138E+03 0.  0.
        -13    1    3    3    0    0 -0.24016251444E+03 -0.51490451350E+01 -0.29255290652E+03  0.37853898120E+03  0.10566000000E+00 0.  1.
          4    1    3    3  502    0  0.86113520802E+03  0.39428475654E+03 -0.26637552559E+03  0.98385478419E+03  0.00000000000E+00 0.  1.
         13    1    4    4    0    0 -0.22435906752E+03  0.27399939318E+03  0.41005763528E+03  0.54181171458E+03  0.10566000000E+00 0. -1.
         -4    1    4    4    0  501 -0.39661362606E+03 -0.66313510459E+03  0.57734191024E+02  0.77484435349E+03  0.00000000000E+00 0. -1.
<mgrwt>
<rscale>  2 0.12365947E+04</rscale>
<asrwt>0</asrwt>
<pdfrwt beam="1">  1        1 0.19907025E+00 0.12365947E+04</pdfrwt>
<pdfrwt beam="2">  1       -1 0.21309126E+00 0.12365947E+04</pdfrwt>
<totfact> 0.12697293E+00</totfact>
</mgrwt>
</event>
<event>
 8    1  0.1408247E-005  0.1298496E+04  0.7818608E-02  0.8535868E-01
          2   -1    0    0  502    0  0.00000000000E+00  0.00000000000E+00  0.24385584011E+04  0.24385584011E+04  0.00000000000E+00 0.  1.
         -2   -1    0    0    0  501 -0.00000000000E+00 -0.00000000000E+00 -0.69321443654E+03  0.69321443654E+03  0.00000000000E+00 0. -1.
    9000010    2    1    2  502    0  0.57590312926E+03  0.60710754522E+03  0.95604736123E+03  0.16176649818E+04  0.10012839011E+04 0.  0.
   -9000010    2    1    2    0  501 -0.57590312926E+03 -0.60710754522E+03  0.78929660336E+03  0.15141078559E+04  0.98452500500E+03 0.  0.
        -13    1    3    3    0    0  0.20928922215E+03 -0.19067434091E+03 -0.44408916576E+02  0.28658479691E+03  0.10566000000E+00 0.  1.
          4    1    3    3  502    0  0.36661390711E+03  0.79778188613E+03  0.10004562778E+04  0.13310801849E+04  0.00000000000E+00 0.  1.
         13    1    4    4    0    0  0.77145915155E+02  0.17442203163E+03  0.36295151633E+03  0.41001018489E+03  0.10566000000E+00 0. -1.
         -4    1    4    4    0  501 -0.65304904441E+03 -0.78152957685E+03  0.42634508703E+03  0.11040976710E+04  0.00000000000E+00 0. -1.
<mgrwt>
<rscale>  2 0.12984958E+04</rscale>
<asrwt>0</asrwt>
<pdfrwt beam="1">  1        2 0.37516283E+00 0.12984958E+04</pdfrwt>
<pdfrwt beam="2">  1       -2 0.10664838E+00 0.12984958E+04</pdfrwt>
<totfact> 0.40662455E+00</totfact>
</mgrwt>
</event>
<event>
 8    1  0.1408247E-005  0.1282716E+04  0.7818608E-02  0.8546749E-01
         -2   -1    0    0    0  501 -0.00000000000E+00  0.00000000000E+00  0.44960198650E+03  0.44960198650E+03  0.00000000000E+00 0. -1.
          2   -1    0    0  502    0  0.00000000000E+00 -0.00000000000E+00 -0.37681321953E+04  0.37681321953E+04  0.00000000000E+00 0.  1.
    9000010    2    1    2  502    0  0.46351155188E+03 -0.77845437780E+03 -0.19178615955E+04  0.22723033510E+04  0.81506763058E+03 0.  0.
   -9000010    2    1    2    0  501 -0.46351155188E+03  0.77845437780E+03 -0.14006686132E+04  0.19454308307E+04  0.10009966914E+04 0.  0.
        -13    1    3    3    0    0  0.45150524051E+03 -0.93387287604E+03 -0.14782988629E+04  0.18059188991E+04  0.10566000000E+00 0.  1.
          4    1    3    3  502    0  0.12006311372E+02  0.15541849824E+03 -0.43956273263E+03  0.46638445195E+03  0.00000000000E+00 0.  1.
         13    1    4    4    0    0 -0.17883847028E+03  0.37406151469E+03  0.45440438208E+02  0.41709718270E+03  0.10566000000E+00 0. -1.
         -4    1    4    4    0  501 -0.28467308160E+03  0.40439286311E+03 -0.14461090514E+04  0.15283336480E+04  0.00000000000E+00 0. -1.
<mgrwt>
<rscale>  2 0.12827158E+04</rscale>
<asrwt>0</asrwt>
<pdfrwt beam="2">  1        2 0.57971265E+00 0.12827158E+04</pdfrwt>
<pdfrwt beam="1">  1       -2 0.69169536E-01 0.12827158E+04</pdfrwt>
<totfact> 0.14468803E+00</totfact>
</mgrwt>
</event>
<event>
 8    1  0.1408247E-005  0.1066367E+04  0.7818608E-02  0.8714615E-01
         -2   -1    0    0    0  501 -0.00000000000E+00  0.00000000000E+00  0.89464581345E+03  0.89464581345E+03  0.00000000000E+00 0.  1.
          2   -1    0    0  502    0  0.00000000000E+00 -0.00000000000E+00 -0.14822349635E+04  0.14822349635E+04  0.00000000000E+00 0. -1.
    9000010    2    1    2  502    0 -0.13507969886E+03 -0.37615305629E+03  0.15452614213E+03  0.10786307306E+04  0.98986275698E+03 0.  0.
   -9000010    2    1    2    0  501  0.13507969886E+03  0.37615305629E+03 -0.74211529216E+03  0.12982500463E+04  0.98741097274E+03 0.  0.
        -13    1    3    3    0    0 -0.33894694347E+03 -0.52052398376E+03 -0.19317211956E+03  0.65049652351E+03  0.10566000000E+00 0.  1.
          4    1    3    3  502    0  0.20386724461E+03  0.14437092747E+03  0.34769826169E+03  0.42813420712E+03  0.00000000000E+00 0.  1.
         13    1    4    4    0    0 -0.30694892314E+03 -0.33304322539E+02 -0.60661851083E+03  0.68067088094E+03  0.10566000000E+00 0. -1.
         -4    1    4    4    0  501  0.44202862200E+03  0.40945737883E+03 -0.13549678134E+03  0.61757916537E+03  0.00000000000E+00 0. -1.
<mgrwt>
<rscale>  2 0.10663674E+04</rscale>
<asrwt>0</asrwt>
<pdfrwt beam="2">  1        2 0.22803614E+00 0.10663674E+04</pdfrwt>
<pdfrwt beam="1">  1       -2 0.13763782E+00 0.10663674E+04</pdfrwt>
<totfact> 0.70371335E+00</totfact>
</mgrwt>
</event>
<event>
 8    1  0.1408247E-005  0.1202650E+04  0.7818608E-02  0.8604569E-01
          2   -1    0    0  502    0  0.00000000000E+00  0.00000000000E+00  0.19927879039E+04  0.19927879039E+04  0.00000000000E+00 0.  1.
         -2   -1    0    0    0  501 -0.00000000000E+00 -0.00000000000E+00 -0.77713011276E+03  0.77713011276E+03  0.00000000000E+00 0. -1.
    9000010    2    1    2  502    0  0.67683939161E+03 -0.51635965620E+02  0.25646687106E+03  0.12388700073E+04  0.10041144377E+04 0.  0.
   -9000010    2    1    2    0  501 -0.67683939161E+03  0.51635965620E+02  0.95919092008E+03  0.15310480094E+04  0.98146979112E+03 0.  0.
        -13    1    3    3    0    0  0.20561892305E+03 -0.21706411218E+03  0.57389737207E+03  0.64711218127E+03  0.10566000000E+00 0.  1.
          4    1    3    3  502    0  0.47122046857E+03  0.16542814656E+03 -0.31743050101E+03  0.59175782601E+03  0.00000000000E+00 0.  1.
         13    1    4    4    0    0  0.14695171448E+03 -0.16429513317E+03  0.53708406624E+03  0.58055749288E+03  0.10566000000E+00 0. -1.
         -4    1    4    4    0  501 -0.82379110609E+03  0.21593109879E+03  0.42210685384E+03  0.95049051650E+03  0.00000000000E+00 0. -1.
<mgrwt>
<rscale>  2 0.12026502E+04</rscale>
<asrwt>0</asrwt>
<pdfrwt beam="1">  1        2 0.30658275E+00 0.12026502E+04</pdfrwt>
<pdfrwt beam="2">  1       -2 0.11955848E+00 0.12026502E+04</pdfrwt>
<totfact> 0.53895121E+00</totfact>
</mgrwt>
</event>
<event>
 8    1  0.1408247E-005  0.1044244E+04  0.7818608E-02  0.8734096E-01
         -2   -1    0    0    0  501 -0.00000000000E+00  0.00000000000E+00  0.16237911912E+04  0.16237911912E+04  0.00000000000E+00 0. -1.
          2   -1    0    0  502    0  0.00000000000E+00 -0.00000000000E+00 -0.75732042612E+03  0.75732042612E+03  0.00000000000E+00 0.  1.
    9000010    2    1    2  502    0  0.19545929920E+03  0.28031626818E+03  0.29724297036E+02  0.10367263633E+04  0.97833351705E+03 0.  0.
   -9000010    2    1    2    0  501 -0.19545929920E+03 -0.28031626818E+03  0.83674646808E+03  0.13443852541E+04  0.99521129001E+03 0.  0.
        -13    1    3    3    0    0  0.27913913579E+03  0.23755999280E+03 -0.43141910001E+03  0.56610587201E+03  0.10566000000E+00 0.  1.
          4    1    3    3  502    0 -0.83679836583E+02  0.42756275372E+02  0.46114339705E+03  0.47062049124E+03  0.00000000000E+00 0.  1.
         13    1    4    4    0    0 -0.24571961881E+03  0.31613375497E+03  0.13615404261E+03  0.42291443175E+03  0.10566000000E+00 0. -1.
         -4    1    4    4    0  501  0.50260319610E+02 -0.59645002314E+03  0.70059242547E+03  0.92147082236E+03  0.00000000000E+00 0. -1.
<mgrwt>
<rscale>  2 0.10442439E+04</rscale>
<asrwt>0</asrwt>
<pdfrwt beam="2">  1        2 0.11651084E+00 0.10442439E+04</pdfrwt>
<pdfrwt beam="1">  1       -2 0.24981403E+00 0.10442439E+04</pdfrwt>
<totfact> 0.22328096E+00</totfact>
</mgrwt>
</event>
<event>
 8    1  0.1408247E-005  0.1916755E+04  0.7818608E-02  0.8203153E-01
          2   -1    0    0  502    0  0.00000000000E+00  0.00000000000E+00  0.99865001666E+03  0.99865001666E+03  0.00000000000E+00 0. -1.
         -2   -1    0    0    0  501 -0.00000000000E+00 -0.00000000000E+00 -0.38849313547E+04  0.38849313547E+04  0.00000000000E+00 0.  1.
    9000010    2    1    2  502    0 -0.15638760199E+04 -0.47685617445E+03 -0.20071675296E+04  0.27770540277E+04  0.10050908237E+04 0.  0.
   -9000010    2    1    2    0  501  0.15638760199E+04  0.47685617445E+03 -0.87911380836E+03  0.21065273437E+04  0.99574913754E+03 0.  0.
        -13    1    3    3    0    0 -0.18984218438E+03 -0.44306052279E+03 -0.86387666440E+03  0.98925506533E+03  0.10566000000E+00 0.  1.
          4    1    3    3  502    0 -0.13740338355E+04 -0.33795651667E+02 -0.11432908652E+04  0.17877989623E+04  0.00000000000E+00 0.  1.
         13    1    4    4    0    0 -0.82717391618E+02  0.22570756886E+03 -0.17910291030E+03  0.29977314282E+03  0.10566000000E+00 0. -1.
         -4    1    4    4    0  501  0.16465934115E+04  0.25114860559E+03 -0.70001089805E+03  0.18067542008E+04  0.00000000000E+00 0. -1.
<mgrwt>
<rscale>  2 0.19167551E+04</rscale>
<asrwt>0</asrwt>
<pdfrwt beam="1">  1        2 0.15363846E+00 0.19167551E+04</pdfrwt>
<pdfrwt beam="2">  1       -2 0.59768176E+00 0.19167551E+04</pdfrwt>
<totfact> 0.16305281E-01</totfact>
</mgrwt>
</event>
<event>
 8    1  0.1408247E-005  0.1333456E+04  0.7818608E-02  0.8512318E-01
          2   -1    0    0  502    0  0.00000000000E+00  0.00000000000E+00  0.24204101060E+04  0.24204101060E+04  0.00000000000E+00 0. -1.
         -2   -1    0    0    0  501 -0.00000000000E+00 -0.00000000000E+00 -0.73833579415E+03  0.73833579415E+03  0.00000000000E+00 0.  1.
    9000010    2    1    2  502    0 -0.21121627463E+03  0.86188608350E+03  0.95303061855E+03  0.16391394370E+04  0.99551534308E+03 0.  0.
   -9000010    2    1    2    0  501  0.21121627463E+03 -0.86188608350E+03  0.72904369332E+03  0.15196064632E+04  0.99510761259E+03 0.  0.
        -13    1    3    3    0    0  0.16260348094E+02 -0.22343893053E+03  0.14105112669E+03  0.26473531329E+03  0.10566000000E+00 0.  1.
          4    1    3    3  502    0 -0.22747662272E+03  0.10853250140E+04  0.81197949187E+03  0.13744041237E+04  0.00000000000E+00 0.  1.
         13    1    4    4    0    0  0.55476681859E+03 -0.24102196990E+03  0.46326696538E+03  0.76188851242E+03  0.10566000000E+00 0. -1.
         -4    1    4    4    0  501 -0.34355054396E+03 -0.62086411360E+03  0.26577672794E+03  0.75771795078E+03  0.00000000000E+00 0. -1.
<mgrwt>
<rscale>  2 0.13334560E+04</rscale>
<asrwt>0</asrwt>
<pdfrwt beam="1">  1        2 0.37237078E+00 0.13334560E+04</pdfrwt>
<pdfrwt beam="2">  1       -2 0.11359012E+00 0.13334560E+04</pdfrwt>
<totfact> 0.35368165E+00</totfact>
</mgrwt>
</event>
<event>
 8    1  0.1408247E-005  0.1079121E+04  0.7818608E-02  0.8703608E-01
          1   -1    0    0  502    0  0.00000000000E+00  0.00000000000E+00  0.19058571828E+04  0.19058571828E+04  0.00000000000E+00 0. -1.
         -1   -1    0    0    0  501 -0.00000000000E+00 -0.00000000000E+00 -0.61700486858E+03  0.61700486858E+03  0.00000000000E+00 0.  1.
    9000010    2    1    2  502    0  0.39053751441E+03  0.89987838342E+02  0.75413225909E+03  0.12997813134E+04  0.97984623139E+03 0.  0.
   -9000010    2    1    2    0  501 -0.39053751441E+03 -0.89987838342E+02  0.53472005510E+03  0.12230807380E+04  0.10243942567E+04 0.  0.
        -13    1    3    3    0    0  0.62866116140E+03  0.33797324303E+03  0.53627140408E+03  0.89276413395E+03  0.10566000000E+00 0.  1.
          4    1    3    3  502    0 -0.23812364699E+03 -0.24798540469E+03  0.21786085501E+03  0.40701717942E+03  0.00000000000E+00 0.  1.
         13    1    4    4    0    0 -0.65832567754E+03  0.84324209560E+02  0.60256877719E+03  0.89643316116E+03  0.10566000000E+00 0. -1.
         -4    1    4    4    0  501  0.26778816312E+03 -0.17431204790E+03 -0.67848722096E+02  0.32664757682E+03  0.00000000000E+00 0. -1.
<mgrwt>
<rscale>  2 0.10791214E+04</rscale>
<asrwt>0</asrwt>
<pdfrwt beam="1">  1        1 0.29320879E+00 0.10791214E+04</pdfrwt>
<pdfrwt beam="2">  1       -1 0.94923827E-01 0.10791214E+04</pdfrwt>
<totfact> 0.50529163E+00</totfact>
</mgrwt>
</event>
<event>
 8    1  0.1408247E-005  0.1254898E+04  0.7818608E-02  0.8566331E-01
         -2   -1    0    0    0  501 -0.00000000000E+00  0.00000000000E+00  0.16021143197E+04  0.16021143197E+04  0.00000000000E+00 0. -1.
          2   -1    0    0  502    0  0.00000000000E+00 -0.00000000000E+00 -0.10097459484E+04  0.10097459484E+04  0.00000000000E+00 0.  1.
    9000010    2    1    2  502    0  0.19473481796E+02 -0.67440934725E+03  0.49799681257E+03  0.13184822595E+04  0.10174416245E+04 0.  0.
   -9000010    2    1    2    0  501 -0.19473481796E+02  0.67440934725E+03  0.94371558740E+02  0.12933780086E+04  0.10994150708E+04 0.  0.
        -13    1    3    3    0    0 -0.45468489815E+03 -0.33870976184E+03  0.21970869200E+02  0.56740231726E+03  0.10566000000E+00 0.  1.
          4    1    3    3  502    0  0.47415837994E+03 -0.33569958540E+03  0.47602594337E+03  0.75107994226E+03  0.00000000000E+00 0.  1.
         13    1    4    4    0    0  0.18813025780E+03  0.92286309179E+03  0.17905849052E+03  0.95871332226E+03  0.10566000000E+00 0. -1.
         -4    1    4    4    0  501 -0.20760373960E+03 -0.24845374454E+03 -0.84686931783E+02  0.33466468634E+03  0.00000000000E+00 0. -1.
<mgrwt>
<rscale>  2 0.12548981E+04</rscale>
<asrwt>0</asrwt>
<pdfrwt beam="2">  1        2 0.15534553E+00 0.12548981E+04</pdfrwt>
<pdfrwt beam="1">  1       -2 0.24647913E+00 0.12548981E+04</pdfrwt>
<totfact> 0.15844982E+00</totfact>
</mgrwt>
</event>
<event>
 8    1  0.1408247E-005  0.1028102E+04  0.7818608E-02  0.8748626E-01
          1   -1    0    0  502    0  0.00000000000E+00  0.00000000000E+00  0.78296469096E+03  0.78296469096E+03  0.00000000000E+00 0.  1.
         -1   -1    0    0    0  501 -0.00000000000E+00 -0.00000000000E+00 -0.13969100119E+04  0.13969100119E+04  0.00000000000E+00 0. -1.
    9000010    2    1    2  502    0  0.16336375236E+03  0.13775438092E+03 -0.50670981849E+03  0.11461282507E+04  0.10055800027E+04 0.  0.
   -9000010    2    1    2    0  501 -0.16336375236E+03 -0.13775438092E+03 -0.10723550247E+03  0.10337464522E+04  0.10057177981E+04 0.  0.
        -13    1    3    3    0    0 -0.18802713756E+03 -0.98267964243E+02 -0.66206022161E+03  0.69522265891E+03  0.10566000000E+00 0.  1.
          4    1    3    3  502    0  0.35139088993E+03  0.23602234516E+03  0.15535040311E+03  0.45090559177E+03  0.00000000000E+00 0.  1.
         13    1    4    4    0    0  0.33361535062E+03 -0.56223280847E+01  0.24194999698E+03  0.41215364240E+03  0.10566000000E+00 0. -1.
         -4    1    4    4    0  501 -0.49697910298E+03 -0.13213205283E+03 -0.34918549945E+03  0.62159280982E+03  0.00000000000E+00 0. -1.
<mgrwt>
<rscale>  2 0.10281020E+04</rscale>
<asrwt>0</asrwt>
<pdfrwt beam="1">  1        1 0.12045611E+00 0.10281020E+04</pdfrwt>
<pdfrwt beam="2">  1       -1 0.21490923E+00 0.10281020E+04</pdfrwt>
<totfact> 0.32718508E+00</totfact>
</mgrwt>
</event>
<event>
 8    1  0.1408247E-005  0.1166777E+04  0.7818608E-02  0.8632009E-01
         -1   -1    0    0    0  501 -0.00000000000E+00  0.00000000000E+00  0.11331890213E+04  0.11331890213E+04  0.00000000000E+00 0.  1.
          1   -1    0    0  502    0  0.00000000000E+00 -0.00000000000E+00 -0.12675519063E+04  0.12675519063E+04  0.00000000000E+00 0. -1.
    9000010    2    1    2  502    0  0.27505663067E+02  0.59730167571E+03 -0.34176351476E+03  0.12221412044E+04  0.10096043631E+04 0.  0.
   -9000010    2    1    2    0  501 -0.27505663067E+02 -0.59730167571E+03  0.20740062977E+03  0.11785997233E+04  0.99426175284E+03 0.  0.
        -13    1    3    3    0    0 -0.39412566753E+03  0.12323421333E+03 -0.41261580006E+03  0.58375810295E+03  0.10566000000E+00 0.  1.
          4    1    3    3  502    0  0.42163133060E+03  0.47406746239E+03  0.70852285298E+02  0.63838310141E+03  0.00000000000E+00 0.  1.
         13    1    4    4    0    0 -0.28082599956E+03 -0.59845291732E+02  0.45246452016E+03  0.53588138066E+03  0.10566000000E+00 0. -1.
         -4    1    4    4    0  501  0.25332033649E+03 -0.53745638398E+03 -0.24506389039E+03  0.64271834261E+03  0.00000000000E+00 0. -1.
<mgrwt>
<rscale>  2 0.11667767E+04</rscale>
<asrwt>0</asrwt>
<pdfrwt beam="2">  1        1 0.19500799E+00 0.11667767E+04</pdfrwt>
<pdfrwt beam="1">  1       -1 0.17433677E+00 0.11667767E+04</pdfrwt>
<totfact> 0.29653229E+00</totfact>
</mgrwt>
</event>
<event>
 8    1  0.1408247E-005  0.1212199E+04  0.7818608E-02  0.8597433E-01
          1   -1    0    0  502    0  0.00000000000E+00  0.00000000000E+00  0.23873494151E+04  0.23873494151E+04  0.00000000000E+00 0. -1.
         -1   -1    0    0    0  501 -0.00000000000E+00 -0.00000000000E+00 -0.64966842039E+03  0.64966842039E+03  0.00000000000E+00 0.  1.
    9000010    2    1    2  502    0  0.55281725765E+03  0.38937075789E+03  0.52455129291E+03  0.13260528473E+04  0.10129390838E+04 0.  0.
   -9000010    2    1    2    0  501 -0.55281725765E+03 -0.38937075789E+03  0.12131297018E+04  0.17109649881E+04  0.99925022382E+03 0.  0.
        -13    1    3    3    0    0  0.37809445068E+03  0.76027557795E+02 -0.25880379357E+03  0.46445130843E+03  0.10566000000E+00 0.  1.
          4    1    3    3  502    0  0.17472280697E+03  0.31334320009E+03  0.78335508648E+03  0.86160153890E+03  0.00000000000E+00 0.  1.
         13    1    4    4    0    0 -0.47795318518E+03  0.47325193487E+02  0.70495866325E+02  0.48543650408E+03  0.10566000000E+00 0. -1.
         -4    1    4    4    0  501 -0.74864072473E+02 -0.43669595137E+03  0.11426338354E+04  0.12255284840E+04  0.00000000000E+00 0. -1.
<mgrwt>
<rscale>  2 0.12121985E+04</rscale>
<asrwt>0</asrwt>
<pdfrwt beam="1">  1        1 0.36728452E+00 0.12121985E+04</pdfrwt>
<pdfrwt beam="2">  1       -1 0.99948989E-01 0.12121985E+04</pdfrwt>
<totfact> 0.18364034E+00</totfact>
</mgrwt>
</event>
<event>
 8    1  0.1408247E-005  0.1750284E+04  0.7818608E-02  0.8278421E-01
          2   -1    0    0  502    0  0.00000000000E+00  0.00000000000E+00  0.30217294186E+04  0.30217294186E+04  0.00000000000E+00 0.  1.
         -2   -1    0    0    0  501 -0.00000000000E+00 -0.00000000000E+00 -0.10918641908E+04  0.10918641908E+04  0.00000000000E+00 0. -1.
    9000010    2    1    2  502    0 -0.18445746494E+03 -0.14361640163E+04  0.41980389386E+03  0.18087895912E+04  0.99944626571E+03 0.  0.
   -9000010    2    1    2    0  501  0.18445746494E+03  0.14361640163E+04  0.15100613339E+04  0.23048040182E+04  0.96708049941E+03 0.  0.
        -13    1    3    3    0    0 -0.44936520226E+03 -0.59221122262E+03  0.53621850708E+03  0.91660979468E+03  0.10566000000E+00 0.  1.
          4    1    3    3  502    0  0.26490773732E+03 -0.84395279364E+03 -0.11641461322E+03  0.89217979654E+03  0.00000000000E+00 0.  1.
         13    1    4    4    0    0  0.72605184345E+02  0.14879219170E+04  0.10348299827E+04  0.18138512199E+04  0.10566000000E+00 0. -1.
         -4    1    4    4    0  501  0.11185228060E+03 -0.51757900713E+02  0.47523135128E+03  0.49095279834E+03  0.00000000000E+00 0. -1.
<mgrwt>
<rscale>  2 0.17502843E+04</rscale>
<asrwt>0</asrwt>
<pdfrwt beam="1">  1        2 0.46488145E+00 0.17502843E+04</pdfrwt>
<pdfrwt beam="2">  1       -2 0.16797911E+00 0.17502843E+04</pdfrwt>
<totfact> 0.47905301E-01</totfact>
</mgrwt>
</event>
<event>
 8    1  0.1408247E-005  0.1117526E+04  0.7818608E-02  0.8671398E-01
         -2   -1    0    0    0  501 -0.00000000000E+00  0.00000000000E+00  0.37679129639E+03  0.37679129639E+03  0.00000000000E+00 0.  1.
          2   -1    0    0  502    0  0.00000000000E+00 -0.00000000000E+00 -0.34715715905E+04  0.34715715905E+04  0.00000000000E+00 0. -1.
    9000010    2    1    2  502    0  0.28115872008E+03  0.36779127237E+03 -0.11161517039E+04  0.15672811325E+04  0.99812568162E+03 0.  0.
   -9000010    2    1    2    0  501 -0.28115872008E+03 -0.36779127237E+03 -0.19786285902E+04  0.22810817544E+04  0.10363600852E+04 0.  0.
        -13    1    3    3    0    0  0.32626165164E+03  0.34234947901E+03 -0.23601991629E+02  0.47350490629E+03  0.10566000000E+00 0.  1.
          4    1    3    3  502    0 -0.45102931563E+02  0.25441793364E+02 -0.10925497122E+04  0.10937762262E+04  0.00000000000E+00 0.  1.
         13    1    4    4    0    0 -0.56642915426E+03 -0.14827175223E+03 -0.53457322672E+03  0.79283986100E+03  0.10566000000E+00 0. -1.
         -4    1    4    4    0  501  0.28527043418E+03 -0.21951952014E+03 -0.14440553635E+04  0.14882418934E+04  0.00000000000E+00 0. -1.
<mgrwt>
<rscale>  2 0.11175257E+04</rscale>
<asrwt>0</asrwt>
<pdfrwt beam="2">  1        2 0.53408792E+00 0.11175257E+04</pdfrwt>
<pdfrwt beam="1">  1       -2 0.57967893E-01 0.11175257E+04</pdfrwt>
<totfact> 0.36405468E+00</totfact>
</mgrwt>
</event>
<event>
 8    1  0.1408247E-005  0.1445721E+04  0.7818608E-02  0.8441439E-01
         -2   -1    0    0    0  501 -0.00000000000E+00  0.00000000000E+00  0.72664314506E+03  0.72664314506E+03  0.00000000000E+00 0.  1.
          2   -1    0    0  502    0  0.00000000000E+00 -0.00000000000E+00 -0.32188065048E+04  0.32188065048E+04  0.00000000000E+00 0. -1.
    9000010    2    1    2  502    0  0.16971077881E+03 -0.10240931999E+04 -0.60246495849E+03  0.15659964715E+04  0.10058888069E+04 0.  0.
   -9000010    2    1    2    0  501 -0.16971077881E+03  0.10240931999E+04 -0.18896984012E+04  0.23794531784E+04  0.10066125123E+04 0.  0.
        -13    1    3    3    0    0  0.37864680884E+03 -0.11436788238E+04 -0.50161258372E+03  0.13049865337E+04  0.10566000000E+00 0.  1.
          4    1    3    3  502    0 -0.20893603004E+03  0.11958562394E+03 -0.10085237477E+03  0.26100993774E+03  0.00000000000E+00 0.  1.
         13    1    4    4    0    0  0.91953739612E+02  0.22422012698E+02 -0.10283699203E+04  0.10327162926E+04  0.10566000000E+00 0. -1.
         -4    1    4    4    0  501 -0.26166451842E+03  0.10016711872E+04 -0.86132848096E+03  0.13467368858E+04  0.00000000000E+00 0. -1.
<mgrwt>
<rscale>  2 0.14457209E+04</rscale>
<asrwt>0</asrwt>
<pdfrwt beam="2">  1        2 0.49520100E+00 0.14457209E+04</pdfrwt>
<pdfrwt beam="1">  1       -2 0.11179125E+00 0.14457209E+04</pdfrwt>
<totfact> 0.12071181E+00</totfact>
</mgrwt>
</event>
<event>
 8    1  0.1408247E-005  0.1132150E+04  0.7818608E-02  0.8659485E-01
          2   -1    0    0  502    0  0.00000000000E+00  0.00000000000E+00  0.32508938676E+04  0.32508938676E+04  0.00000000000E+00 0.  1.
         -2   -1    0    0    0  501 -0.00000000000E+00 -0.00000000000E+00 -0.40743715540E+03  0.40743715540E+03  0.00000000000E+00 0. -1.
    9000010    2    1    2  502    0  0.40068185003E+03  0.34851002956E+03  0.17948798129E+04  0.21455251388E+04  0.10486559936E+04 0.  0.
   -9000010    2    1    2    0  501 -0.40068185003E+03 -0.34851002956E+03  0.10485768993E+04  0.15128058842E+04  0.95239852153E+03 0.  0.
        -13    1    3    3    0    0 -0.22535955837E+03  0.17574344830E+03  0.12945085218E+04  0.13256790767E+04  0.10566000000E+00 0.  1.
          4    1    3    3  502    0  0.62604140840E+03  0.17276658126E+03  0.50037129110E+03  0.81984606213E+03  0.00000000000E+00 0.  1.
         13    1    4    4    0    0 -0.81196842329E+02 -0.11984456725E+03  0.11062756954E+04  0.11157067594E+04  0.10566000000E+00 0. -1.
         -4    1    4    4    0  501 -0.31948500771E+03 -0.22866546231E+03 -0.57698796162E+02  0.39709912476E+03  0.00000000000E+00 0. -1.
<mgrwt>
<rscale>  2 0.11321498E+04</rscale>
<asrwt>0</asrwt>
<pdfrwt beam="1">  1        2 0.50013750E+00 0.11321498E+04</pdfrwt>
<pdfrwt beam="2">  1       -2 0.62682641E-01 0.11321498E+04</pdfrwt>
<totfact> 0.44053387E+00</totfact>
</mgrwt>
</event>
<event>
 8    1  0.1408247E-005  0.1140550E+04  0.7818608E-02  0.8652727E-01
          1   -1    0    0  502    0  0.00000000000E+00  0.00000000000E+00  0.14284802767E+04  0.14284802767E+04  0.00000000000E+00 0.  1.
         -1   -1    0    0    0  501 -0.00000000000E+00 -0.00000000000E+00 -0.11536528247E+04  0.11536528247E+04  0.00000000000E+00 0. -1.
    9000010    2    1    2  502    0  0.15393071016E+03  0.54708596313E+03 -0.45236926744E+03  0.12487020889E+04  0.10156875691E+04 0.  0.
   -9000010    2    1    2    0  501 -0.15393071016E+03 -0.54708596313E+03  0.72719671947E+03  0.13334310125E+04  0.96240608988E+03 0.  0.
        -13    1    3    3    0    0 -0.16336890617E+03  0.33269570974E+03  0.25114677421E+03  0.44771704026E+03  0.10566000000E+00 0.  1.
          4    1    3    3  502    0  0.31729961633E+03  0.21439025339E+03 -0.70351604165E+03  0.80098504863E+03  0.00000000000E+00 0.  1.
         13    1    4    4    0    0 -0.98150150666E+02  0.26252732171E+03  0.32027114184E+03  0.42559095641E+03  0.10566000000E+00 0. -1.
         -4    1    4    4    0  501 -0.55780559493E+02 -0.80961328484E+03  0.40692557763E+03  0.90784005614E+03  0.00000000000E+00 0. -1.
<mgrwt>
<rscale>  2 0.11405499E+04</rscale>
<asrwt>0</asrwt>
<pdfrwt beam="1">  1        1 0.21976620E+00 0.11405499E+04</pdfrwt>
<pdfrwt beam="2">  1       -1 0.17748505E+00 0.11405499E+04</pdfrwt>
<totfact> 0.21150230E+00</totfact>
</mgrwt>
</event>
<event>
 8    1  0.1408247E-005  0.1701090E+04  0.7818608E-02  0.8302323E-01
          2   -1    0    0  502    0  0.00000000000E+00  0.00000000000E+00  0.35911465949E+04  0.35911465949E+04  0.00000000000E+00 0.  1.
         -2   -1    0    0    0  501 -0.00000000000E+00 -0.00000000000E+00 -0.85339453734E+03  0.85339453734E+03  0.00000000000E+00 0. -1.
    9000010    2    1    2  502    0 -0.13237374382E+04  0.29408253617E+03  0.83207787068E+03  0.18791640131E+04  0.10000692286E+04 0.  0.
   -9000010    2    1    2    0  501  0.13237374382E+04 -0.29408253617E+03  0.19056741868E+04  0.25653771191E+04  0.10539451189E+04 0.  0.
        -13    1    3    3    0    0 -0.88927274163E+03 -0.11486168856E+02  0.98435178046E+03  0.13266070933E+04  0.10566000000E+00 0.  1.
          4    1    3    3  502    0 -0.43446469654E+03  0.30556870503E+03 -0.15227390978E+03  0.55255691981E+03  0.00000000000E+00 0.  1.
         13    1    4    4    0    0  0.21108525990E+03 -0.53541845126E+03  0.71708465404E+03  0.91947828529E+03  0.10566000000E+00 0. -1.
         -4    1    4    4    0  501  0.11126521783E+04  0.24133591509E+03  0.11885895328E+04  0.16458988338E+04  0.00000000000E+00 0. -1.
<mgrwt>
<rscale>  2 0.17010896E+04</rscale>
<asrwt>0</asrwt>
<pdfrwt beam="1">  1        2 0.55248408E+00 0.17010896E+04</pdfrwt>
<pdfrwt beam="2">  1       -2 0.13129147E+00 0.17010896E+04</pdfrwt>
<totfact> 0.41442406E-01</totfact>
</mgrwt>
</event>
<event>
 8    1  0.1408247E-005  0.1513921E+04  0.7818608E-02  0.8401532E-01
          2   -1    0    0  502    0  0.00000000000E+00  0.00000000000E+00  0.20419485062E+04  0.20419485062E+04  0.00000000000E+00 0.  1.
         -2   -1    0    0    0  501 -0.00000000000E+00 -0.00000000000E+00 -0.11278092856E+04  0.11278092856E+04  0.00000000000E+00 0. -1.
    9000010    2    1    2  502    0  0.80242542907E+03  0.80729163714E+03  0.35369628212E+03  0.15702053515E+04  0.10221728959E+04 0.  0.
   -9000010    2    1    2    0  501 -0.80242542907E+03 -0.80729163714E+03  0.56044293850E+03  0.15995524404E+04  0.97409720540E+03 0.  0.
        -13    1    3    3    0    0  0.30599371644E+03  0.90011082186E+03  0.45680587224E+03  0.10547527019E+04  0.10566000000E+00 0.  1.
          4    1    3    3  502    0  0.49643171263E+03 -0.92819184715E+02 -0.10310959012E+03  0.51545264955E+03  0.00000000000E+00 0.  1.
         13    1    4    4    0    0 -0.26243288900E+02  0.17894890684E+03  0.24668862249E+03  0.30588675863E+03  0.10566000000E+00 0. -1.
         -4    1    4    4    0  501 -0.77618214017E+03 -0.98624054398E+03  0.31375431601E+03  0.12936656818E+04  0.00000000000E+00 0. -1.
<mgrwt>
<rscale>  2 0.15139206E+04</rscale>
<asrwt>0</asrwt>
<pdfrwt beam="1">  1        2 0.31414592E+00 0.15139206E+04</pdfrwt>
<pdfrwt beam="2">  1       -2 0.17350912E+00 0.15139206E+04</pdfrwt>
<totfact> 0.16164959E+00</totfact>
</mgrwt>
</event>
<event>
 8    1  0.1408247E-005  0.1264199E+04  0.7818608E-02  0.8559726E-01
         -2   -1    0    0    0  501 -0.00000000000E+00  0.00000000000E+00  0.15072372089E+04  0.15072372089E+04  0.00000000000E+00 0.  1.
          2   -1    0    0  502    0  0.00000000000E+00 -0.00000000000E+00 -0.11076442765E+04  0.11076442765E+04  0.00000000000E+00 0. -1.
    9000010    2    1    2  502    0  0.72842636623E+03 -0.26392745897E+03 -0.71288718472E+02  0.12595593497E+04  0.99052763687E+03 0.  0.
   -9000010    2    1    2    0  501 -0.72842636623E+03  0.26392745897E+03  0.47088165083E+03  0.13553221357E+04  0.10074253759E+04 0.  0.
        -13    1    3    3    0    0  0.72236583751E+03 -0.58544372492E+03  0.16539342935E+01  0.92981692011E+03  0.10566000000E+00 0.  1.
          4    1    3    3  502    0  0.60605287144E+01  0.32151626595E+03 -0.72942652766E+02  0.32974242959E+03  0.00000000000E+00 0.  1.
         13    1    4    4    0    0 -0.17782559187E+03  0.10751197231E+03  0.70643343901E+03  0.73636198994E+03  0.10566000000E+00 0. -1.
         -4    1    4    4    0  501 -0.55060077436E+03  0.15641548666E+03 -0.23555178818E+03  0.61896014581E+03  0.00000000000E+00 0. -1.
<mgrwt>
<rscale>  2 0.12641989E+04</rscale>
<asrwt>0</asrwt>
<pdfrwt beam="2">  1        2 0.17040681E+00 0.12641989E+04</pdfrwt>
<pdfrwt beam="1">  1       -2 0.23188265E+00 0.12641989E+04</pdfrwt>
<totfact> 0.18057812E+00</totfact>
</mgrwt>
</event>
<event>
 8    1  0.1408247E-005  0.1068962E+04  0.7818608E-02  0.8712363E-01
          2   -1    0    0  502    0  0.00000000000E+00  0.00000000000E+00  0.33258743507E+04  0.33258743507E+04  0.00000000000E+00 0. -1.
         -2   -1    0    0    0  501 -0.00000000000E+00 -0.00000000000E+00 -0.38110051516E+03  0.38110051516E+03  0.00000000000E+00 0.  1.
    9000010    2    1    2  502    0 -0.40053904280E+03  0.17864993049E+02  0.20613564987E+04  0.23248092828E+04  0.99739505919E+03 0.  0.
   -9000010    2    1    2    0  501  0.40053904280E+03 -0.17864993049E+02  0.88341733682E+03  0.13821655830E+04  0.98448200849E+03 0.  0.
        -13    1    3    3    0    0 -0.74033022380E+02 -0.47069997793E+03  0.10890763242E+04  0.11887500194E+04  0.10566000000E+00 0.  1.
          4    1    3    3  502    0 -0.32650602042E+03  0.48856497098E+03  0.97228017449E+03  0.11360592634E+04  0.00000000000E+00 0.  1.
         13    1    4    4    0    0  0.23988128578E+03  0.48151306701E+03  0.46740320107E+03  0.71264551392E+03  0.10566000000E+00 0. -1.
         -4    1    4    4    0  501  0.16065775701E+03 -0.49937806006E+03  0.41601413575E+03  0.66952006908E+03  0.00000000000E+00 0. -1.
<mgrwt>
<rscale>  2 0.10689621E+04</rscale>
<asrwt>0</asrwt>
<pdfrwt beam="1">  1        2 0.51167296E+00 0.10689621E+04</pdfrwt>
<pdfrwt beam="2">  1       -2 0.58630851E-01 0.10689621E+04</pdfrwt>
<totfact> 0.45275265E+00</totfact>
</mgrwt>
</event>
<event>
 8    1  0.1408247E-005  0.1258860E+04  0.7818608E-02  0.8563510E-01
         -2   -1    0    0    0  501 -0.00000000000E+00  0.00000000000E+00  0.87191389466E+03  0.87191389466E+03  0.00000000000E+00 0. -1.
          2   -1    0    0  502    0  0.00000000000E+00 -0.00000000000E+00 -0.19747362160E+04  0.19747362160E+04  0.00000000000E+00 0.  1.
    9000010    2    1    2  502    0  0.28251702381E+03  0.73931109571E+03 -0.95616639606E+03  0.15872928073E+04  0.98936722916E+03 0.  0.
   -9000010    2    1    2    0  501 -0.28251702381E+03 -0.73931109571E+03 -0.14665592526E+03  0.12593573034E+04  0.96854328355E+03 0.  0.
        -13    1    3    3    0    0  0.40326946415E+03  0.92104123794E+03 -0.92623235254E+03  0.13670587422E+04  0.10566000000E+00 0.  1.
          4    1    3    3  502    0 -0.12075244034E+03 -0.18173014223E+03 -0.29934043519E+02  0.22023406504E+03  0.00000000000E+00 0.  1.
         13    1    4    4    0    0 -0.55183497529E+03 -0.17837174815E+03 -0.24466548994E+03  0.62944382881E+03  0.10566000000E+00 0. -1.
         -4    1    4    4    0  501  0.26931795149E+03 -0.56093934757E+03  0.98009564687E+02  0.62991347454E+03  0.00000000000E+00 0. -1.
<mgrwt>
<rscale>  2 0.12588596E+04</rscale>
<asrwt>0</asrwt>
<pdfrwt beam="2">  1        2 0.30380557E+00 0.12588596E+04</pdfrwt>
<pdfrwt beam="1">  1       -2 0.13414060E+00 0.12588596E+04</pdfrwt>
<totfact> 0.40001204E+00</totfact>
</mgrwt>
</event>
<event>
 8    1  0.1408247E-005  0.1515964E+04  0.7818608E-02  0.8400371E-01
         -2   -1    0    0    0  501 -0.00000000000E+00  0.00000000000E+00  0.12882967460E+04  0.12882967460E+04  0.00000000000E+00 0. -1.
          2   -1    0    0  502    0  0.00000000000E+00 -0.00000000000E+00 -0.19406048171E+04  0.19406048171E+04  0.00000000000E+00 0.  1.
    9000010    2    1    2  502    0 -0.95642659653E+03 -0.61930264875E+03  0.13187236251E+03  0.15256249340E+04  0.10059092971E+04 0.  0.
   -9000010    2    1    2    0  501  0.95642659653E+03  0.61930264875E+03 -0.78418043356E+03  0.17032766292E+04  0.99394402143E+03 0.  0.
        -13    1    3    3    0    0 -0.62617981261E+03 -0.18154032067E+03 -0.39737511468E+03  0.76352147231E+03  0.10566000000E+00 0.  1.
          4    1    3    3  502    0 -0.33024678391E+03 -0.43776232808E+03  0.52924747719E+03  0.76210346167E+03  0.00000000000E+00 0.  1.
         13    1    4    4    0    0  0.60891937511E+03  0.40887830771E+03  0.90338866810E+02  0.73900297558E+03  0.10566000000E+00 0. -1.
         -4    1    4    4    0  501  0.34750722142E+03  0.21042434104E+03 -0.87451930037E+03  0.96427365357E+03  0.00000000000E+00 0. -1.
<mgrwt>
<rscale>  2 0.15159636E+04</rscale>
<asrwt>0</asrwt>
<pdfrwt beam="2">  1        2 0.29855459E+00 0.15159636E+04</pdfrwt>
<pdfrwt beam="1">  1       -2 0.19819950E+00 0.15159636E+04</pdfrwt>
<totfact> 0.11426647E+00</totfact>
</mgrwt>
</event>
<event>
 8    1  0.1408247E-005  0.1161229E+04  0.7818608E-02  0.8636344E-01
         -2   -1    0    0    0  501 -0.00000000000E+00  0.00000000000E+00  0.53521118208E+03  0.53521118208E+03  0.00000000000E+00 0. -1.
          2   -1    0    0  502    0  0.00000000000E+00 -0.00000000000E+00 -0.32016916461E+04  0.32016916461E+04  0.00000000000E+00 0.  1.
    9000010    2    1    2  502    0  0.57737357132E+03  0.40773174870E+01 -0.47135498732E+03  0.12538630857E+04  0.10082758791E+04 0.  0.
   -9000010    2    1    2    0  501 -0.57737357132E+03 -0.40773174870E+01 -0.21951254767E+04  0.24830397425E+04  0.10067440781E+04 0.  0.
        -13    1    3    3    0    0  0.52304721090E+03 -0.45669706164E+03 -0.33031591206E+03  0.76893380980E+03  0.10566000000E+00 0.  1.
          4    1    3    3  502    0  0.54326360419E+02  0.46077437913E+03 -0.14103907525E+03  0.48492927592E+03  0.00000000000E+00 0.  1.
         13    1    4    4    0    0  0.82293614370E+02  0.38543723063E+03 -0.71670652927E+03  0.81792564330E+03  0.10566000000E+00 0. -1.
         -4    1    4    4    0  501 -0.65966718569E+03 -0.38951454811E+03 -0.14784189475E+04  0.16651140992E+04  0.00000000000E+00 0. -1.
<mgrwt>
<rscale>  2 0.11612291E+04</rscale>
<asrwt>0</asrwt>
<pdfrwt beam="2">  1        2 0.49256794E+00 0.11612291E+04</pdfrwt>
<pdfrwt beam="1">  1       -2 0.82340182E-01 0.11612291E+04</pdfrwt>
<totfact> 0.26525433E+00</totfact>
</mgrwt>
</event>
<event>
 8    1  0.1408247E-005  0.1263787E+04  0.7818608E-02  0.8560017E-01
          2   -1    0    0  502    0  0.00000000000E+00  0.00000000000E+00  0.12694231091E+04  0.12694231091E+04  0.00000000000E+00 0.  1.
         -2   -1    0    0    0  501 -0.00000000000E+00 -0.00000000000E+00 -0.12796611180E+04  0.12796611180E+04  0.00000000000E+00 0. -1.
    9000010    2    1    2  502    0  0.31337909272E+03 -0.69992746180E+03  0.15968618660E+03  0.12837247063E+04  0.10170273034E+04 0.  0.
   -9000010    2    1    2    0  501 -0.31337909272E+03  0.69992746180E+03 -0.16992419547E+03  0.12653595207E+04  0.99204615663E+03 0.  0.
        -13    1    3    3    0    0  0.25999126695E+03 -0.90371121187E+03 -0.10413606938E+03  0.94611508045E+03  0.10566000000E+00 0.  1.
          4    1    3    3  502    0  0.53387825772E+02  0.20378375007E+03  0.26382225598E+03  0.33760962588E+03  0.00000000000E+00 0.  1.
         13    1    4    4    0    0 -0.33045046242E+03 -0.14330121341E+03 -0.21725077516E+03  0.42063125936E+03  0.10566000000E+00 0. -1.
         -4    1    4    4    0  501  0.17071369703E+02  0.84322867521E+03  0.47326579690E+02  0.84472826134E+03  0.00000000000E+00 0. -1.
<mgrwt>
<rscale>  2 0.12637871E+04</rscale>
<asrwt>0</asrwt>
<pdfrwt beam="1">  1        2 0.19529586E+00 0.12637871E+04</pdfrwt>
<pdfrwt beam="2">  1       -2 0.19687094E+00 0.12637871E+04</pdfrwt>
<totfact> 0.28144796E+00</totfact>
</mgrwt>
</event>
<event>
 8    1  0.1408247E-005  0.1213956E+04  0.7818608E-02  0.8596127E-01
          2   -1    0    0  502    0  0.00000000000E+00  0.00000000000E+00  0.10437953584E+04  0.10437953584E+04  0.00000000000E+00 0. -1.
         -2   -1    0    0    0  501 -0.00000000000E+00 -0.00000000000E+00 -0.14121909879E+04  0.14121909879E+04  0.00000000000E+00 0.  1.
    9000010    2    1    2  502    0 -0.21340674395E+03 -0.64485909417E+03 -0.20280980081E+03  0.12377296219E+04  0.10146216595E+04 0.  0.
   -9000010    2    1    2    0  501  0.21340674395E+03  0.64485909417E+03 -0.16558582863E+03  0.12182567244E+04  0.99766983020E+03 0.  0.
        -13    1    3    3    0    0 -0.50537685239E+03 -0.72950033310E+03 -0.26757506644E+03  0.92691581401E+03  0.10566000000E+00 0.  1.
          4    1    3    3  502    0  0.29197010844E+03  0.84641238927E+02  0.64765265626E+02  0.31081380790E+03  0.00000000000E+00 0.  1.
         13    1    4    4    0    0  0.58308950388E+03  0.17813298160E+03 -0.49962721309E+02  0.61173606511E+03  0.10566000000E+00 0. -1.
         -4    1    4    4    0  501 -0.36968275993E+03  0.46672611258E+03 -0.11562310732E+03  0.60652065925E+03  0.00000000000E+00 0. -1.
<mgrwt>
<rscale>  2 0.12139556E+04</rscale>
<asrwt>0</asrwt>
<pdfrwt beam="1">  1        2 0.16058390E+00 0.12139556E+04</pdfrwt>
<pdfrwt beam="2">  1       -2 0.21726015E+00 0.12139556E+04</pdfrwt>
<totfact> 0.25965632E+00</totfact>
</mgrwt>
</event>
<event>
 8    1  0.1408247E-005  0.1541422E+04  0.7818608E-02  0.8386052E-01
          2   -1    0    0  502    0  0.00000000000E+00  0.00000000000E+00  0.16331264687E+04  0.16331264687E+04  0.00000000000E+00 0. -1.
         -2   -1    0    0    0  501 -0.00000000000E+00 -0.00000000000E+00 -0.14576814156E+04  0.14576814156E+04  0.00000000000E+00 0.  1.
    9000010    2    1    2  502    0  0.32521945192E+03  0.11251969632E+04  0.15561909413E+03  0.15490076814E+04  0.10016843798E+04 0.  0.
   -9000010    2    1    2    0  501 -0.32521945192E+03 -0.11251969632E+04  0.19825959010E+02  0.15418002028E+04  0.10024564324E+04 0.  0.
        -13    1    3    3    0    0  0.58840328147E+03  0.29883249396E+03 -0.35661571638E+02  0.66090168705E+03  0.10566000000E+00 0.  1.
          4    1    3    3  502    0 -0.26318382955E+03  0.82636446924E+03  0.19128066577E+03  0.88810599438E+03  0.00000000000E+00 0.  1.
         13    1    4    4    0    0 -0.28955443420E+03  0.82035748510E+02  0.13243610360E+03  0.32880232222E+03  0.10566000000E+00 0. -1.
         -4    1    4    4    0  501 -0.35665017718E+02 -0.12072327117E+04 -0.11261014459E+03  0.12129978806E+04  0.00000000000E+00 0. -1.
<mgrwt>
<rscale>  2 0.15414218E+04</rscale>
<asrwt>0</asrwt>
<pdfrwt beam="1">  1        2 0.25125023E+00 0.15414218E+04</pdfrwt>
<pdfrwt beam="2">  1       -2 0.22425868E+00 0.15414218E+04</pdfrwt>
<totfact> 0.10261424E+00</totfact>
</mgrwt>
</event>
<event>
 8    1  0.1408247E-005  0.1273111E+04  0.7818608E-02  0.8553452E-01
          2   -1    0    0  502    0  0.00000000000E+00  0.00000000000E+00  0.13052108620E+04  0.13052108620E+04  0.00000000000E+00 0.  1.
         -2   -1    0    0    0  501 -0.00000000000E+00 -0.00000000000E+00 -0.13700488348E+04  0.13700488348E+04  0.00000000000E+00 0. -1.
    9000010    2    1    2  502    0 -0.62151825324E+03 -0.48523161616E+03 -0.44173169271E+03  0.13504455419E+04  0.10034149754E+04 0.  0.
   -9000010    2    1    2    0  501  0.62151825324E+03  0.48523161616E+03  0.37689371988E+03  0.13248141549E+04  0.99566510859E+03 0.  0.
        -13    1    3    3    0    0 -0.18053800712E+03 -0.38568496955E+03  0.27220544851E+03  0.50541338043E+03  0.10566000000E+00 0.  1.
          4    1    3    3  502    0 -0.44098024612E+03 -0.99546646611E+02 -0.71393714122E+03  0.84503216148E+03  0.00000000000E+00 0.  1.
         13    1    4    4    0    0 -0.26443337389E+03  0.20700983362E+03  0.45748202274E+02  0.33892623035E+03  0.10566000000E+00 0. -1.
         -4    1    4    4    0  501  0.88595162714E+03  0.27822178254E+03  0.33114551760E+03  0.98588792453E+03  0.00000000000E+00 0. -1.
<mgrwt>
<rscale>  2 0.12731109E+04</rscale>
<asrwt>0</asrwt>
<pdfrwt beam="1">  1        2 0.20080167E+00 0.12731109E+04</pdfrwt>
<pdfrwt beam="2">  1       -2 0.21077674E+00 0.12731109E+04</pdfrwt>
<totfact> 0.20616301E+00</totfact>
</mgrwt>
</event>
<event>
 8    1  0.1408247E-005  0.1614010E+04  0.7818608E-02  0.8346748E-01
         -2   -1    0    0    0  501 -0.00000000000E+00  0.00000000000E+00  0.17205037542E+04  0.17205037542E+04  0.00000000000E+00 0. -1.
          2   -1    0    0  502    0  0.00000000000E+00 -0.00000000000E+00 -0.16650939918E+04  0.16650939918E+04  0.00000000000E+00 0.  1.
    9000010    2    1    2  502    0  0.11481604263E+04  0.51405634192E+03 -0.48206248223E+03  0.16831205590E+04  0.10089520762E+04 0.  0.
   -9000010    2    1    2    0  501 -0.11481604263E+04 -0.51405634192E+03  0.53747224462E+03  0.17024771869E+04  0.10134228491E+04 0.  0.
        -13    1    3    3    0    0  0.18506875674E+03  0.61620013948E+03 -0.16774882228E+03  0.66490054532E+03  0.10566000000E+00 0.  1.
          4    1    3    3  502    0  0.96309166959E+03 -0.10214379756E+03 -0.31431365995E+03  0.10182200137E+04  0.00000000000E+00 0.  1.
         13    1    4    4    0    0 -0.88123937205E+03 -0.72661022452E+03  0.68379908046E+03  0.13312123958E+04  0.10566000000E+00 0. -1.
         -4    1    4    4    0  501 -0.26692105428E+03  0.21255388260E+03 -0.14632683584E+03  0.37126479110E+03  0.00000000000E+00 0. -1.
<mgrwt>
<rscale>  2 0.16140097E+04</rscale>
<asrwt>0</asrwt>
<pdfrwt beam="2">  1        2 0.25616831E+00 0.16140097E+04</pdfrwt>
<pdfrwt beam="1">  1       -2 0.26469289E+00 0.16140097E+04</pdfrwt>
<totfact> 0.47214883E-01</totfact>
</mgrwt>
</event>
<event>
 8    1  0.1408247E-005  0.1303251E+04  0.7818608E-02  0.8532620E-01
          1   -1    0    0  502    0  0.00000000000E+00  0.00000000000E+00  0.18275529104E+04  0.18275529104E+04  0.00000000000E+00 0. -1.
         -1   -1    0    0    0  501 -0.00000000000E+00 -0.00000000000E+00 -0.93299390937E+03  0.93299390937E+03  0.00000000000E+00 0.  1.
    9000010    2    1    2  502    0 -0.22086183442E+02  0.83722988810E+03  0.53650028494E+03  0.14204196003E+04  0.10140599588E+04 0.  0.
   -9000010    2    1    2    0  501  0.22086183442E+02 -0.83722988810E+03  0.35805871613E+03  0.13401272195E+04  0.98300215427E+03 0.  0.
        -13    1    3    3    0    0 -0.50182433191E+03  0.47557378217E+03  0.41845092691E+03  0.80814557586E+03  0.10566000000E+00 0.  1.
          4    1    3    3  502    0  0.47973814847E+03  0.36165610593E+03  0.11804935803E+03  0.61227402442E+03  0.00000000000E+00 0.  1.
         13    1    4    4    0    0 -0.37289481676E+03 -0.11024472235E+03 -0.90153254360E+02  0.39916420632E+03  0.10566000000E+00 0. -1.
         -4    1    4    4    0  501  0.39498100020E+03 -0.72698516575E+03  0.44821197049E+03  0.94096301321E+03  0.00000000000E+00 0. -1.
<mgrwt>
<rscale>  2 0.13032513E+04</rscale>
<asrwt>0</asrwt>
<pdfrwt beam="1">  1        1 0.28116199E+00 0.13032513E+04</pdfrwt>
<pdfrwt beam="2">  1       -1 0.14353752E+00 0.13032513E+04</pdfrwt>
<totfact> 0.20567774E+00</totfact>
</mgrwt>
</event>
<event>
 8    1  0.1408247E-005  0.1574763E+04  0.7818608E-02  0.8367727E-01
         -1   -1    0    0    0  501 -0.00000000000E+00  0.00000000000E+00  0.11793997063E+04  0.11793997063E+04  0.00000000000E+00 0. -1.
          1   -1    0    0  502    0  0.00000000000E+00 -0.00000000000E+00 -0.22579979232E+04  0.22579979232E+04  0.00000000000E+00 0.  1.
    9000010    2    1    2  502    0 -0.70194156794E+03 -0.10077579152E+04 -0.89794328019E+02  0.15812895976E+04  0.99202610337E+03 0.  0.
   -9000010    2    1    2    0  501  0.70194156794E+03  0.10077579152E+04 -0.98880388887E+03  0.18561080318E+04  0.97933952976E+03 0.  0.
        -13    1    3    3    0    0 -0.43642222983E+03 -0.57928843602E+03 -0.54095446073E+03  0.90480450625E+03  0.10566000000E+00 0.  1.
          4    1    3    3  502    0 -0.26551933812E+03 -0.42846947921E+03  0.45116013271E+03  0.67648509139E+03  0.00000000000E+00 0.  1.
         13    1    4    4    0    0  0.87409011964E+03  0.71248941615E+03 -0.10097298719E+04  0.15136806568E+04  0.10566000000E+00 0. -1.
         -4    1    4    4    0  501 -0.17214855169E+03  0.29526849908E+03  0.20925983009E+02  0.34242737502E+03  0.00000000000E+00 0. -1.
<mgrwt>
<rscale>  2 0.15747626E+04</rscale>
<asrwt>0</asrwt>
<pdfrwt beam="2">  1        1 0.34738429E+00 0.15747626E+04</pdfrwt>
<pdfrwt beam="1">  1       -1 0.18144611E+00 0.15747626E+04</pdfrwt>
<totfact> 0.43000617E-01</totfact>
</mgrwt>
</event>
<event>
 8    1  0.1408247E-005  0.1400322E+04  0.7818608E-02  0.8469279E-01
         -1   -1    0    0    0  501 -0.00000000000E+00  0.00000000000E+00  0.13306851299E+04  0.13306851299E+04  0.00000000000E+00 0.  1.
          1   -1    0    0  502    0  0.00000000000E+00 -0.00000000000E+00 -0.15456476656E+04  0.15456476656E+04  0.00000000000E+00 0. -1.
    9000010    2    1    2  502    0 -0.97095107725E+03  0.18119483815E+02 -0.41790720933E+03  0.14604437924E+04  0.10075590926E+04 0.  0.
   -9000010    2    1    2    0  501  0.97095107725E+03 -0.18119483815E+02  0.20294467370E+03  0.14158890031E+04  0.10101885064E+04 0.  0.
        -13    1    3    3    0    0 -0.36850833657E+03 -0.26019151744E+03  0.25263676020E+03  0.51703323262E+03  0.10566000000E+00 0.  1.
          4    1    3    3  502    0 -0.60244274068E+03  0.27831100125E+03 -0.67054396953E+03  0.94341055978E+03  0.00000000000E+00 0.  1.
         13    1    4    4    0    0  0.73619286676E+01  0.35009553665E+03  0.15579484624E+03  0.38326639307E+03  0.10566000000E+00 0. -1.
         -4    1    4    4    0  501  0.96358914859E+03 -0.36821502047E+03  0.47149827455E+02  0.10326226101E+04  0.00000000000E+00 0. -1.
<mgrwt>
<rscale>  2 0.14003216E+04</rscale>
<asrwt>0</asrwt>
<pdfrwt beam="2">  1        1 0.23779195E+00 0.14003216E+04</pdfrwt>
<pdfrwt beam="1">  1       -1 0.20472079E+00 0.14003216E+04</pdfrwt>
<totfact> 0.96034790E-01</totfact>
</mgrwt>
</event>
<event>
 8    1  0.1408247E-005  0.1066032E+04  0.7818608E-02  0.8714907E-01
         -2   -1    0    0    0  501 -0.00000000000E+00  0.00000000000E+00  0.67197885721E+03  0.67197885721E+03  0.00000000000E+00 0. -1.
          2   -1    0    0  502    0  0.00000000000E+00 -0.00000000000E+00 -0.17137226003E+04  0.17137226003E+04  0.00000000000E+00 0.  1.
    9000010    2    1    2  502    0 -0.30701708821E+02 -0.32607693912E+03 -0.66283737265E+03  0.12654896563E+04  0.10270549754E+04 0.  0.
   -9000010    2    1    2    0  501  0.30701708821E+02  0.32607693912E+03 -0.37890637042E+03  0.11202118012E+04  0.10020158066E+04 0.  0.
        -13    1    3    3    0    0 -0.38630316407E+03 -0.36515536711E+03 -0.22561124674E+02  0.53205036624E+03  0.10566000000E+00 0.  1.
          4    1    3    3  502    0  0.35560145525E+03  0.39078427996E+02 -0.64027624797E+03  0.73343929008E+03  0.00000000000E+00 0.  1.
         13    1    4    4    0    0  0.41464508143E+03  0.12918983762E+03 -0.50941814410E+03  0.66942319530E+03  0.10566000000E+00 0. -1.
         -4    1    4    4    0  501 -0.38394337261E+03  0.19688710149E+03  0.13051177368E+03  0.45078860586E+03  0.00000000000E+00 0. -1.
<mgrwt>
<rscale>  2 0.10660317E+04</rscale>
<asrwt>0</asrwt>
<pdfrwt beam="2">  1        2 0.26364962E+00 0.10660317E+04</pdfrwt>
<pdfrwt beam="1">  1       -2 0.10338137E+00 0.10660317E+04</pdfrwt>
<totfact> 0.11198484E+01</totfact>
</mgrwt>
</event>
<event>
 8    1  0.1408247E-005  0.1501748E+04  0.7818608E-02  0.8408494E-01
          2   -1    0    0  502    0  0.00000000000E+00  0.00000000000E+00  0.50110313901E+03  0.50110313901E+03  0.00000000000E+00 0. -1.
         -2   -1    0    0    0  501 -0.00000000000E+00 -0.00000000000E+00 -0.45059526030E+04  0.45059526030E+04  0.00000000000E+00 0.  1.
    9000010    2    1    2  502    0  0.39162791279E+03  0.10550662567E+04 -0.20868078829E+04  0.25700585468E+04  0.99191560421E+03 0.  0.
   -9000010    2    1    2    0  501 -0.39162791279E+03 -0.10550662567E+04 -0.19180415810E+04  0.24369971952E+04  0.99676205511E+03 0.  0.
        -13    1    3    3    0    0 -0.77217856797E+02  0.98444771715E+03 -0.11193437708E+04  0.14926588336E+04  0.10566000000E+00 0.  1.
          4    1    3    3  502    0  0.46884576959E+03  0.70618539532E+02 -0.96746411212E+03  0.10773997132E+04  0.00000000000E+00 0.  1.
         13    1    4    4    0    0  0.10401988186E+03 -0.32328110046E+03 -0.13365574415E+04  0.13790274150E+04  0.10566000000E+00 0. -1.
         -4    1    4    4    0  501 -0.49564779465E+03 -0.73178515622E+03 -0.58148413959E+03  0.10579697802E+04  0.00000000000E+00 0. -1.
<mgrwt>
<rscale>  2 0.15017482E+04</rscale>
<asrwt>0</asrwt>
<pdfrwt beam="1">  1        2 0.77092790E-01 0.15017482E+04</pdfrwt>
<pdfrwt beam="2">  1       -2 0.69322348E+00 0.15017482E+04</pdfrwt>
<totfact> 0.11939953E-01</totfact>
</mgrwt>
</event>
<event>
 8    1  0.1408247E-005  0.2153026E+04  0.7818608E-02  0.8108783E-01
         -1   -1    0    0    0  501 -0.00000000000E+00  0.00000000000E+00  0.32402917471E+04  0.32402917471E+04  0.00000000000E+00 0. -1.
          1   -1    0    0  502    0  0.00000000000E+00 -0.00000000000E+00 -0.14382441839E+04  0.14382441839E+04  0.00000000000E+00 0.  1.
    9000010    2    1    2  502    0  0.13639164606E+03 -0.18991278329E+04  0.10711514245E+04  0.24036034871E+04  0.10023248685E+04 0.  0.
   -9000010    2    1    2    0  501 -0.13639164606E+03  0.18991278329E+04  0.73089613870E+03  0.22749324439E+04  0.10078785897E+04 0.  0.
        -13    1    3    3    0    0  0.23271015894E+02 -0.14440190740E+04  0.26112860302E+03  0.14676241974E+04  0.10566000000E+00 0.  1.
          4    1    3    3  502    0  0.11312063017E+03 -0.45510875895E+03  0.81002282151E+03  0.93597928973E+03  0.00000000000E+00 0.  1.
         13    1    4    4    0    0 -0.43112596542E+02 -0.12284887588E+03  0.43481958550E+02  0.13726337519E+03  0.10566000000E+00 0. -1.
         -4    1    4    4    0  501 -0.93279049520E+02  0.20219767088E+04  0.68741418015E+03  0.21376690687E+04  0.00000000000E+00 0. -1.
<mgrwt>
<rscale>  2 0.21530265E+04</rscale>
<asrwt>0</asrwt>
<pdfrwt beam="2">  1        1 0.22126834E+00 0.21530265E+04</pdfrwt>
<pdfrwt beam="1">  1       -1 0.49850642E+00 0.21530265E+04</pdfrwt>
<totfact> 0.79436774E-02</totfact>
</mgrwt>
</event>
<event>
 8    1  0.1408247E-005  0.1714907E+04  0.7818608E-02  0.8295526E-01
          2   -1    0    0  502    0  0.00000000000E+00  0.00000000000E+00  0.46938706374E+04  0.46938706374E+04  0.00000000000E+00 0. -1.
         -2   -1    0    0    0  501 -0.00000000000E+00 -0.00000000000E+00 -0.68771900553E+03  0.68771900553E+03  0.00000000000E+00 0.  1.
    9000010    2    1    2  502    0 -0.94285836515E+03  0.10379199886E+04  0.12023282602E+04  0.20957776517E+04  0.99016711752E+03 0.  0.
   -9000010    2    1    2    0  501  0.94285836515E+03 -0.10379199886E+04  0.28038233716E+04  0.32858119912E+04  0.98431455478E+03 0.  0.
        -13    1    3    3    0    0 -0.44016471851E+03  0.80019649970E+03  0.12381792017E+04  0.15385535949E+04  0.10566000000E+00 0.  1.
          4    1    3    3  502    0 -0.50269364664E+03  0.23772348890E+03 -0.35850941465E+02  0.55722405687E+03  0.00000000000E+00 0.  1.
         13    1    4    4    0    0  0.19617904208E+03 -0.26776628749E+03  0.56784692397E+02  0.33676329034E+03  0.10566000000E+00 0. -1.
         -4    1    4    4    0  501  0.74667932307E+03 -0.77015370112E+03  0.27470386792E+04  0.29490487009E+04  0.00000000000E+00 0. -1.
<mgrwt>
<rscale>  2 0.17149073E+04</rscale>
<asrwt>0</asrwt>
<pdfrwt beam="1">  1        2 0.72213392E+00 0.17149073E+04</pdfrwt>
<pdfrwt beam="2">  1       -2 0.10580293E+00 0.17149073E+04</pdfrwt>
<totfact> 0.79053427E-02</totfact>
</mgrwt>
</event>
<event>
 8    1  0.1408247E-005  0.1143492E+04  0.7818608E-02  0.8650374E-01
          2   -1    0    0  502    0  0.00000000000E+00  0.00000000000E+00  0.30438496975E+04  0.30438496975E+04  0.00000000000E+00 0. -1.
         -2   -1    0    0    0  501 -0.00000000000E+00 -0.00000000000E+00 -0.43326446375E+03  0.43326446375E+03  0.00000000000E+00 0.  1.
    9000010    2    1    2  502    0  0.48897577153E+03 -0.27440691699E+03  0.14476593511E+04  0.18358867552E+04  0.97998271409E+03 0.  0.
   -9000010    2    1    2    0  501 -0.48897577153E+03  0.27440691699E+03  0.11629258827E+04  0.16412274060E+04  0.10133283419E+04 0.  0.
        -13    1    3    3    0    0  0.26468099004E+03 -0.30819545021E+03  0.37921824318E+02  0.40801781571E+03  0.10566000000E+00 0.  1.
          4    1    3    3  502    0  0.22429478149E+03  0.33788533224E+02  0.14097375268E+04  0.14278689395E+04  0.00000000000E+00 0.  1.
         13    1    4    4    0    0 -0.64931146138E+03  0.18350987536E+03  0.12626782872E+04  0.14316555858E+04  0.10566000000E+00 0. -1.
         -4    1    4    4    0  501  0.16033568985E+03  0.90897041623E+02 -0.99752404561E+02  0.20957182022E+03  0.00000000000E+00 0. -1.
<mgrwt>
<rscale>  2 0.11434922E+04</rscale>
<asrwt>0</asrwt>
<pdfrwt beam="1">  1        2 0.46828456E+00 0.11434922E+04</pdfrwt>
<pdfrwt beam="2">  1       -2 0.66656073E-01 0.11434922E+04</pdfrwt>
<totfact> 0.52501672E+00</totfact>
</mgrwt>
</event>
<event>
 8    1  0.1408247E-005  0.1079770E+04  0.7818608E-02  0.8703053E-01
          1   -1    0    0  502    0  0.00000000000E+00  0.00000000000E+00  0.15129619831E+04  0.15129619831E+04  0.00000000000E+00 0.  1.
         -1   -1    0    0    0  501 -0.00000000000E+00 -0.00000000000E+00 -0.13725218557E+04  0.13725218557E+04  0.00000000000E+00 0. -1.
    9000010    2    1    2  502    0  0.32245819370E+03  0.20200044467E+03 -0.88545994612E+03  0.13898346883E+04  0.10014078481E+04 0.  0.
   -9000010    2    1    2    0  501 -0.32245819370E+03 -0.20200044467E+03  0.10259000735E+04  0.14956491505E+04  0.10196626668E+04 0.  0.
        -13    1    3    3    0    0  0.22786630022E+03  0.38471446601E+03 -0.10403069880E+04  0.11323280936E+04  0.10566000000E+00 0.  1.
          4    1    3    3  502    0  0.94591893480E+02 -0.18271402133E+03  0.15484704192E+03  0.25750659466E+03  0.00000000000E+00 0.  1.
         13    1    4    4    0    0 -0.52767064251E+03 -0.49192345964E+03  0.58052863735E+03  0.92597975521E+03  0.10566000000E+00 0. -1.
         -4    1    4    4    0  501  0.20521244881E+03  0.28992301497E+03  0.44537143616E+03  0.56966939527E+03  0.00000000000E+00 0. -1.
<mgrwt>
<rscale>  2 0.10797696E+04</rscale>
<asrwt>0</asrwt>
<pdfrwt beam="1">  1        1 0.23276338E+00 0.10797696E+04</pdfrwt>
<pdfrwt beam="2">  1       -1 0.21115721E+00 0.10797696E+04</pdfrwt>
<totfact> 0.92782551E-01</totfact>
</mgrwt>
</event>
<event>
 8    1  0.1408247E-005  0.1215724E+04  0.7818608E-02  0.8594815E-01
         -2   -1    0    0    0  501 -0.00000000000E+00  0.00000000000E+00  0.14985152271E+04  0.14985152271E+04  0.00000000000E+00 0. -1.
          2   -1    0    0  502    0  0.00000000000E+00 -0.00000000000E+00 -0.12056008063E+04  0.12056008063E+04  0.00000000000E+00 0.  1.
    9000010    2    1    2  502    0 -0.49099590370E+03  0.52747172568E+03 -0.42547299198E+03  0.13215971664E+04  0.10228824002E+04 0.  0.
   -9000010    2    1    2    0  501  0.49099590370E+03 -0.52747172568E+03  0.71838741274E+03  0.13825188670E+04  0.93593511742E+03 0.  0.
        -13    1    3    3    0    0 -0.10895815126E+02  0.16999013759E+03 -0.65781613888E+03  0.67951265581E+03  0.10566000000E+00 0.  1.
          4    1    3    3  502    0 -0.48010008858E+03  0.35748158809E+03  0.23234314691E+03  0.64208451063E+03  0.00000000000E+00 0.  1.
         13    1    4    4    0    0  0.51728403939E+03 -0.48924460842E+03  0.92696231436E+03  0.11688465287E+04  0.10566000000E+00 0. -1.
         -4    1    4    4    0  501 -0.26288135686E+02 -0.38227117260E+02 -0.20857490162E+03  0.21367233830E+03  0.00000000000E+00 0. -1.
<mgrwt>
<rscale>  2 0.12157235E+04</rscale>
<asrwt>0</asrwt>
<pdfrwt beam="2">  1        2 0.18547705E+00 0.12157235E+04</pdfrwt>
<pdfrwt beam="1">  1       -2 0.23054081E+00 0.12157235E+04</pdfrwt>
<totfact> 0.16330123E+00</totfact>
</mgrwt>
</event>
<event>
 8    1  0.1408247E-005  0.1273915E+04  0.7818608E-02  0.8552889E-01
          2   -1    0    0  502    0  0.00000000000E+00  0.00000000000E+00  0.21907537933E+04  0.21907537933E+04  0.00000000000E+00 0.  1.
         -2   -1    0    0    0  501 -0.00000000000E+00 -0.00000000000E+00 -0.74284969377E+03  0.74284969377E+03  0.00000000000E+00 0. -1.
    9000010    2    1    2  502    0  0.27439419857E+03  0.66853437529E+03  0.80383492823E+03  0.15501681751E+04  0.11111437316E+04 0.  0.
   -9000010    2    1    2    0  501 -0.27439419857E+03 -0.66853437529E+03  0.64406917135E+03  0.13834353120E+04  0.98835103974E+03 0.  0.
        -13    1    3    3    0    0  0.23269101395E+03  0.92237045153E+03  0.32257555945E+03  0.10044736734E+04  0.10566000000E+00 0.  1.
          4    1    3    3  502    0  0.41703184620E+02 -0.25383607624E+03  0.48125936877E+03  0.54569450175E+03  0.00000000000E+00 0.  1.
         13    1    4    4    0    0  0.11017268392E+03 -0.76215960983E+03  0.21465819109E+03  0.79943945443E+03  0.10566000000E+00 0. -1.
         -4    1    4    4    0  501 -0.38456688249E+03  0.93625234538E+02  0.42941098027E+03  0.58399585754E+03  0.00000000000E+00 0. -1.
<mgrwt>
<rscale>  2 0.12739146E+04</rscale>
<asrwt>0</asrwt>
<pdfrwt beam="1">  1        2 0.33703904E+00 0.12739146E+04</pdfrwt>
<pdfrwt beam="2">  1       -2 0.11428457E+00 0.12739146E+04</pdfrwt>
<totfact> 0.46868468E+00</totfact>
</mgrwt>
</event>
<event>
 8    1  0.1408247E-005  0.1076241E+04  0.7818608E-02  0.8706080E-01
          1   -1    0    0  502    0  0.00000000000E+00  0.00000000000E+00  0.10374367198E+04  0.10374367198E+04  0.00000000000E+00 0.  1.
         -1   -1    0    0    0  501 -0.00000000000E+00 -0.00000000000E+00 -0.13423577410E+04  0.13423577410E+04  0.00000000000E+00 0. -1.
    9000010    2    1    2  502    0  0.41270369731E+03 -0.37461670764E+02  0.33459890570E+03  0.11347635380E+04  0.10020000703E+04 0.  0.
   -9000010    2    1    2    0  501 -0.41270369731E+03  0.37461670764E+02 -0.63951992691E+03  0.12450309228E+04  0.98457531111E+03 0.  0.
        -13    1    3    3    0    0  0.52744476970E+03 -0.41368079620E+03  0.31580482971E+03  0.74098750858E+03  0.10566000000E+00 0.  1.
          4    1    3    3  502    0 -0.11474107239E+03  0.37621912544E+03  0.18794075989E+02  0.39377602940E+03  0.00000000000E+00 0.  1.
         13    1    4    4    0    0 -0.63115297889E+03  0.29606989210E+03 -0.56751206594E+03  0.89893349026E+03  0.10566000000E+00 0. -1.
         -4    1    4    4    0  501  0.21844928158E+03 -0.25860822133E+03 -0.72007860979E+02  0.34609743253E+03  0.00000000000E+00 0. -1.
<mgrwt>
<rscale>  2 0.10762410E+04</rscale>
<asrwt>0</asrwt>
<pdfrwt beam="1">  1        1 0.15960565E+00 0.10762410E+04</pdfrwt>
<pdfrwt beam="2">  1       -1 0.20651658E+00 0.10762410E+04</pdfrwt>
<totfact> 0.23556461E+00</totfact>
</mgrwt>
</event>
<event>
 8    1  0.1408247E-005  0.1460139E+04  0.7818608E-02  0.8432816E-01
         -2   -1    0    0    0  501 -0.00000000000E+00  0.00000000000E+00  0.49334362243E+03  0.49334362243E+03  0.00000000000E+00 0. -1.
          2   -1    0    0  502    0  0.00000000000E+00 -0.00000000000E+00 -0.48744608704E+04  0.48744608704E+04  0.00000000000E+00 0.  1.
    9000010    2    1    2  502    0  0.31916147062E+03  0.10148837449E+04 -0.12839221322E+04  0.19428079315E+04  0.99709255196E+03 0.  0.
   -9000010    2    1    2    0  501 -0.31916147062E+03 -0.10148837449E+04 -0.30971951158E+04  0.34249965614E+04  0.10030607161E+04 0.  0.
        -13    1    3    3    0    0  0.39532159890E+03 -0.38817099442E+02 -0.42004980225E+03  0.57812436490E+03  0.10566000000E+00 0.  1.
          4    1    3    3  502    0 -0.76160128283E+02  0.10537008443E+04 -0.86387232993E+03  0.13646835666E+04  0.00000000000E+00 0.  1.
         13    1    4    4    0    0 -0.31180725891E+03 -0.10402105575E+04 -0.16362693786E+04  0.19638327986E+04  0.10566000000E+00 0. -1.
         -4    1    4    4    0  501 -0.73542117021E+01  0.25326812587E+02 -0.14609257372E+04  0.14611637627E+04  0.00000000000E+00 0. -1.
<mgrwt>
<rscale>  2 0.14601393E+04</rscale>
<asrwt>0</asrwt>
<pdfrwt beam="2">  1        2 0.74991709E+00 0.14601393E+04</pdfrwt>
<pdfrwt beam="1">  1       -2 0.75899016E-01 0.14601393E+04</pdfrwt>
<totfact> 0.12240409E-01</totfact>
</mgrwt>
</event>
<event>
 8    1  0.1408247E-005  0.1108394E+04  0.7818608E-02  0.8678933E-01
          2   -1    0    0  502    0  0.00000000000E+00  0.00000000000E+00  0.23596592661E+04  0.23596592661E+04  0.00000000000E+00 0. -1.
         -2   -1    0    0    0  501 -0.00000000000E+00 -0.00000000000E+00 -0.52428042549E+03  0.52428042549E+03  0.00000000000E+00 0.  1.
    9000010    2    1    2  502    0  0.38038874028E+02 -0.32259889942E+03  0.77634156016E+03  0.13206642288E+04  0.10178068488E+04 0.  0.
   -9000010    2    1    2    0  501 -0.38038874028E+02  0.32259889942E+03  0.10590372804E+04  0.15632754627E+04  0.11030653676E+04 0.  0.
        -13    1    3    3    0    0  0.39720813438E+03 -0.51830739480E+03  0.40629326938E+03  0.76908457886E+03  0.10566000000E+00 0.  1.
          4    1    3    3  502    0 -0.35916926036E+03  0.19570849538E+03  0.37004829079E+03  0.55157964997E+03  0.00000000000E+00 0.  1.
         13    1    4    4    0    0  0.43725013422E+03  0.25586522249E+03  0.94149077420E+03  0.10691396452E+04  0.10566000000E+00 0. -1.
         -4    1    4    4    0  501 -0.47528900825E+03  0.66733676936E+02  0.11754650621E+03  0.49413581749E+03  0.00000000000E+00 0. -1.
<mgrwt>
<rscale>  2 0.11083937E+04</rscale>
<asrwt>0</asrwt>
<pdfrwt beam="1">  1        2 0.36302450E+00 0.11083937E+04</pdfrwt>
<pdfrwt beam="2">  1       -2 0.80658528E-01 0.11083937E+04</pdfrwt>
<totfact> 0.88112249E+00</totfact>
</mgrwt>
</event>
<event>
 8    1  0.1408247E-005  0.1054810E+04  0.7818608E-02  0.8724730E-01
          2   -1    0    0  502    0  0.00000000000E+00  0.00000000000E+00  0.73989301484E+03  0.73989301484E+03  0.00000000000E+00 0. -1.
         -2   -1    0    0    0  501 -0.00000000000E+00 -0.00000000000E+00 -0.15046089112E+04  0.15046089112E+04  0.00000000000E+00 0.  1.
    9000010    2    1    2  502    0 -0.14517403247E+03 -0.38647597274E+03 -0.39151647717E+03  0.11488738162E+04  0.99809153709E+03 0.  0.
   -9000010    2    1    2    0  501  0.14517403247E+03  0.38647597274E+03 -0.37319941917E+03  0.10956281098E+04  0.94376054771E+03 0.  0.
        -13    1    3    3    0    0  0.35087188294E+03 -0.45996446231E+03 -0.21863325150E+03  0.61844878094E+03  0.10566000000E+00 0.  1.
          4    1    3    3  502    0 -0.49604591541E+03  0.73488489572E+02 -0.17288322566E+03  0.53042503524E+03  0.00000000000E+00 0.  1.
         13    1    4    4    0    0 -0.22188854291E+03 -0.19448848884E+02  0.20270104296E+03  0.30116524895E+03  0.10566000000E+00 0. -1.
         -4    1    4    4    0  501  0.36706257538E+03  0.40592482162E+03 -0.57590046213E+03  0.79446286089E+03  0.00000000000E+00 0. -1.
<mgrwt>
<rscale>  2 0.10548103E+04</rscale>
<asrwt>0</asrwt>
<pdfrwt beam="1">  1        2 0.11382969E+00 0.10548103E+04</pdfrwt>
<pdfrwt beam="2">  1       -2 0.23147830E+00 0.10548103E+04</pdfrwt>
<totfact> 0.31985221E+00</totfact>
</mgrwt>
</event>
<event>
 8    1  0.1408247E-005  0.1241117E+04  0.7818608E-02  0.8576227E-01
         -1   -1    0    0    0  501 -0.00000000000E+00  0.00000000000E+00  0.67643404150E+03  0.67643404150E+03  0.00000000000E+00 0. -1.
          1   -1    0    0  502    0  0.00000000000E+00 -0.00000000000E+00 -0.27893743714E+04  0.27893743714E+04  0.00000000000E+00 0.  1.
    9000010    2    1    2  502    0 -0.65833712135E+03 -0.29012821862E+03 -0.18073222148E+04  0.21994016386E+04  0.10263390429E+04 0.  0.
   -9000010    2    1    2    0  501  0.65833712135E+03  0.29012821862E+03 -0.30561811513E+03  0.12664067744E+04  0.99639426797E+03 0.  0.
        -13    1    3    3    0    0 -0.49368487523E+03  0.27180317143E+03 -0.45007354419E+03  0.72122668168E+03  0.10566000000E+00 0.  1.
          4    1    3    3  502    0 -0.16465224613E+03 -0.56193139005E+03 -0.13572486706E+04  0.14781749569E+04  0.00000000000E+00 0.  1.
         13    1    4    4    0    0  0.65536455760E+03  0.22058484537E+03 -0.62951187264E+03  0.93511795316E+03  0.10566000000E+00 0. -1.
         -4    1    4    4    0  501  0.29725637530E+01  0.69543373257E+02  0.32389375751E+03  0.33128882120E+03  0.00000000000E+00 0. -1.
<mgrwt>
<rscale>  2 0.12411169E+04</rscale>
<asrwt>0</asrwt>
<pdfrwt beam="2">  1        1 0.42913452E+00 0.12411169E+04</pdfrwt>
<pdfrwt beam="1">  1       -1 0.10406678E+00 0.12411169E+04</pdfrwt>
<totfact> 0.70785504E-01</totfact>
</mgrwt>
</event>
<event>
 8    1  0.1408247E-005  0.1240990E+04  0.7818608E-02  0.8576319E-01
         -4   -1    0    0    0  501 -0.00000000000E+00  0.00000000000E+00  0.20591702518E+04  0.20591702518E+04  0.00000000000E+00 0. -1.
          4   -1    0    0  502    0  0.00000000000E+00 -0.00000000000E+00 -0.16477923348E+04  0.16477923348E+04  0.00000000000E+00 0.  1.
    9000010    2    1    2  502    0 -0.48541055082E+03 -0.54951077866E+03 -0.11635361893E+04  0.17057429962E+04  0.10090377627E+04 0.  0.
   -9000010    2    1    2    0  501  0.48541055082E+03  0.54951077866E+03  0.15749141063E+04  0.20012195904E+04  0.99344849281E+03 0.  0.
        -13    1    3    3    0    0  0.27734810892E+03 -0.36431610721E+03 -0.35991536127E+03  0.58239786911E+03  0.10566000000E+00 0.  1.
          4    1    3    3  502    0 -0.76275865974E+03 -0.18519467145E+03 -0.80362082804E+03  0.11233451271E+04  0.00000000000E+00 0.  1.
         13    1    4    4    0    0  0.49963484362E+03 -0.11801787888E+03  0.40385883683E+03  0.65319611752E+03  0.10566000000E+00 0. -1.
         -4    1    4    4    0  501 -0.14224292802E+02  0.66752865754E+03  0.11710552695E+04  0.13480234728E+04  0.00000000000E+00 0. -1.
<mgrwt>
<rscale>  2 0.12409895E+04</rscale>
<asrwt>0</asrwt>
<pdfrwt beam="2">  1        4 0.25350651E+00 0.12409895E+04</pdfrwt>
<pdfrwt beam="1">  1       -4 0.31679542E+00 0.12409895E+04</pdfrwt>
<totfact> 0.66541654E-02</totfact>
</mgrwt>
</event>
<event>
 8    1  0.1408247E-005  0.1246375E+04  0.7818608E-02  0.8572436E-01
         -4   -1    0    0    0  501 -0.00000000000E+00  0.00000000000E+00  0.16192166974E+04  0.16192166974E+04  0.00000000000E+00 0. -1.
          4   -1    0    0  502    0  0.00000000000E+00 -0.00000000000E+00 -0.96047591644E+03  0.96047591644E+03  0.00000000000E+00 0.  1.
    9000010    2    1    2  502    0  0.59505419865E+03  0.36545652623E+03  0.35534184045E+03  0.12701774586E+04  0.99971745046E+03 0.  0.
   -9000010    2    1    2    0  501 -0.59505419865E+03 -0.36545652623E+03  0.30339894051E+03  0.13095151553E+04  0.10654252921E+04 0.  0.
        -13    1    3    3    0    0  0.10429038070E+03 -0.33102509039E+03  0.94258617002E-01  0.34706499970E+03  0.10566000000E+00 0.  1.
          4    1    3    3  502    0  0.49076381795E+03  0.69648161661E+03  0.35524758183E+03  0.92311245885E+03  0.00000000000E+00 0.  1.
         13    1    4    4    0    0 -0.62032485354E+03 -0.69476193710E+03  0.14284755310E+03  0.94228578878E+03  0.10566000000E+00 0. -1.
         -4    1    4    4    0  501  0.25270654888E+02  0.32930541087E+03  0.16055138742E+03  0.36722936651E+03  0.00000000000E+00 0. -1.
<mgrwt>
<rscale>  2 0.12463748E+04</rscale>
<asrwt>0</asrwt>
<pdfrwt beam="2">  1        4 0.14776553E+00 0.12463748E+04</pdfrwt>
<pdfrwt beam="1">  1       -4 0.24911026E+00 0.12463748E+04</pdfrwt>
<totfact> 0.20697932E-01</totfact>
</mgrwt>
</event>
<event>
 8    1  0.1408247E-005  0.1216570E+04  0.7818608E-02  0.8594188E-01
          2   -1    0    0  502    0  0.00000000000E+00  0.00000000000E+00  0.20405693605E+04  0.20405693605E+04  0.00000000000E+00 0.  1.
         -2   -1    0    0    0  501 -0.00000000000E+00 -0.00000000000E+00 -0.11815706265E+04  0.11815706265E+04  0.00000000000E+00 0. -1.
    9000010    2    1    2  502    0 -0.41234350851E+03 -0.56174620258E+03 -0.57299045180E+03  0.13389798954E+04  0.98942566027E+03 0.  0.
   -9000010    2    1    2    0  501  0.41234350851E+03  0.56174620258E+03  0.14319891858E+04  0.18831600916E+04  0.10050437489E+04 0.  0.
        -13    1    3    3    0    0 -0.33668853512E+03 -0.75213126267E+03 -0.71394152380E+03  0.10903087253E+04  0.10566000000E+00 0.  1.
          4    1    3    3  502    0 -0.75654973389E+02  0.19038506009E+03  0.14095107200E+03  0.24867117002E+03  0.00000000000E+00 0.  1.
         13    1    4    4    0    0  0.83796284483E+02  0.76352877773E+03  0.63046718651E+03  0.99372375243E+03  0.10566000000E+00 0. -1.
         -4    1    4    4    0  501  0.32854722403E+03 -0.20178257515E+03  0.80152199928E+03  0.88943633914E+03  0.00000000000E+00 0. -1.
<mgrwt>
<rscale>  2 0.12165698E+04</rscale>
<asrwt>0</asrwt>
<pdfrwt beam="1">  1        2 0.31393375E+00 0.12165698E+04</pdfrwt>
<pdfrwt beam="2">  1       -2 0.18178010E+00 0.12165698E+04</pdfrwt>
<totfact> 0.14276213E+00</totfact>
</mgrwt>
</event>
<event>
 8    1  0.1408247E-005  0.1678601E+04  0.7818608E-02  0.8313529E-01
          1   -1    0    0  502    0  0.00000000000E+00  0.00000000000E+00  0.21083310659E+04  0.21083310659E+04  0.00000000000E+00 0. -1.
         -1   -1    0    0    0  501 -0.00000000000E+00 -0.00000000000E+00 -0.13465111076E+04  0.13465111076E+04  0.00000000000E+00 0.  1.
    9000010    2    1    2  502    0  0.12798366944E+04 -0.33549961157E+03  0.52217691398E+03  0.17340087825E+04  0.99175388804E+03 0.  0.
   -9000010    2    1    2    0  501 -0.12798366944E+04  0.33549961157E+03  0.23964304435E+03  0.17208333910E+04  0.10739165783E+04 0.  0.
        -13    1    3    3    0    0  0.51208717293E+03  0.33545696538E+03  0.33333972383E+03  0.69705095291E+03  0.10566000000E+00 0.  1.
          4    1    3    3  502    0  0.76774952150E+03 -0.67095657695E+03  0.18883719015E+03  0.10369578296E+04  0.00000000000E+00 0.  1.
         13    1    4    4    0    0 -0.90105528229E+03 -0.12377801948E+03 -0.25745921212E+03  0.94525492694E+03  0.10566000000E+00 0. -1.
         -4    1    4    4    0  501 -0.37878141214E+03  0.45927763105E+03  0.49710225646E+03  0.77557846408E+03  0.00000000000E+00 0. -1.
<mgrwt>
<rscale>  2 0.16786008E+04</rscale>
<asrwt>0</asrwt>
<pdfrwt beam="1">  1        1 0.32435863E+00 0.16786008E+04</pdfrwt>
<pdfrwt beam="2">  1       -1 0.20715555E+00 0.16786008E+04</pdfrwt>
<totfact> 0.33089802E-01</totfact>
</mgrwt>
</event>
<event>
 8    1  0.1408247E-005  0.1020340E+04  0.7818608E-02  0.8755712E-01
         -2   -1    0    0    0  501 -0.00000000000E+00  0.00000000000E+00  0.56220610378E+03  0.56220610378E+03  0.00000000000E+00 0. -1.
          2   -1    0    0  502    0  0.00000000000E+00 -0.00000000000E+00 -0.18522067927E+04  0.18522067927E+04  0.00000000000E+00 0.  1.
    9000010    2    1    2  502    0 -0.15839648917E+03  0.13482370824E+03 -0.66509923452E+03  0.12226217468E+04  0.10045795458E+04 0.  0.
   -9000010    2    1    2    0  501  0.15839648917E+03 -0.13482370824E+03 -0.62490145445E+03  0.11917911497E+04  0.99327611301E+03 0.  0.
        -13    1    3    3    0    0 -0.72206227184E+02  0.48598620623E+03 -0.30535370155E+02  0.49226898327E+03  0.10566000000E+00 0.  1.
          4    1    3    3  502    0 -0.86190261988E+02 -0.35116249799E+03 -0.63456386436E+03  0.73035276354E+03  0.00000000000E+00 0.  1.
         13    1    4    4    0    0 -0.13101064916E+03 -0.14468803213E+03  0.22267522635E+03  0.29611262120E+03  0.10566000000E+00 0. -1.
         -4    1    4    4    0  501  0.28940713833E+03  0.98643238924E+01 -0.84757668081E+03  0.89567852852E+03  0.00000000000E+00 0. -1.
<mgrwt>
<rscale>  2 0.10203403E+04</rscale>
<asrwt>0</asrwt>
<pdfrwt beam="2">  1        2 0.28495489E+00 0.10203403E+04</pdfrwt>
<pdfrwt beam="1">  1       -2 0.86493247E-01 0.10203403E+04</pdfrwt>
<totfact> 0.14397921E+01</totfact>
</mgrwt>
</event>
<event>
 8    1  0.1408247E-005  0.1014812E+04  0.7818608E-02  0.8760797E-01
         -1   -1    0    0    0  501 -0.00000000000E+00  0.00000000000E+00  0.18670535020E+04  0.18670535020E+04  0.00000000000E+00 0.  1.
          1   -1    0    0  502    0  0.00000000000E+00 -0.00000000000E+00 -0.58702337627E+03  0.58702337627E+03  0.00000000000E+00 0. -1.
    9000010    2    1    2  502    0  0.16844001554E+02  0.25819834905E+03  0.35089824382E+03  0.10922216783E+04  0.10014332275E+04 0.  0.
   -9000010    2    1    2    0  501 -0.16844001554E+02 -0.25819834905E+03  0.92913188195E+03  0.13618552000E+04  0.96146420838E+03 0.  0.
        -13    1    3    3    0    0 -0.22732783118E+03 -0.32569212103E+03  0.18378581717E+03  0.43764202071E+03  0.10566000000E+00 0.  1.
          4    1    3    3  502    0  0.24417183273E+03  0.58389047009E+03  0.16711242665E+03  0.65457965757E+03  0.00000000000E+00 0.  1.
         13    1    4    4    0    0  0.20701932948E+02  0.32605290755E+03  0.90371897292E+02  0.33897811070E+03  0.10566000000E+00 0. -1.
         -4    1    4    4    0  501 -0.37545934502E+02 -0.58425125660E+03  0.83875998466E+03  0.10228770893E+04  0.00000000000E+00 0. -1.
<mgrwt>
<rscale>  2 0.10148124E+04</rscale>
<asrwt>0</asrwt>
<pdfrwt beam="2">  1        1 0.90311289E-01 0.10148124E+04</pdfrwt>
<pdfrwt beam="1">  1       -1 0.28723900E+00 0.10148124E+04</pdfrwt>
<totfact> 0.10268462E+00</totfact>
</mgrwt>
</event>
<event>
 8    1  0.1408247E-005  0.1310068E+04  0.7818608E-02  0.8527989E-01
         -1   -1    0    0    0  501 -0.00000000000E+00  0.00000000000E+00  0.90282862635E+03  0.90282862635E+03  0.00000000000E+00 0.  1.
          1   -1    0    0  502    0  0.00000000000E+00 -0.00000000000E+00 -0.19062945946E+04  0.19062945946E+04  0.00000000000E+00 0. -1.
    9000010    2    1    2  502    0  0.14273387624E+03 -0.82098172053E+03 -0.42974485367E+03  0.13833584244E+04  0.10171607279E+04 0.  0.
   -9000010    2    1    2    0  501 -0.14273387624E+03  0.82098172053E+03 -0.57372111459E+03  0.14257647965E+04  0.10046220149E+04 0.  0.
        -13    1    3    3    0    0  0.49485708413E+03 -0.16598452769E+03 -0.36496604357E+03  0.63689451346E+03  0.10566000000E+00 0.  1.
          4    1    3    3  502    0 -0.35212320789E+03 -0.65499719284E+03 -0.64778810093E+02  0.74646391098E+03  0.00000000000E+00 0.  1.
         13    1    4    4    0    0 -0.48072233740E+03  0.73195626177E+03 -0.62032804779E+03  0.10731546174E+04  0.10566000000E+00 0. -1.
         -4    1    4    4    0  501  0.33798846116E+03  0.89025458760E+02  0.46606933197E+02  0.35261017910E+03  0.00000000000E+00 0. -1.
<mgrwt>
<rscale>  2 0.13100679E+04</rscale>
<asrwt>0</asrwt>
<pdfrwt beam="2">  1        1 0.29327609E+00 0.13100679E+04</pdfrwt>
<pdfrwt beam="1">  1       -1 0.13889671E+00 0.13100679E+04</pdfrwt>
<totfact> 0.19675161E+00</totfact>
</mgrwt>
</event>
<event>
 8    1  0.1408247E-005  0.1179585E+04  0.7818608E-02  0.8622096E-01
         -2   -1    0    0    0  501 -0.00000000000E+00  0.00000000000E+00  0.73510443052E+03  0.73510443052E+03  0.00000000000E+00 0.  1.
          2   -1    0    0  502    0  0.00000000000E+00 -0.00000000000E+00 -0.21041872451E+04  0.21041872451E+04  0.00000000000E+00 0. -1.
    9000010    2    1    2  502    0 -0.76259671652E+01  0.62634670188E+03 -0.22851598020E+03  0.11896967772E+04  0.98528702522E+03 0.  0.
   -9000010    2    1    2    0  501  0.76259671652E+01 -0.62634670188E+03 -0.11405668344E+04  0.16495948984E+04  0.10138551568E+04 0.  0.
        -13    1    3    3    0    0 -0.23116930832E+03  0.75056543364E+03  0.79477395128E+02  0.78936961354E+03  0.10566000000E+00 0.  1.
          4    1    3    3  502    0  0.22354334116E+03 -0.12421873175E+03 -0.30799337532E+03  0.40032716363E+03  0.00000000000E+00 0.  1.
         13    1    4    4    0    0 -0.27219356975E+03 -0.70831910138E+03 -0.11257814604E+04  0.13576410411E+04  0.10566000000E+00 0. -1.
         -4    1    4    4    0  501  0.27981953691E+03  0.81972399495E+02 -0.14785373978E+02  0.29195385731E+03  0.00000000000E+00 0. -1.
<mgrwt>
<rscale>  2 0.11795854E+04</rscale>
<asrwt>0</asrwt>
<pdfrwt beam="2">  1        2 0.32372112E+00 0.11795854E+04</pdfrwt>
<pdfrwt beam="1">  1       -2 0.11309299E+00 0.11795854E+04</pdfrwt>
<totfact> 0.54248581E+00</totfact>
</mgrwt>
</event>
<event>
 8    1  0.1408247E-005  0.1048553E+04  0.7818608E-02  0.8730262E-01
          2   -1    0    0  502    0  0.00000000000E+00  0.00000000000E+00  0.26788355030E+04  0.26788355030E+04  0.00000000000E+00 0.  1.
         -2   -1    0    0    0  501 -0.00000000000E+00 -0.00000000000E+00 -0.49636420323E+03  0.49636420323E+03  0.00000000000E+00 0. -1.
    9000010    2    1    2  502    0 -0.14345972035E+03 -0.32627377838E+03  0.43163964814E+03  0.11349909933E+04  0.98734821581E+03 0.  0.
   -9000010    2    1    2    0  501  0.14345972035E+03  0.32627377838E+03  0.17508316516E+04  0.20402087129E+04  0.98488824240E+03 0.  0.
        -13    1    3    3    0    0  0.21185285127E+03 -0.12169947613E+03  0.63278274688E+03  0.67831143952E+03  0.10566000000E+00 0.  1.
          4    1    3    3  502    0 -0.35531257162E+03 -0.20457430225E+03 -0.20114309874E+03  0.45667955380E+03  0.00000000000E+00 0.  1.
         13    1    4    4    0    0 -0.38681595798E+03  0.30872141324E+03  0.10537288682E+04  0.11641649519E+04  0.10566000000E+00 0. -1.
         -4    1    4    4    0  501  0.53027567833E+03  0.17552365132E+02  0.69710278343E+03  0.87604376102E+03  0.00000000000E+00 0. -1.
<mgrwt>
<rscale>  2 0.10485529E+04</rscale>
<asrwt>0</asrwt>
<pdfrwt beam="1">  1        2 0.41212853E+00 0.10485529E+04</pdfrwt>
<pdfrwt beam="2">  1       -2 0.76363725E-01 0.10485529E+04</pdfrwt>
<totfact> 0.66108862E+00</totfact>
</mgrwt>
</event>
<event>
 8    1  0.1408247E-005  0.1268432E+04  0.7818608E-02  0.8556739E-01
          2   -1    0    0  502    0  0.00000000000E+00  0.00000000000E+00  0.26464884741E+04  0.26464884741E+04  0.00000000000E+00 0. -1.
         -2   -1    0    0    0  501 -0.00000000000E+00 -0.00000000000E+00 -0.61737783292E+03  0.61737783292E+03  0.00000000000E+00 0.  1.
    9000010    2    1    2  502    0  0.31756560353E+03 -0.71306820978E+03  0.12223129619E+04  0.17673163992E+04  0.10099723233E+04 0.  0.
   -9000010    2    1    2    0  501 -0.31756560353E+03  0.71306820978E+03  0.80679767921E+03  0.14965499078E+04  0.98965900535E+03 0.  0.
        -13    1    3    3    0    0  0.50374830813E+03 -0.36002156251E+03  0.17035222832E+03  0.64218204294E+03  0.10566000000E+00 0.  1.
          4    1    3    3  502    0 -0.18618270460E+03 -0.35304664728E+03  0.10519607336E+04  0.11251343563E+04  0.00000000000E+00 0.  1.
         13    1    4    4    0    0 -0.23505203233E+03  0.22976464150E+03 -0.19430454196E+03  0.38183178833E+03  0.10566000000E+00 0. -1.
         -4    1    4    4    0  501 -0.82513571196E+02  0.48330356828E+03  0.10011022212E+04  0.11147181194E+04  0.00000000000E+00 0. -1.
<mgrwt>
<rscale>  2 0.12684323E+04</rscale>
<asrwt>0</asrwt>
<pdfrwt beam="1">  1        2 0.40715207E+00 0.12684323E+04</pdfrwt>
<pdfrwt beam="2">  1       -2 0.94981207E-01 0.12684323E+04</pdfrwt>
<totfact> 0.41128583E+00</totfact>
</mgrwt>
</event>
<event>
 8    1  0.1408247E-005  0.1210759E+04  0.7818608E-02  0.8598504E-01
         -2   -1    0    0    0  501 -0.00000000000E+00  0.00000000000E+00  0.71506857327E+03  0.71506857327E+03  0.00000000000E+00 0. -1.
          2   -1    0    0  502    0  0.00000000000E+00 -0.00000000000E+00 -0.20581262095E+04  0.20581262095E+04  0.00000000000E+00 0.  1.
    9000010    2    1    2  502    0  0.68734012244E+03  0.98180306102E+02 -0.58378366954E+03  0.13425245263E+04  0.98969334365E+03 0.  0.
   -9000010    2    1    2    0  501 -0.68734012244E+03 -0.98180306102E+02 -0.75927396666E+03  0.14306702564E+04  0.99410492897E+03 0.  0.
        -13    1    3    3    0    0  0.14878217346E+03 -0.42975902043E+03 -0.21789245839E+03  0.50428770099E+03  0.10566000000E+00 0.  1.
          4    1    3    3  502    0  0.53855794898E+03  0.52793932653E+03 -0.36589121115E+03  0.83823682531E+03  0.00000000000E+00 0.  1.
         13    1    4    4    0    0 -0.15064864338E+03 -0.50218443080E+03 -0.45089058205E+03  0.69151033574E+03  0.10566000000E+00 0. -1.
         -4    1    4    4    0  501 -0.53669147906E+03  0.40400412470E+03 -0.30838338461E+03  0.73915992070E+03  0.00000000000E+00 0. -1.
<mgrwt>
<rscale>  2 0.12107593E+04</rscale>
<asrwt>0</asrwt>
<pdfrwt beam="2">  1        2 0.31663480E+00 0.12107593E+04</pdfrwt>
<pdfrwt beam="1">  1       -2 0.11001055E+00 0.12107593E+04</pdfrwt>
<totfact> 0.61450851E+00</totfact>
</mgrwt>
</event>
<event>
 8    1  0.1408247E-005  0.1087509E+04  0.7818608E-02  0.8696455E-01
          2   -1    0    0  502    0  0.00000000000E+00  0.00000000000E+00  0.13744008785E+04  0.13744008785E+04  0.00000000000E+00 0. -1.
         -2   -1    0    0    0  501 -0.00000000000E+00 -0.00000000000E+00 -0.87439608877E+03  0.87439608877E+03  0.00000000000E+00 0.  1.
    9000010    2    1    2  502    0 -0.51933639956E+03  0.30375490329E+02  0.38691632719E+03  0.11387211550E+04  0.93613495733E+03 0.  0.
   -9000010    2    1    2    0  501  0.51933639956E+03 -0.30375490329E+02  0.11308846251E+03  0.11100758122E+04  0.97408744072E+03 0.  0.
        -13    1    3    3    0    0 -0.59208291822E+03  0.23228196893E+03 -0.64108849473E+02  0.63923943158E+03  0.10566000000E+00 0.  1.
          4    1    3    3  502    0  0.72746518656E+02 -0.20190647860E+03  0.45102517666E+03  0.49948172345E+03  0.00000000000E+00 0.  1.
         13    1    4    4    0    0  0.17853263908E+03  0.25335215076E+03  0.45471181498E+03  0.55029452238E+03  0.10566000000E+00 0. -1.
         -4    1    4    4    0  501  0.34080376048E+03 -0.28372764109E+03 -0.34162335248E+03  0.55978128982E+03  0.00000000000E+00 0. -1.
<mgrwt>
<rscale>  2 0.10875087E+04</rscale>
<asrwt>0</asrwt>
<pdfrwt beam="1">  1        2 0.21144629E+00 0.10875087E+04</pdfrwt>
<pdfrwt beam="2">  1       -2 0.13452247E+00 0.10875087E+04</pdfrwt>
<totfact> 0.85907611E+00</totfact>
</mgrwt>
</event>
<event>
 8    1  0.1408247E-005  0.1079785E+04  0.7818608E-02  0.8703039E-01
         -1   -1    0    0    0  501 -0.00000000000E+00  0.00000000000E+00  0.96825716811E+03  0.96825716811E+03  0.00000000000E+00 0.  1.
          1   -1    0    0  502    0  0.00000000000E+00 -0.00000000000E+00 -0.12071973615E+04  0.12071973615E+04  0.00000000000E+00 0. -1.
    9000010    2    1    2  502    0  0.40419020126E+03  0.27510313355E+02 -0.64578412198E+02  0.10759885842E+04  0.99471328829E+03 0.  0.
   -9000010    2    1    2    0  501 -0.40419020126E+03 -0.27510313355E+02 -0.17436178121E+03  0.10994659454E+04  0.10071230303E+04 0.  0.
        -13    1    3    3    0    0  0.70221852082E+03 -0.15464583380E+03 -0.95388633386E+02  0.72534487482E+03  0.10566000000E+00 0.  1.
          4    1    3    3  502    0 -0.29802831956E+03  0.18215614715E+03  0.30810221188E+02  0.35064370939E+03  0.00000000000E+00 0.  1.
         13    1    4    4    0    0 -0.59110369629E+03 -0.36208729136E+03 -0.17999764845E+03  0.71617731809E+03  0.10566000000E+00 0. -1.
         -4    1    4    4    0  501  0.18691349503E+03  0.33457697800E+03  0.56358672419E+01  0.38328862732E+03  0.00000000000E+00 0. -1.
<mgrwt>
<rscale>  2 0.10797852E+04</rscale>
<asrwt>0</asrwt>
<pdfrwt beam="2">  1        1 0.18572267E+00 0.10797852E+04</pdfrwt>
<pdfrwt beam="1">  1       -1 0.14896264E+00 0.10797852E+04</pdfrwt>
<totfact> 0.55290334E+00</totfact>
</mgrwt>
</event>
<event>
 8    1  0.1408247E-005  0.1313806E+04  0.7818608E-02  0.8525462E-01
         -2   -1    0    0    0  501 -0.00000000000E+00  0.00000000000E+00  0.67914519081E+03  0.67914519081E+03  0.00000000000E+00 0. -1.
          2   -1    0    0  502    0  0.00000000000E+00 -0.00000000000E+00 -0.32127374416E+04  0.32127374416E+04  0.00000000000E+00 0.  1.
    9000010    2    1    2  502    0 -0.57982365547E+03  0.71246421844E+03 -0.43904326798E+03  0.14561627214E+04  0.10410812389E+04 0.  0.
   -9000010    2    1    2    0  501  0.57982365547E+03 -0.71246421844E+03 -0.20945489828E+04  0.24357199110E+04  0.83773224217E+03 0.  0.
        -13    1    3    3    0    0 -0.30702585005E+03  0.19274365270E+03  0.32897457285E+03  0.48952964058E+03  0.10566000000E+00 0.  1.
          4    1    3    3  502    0 -0.27279780542E+03  0.51972056574E+03 -0.76801784083E+03  0.96663308082E+03  0.00000000000E+00 0.  1.
         13    1    4    4    0    0  0.30841751086E+03 -0.35295088922E+03 -0.23872374238E+03  0.52600829608E+03  0.10566000000E+00 0. -1.
         -4    1    4    4    0  501  0.27140614461E+03 -0.35951332922E+03 -0.18558252404E+04  0.19097116149E+04  0.00000000000E+00 0. -1.
<mgrwt>
<rscale>  2 0.13138056E+04</rscale>
<asrwt>0</asrwt>
<pdfrwt beam="2">  1        2 0.49426730E+00 0.13138056E+04</pdfrwt>
<pdfrwt beam="1">  1       -2 0.10448388E+00 0.13138056E+04</pdfrwt>
<totfact> 0.14657612E+00</totfact>
</mgrwt>
</event>
<event>
 8    1  0.1408247E-005  0.1379522E+04  0.7818608E-02  0.8482397E-01
         -2   -1    0    0    0  501 -0.00000000000E+00  0.00000000000E+00  0.81660970398E+03  0.81660970398E+03  0.00000000000E+00 0.  1.
          2   -1    0    0  502    0  0.00000000000E+00 -0.00000000000E+00 -0.30533845136E+04  0.30533845136E+04  0.00000000000E+00 0. -1.
    9000010    2    1    2  502    0 -0.39721197380E+03  0.82454819235E+03 -0.19129522487E+03  0.14152159715E+04  0.10623489584E+04 0.  0.
   -9000010    2    1    2    0  501  0.39721197380E+03 -0.82454819235E+03 -0.20454795848E+04  0.24547782461E+04  0.10021439178E+04 0.  0.
        -13    1    3    3    0    0 -0.62294796842E+03  0.89666551883E+03  0.28228720507E+02  0.10921859255E+04  0.10566000000E+00 0.  1.
          4    1    3    3  502    0  0.22573599462E+03 -0.72117326476E+02 -0.21952394538E+03  0.32303004604E+03  0.00000000000E+00 0.  1.
         13    1    4    4    0    0 -0.31799900052E+03 -0.44647448571E+03 -0.83636030836E+03  0.99998070346E+03  0.10566000000E+00 0. -1.
         -4    1    4    4    0  501  0.71521097432E+03 -0.37807370664E+03 -0.12091192764E+04  0.14547975426E+04  0.00000000000E+00 0. -1.
<mgrwt>
<rscale>  2 0.13795222E+04</rscale>
<asrwt>0</asrwt>
<pdfrwt beam="2">  1        2 0.46975147E+00 0.13795222E+04</pdfrwt>
<pdfrwt beam="1">  1       -2 0.12563226E+00 0.13795222E+04</pdfrwt>
<totfact> 0.11412712E+00</totfact>
</mgrwt>
</event>
<event>
 8    1  0.1408247E-005  0.1176128E+04  0.7818608E-02  0.8624759E-01
         -2   -1    0    0    0  501 -0.00000000000E+00  0.00000000000E+00  0.84107529129E+03  0.84107529129E+03  0.00000000000E+00 0.  1.
          2   -1    0    0  502    0  0.00000000000E+00 -0.00000000000E+00 -0.17696970586E+04  0.17696970586E+04  0.00000000000E+00 0. -1.
    9000010    2    1    2  502    0  0.71690475044E+02  0.62765910552E+03 -0.11778571821E+03  0.11832769209E+04  0.99356696768E+03 0.  0.
   -9000010    2    1    2    0  501 -0.71690475044E+02 -0.62765910552E+03 -0.81083604912E+03  0.14274954290E+04  0.99055167669E+03 0.  0.
        -13    1    3    3    0    0  0.47484972110E+03  0.29921863387E+03  0.17321386172E+03  0.58738156384E+03  0.10566000000E+00 0.  1.
          4    1    3    3  502    0 -0.40315924606E+03  0.32844047165E+03 -0.29099957993E+03  0.59589535710E+03  0.00000000000E+00 0.  1.
         13    1    4    4    0    0 -0.47572795548E+03 -0.41216541308E+03 -0.19280368108E+03  0.65830895935E+03  0.10566000000E+00 0. -1.
         -4    1    4    4    0  501  0.40403748044E+03 -0.21549369244E+03 -0.61803236804E+03  0.76918646961E+03  0.00000000000E+00 0. -1.
<mgrwt>
<rscale>  2 0.11761276E+04</rscale>
<asrwt>0</asrwt>
<pdfrwt beam="2">  1        2 0.27226109E+00 0.11761276E+04</pdfrwt>
<pdfrwt beam="1">  1       -2 0.12939620E+00 0.11761276E+04</pdfrwt>
<totfact> 0.57714441E+00</totfact>
</mgrwt>
</event>
<event>
 8    1  0.1408247E-005  0.1169372E+04  0.7818608E-02  0.8629990E-01
         -2   -1    0    0    0  501 -0.00000000000E+00  0.00000000000E+00  0.44796908014E+03  0.44796908014E+03  0.00000000000E+00 0. -1.
          2   -1    0    0  502    0  0.00000000000E+00 -0.00000000000E+00 -0.30640284038E+04  0.30640284038E+04  0.00000000000E+00 0.  1.
    9000010    2    1    2  502    0  0.39389398199E+03 -0.46822993340E+03 -0.14190507166E+04  0.18407672158E+04  0.10001636202E+04 0.  0.
   -9000010    2    1    2    0  501 -0.39389398199E+03  0.46822993340E+03 -0.11970086070E+04  0.16712302681E+04  0.99286920789E+03 0.  0.
        -13    1    3    3    0    0  0.34363443874E+03 -0.65138632672E+03 -0.14699627103E+04  0.16441347739E+04  0.10566000000E+00 0.  1.
          4    1    3    3  502    0  0.50259543250E+02  0.18315639333E+03  0.50911993701E+02  0.19663244190E+03  0.00000000000E+00 0.  1.
         13    1    4    4    0    0 -0.17797730269E+03  0.16115053168E+03  0.14312202482E+03  0.27951625943E+03  0.10566000000E+00 0. -1.
         -4    1    4    4    0  501 -0.21591667930E+03  0.30707940171E+03 -0.13401306319E+04  0.13917140086E+04  0.00000000000E+00 0. -1.
<mgrwt>
<rscale>  2 0.11693719E+04</rscale>
<asrwt>0</asrwt>
<pdfrwt beam="2">  1        2 0.47138900E+00 0.11693719E+04</pdfrwt>
<pdfrwt beam="1">  1       -2 0.68918317E-01 0.11693719E+04</pdfrwt>
<totfact> 0.47425454E+00</totfact>
</mgrwt>
</event>
<event>
 8    1  0.1408247E-005  0.1056403E+04  0.7818608E-02  0.8723327E-01
          2   -1    0    0  502    0  0.00000000000E+00  0.00000000000E+00  0.14868312609E+04  0.14868312609E+04  0.00000000000E+00 0.  1.
         -2   -1    0    0    0  501 -0.00000000000E+00 -0.00000000000E+00 -0.76780229781E+03  0.76780229781E+03  0.00000000000E+00 0. -1.
    9000010    2    1    2  502    0 -0.13949259376E+03  0.41801249383E+03  0.51953792835E+03  0.11580306237E+04  0.93644147591E+03 0.  0.
   -9000010    2    1    2    0  501  0.13949259376E+03 -0.41801249383E+03  0.19949103475E+03  0.10966029350E+04  0.98414871606E+03 0.  0.
        -13    1    3    3    0    0 -0.27233244470E+03  0.42000605413E+03 -0.11176885080E+03  0.51289602563E+03  0.10566000000E+00 0.  1.
          4    1    3    3  502    0  0.13283985093E+03 -0.19935602965E+01  0.63130677915E+03  0.64513459811E+03  0.00000000000E+00 0.  1.
         13    1    4    4    0    0  0.36738015175E+03 -0.64332382095E+03  0.48695631447E+02  0.74243180844E+03  0.10566000000E+00 0. -1.
         -4    1    4    4    0  501 -0.22788755799E+03  0.22531132712E+03  0.15079540330E+03  0.35417112653E+03  0.00000000000E+00 0. -1.
<mgrwt>
<rscale>  2 0.10564035E+04</rscale>
<asrwt>0</asrwt>
<pdfrwt beam="1">  1        2 0.22874327E+00 0.10564035E+04</pdfrwt>
<pdfrwt beam="2">  1       -2 0.11812343E+00 0.10564035E+04</pdfrwt>
<totfact> 0.10647455E+01</totfact>
</mgrwt>
</event>
<event>
 8    1  0.1408247E-005  0.1216921E+04  0.7818608E-02  0.8593928E-01
         -2   -1    0    0    0  501 -0.00000000000E+00  0.00000000000E+00  0.10650258384E+04  0.10650258384E+04  0.00000000000E+00 0. -1.
          2   -1    0    0  502    0  0.00000000000E+00 -0.00000000000E+00 -0.14537586554E+04  0.14537586554E+04  0.00000000000E+00 0.  1.
    9000010    2    1    2  502    0 -0.63179432648E+03 -0.16182463416E+03  0.69992401035E+02  0.12063557042E+04  0.10124445000E+04 0.  0.
   -9000010    2    1    2    0  501  0.63179432648E+03  0.16182463416E+03 -0.45872521802E+03  0.13124287897E+04  0.10424438686E+04 0.  0.
        -13    1    3    3    0    0 -0.37958699951E+03 -0.17830926166E+03  0.53338774123E+03  0.67851527370E+03  0.10566000000E+00 0.  1.
          4    1    3    3  502    0 -0.25220732697E+03  0.16484627491E+02 -0.46339534020E+03  0.52784043047E+03  0.00000000000E+00 0.  1.
         13    1    4    4    0    0  0.90107418494E+02 -0.10308212858E+03  0.30796287090E+03  0.33702583450E+03  0.10566000000E+00 0. -1.
         -4    1    4    4    0  501  0.54168690798E+03  0.26490676274E+03 -0.76668808893E+03  0.97540295516E+03  0.00000000000E+00 0. -1.
<mgrwt>
<rscale>  2 0.12169212E+04</rscale>
<asrwt>0</asrwt>
<pdfrwt beam="2">  1        2 0.22365518E+00 0.12169212E+04</pdfrwt>
<pdfrwt beam="1">  1       -2 0.16385013E+00 0.12169212E+04</pdfrwt>
<totfact> 0.42157230E+00</totfact>
</mgrwt>
</event>
<event>
 8    1  0.1408247E-005  0.1619817E+04  0.7818608E-02  0.8343696E-01
         -1   -1    0    0    0  501 -0.00000000000E+00  0.00000000000E+00  0.94182723304E+03  0.94182723304E+03  0.00000000000E+00 0.  1.
          1   -1    0    0  502    0  0.00000000000E+00 -0.00000000000E+00 -0.32972519209E+04  0.32972519209E+04  0.00000000000E+00 0. -1.
    9000010    2    1    2  502    0  0.10787922903E+04 -0.69081887880E+03 -0.34456731811E+03  0.16585508842E+04  0.99551035654E+03 0.  0.
   -9000010    2    1    2    0  501 -0.10787922903E+04  0.69081887880E+03 -0.20108573697E+04  0.25805282697E+04  0.98719565461E+03 0.  0.
        -13    1    3    3    0    0  0.53563163668E+02  0.12611854447E+03  0.19717729055E+03  0.24011204642E+03  0.10566000000E+00 0.  1.
          4    1    3    3  502    0  0.10252291266E+04 -0.81693742328E+03 -0.54174460866E+03  0.14184388378E+04  0.00000000000E+00 0.  1.
         13    1    4    4    0    0 -0.10203121977E+04  0.88840796885E+03 -0.14505569493E+04  0.19835375405E+04  0.10566000000E+00 0. -1.
         -4    1    4    4    0  501 -0.58480092553E+02 -0.19758909004E+03 -0.56030042038E+03  0.59699072925E+03  0.00000000000E+00 0. -1.
<mgrwt>
<rscale>  2 0.16198175E+04</rscale>
<asrwt>0</asrwt>
<pdfrwt beam="2">  1        1 0.50726951E+00 0.16198175E+04</pdfrwt>
<pdfrwt beam="1">  1       -1 0.14489650E+00 0.16198175E+04</pdfrwt>
<totfact> 0.78664578E-02</totfact>
</mgrwt>
</event>
<event>
 8    1  0.1408247E-005  0.1252800E+04  0.7818608E-02  0.8567829E-01
         -2   -1    0    0    0  501 -0.00000000000E+00  0.00000000000E+00  0.44086740000E+03  0.44086740000E+03  0.00000000000E+00 0. -1.
          2   -1    0    0  502    0  0.00000000000E+00 -0.00000000000E+00 -0.38271026230E+04  0.38271026230E+04  0.00000000000E+00 0.  1.
    9000010    2    1    2  502    0  0.26784971545E+03 -0.69765260953E+03 -0.22538318796E+04  0.25774652554E+04  0.10025499328E+04 0.  0.
   -9000010    2    1    2    0  501 -0.26784971545E+03  0.69765260953E+03 -0.11324033434E+04  0.16905047676E+04  0.10084673537E+04 0.  0.
        -13    1    3    3    0    0 -0.35205822985E+03 -0.53218016848E+02 -0.62246795416E+03  0.71710774618E+03  0.10566000000E+00 0.  1.
          4    1    3    3  502    0  0.61990794530E+03 -0.64443459268E+03 -0.16313639254E+04  0.18603575092E+04  0.00000000000E+00 0.  1.
         13    1    4    4    0    0  0.16042026953E+03  0.20057716176E+02  0.12152828419E+03  0.20225258929E+03  0.10566000000E+00 0. -1.
         -4    1    4    4    0  501 -0.42826998498E+03  0.67759489336E+03 -0.12539316276E+04  0.14882521783E+04  0.00000000000E+00 0. -1.
<mgrwt>
<rscale>  2 0.12528000E+04</rscale>
<asrwt>0</asrwt>
<pdfrwt beam="2">  1        2 0.58878501E+00 0.12528000E+04</pdfrwt>
<pdfrwt beam="1">  1       -2 0.67825755E-01 0.12528000E+04</pdfrwt>
<totfact> 0.13539160E+00</totfact>
</mgrwt>
</event>
<event>
 8    1  0.1408247E-005  0.1090153E+04  0.7818608E-02  0.8694214E-01
         -2   -1    0    0    0  501 -0.00000000000E+00  0.00000000000E+00  0.11612348846E+04  0.11612348846E+04  0.00000000000E+00 0. -1.
          2   -1    0    0  502    0  0.00000000000E+00 -0.00000000000E+00 -0.10483676043E+04  0.10483676043E+04  0.00000000000E+00 0.  1.
    9000010    2    1    2  502    0  0.49047345051E+03 -0.22860999713E+03  0.22438153213E+03  0.11508579428E+04  0.99060597417E+03 0.  0.
   -9000010    2    1    2    0  501 -0.49047345051E+03  0.22860999713E+03 -0.11151425177E+03  0.10587445461E+04  0.90314885211E+03 0.  0.
        -13    1    3    3    0    0 -0.17940447782E+03 -0.91618724260E+02  0.39742096769E+03  0.44555964138E+03  0.10566000000E+00 0.  1.
          4    1    3    3  502    0  0.66987792834E+03 -0.13699127287E+03 -0.17303943556E+03  0.70529830141E+03  0.00000000000E+00 0.  1.
         13    1    4    4    0    0 -0.19935775509E+03 -0.30202774469E+03 -0.24747296978E+03  0.43841436451E+03  0.10566000000E+00 0. -1.
         -4    1    4    4    0  501 -0.29111569542E+03  0.53063774182E+03  0.13595871801E+03  0.62033018157E+03  0.00000000000E+00 0. -1.
<mgrwt>
<rscale>  2 0.10901532E+04</rscale>
<asrwt>0</asrwt>
<pdfrwt beam="2">  1        2 0.16128732E+00 0.10901532E+04</pdfrwt>
<pdfrwt beam="1">  1       -2 0.17865152E+00 0.10901532E+04</pdfrwt>
<totfact> 0.54489448E+00</totfact>
</mgrwt>
</event>
<event>
 8    1  0.1408247E-005  0.1832887E+04  0.7818608E-02  0.8240048E-01
         -2   -1    0    0    0  501 -0.00000000000E+00  0.00000000000E+00  0.20109229858E+04  0.20109229858E+04  0.00000000000E+00 0.  1.
          2   -1    0    0  502    0  0.00000000000E+00 -0.00000000000E+00 -0.20774066996E+04  0.20774066996E+04  0.00000000000E+00 0. -1.
    9000010    2    1    2  502    0  0.87820463455E+03  0.12717377402E+04 -0.93774068660E+03  0.20552014295E+04  0.97771931584E+03 0.  0.
   -9000010    2    1    2    0  501 -0.87820463455E+03 -0.12717377402E+04  0.87125697284E+03  0.20331282559E+04  0.99295595692E+03 0.  0.
        -13    1    3    3    0    0  0.16996808250E+03 -0.14291570846E+03 -0.12392491555E+02  0.22241320511E+03  0.10566000000E+00 0.  1.
          4    1    3    3  502    0  0.70823655205E+03  0.14146534486E+04 -0.92534819505E+03  0.18327882244E+04  0.00000000000E+00 0.  1.
         13    1    4    4    0    0 -0.62964265407E+02 -0.28700072807E+03  0.67964710084E+03  0.74044183396E+03  0.10566000000E+00 0. -1.
         -4    1    4    4    0  501 -0.81524036914E+03 -0.98473701208E+03  0.19160987199E+03  0.12926864219E+04  0.00000000000E+00 0. -1.
<mgrwt>
<rscale>  2 0.18328871E+04</rscale>
<asrwt>0</asrwt>
<pdfrwt beam="2">  1        2 0.31960103E+00 0.18328871E+04</pdfrwt>
<pdfrwt beam="1">  1       -2 0.30937277E+00 0.18328871E+04</pdfrwt>
<totfact> 0.13222831E-01</totfact>
</mgrwt>
</event>
<event>
 8    1  0.1408247E-005  0.1274265E+04  0.7818608E-02  0.8552643E-01
         -1   -1    0    0    0  501 -0.00000000000E+00  0.00000000000E+00  0.74537972846E+03  0.74537972846E+03  0.00000000000E+00 0.  1.
          1   -1    0    0  502    0  0.00000000000E+00 -0.00000000000E+00 -0.24553971277E+04  0.24553971277E+04  0.00000000000E+00 0. -1.
    9000010    2    1    2  502    0  0.68141070808E+03  0.42668627343E+03 -0.13962913476E+04  0.18946976526E+04  0.99692925444E+03 0.  0.
   -9000010    2    1    2    0  501 -0.68141070808E+03 -0.42668627343E+03 -0.31372605159E+03  0.13060792035E+04  0.98032500804E+03 0.  0.
        -13    1    3    3    0    0  0.97075680103E+02  0.64216279505E+03 -0.82130213383E+03  0.10470596684E+04  0.10566000000E+00 0.  1.
          4    1    3    3  502    0  0.58433502798E+03 -0.21547652162E+03 -0.57498921381E+03  0.84763798422E+03  0.00000000000E+00 0.  1.
         13    1    4    4    0    0 -0.49967987034E+03 -0.49171472793E+03  0.22303590254E+03  0.73566865603E+03  0.10566000000E+00 0. -1.
         -4    1    4    4    0  501 -0.18173083775E+03  0.65028454495E+02 -0.53676195413E+03  0.57041054749E+03  0.00000000000E+00 0. -1.
<mgrwt>
<rscale>  2 0.12742650E+04</rscale>
<asrwt>0</asrwt>
<pdfrwt beam="2">  1        1 0.37775341E+00 0.12742650E+04</pdfrwt>
<pdfrwt beam="1">  1       -1 0.11467380E+00 0.12742650E+04</pdfrwt>
<totfact> 0.11613279E+00</totfact>
</mgrwt>
</event>
<event>
 8    1  0.1408247E-005  0.1196973E+04  0.7818608E-02  0.8608845E-01
         -2   -1    0    0    0  501 -0.00000000000E+00  0.00000000000E+00  0.53952713859E+03  0.53952713859E+03  0.00000000000E+00 0. -1.
          2   -1    0    0  502    0  0.00000000000E+00 -0.00000000000E+00 -0.26556037440E+04  0.26556037440E+04  0.00000000000E+00 0.  1.
    9000010    2    1    2  502    0  0.49535512578E+03  0.44602644224E+03 -0.10655055841E+04  0.16032288668E+04  0.99535137602E+03 0.  0.
   -9000010    2    1    2    0  501 -0.49535512578E+03 -0.44602644224E+03 -0.10505710213E+04  0.15919020158E+04  0.99304394124E+03 0.  0.
        -13    1    3    3    0    0  0.84318685380E+02  0.61475259688E+03 -0.23915713464E+03  0.66500115962E+03  0.10566000000E+00 0.  1.
          4    1    3    3  502    0  0.41103644040E+03 -0.16872615464E+03 -0.82634844943E+03  0.93822770715E+03  0.00000000000E+00 0.  1.
         13    1    4    4    0    0 -0.22665252998E+03  0.14968289627E+03  0.82508314844E+02  0.28387316175E+03  0.10566000000E+00 0. -1.
         -4    1    4    4    0  501 -0.26870259579E+03 -0.59570933851E+03 -0.11330793361E+04  0.13080288540E+04  0.00000000000E+00 0. -1.
<mgrwt>
<rscale>  2 0.11969732E+04</rscale>
<asrwt>0</asrwt>
<pdfrwt beam="2">  1        2 0.40855442E+00 0.11969732E+04</pdfrwt>
<pdfrwt beam="1">  1       -2 0.83004175E-01 0.11969732E+04</pdfrwt>
<totfact> 0.55826135E+00</totfact>
</mgrwt>
</event>
<event>
 8    1  0.1408247E-005  0.1829929E+04  0.7818608E-02  0.8241386E-01
         -2   -1    0    0    0  501 -0.00000000000E+00  0.00000000000E+00  0.34325269166E+04  0.34325269166E+04  0.00000000000E+00 0.  1.
          2   -1    0    0  502    0  0.00000000000E+00 -0.00000000000E+00 -0.12555542922E+04  0.12555542922E+04  0.00000000000E+00 0. -1.
    9000010    2    1    2  502    0  0.15208386583E+04 -0.33476935658E+03  0.21996969833E+04  0.28673772544E+04  0.97885890421E+03 0.  0.
   -9000010    2    1    2    0  501 -0.15208386583E+04  0.33476935658E+03 -0.22724358954E+02  0.18207039544E+04  0.94309371027E+03 0.  0.
        -13    1    3    3    0    0  0.15116881758E+04 -0.49135542817E+03  0.16310294046E+04  0.22774740893E+04  0.10566000000E+00 0.  1.
          4    1    3    3  502    0  0.91504824510E+01  0.15658607159E+03  0.56866757871E+03  0.58990316512E+03  0.00000000000E+00 0.  1.
         13    1    4    4    0    0 -0.10111798389E+04 -0.20643466745E+03  0.18574829594E+03  0.10486192727E+04  0.10566000000E+00 0. -1.
         -4    1    4    4    0  501 -0.50965881940E+03  0.54120402403E+03 -0.20847265490E+03  0.77208468166E+03  0.00000000000E+00 0. -1.
<mgrwt>
<rscale>  2 0.18299289E+04</rscale>
<asrwt>0</asrwt>
<pdfrwt beam="2">  1        2 0.19316220E+00 0.18299289E+04</pdfrwt>
<pdfrwt beam="1">  1       -2 0.52808106E+00 0.18299289E+04</pdfrwt>
<totfact> 0.78225674E-02</totfact>
</mgrwt>
</event>
<event>
 8    1  0.1408247E-005  0.1249909E+04  0.7818608E-02  0.8569898E-01
          2   -1    0    0  502    0  0.00000000000E+00  0.00000000000E+00  0.31067227437E+04  0.31067227437E+04  0.00000000000E+00 0.  1.
         -2   -1    0    0    0  501 -0.00000000000E+00 -0.00000000000E+00 -0.52738920794E+03  0.52738920794E+03  0.00000000000E+00 0. -1.
    9000010    2    1    2  502    0  0.75006745839E+03 -0.60079088267E+02  0.91211869431E+03  0.15586900655E+04  0.10155508451E+04 0.  0.
   -9000010    2    1    2    0  501 -0.75006745839E+03  0.60079088267E+02  0.16672148415E+04  0.20754218861E+04  0.98059165243E+03 0.  0.
        -13    1    3    3    0    0  0.38954845667E+03 -0.42892250833E+03  0.87397618215E+02  0.58597002745E+03  0.10566000000E+00 0.  1.
          4    1    3    3  502    0  0.36051900172E+03  0.36884342006E+03  0.82472107610E+03  0.97272003808E+03  0.00000000000E+00 0.  1.
         13    1    4    4    0    0 -0.34798020921E+03 -0.46105986355E+03  0.79627064710E+03  0.98372423899E+03  0.10566000000E+00 0. -1.
         -4    1    4    4    0  501 -0.40208724917E+03  0.52113895182E+03  0.87094419437E+03  0.10916976471E+04  0.00000000000E+00 0. -1.
<mgrwt>
<rscale>  2 0.12499091E+04</rscale>
<asrwt>0</asrwt>
<pdfrwt beam="1">  1        2 0.47795734E+00 0.12499091E+04</pdfrwt>
<pdfrwt beam="2">  1       -2 0.81136803E-01 0.12499091E+04</pdfrwt>
<totfact> 0.31139389E+00</totfact>
</mgrwt>
</event>
<event>
 8    1  0.1408247E-005  0.1436048E+04  0.7818608E-02  0.8447282E-01
         -2   -1    0    0    0  501 -0.00000000000E+00  0.00000000000E+00  0.80945746762E+03  0.80945746762E+03  0.00000000000E+00 0.  1.
          2   -1    0    0  502    0  0.00000000000E+00 -0.00000000000E+00 -0.25528141747E+04  0.25528141747E+04  0.00000000000E+00 0. -1.
    9000010    2    1    2  502    0 -0.10239375984E+04  0.12063645558E+03 -0.94931751956E+03  0.17246870526E+04  0.10051568617E+04 0.  0.
   -9000010    2    1    2    0  501  0.10239375984E+04 -0.12063645558E+03 -0.79403918752E+03  0.16375845897E+04  0.99407429167E+03 0.  0.
        -13    1    3    3    0    0  0.86897023243E+02  0.18121207378E+02  0.13982307549E+03  0.16561996984E+03  0.10566000000E+00 0.  1.
          4    1    3    3  502    0 -0.11108346216E+04  0.10251524820E+03 -0.10891405951E+04  0.15590670828E+04  0.00000000000E+00 0.  1.
         13    1    4    4    0    0  0.34688871147E+03  0.23783682432E+02  0.21875866996E+03  0.41079533656E+03  0.10566000000E+00 0. -1.
         -4    1    4    4    0  501  0.67704888694E+03 -0.14442013801E+03 -0.10127978575E+04  0.12267892532E+04  0.00000000000E+00 0. -1.
<mgrwt>
<rscale>  2 0.14360479E+04</rscale>
<asrwt>0</asrwt>
<pdfrwt beam="2">  1        2 0.39274064E+00 0.14360479E+04</pdfrwt>
<pdfrwt beam="1">  1       -2 0.12453192E+00 0.14360479E+04</pdfrwt>
<totfact> 0.23133591E+00</totfact>
</mgrwt>
</event>
<event>
 8    1  0.1408247E-005  0.1159252E+04  0.7818608E-02  0.8637894E-01
          2   -1    0    0  502    0  0.00000000000E+00  0.00000000000E+00  0.26581618307E+04  0.26581618307E+04  0.00000000000E+00 0. -1.
         -2   -1    0    0    0  501 -0.00000000000E+00 -0.00000000000E+00 -0.56739804261E+03  0.56739804261E+03  0.00000000000E+00 0.  1.
    9000010    2    1    2  502    0 -0.53440791597E+03 -0.51069516198E+02  0.15594221334E+04  0.19302992612E+04  0.10030243923E+04 0.  0.
   -9000010    2    1    2    0  501  0.53440791597E+03  0.51069516198E+02  0.53134165463E+03  0.12952606120E+04  0.10522243977E+04 0.  0.
        -13    1    3    3    0    0  0.13595175030E+03  0.25590557187E+03  0.12120289610E+03  0.31410299794E+03  0.10566000000E+00 0.  1.
          4    1    3    3  502    0 -0.67035966628E+03 -0.30697508807E+03  0.14382192373E+04  0.16161962633E+04  0.00000000000E+00 0.  1.
         13    1    4    4    0    0  0.44782449511E+03  0.23449278750E+03  0.80746522193E+03  0.95264565375E+03  0.10566000000E+00 0. -1.
         -4    1    4    4    0  501  0.86583420864E+02 -0.18342327130E+03 -0.27612356731E+03  0.34261495829E+03  0.00000000000E+00 0. -1.
<mgrwt>
<rscale>  2 0.11592524E+04</rscale>
<asrwt>0</asrwt>
<pdfrwt beam="1">  1        2 0.40894797E+00 0.11592524E+04</pdfrwt>
<pdfrwt beam="2">  1       -2 0.87292008E-01 0.11592524E+04</pdfrwt>
<totfact> 0.49890753E+00</totfact>
</mgrwt>
</event>
<event>
 8    1  0.1408247E-005  0.1378995E+04  0.7818608E-02  0.8482733E-01
          2   -1    0    0  502    0  0.00000000000E+00  0.00000000000E+00  0.19204518688E+04  0.19204518688E+04  0.00000000000E+00 0. -1.
         -2   -1    0    0    0  501 -0.00000000000E+00 -0.00000000000E+00 -0.99027784929E+03  0.99027784929E+03  0.00000000000E+00 0.  1.
    9000010    2    1    2  502    0 -0.16977520377E+03  0.93679145728E+03  0.45134957872E+03  0.14479695826E+04  0.99322586332E+03 0.  0.
   -9000010    2    1    2    0  501  0.16977520377E+03 -0.93679145728E+03  0.47882444079E+03  0.14627601355E+04  0.10019942688E+04 0.  0.
        -13    1    3    3    0    0 -0.31243001754E+03  0.81048585156E+03  0.71336160656E+03  0.11240038364E+04  0.10566000000E+00 0.  1.
          4    1    3    3  502    0  0.14265481377E+03  0.12630560572E+03 -0.26201202784E+03  0.32396574613E+03  0.00000000000E+00 0.  1.
         13    1    4    4    0    0 -0.11499589341E+03 -0.12824515865E+03  0.57491234860E+03  0.60016255794E+03  0.10566000000E+00 0. -1.
         -4    1    4    4    0  501  0.28477109717E+03 -0.80854629863E+03 -0.96087907812E+02  0.86259757758E+03  0.00000000000E+00 0. -1.
<mgrwt>
<rscale>  2 0.13789949E+04</rscale>
<asrwt>0</asrwt>
<pdfrwt beam="1">  1        2 0.29545413E+00 0.13789949E+04</pdfrwt>
<pdfrwt beam="2">  1       -2 0.15235044E+00 0.13789949E+04</pdfrwt>
<totfact> 0.29037444E+00</totfact>
</mgrwt>
</event>
<event>
 8    1  0.1408247E-005  0.1136420E+04  0.7818608E-02  0.8656042E-01
          2   -1    0    0  502    0  0.00000000000E+00  0.00000000000E+00  0.13033821258E+04  0.13033821258E+04  0.00000000000E+00 0. -1.
         -2   -1    0    0    0  501 -0.00000000000E+00 -0.00000000000E+00 -0.10200564057E+04  0.10200564057E+04  0.00000000000E+00 0.  1.
    9000010    2    1    2  502    0  0.79073084764E+02  0.51321848377E+03 -0.51565963409E+02  0.11571720520E+04  0.10328321957E+04 0.  0.
   -9000010    2    1    2    0  501 -0.79073084764E+02 -0.51321848377E+03  0.33489168356E+03  0.11662664795E+04  0.98913057613E+03 0.  0.
        -13    1    3    3    0    0  0.43009780135E+03 -0.98201012524E+02  0.53383238691E+02  0.44438422443E+03  0.10566000000E+00 0.  1.
          4    1    3    3  502    0 -0.35102471659E+03  0.61141949630E+03 -0.10494920210E+03  0.71278782757E+03  0.00000000000E+00 0.  1.
         13    1    4    4    0    0 -0.49694479218E+03 -0.46625828764E+03  0.29928461574E+03  0.74425950424E+03  0.10566000000E+00 0. -1.
         -4    1    4    4    0  501  0.41787170742E+03 -0.46960196135E+02  0.35607067823E+02  0.42200697525E+03  0.00000000000E+00 0. -1.
<mgrwt>
<rscale>  2 0.11364203E+04</rscale>
<asrwt>0</asrwt>
<pdfrwt beam="1">  1        2 0.20052033E+00 0.11364203E+04</pdfrwt>
<pdfrwt beam="2">  1       -2 0.15693176E+00 0.11364203E+04</pdfrwt>
<totfact> 0.59102887E+00</totfact>
</mgrwt>
</event>
<event>
 8    1  0.1408247E-005  0.1384233E+04  0.7818608E-02  0.8479406E-01
          2   -1    0    0  502    0  0.00000000000E+00  0.00000000000E+00  0.22076488062E+04  0.22076488062E+04  0.00000000000E+00 0.  1.
         -2   -1    0    0    0  501 -0.00000000000E+00 -0.00000000000E+00 -0.10356173103E+04  0.10356173103E+04  0.00000000000E+00 0. -1.
    9000010    2    1    2  502    0 -0.95304161503E+03  0.15732178055E+03 -0.69765259824E+02  0.13765843362E+04  0.97830403286E+03 0.  0.
   -9000010    2    1    2    0  501  0.95304161503E+03 -0.15732178055E+03  0.12417967557E+04  0.18666817803E+04  0.10046906110E+04 0.  0.
        -13    1    3    3    0    0 -0.97283950466E+03  0.24027674703E+03 -0.36714747450E+03  0.10672145502E+04  0.10566000000E+00 0.  1.
          4    1    3    3  502    0  0.19797889636E+02 -0.82954966482E+02  0.29738221468E+03  0.30936978603E+03  0.00000000000E+00 0.  1.
         13    1    4    4    0    0  0.26451436647E+03 -0.47615838388E+03  0.20522023616E+03  0.58207388973E+03  0.10566000000E+00 0. -1.
         -4    1    4    4    0  501  0.68852724855E+03  0.31883660334E+03  0.10365765195E+04  0.12846078905E+04  0.00000000000E+00 0. -1.
<mgrwt>
<rscale>  2 0.13842330E+04</rscale>
<asrwt>0</asrwt>
<pdfrwt beam="1">  1        2 0.33963828E+00 0.13842330E+04</pdfrwt>
<pdfrwt beam="2">  1       -2 0.15932574E+00 0.13842330E+04</pdfrwt>
<totfact> 0.17537705E+00</totfact>
</mgrwt>
</event>
<event>
 8    1  0.1408247E-005  0.1104048E+04  0.7818608E-02  0.8682546E-01
         -2   -1    0    0    0  501 -0.00000000000E+00  0.00000000000E+00  0.82191028723E+03  0.82191028723E+03  0.00000000000E+00 0.  1.
          2   -1    0    0  502    0  0.00000000000E+00 -0.00000000000E+00 -0.15763791746E+04  0.15763791746E+04  0.00000000000E+00 0. -1.
    9000010    2    1    2  502    0  0.14789980539E+03 -0.28959839376E+03 -0.73803777615E+02  0.10522643499E+04  0.99803390841E+03 0.  0.
   -9000010    2    1    2    0  501 -0.14789980539E+03  0.28959839376E+03 -0.68066510977E+03  0.13460251120E+04  0.11147811571E+04 0.  0.
        -13    1    3    3    0    0  0.28191988697E+03 -0.58679971604E+03 -0.23040936412E+03  0.69058034699E+03  0.10566000000E+00 0.  1.
          4    1    3    3  502    0 -0.13402008158E+03  0.29720132227E+03  0.15660558650E+03  0.36168400290E+03  0.00000000000E+00 0.  1.
         13    1    4    4    0    0  0.39264215373E+03  0.10244464817E+03 -0.65860136375E+03  0.77357516398E+03  0.10566000000E+00 0. -1.
         -4    1    4    4    0  501 -0.54054195912E+03  0.18715374559E+03 -0.22063746020E+02  0.57244994798E+03  0.00000000000E+00 0. -1.
<mgrwt>
<rscale>  2 0.11040482E+04</rscale>
<asrwt>0</asrwt>
<pdfrwt beam="2">  1        2 0.24251987E+00 0.11040482E+04</pdfrwt>
<pdfrwt beam="1">  1       -2 0.12644774E+00 0.11040482E+04</pdfrwt>
<totfact> 0.78963688E+00</totfact>
</mgrwt>
</event>
<event>
 8    1  0.1408247E-005  0.1801318E+04  0.7818608E-02  0.8254463E-01
         -1   -1    0    0    0  501 -0.00000000000E+00  0.00000000000E+00  0.17326312010E+04  0.17326312010E+04  0.00000000000E+00 0. -1.
          1   -1    0    0  502    0  0.00000000000E+00 -0.00000000000E+00 -0.19724265330E+04  0.19724265330E+04  0.00000000000E+00 0.  1.
    9000010    2    1    2  502    0 -0.14138097845E+04  0.46414324418E+03  0.29733608565E+03  0.18072806435E+04  0.98161475070E+03 0.  0.
   -9000010    2    1    2    0  501  0.14138097845E+04 -0.46414324418E+03 -0.53713141757E+03  0.18977770905E+04  0.10482178532E+04 0.  0.
        -13    1    3    3    0    0 -0.35599524018E+03  0.11243860433E+03 -0.35543416920E+03  0.51546921399E+03  0.10566000000E+00 0.  1.
          4    1    3    3  502    0 -0.10578145443E+04  0.35170463985E+03  0.65277025486E+03  0.12918114295E+04  0.00000000000E+00 0.  1.
         13    1    4    4    0    0  0.14492384816E+04 -0.67206789783E+03 -0.40203819631E+03  0.16473014777E+04  0.10566000000E+00 0. -1.
         -4    1    4    4    0  501 -0.35428697166E+02  0.20792465365E+03 -0.13509322126E+03  0.25047561280E+03  0.00000000000E+00 0. -1.
<mgrwt>
<rscale>  2 0.18013182E+04</rscale>
<asrwt>0</asrwt>
<pdfrwt beam="2">  1        1 0.30345024E+00 0.18013182E+04</pdfrwt>
<pdfrwt beam="1">  1       -1 0.26655865E+00 0.18013182E+04</pdfrwt>
<totfact> 0.11294329E-01</totfact>
</mgrwt>
</event>
<event>
 8    1  0.1408247E-005  0.1225357E+04  0.7818608E-02  0.8587709E-01
         -1   -1    0    0    0  501 -0.00000000000E+00  0.00000000000E+00  0.44532727055E+03  0.44532727055E+03  0.00000000000E+00 0.  1.
          1   -1    0    0  502    0  0.00000000000E+00 -0.00000000000E+00 -0.33769531760E+04  0.33769531760E+04  0.00000000000E+00 0. -1.
    9000010    2    1    2  502    0  0.66695754820E+03 -0.25697710243E+03 -0.15461288679E+04  0.19754509971E+04  0.10005111512E+04 0.  0.
   -9000010    2    1    2    0  501 -0.66695754820E+03  0.25697710243E+03 -0.13854970376E+04  0.18468294494E+04  0.99010472779E+03 0.  0.
        -13    1    3    3    0    0  0.72151802682E+03 -0.15257722850E+03 -0.16569883233E+04  0.18136919221E+04  0.10566000000E+00 0.  1.
          4    1    3    3  502    0 -0.54560478620E+02 -0.10439987393E+03  0.11085945537E+03  0.16175907501E+03  0.00000000000E+00 0.  1.
         13    1    4    4    0    0 -0.22455540140E+03 -0.18786591204E+03 -0.11335522967E+04  0.11707517028E+04  0.10566000000E+00 0. -1.
         -4    1    4    4    0  501 -0.44240214680E+03  0.44484301447E+03 -0.25194474087E+03  0.67607774661E+03  0.00000000000E+00 0. -1.
<mgrwt>
<rscale>  2 0.12253566E+04</rscale>
<asrwt>0</asrwt>
<pdfrwt beam="2">  1        1 0.51953126E+00 0.12253566E+04</pdfrwt>
<pdfrwt beam="1">  1       -1 0.68511887E-01 0.12253566E+04</pdfrwt>
<totfact> 0.35931272E-01</totfact>
</mgrwt>
</event>
<event>
 8    1  0.1408247E-005  0.1138787E+04  0.7818608E-02  0.8654140E-01
          2   -1    0    0  502    0  0.00000000000E+00  0.00000000000E+00  0.22036427063E+04  0.22036427063E+04  0.00000000000E+00 0. -1.
         -2   -1    0    0    0  501 -0.00000000000E+00 -0.00000000000E+00 -0.61942168993E+03  0.61942168993E+03  0.00000000000E+00 0.  1.
    9000010    2    1    2  502    0  0.12752145331E+03  0.55061542724E+03  0.11189899803E+04  0.16100233147E+04  0.10102462216E+04 0.  0.
   -9000010    2    1    2    0  501 -0.12752145331E+03 -0.55061542724E+03  0.46523103605E+03  0.12130410815E+04  0.96725884784E+03 0.  0.
        -13    1    3    3    0    0 -0.27782839388E+03  0.28139294212E+03  0.10456416417E+04  0.11179163915E+04  0.10566000000E+00 0.  1.
          4    1    3    3  502    0  0.40534984719E+03  0.26922248512E+03  0.73348338589E+02  0.49210692323E+03  0.00000000000E+00 0.  1.
         13    1    4    4    0    0 -0.49902694624E+03 -0.43203384512E+03  0.49034012794E+03  0.82226187352E+03  0.10566000000E+00 0. -1.
         -4    1    4    4    0  501  0.37150549292E+03 -0.11858158211E+03 -0.25109091896E+02  0.39077920797E+03  0.00000000000E+00 0. -1.
<mgrwt>
<rscale>  2 0.11387872E+04</rscale>
<asrwt>0</asrwt>
<pdfrwt beam="1">  1        2 0.33902195E+00 0.11387872E+04</pdfrwt>
<pdfrwt beam="2">  1       -2 0.95295645E-01 0.11387872E+04</pdfrwt>
<totfact> 0.73108922E+00</totfact>
</mgrwt>
</event>
<event>
 8    1  0.1408247E-005  0.9025800E+03  0.7818608E-02  0.8871939E-01
          1   -1    0    0  502    0  0.00000000000E+00  0.00000000000E+00  0.60415622235E+03  0.60415622235E+03  0.00000000000E+00 0.  1.
         -1   -1    0    0    0  501 -0.00000000000E+00 -0.00000000000E+00 -0.13759628776E+04  0.13759628776E+04  0.00000000000E+00 0. -1.
    9000010    2    1    2  502    0 -0.14964241353E+03 -0.12428845642E+03 -0.25848263359E+03  0.84602696661E+03  0.78173389592E+03 0.  0.
   -9000010    2    1    2    0  501  0.14964241353E+03  0.12428845642E+03 -0.51332402167E+03  0.11340921333E+04  0.99238245821E+03 0.  0.
        -13    1    3    3    0    0 -0.30624876185E+03 -0.38135498573E+03 -0.23903257528E+03  0.54438636325E+03  0.10566000000E+00 0.  1.
          4    1    3    3  502    0  0.15660634832E+03  0.25706652931E+03 -0.19450058310E+02  0.30164060336E+03  0.00000000000E+00 0.  1.
         13    1    4    4    0    0 -0.22003215013E+03  0.45122144097E+03 -0.15908747466E+03  0.52661539252E+03  0.10566000000E+00 0. -1.
         -4    1    4    4    0  501  0.36967456366E+03 -0.32693298455E+03 -0.35423654701E+03  0.60747674082E+03  0.00000000000E+00 0. -1.
<mgrwt>
<rscale>  2 0.90258002E+03</rscale>
<asrwt>0</asrwt>
<pdfrwt beam="1">  1        1 0.92947112E-01 0.90258002E+03</pdfrwt>
<pdfrwt beam="2">  1       -1 0.21168659E+00 0.90258002E+03</pdfrwt>
<totfact> 0.53206362E+00</totfact>
</mgrwt>
</event>
<event>
 8    1  0.1408247E-005  0.1659284E+04  0.7818608E-02  0.8323300E-01
         -2   -1    0    0    0  501 -0.00000000000E+00  0.00000000000E+00  0.13870663527E+04  0.13870663527E+04  0.00000000000E+00 0. -1.
          2   -1    0    0  502    0  0.00000000000E+00 -0.00000000000E+00 -0.19978825973E+04  0.19978825973E+04  0.00000000000E+00 0.  1.
    9000010    2    1    2  502    0  0.95583448479E+03  0.91449239128E+03 -0.44172227800E+03  0.17171599056E+04  0.10018002169E+04 0.  0.
   -9000010    2    1    2    0  501 -0.95583448479E+03 -0.91449239128E+03 -0.16909396660E+03  0.16677890444E+04  0.10015046836E+04 0.  0.
        -13    1    3    3    0    0  0.10049875474E+04  0.97135564910E+03 -0.13823924622E+03  0.14045076959E+04  0.10566000000E+00 0.  1.
          4    1    3    3  502    0 -0.49153062614E+02 -0.56863257829E+02 -0.30348303177E+03  0.31265220970E+03  0.00000000000E+00 0.  1.
         13    1    4    4    0    0 -0.10300842550E+04 -0.94350301268E+03 -0.37554659073E+03  0.14464808192E+04  0.10566000000E+00 0. -1.
         -4    1    4    4    0  501  0.74249770241E+02  0.29010621408E+02  0.20645262413E+03  0.22130822521E+03  0.00000000000E+00 0. -1.
<mgrwt>
<rscale>  2 0.16592840E+04</rscale>
<asrwt>0</asrwt>
<pdfrwt beam="2">  1        2 0.30736655E+00 0.16592840E+04</pdfrwt>
<pdfrwt beam="1">  1       -2 0.21339483E+00 0.16592840E+04</pdfrwt>
<totfact> 0.78518712E-01</totfact>
</mgrwt>
</event>
<event>
 8    1  0.1408247E-005  0.1495809E+04  0.7818608E-02  0.8411915E-01
         -2   -1    0    0    0  501 -0.00000000000E+00  0.00000000000E+00  0.21038898889E+04  0.21038898889E+04  0.00000000000E+00 0.  1.
          2   -1    0    0  502    0  0.00000000000E+00 -0.00000000000E+00 -0.10652571528E+04  0.10652571528E+04  0.00000000000E+00 0. -1.
    9000010    2    1    2  502    0 -0.10844824097E+04 -0.23259589396E+03  0.45308949310E+03  0.15581541878E+04  0.99616837801E+03 0.  0.
   -9000010    2    1    2    0  501  0.10844824097E+04  0.23259589396E+03  0.58554324297E+03  0.16109928539E+04  0.10110559526E+04 0.  0.
        -13    1    3    3    0    0  0.21249108899E+02  0.25282570656E+03  0.20301319104E+03  0.32494111686E+03  0.10566000000E+00 0.  1.
          4    1    3    3  502    0 -0.11057315186E+04 -0.48542160052E+03  0.25007630206E+03  0.12332130709E+04  0.00000000000E+00 0.  1.
         13    1    4    4    0    0  0.62469368243E+03 -0.23822968025E+03 -0.82021211280E+02  0.67358968792E+03  0.10566000000E+00 0. -1.
         -4    1    4    4    0  501  0.45978872725E+03  0.47082557421E+03  0.66756445425E+03  0.93740316600E+03  0.00000000000E+00 0. -1.
<mgrwt>
<rscale>  2 0.14958094E+04</rscale>
<asrwt>0</asrwt>
<pdfrwt beam="2">  1        2 0.16388572E+00 0.14958094E+04</pdfrwt>
<pdfrwt beam="1">  1       -2 0.32367537E+00 0.14958094E+04</pdfrwt>
<totfact> 0.40239011E-01</totfact>
</mgrwt>
</event>
<event>
 8    1  0.1408247E-005  0.1674087E+04  0.7818608E-02  0.8315800E-01
          2   -1    0    0  502    0  0.00000000000E+00  0.00000000000E+00  0.41761306499E+04  0.41761306499E+04  0.00000000000E+00 0. -1.
         -2   -1    0    0    0  501 -0.00000000000E+00 -0.00000000000E+00 -0.67222470136E+03  0.67222470136E+03  0.00000000000E+00 0.  1.
    9000010    2    1    2  502    0 -0.75249239963E+03 -0.10087819519E+04  0.17838918302E+04  0.24916979624E+04  0.12010007644E+04 0.  0.
   -9000010    2    1    2    0  501  0.75249239963E+03  0.10087819519E+04  0.17200141183E+04  0.23566573888E+04  0.10057333857E+04 0.  0.
        -13    1    3    3    0    0 -0.15286611167E+03  0.15617174942E+03 -0.62840003554E+02  0.22739072238E+03  0.10566000000E+00 0.  1.
          4    1    3    3  502    0 -0.59962628796E+03 -0.11649537013E+04  0.18467318338E+04  0.22643072400E+04  0.00000000000E+00 0.  1.
         13    1    4    4    0    0  0.24698418921E+03  0.91585328259E+03  0.15463961317E+04  0.18141470261E+04  0.10566000000E+00 0. -1.
         -4    1    4    4    0  501  0.50550821043E+03  0.92928669298E+02  0.17361798658E+03  0.54251036271E+03  0.00000000000E+00 0. -1.
<mgrwt>
<rscale>  2 0.16740871E+04</rscale>
<asrwt>0</asrwt>
<pdfrwt beam="1">  1        2 0.64248162E+00 0.16740871E+04</pdfrwt>
<pdfrwt beam="2">  1       -2 0.10341919E+00 0.16740871E+04</pdfrwt>
<totfact> 0.24456498E-01</totfact>
</mgrwt>
</event>
<event>
 8    1  0.1408247E-005  0.1250317E+04  0.7818608E-02  0.8569606E-01
         -2   -1    0    0    0  501 -0.00000000000E+00  0.00000000000E+00  0.11324232987E+04  0.11324232987E+04  0.00000000000E+00 0.  1.
          2   -1    0    0  502    0  0.00000000000E+00 -0.00000000000E+00 -0.18682642742E+04  0.18682642742E+04  0.00000000000E+00 0. -1.
    9000010    2    1    2  502    0 -0.26459679461E+02 -0.75561706776E+03  0.39802079974E+03  0.13151115616E+04  0.99972025817E+03 0.  0.
   -9000010    2    1    2    0  501  0.26459679461E+02  0.75561706776E+03 -0.11338617752E+04  0.16855760113E+04  0.99190054799E+03 0.  0.
        -13    1    3    3    0    0 -0.31048122244E+03  0.35376776412E+02  0.35589671700E+03  0.47361650112E+03  0.10566000000E+00 0.  1.
          4    1    3    3  502    0  0.28402154298E+03 -0.79099384417E+03  0.42124082739E+02  0.84149506044E+03  0.00000000000E+00 0.  1.
         13    1    4    4    0    0  0.54319858194E+02 -0.41783905488E+01  0.16874157964E+03  0.17731846437E+03  0.10566000000E+00 0. -1.
         -4    1    4    4    0  501 -0.27860178733E+02  0.75979545831E+03 -0.13026033548E+04  0.15082575470E+04  0.00000000000E+00 0. -1.
<mgrwt>
<rscale>  2 0.12503166E+04</rscale>
<asrwt>0</asrwt>
<pdfrwt beam="2">  1        2 0.28742527E+00 0.12503166E+04</pdfrwt>
<pdfrwt beam="1">  1       -2 0.17421897E+00 0.12503166E+04</pdfrwt>
<totfact> 0.20406707E+00</totfact>
</mgrwt>
</event>
<event>
 8    1  0.1408247E-005  0.1330728E+04  0.7818608E-02  0.8514129E-01
         -2   -1    0    0    0  501 -0.00000000000E+00  0.00000000000E+00  0.12751383706E+04  0.12751383706E+04  0.00000000000E+00 0.  1.
          2   -1    0    0  502    0  0.00000000000E+00 -0.00000000000E+00 -0.14050228293E+04  0.14050228293E+04  0.00000000000E+00 0. -1.
    9000010    2    1    2  502    0  0.99599010808E+02  0.86048615373E+03  0.78635869593E+02  0.13417087080E+04  0.10215881134E+04 0.  0.
   -9000010    2    1    2    0  501 -0.99599010808E+02 -0.86048615373E+03 -0.20852032826E+03  0.13384524919E+04  0.99880827098E+03 0.  0.
        -13    1    3    3    0    0  0.15086383183E+02 -0.18993093154E+03 -0.17401275759E+03  0.25803451064E+03  0.10566000000E+00 0.  1.
          4    1    3    3  502    0  0.84512627625E+02  0.10504170853E+04  0.25264862718E+03  0.10836741974E+04  0.00000000000E+00 0.  1.
         13    1    4    4    0    0 -0.31394007073E+03  0.81265960974E+02  0.73043191947E+02  0.33241215904E+03  0.10566000000E+00 0. -1.
         -4    1    4    4    0  501  0.21434105992E+03 -0.94175211470E+03 -0.28156352021E+03  0.10060403329E+04  0.00000000000E+00 0. -1.
<mgrwt>
<rscale>  2 0.13307280E+04</rscale>
<asrwt>0</asrwt>
<pdfrwt beam="2">  1        2 0.21615736E+00 0.13307280E+04</pdfrwt>
<pdfrwt beam="1">  1       -2 0.19617513E+00 0.13307280E+04</pdfrwt>
<totfact> 0.23793579E+00</totfact>
</mgrwt>
</event>
<event>
 8    1  0.1408247E-005  0.2042471E+04  0.7818608E-02  0.8151316E-01
         -2   -1    0    0    0  501 -0.00000000000E+00  0.00000000000E+00  0.15167482621E+04  0.15167482621E+04  0.00000000000E+00 0. -1.
          2   -1    0    0  502    0  0.00000000000E+00 -0.00000000000E+00 -0.31966133062E+04  0.31966133062E+04  0.00000000000E+00 0.  1.
    9000010    2    1    2  502    0  0.12148232457E+04 -0.13037532566E+04 -0.17207525445E+04  0.26714438240E+04  0.10000273562E+04 0.  0.
   -9000010    2    1    2    0  501 -0.12148232457E+04  0.13037532566E+04  0.40887500441E+02  0.20419177443E+04  0.99608644931E+03 0.  0.
        -13    1    3    3    0    0  0.25742403196E+03  0.55594055832E+02 -0.63027043304E+03  0.68308027435E+03  0.10566000000E+00 0.  1.
          4    1    3    3  502    0  0.95739921377E+03 -0.13593473124E+04 -0.10904821114E+04  0.19883635497E+04  0.00000000000E+00 0.  1.
         13    1    4    4    0    0 -0.99816919322E+03  0.34429751684E+03  0.66493755370E+02  0.10579716202E+04  0.10566000000E+00 0. -1.
         -4    1    4    4    0  501 -0.21665405251E+03  0.95945573972E+03 -0.25606254929E+02  0.98394612416E+03  0.00000000000E+00 0. -1.
<mgrwt>
<rscale>  2 0.20424710E+04</rscale>
<asrwt>0</asrwt>
<pdfrwt beam="2">  1        2 0.49178666E+00 0.20424710E+04</pdfrwt>
<pdfrwt beam="1">  1       -2 0.23334589E+00 0.20424710E+04</pdfrwt>
<totfact> 0.10354439E-01</totfact>
</mgrwt>
</event>
<event>
 8    1  0.1408247E-005  0.1136695E+04  0.7818608E-02  0.8655821E-01
         -2   -1    0    0    0  501 -0.00000000000E+00  0.00000000000E+00  0.12718383737E+04  0.12718383737E+04  0.00000000000E+00 0. -1.
          2   -1    0    0  502    0  0.00000000000E+00 -0.00000000000E+00 -0.10383227367E+04  0.10383227367E+04  0.00000000000E+00 0.  1.
    9000010    2    1    2  502    0  0.26740898720E+03  0.17035020626E+03 -0.45298488147E+02  0.10721058179E+04  0.10231481675E+04 0.  0.
   -9000010    2    1    2    0  501 -0.26740898720E+03 -0.17035020626E+03  0.27881412513E+03  0.12380552924E+04  0.11638371156E+04 0.  0.
        -13    1    3    3    0    0 -0.28691824832E+03 -0.18044405891E+03  0.17325602734E+03  0.38065706586E+03  0.10566000000E+00 0.  1.
          4    1    3    3  502    0  0.55432723551E+03  0.35079426517E+03 -0.21855451549E+03  0.69144875208E+03  0.00000000000E+00 0.  1.
         13    1    4    4    0    0 -0.30364945875E+03  0.47153286845E+03  0.90183009677E+02  0.56804861256E+03  0.10566000000E+00 0. -1.
         -4    1    4    4    0  501  0.36240471552E+02 -0.64188307471E+03  0.18863111545E+03  0.67000667989E+03  0.00000000000E+00 0. -1.
<mgrwt>
<rscale>  2 0.11366947E+04</rscale>
<asrwt>0</asrwt>
<pdfrwt beam="2">  1        2 0.15974196E+00 0.11366947E+04</pdfrwt>
<pdfrwt beam="1">  1       -2 0.19566744E+00 0.11366947E+04</pdfrwt>
<totfact> 0.39701882E+00</totfact>
</mgrwt>
</event>
<event>
 8    1  0.1408247E-005  0.1183603E+04  0.7818608E-02  0.8619013E-01
         -1   -1    0    0    0  501 -0.00000000000E+00  0.00000000000E+00  0.82478814424E+03  0.82478814424E+03  0.00000000000E+00 0. -1.
          1   -1    0    0  502    0  0.00000000000E+00 -0.00000000000E+00 -0.17940259759E+04  0.17940259759E+04  0.00000000000E+00 0.  1.
    9000010    2    1    2  502    0  0.87662400733E+02  0.65148877598E+03 -0.78129867501E+03  0.14073332432E+04  0.96852305920E+03 0.  0.
   -9000010    2    1    2    0  501 -0.87662400733E+02 -0.65148877598E+03 -0.18793915662E+03  0.12114808769E+04  0.10001212260E+04 0.  0.
        -13    1    3    3    0    0  0.11762210718E+03  0.10576446875E+03 -0.84263756649E+03  0.85735591359E+03  0.10566000000E+00 0.  1.
          4    1    3    3  502    0 -0.29959706444E+02  0.54572430723E+03  0.61338891478E+02  0.54997732964E+03  0.00000000000E+00 0.  1.
         13    1    4    4    0    0 -0.29197086568E+03  0.16842031859E+03  0.31319253640E+02  0.33851631708E+03  0.10566000000E+00 0. -1.
         -4    1    4    4    0  501  0.20430846495E+03 -0.81990909456E+03 -0.21925841026E+03  0.87296455980E+03  0.00000000000E+00 0. -1.
<mgrwt>
<rscale>  2 0.11836033E+04</rscale>
<asrwt>0</asrwt>
<pdfrwt beam="2">  1        1 0.27600400E+00 0.11836033E+04</pdfrwt>
<pdfrwt beam="1">  1       -1 0.12689048E+00 0.11836033E+04</pdfrwt>
<totfact> 0.30951719E+00</totfact>
</mgrwt>
</event>
<event>
 8    1  0.1408247E-005  0.1222494E+04  0.7818608E-02  0.8589814E-01
         -1   -1    0    0    0  501 -0.00000000000E+00  0.00000000000E+00  0.91784575561E+03  0.91784575561E+03  0.00000000000E+00 0.  1.
          1   -1    0    0  502    0  0.00000000000E+00 -0.00000000000E+00 -0.17751933314E+04  0.17751933314E+04  0.00000000000E+00 0. -1.
    9000010    2    1    2  502    0 -0.65170112246E+03  0.23373787849E+03 -0.36445928629E+02  0.12068331238E+04  0.98781077854E+03 0.  0.
   -9000010    2    1    2    0  501  0.65170112246E+03 -0.23373787849E+03 -0.82090164713E+03  0.14862059632E+04  0.10274146689E+04 0.  0.
        -13    1    3    3    0    0 -0.19683971980E+03  0.39580074326E+03  0.36938996634E+03  0.57606689026E+03  0.10566000000E+00 0.  1.
          4    1    3    3  502    0 -0.45486140265E+03 -0.16206286477E+03 -0.40583589497E+03  0.63076623357E+03  0.00000000000E+00 0.  1.
         13    1    4    4    0    0  0.82445446402E+03 -0.14431795223E+03 -0.93959535593E+03  0.12583291615E+04  0.10566000000E+00 0. -1.
         -4    1    4    4    0  501 -0.17275334157E+03 -0.89419926263E+02  0.11869370880E+03  0.22787680168E+03  0.00000000000E+00 0. -1.
<mgrwt>
<rscale>  2 0.12224936E+04</rscale>
<asrwt>0</asrwt>
<pdfrwt beam="2">  1        1 0.27310666E+00 0.12224936E+04</pdfrwt>
<pdfrwt beam="1">  1       -1 0.14120704E+00 0.12224936E+04</pdfrwt>
<totfact> 0.23821349E+00</totfact>
</mgrwt>
</event>
<event>
 8    1  0.1408247E-005  0.1114143E+04  0.7818608E-02  0.8674180E-01
         -4   -1    0    0    0  501 -0.00000000000E+00  0.00000000000E+00  0.13136368418E+04  0.13136368418E+04  0.00000000000E+00 0.  1.
          4   -1    0    0  502    0  0.00000000000E+00 -0.00000000000E+00 -0.10365290119E+04  0.10365290119E+04  0.00000000000E+00 0. -1.
    9000010    2    1    2  502    0 -0.31342723332E+03  0.35419341061E+03  0.48964857103E+03  0.12390822894E+04  0.10353161807E+04 0.  0.
   -9000010    2    1    2    0  501  0.31342723332E+03 -0.35419341061E+03 -0.21254074116E+03  0.11110835643E+04  0.98267162244E+03 0.  0.
        -13    1    3    3    0    0 -0.40218326814E+01  0.53456322176E+03  0.65429175170E+03  0.84490929732E+03  0.10566000000E+00 0.  1.
          4    1    3    3  502    0 -0.30940540064E+03 -0.18036981114E+03 -0.16464318068E+03  0.39417299205E+03  0.00000000000E+00 0.  1.
         13    1    4    4    0    0 -0.20986438366E+03 -0.35048303539E+03  0.19032137986E+03  0.45067023024E+03  0.10566000000E+00 0. -1.
         -4    1    4    4    0  501  0.52329161698E+03 -0.37103752242E+01 -0.40286212102E+03  0.66041333409E+03  0.00000000000E+00 0. -1.
<mgrwt>
<rscale>  2 0.11141432E+04</rscale>
<asrwt>0</asrwt>
<pdfrwt beam="2">  1        4 0.15946600E+00 0.11141432E+04</pdfrwt>
<pdfrwt beam="1">  1       -4 0.20209798E+00 0.11141432E+04</pdfrwt>
<totfact> 0.24424554E-01</totfact>
</mgrwt>
</event>
<event>
 8    1  0.1408247E-005  0.1053257E+04  0.7818608E-02  0.8726100E-01
         -1   -1    0    0    0  501 -0.00000000000E+00  0.00000000000E+00  0.11522929122E+04  0.11522929122E+04  0.00000000000E+00 0.  1.
          1   -1    0    0  502    0  0.00000000000E+00 -0.00000000000E+00 -0.96276436056E+03  0.96276436056E+03  0.00000000000E+00 0. -1.
    9000010    2    1    2  502    0 -0.43969978956E+02  0.34695105080E+03  0.97901620841E+02  0.10632782785E+04  0.99933356763E+03 0.  0.
   -9000010    2    1    2    0  501  0.43969978956E+02 -0.34695105080E+03  0.91626930824E+02  0.10517789943E+04  0.98769183846E+03 0.  0.
        -13    1    3    3    0    0  0.20324269546E+03 -0.30196822292E+03  0.20641424044E+02  0.36457986842E+03  0.10566000000E+00 0.  1.
          4    1    3    3  502    0 -0.24721267441E+03  0.64891927371E+03  0.77260196797E+02  0.69869841004E+03  0.00000000000E+00 0.  1.
         13    1    4    4    0    0  0.26039051480E+02 -0.29697231804E+03 -0.43232506039E+03  0.52514336984E+03  0.10566000000E+00 0. -1.
         -4    1    4    4    0  501  0.17930927476E+02 -0.49978732757E+02  0.52395199121E+03  0.52663562449E+03  0.00000000000E+00 0. -1.
<mgrwt>
<rscale>  2 0.10532566E+04</rscale>
<asrwt>0</asrwt>
<pdfrwt beam="2">  1        1 0.14811759E+00 0.10532566E+04</pdfrwt>
<pdfrwt beam="1">  1       -1 0.17727583E+00 0.10532566E+04</pdfrwt>
<totfact> 0.49267497E+00</totfact>
</mgrwt>
</event>
<event>
 8    1  0.1408247E-005  0.1011018E+04  0.7818608E-02  0.8764307E-01
          2   -1    0    0  502    0  0.00000000000E+00  0.00000000000E+00  0.10593045087E+04  0.10593045087E+04  0.00000000000E+00 0.  1.
         -2   -1    0    0    0  501 -0.00000000000E+00 -0.00000000000E+00 -0.96980873676E+03  0.96980873676E+03  0.00000000000E+00 0. -1.
    9000010    2    1    2  502    0  0.28443043918E+03 -0.43973886065E+02  0.11659233949E+03  0.10160737170E+04  0.96745937765E+03 0.  0.
   -9000010    2    1    2    0  501 -0.28443043918E+03  0.43973886065E+02 -0.27096567577E+02  0.10130395284E+04  0.97091734188E+03 0.  0.
        -13    1    3    3    0    0  0.47322932529E+03 -0.32576033272E+03  0.28052976750E+03  0.63934556408E+03  0.10566000000E+00 0.  1.
          4    1    3    3  502    0 -0.18879888611E+03  0.28178644666E+03 -0.16393742802E+03  0.37672815294E+03  0.00000000000E+00 0.  1.
         13    1    4    4    0    0  0.44466818394E+01  0.41956533812E+03 -0.25103607630E+03  0.48895190838E+03  0.10566000000E+00 0. -1.
         -4    1    4    4    0  501 -0.28887712102E+03 -0.37559145206E+03  0.22393950872E+03  0.52408762004E+03  0.00000000000E+00 0. -1.
<mgrwt>
<rscale>  2 0.10110183E+04</rscale>
<asrwt>0</asrwt>
<pdfrwt beam="1">  1        2 0.16296993E+00 0.10110183E+04</pdfrwt>
<pdfrwt beam="2">  1       -2 0.14920134E+00 0.10110183E+04</pdfrwt>
<totfact> 0.96647528E+00</totfact>
</mgrwt>
</event>
<event>
 8    1  0.1408247E-005  0.1357780E+04  0.7818608E-02  0.8496367E-01
         -2   -1    0    0    0  501 -0.00000000000E+00  0.00000000000E+00  0.53329712359E+03  0.53329712359E+03  0.00000000000E+00 0. -1.
          2   -1    0    0  502    0  0.00000000000E+00 -0.00000000000E+00 -0.35027342624E+04  0.35027342624E+04  0.00000000000E+00 0.  1.
    9000010    2    1    2  502    0 -0.89519461697E+03  0.20130720491E+03 -0.17177701966E+04  0.21909047287E+04  0.10037086673E+04 0.  0.
   -9000010    2    1    2    0  501  0.89519461697E+03 -0.20130720491E+03 -0.12516669423E+04  0.18451266574E+04  0.99796004645E+03 0.  0.
        -13    1    3    3    0    0 -0.12552866657E+03  0.24954255486E+02  0.12942573036E+03  0.18201975674E+03  0.10566000000E+00 0.  1.
          4    1    3    3  502    0 -0.76966595040E+03  0.17635294942E+03 -0.18471959269E+04  0.20088849719E+04  0.00000000000E+00 0.  1.
         13    1    4    4    0    0  0.52930439890E+03 -0.61299627738E+02 -0.13412816293E+04  0.14432453746E+04  0.10566000000E+00 0. -1.
         -4    1    4    4    0  501  0.36589021807E+03 -0.14000757717E+03  0.89614686967E+02  0.40188128280E+03  0.00000000000E+00 0. -1.
<mgrwt>
<rscale>  2 0.13577801E+04</rscale>
<asrwt>0</asrwt>
<pdfrwt beam="2">  1        2 0.53888220E+00 0.13577801E+04</pdfrwt>
<pdfrwt beam="1">  1       -2 0.82045710E-01 0.13577801E+04</pdfrwt>
<totfact> 0.16161236E+00</totfact>
</mgrwt>
</event>
<event>
 8    1  0.1408247E-005  0.1290044E+04  0.7818608E-02  0.8541676E-01
         -2   -1    0    0    0  501 -0.00000000000E+00  0.00000000000E+00  0.61280652980E+03  0.61280652980E+03  0.00000000000E+00 0.  1.
          2   -1    0    0  502    0  0.00000000000E+00 -0.00000000000E+00 -0.29122301251E+04  0.29122301251E+04  0.00000000000E+00 0. -1.
    9000010    2    1    2  502    0  0.32939231667E+03 -0.77061016454E+03 -0.70009781213E+03  0.14763041507E+04  0.99347756629E+03 0.  0.
   -9000010    2    1    2    0  501 -0.32939231667E+03  0.77061016454E+03 -0.15993257832E+04  0.20487325043E+04  0.96805092287E+03 0.  0.
        -13    1    3    3    0    0  0.32286920371E+03 -0.13984564238E+03  0.17863457686E+03  0.39460315459E+03  0.10566000000E+00 0.  1.
          4    1    3    3  502    0  0.65231129514E+01 -0.63076452215E+03 -0.87873238900E+03  0.10817009961E+04  0.00000000000E+00 0.  1.
         13    1    4    4    0    0  0.10301811707E+03 -0.18703620202E+03 -0.16071496225E+03  0.26725378120E+03  0.10566000000E+00 0. -1.
         -4    1    4    4    0  501 -0.43241043374E+03  0.95764636656E+03 -0.14386108209E+04  0.17814787231E+04  0.00000000000E+00 0. -1.
<mgrwt>
<rscale>  2 0.12900437E+04</rscale>
<asrwt>0</asrwt>
<pdfrwt beam="2">  1        2 0.44803541E+00 0.12900437E+04</pdfrwt>
<pdfrwt beam="1">  1       -2 0.94277927E-01 0.12900437E+04</pdfrwt>
<totfact> 0.29054838E+00</totfact>
</mgrwt>
</event>
<event>
 8    1  0.1408247E-005  0.1201609E+04  0.7818608E-02  0.8605352E-01
         -2   -1    0    0    0  501 -0.00000000000E+00  0.00000000000E+00  0.74896643978E+03  0.74896643978E+03  0.00000000000E+00 0. -1.
          2   -1    0    0  502    0  0.00000000000E+00 -0.00000000000E+00 -0.26589347836E+04  0.26589347836E+04  0.00000000000E+00 0.  1.
    9000010    2    1    2  502    0  0.38264442872E+02  0.68910127931E+03 -0.18423298510E+04  0.21938631585E+04  0.97084063453E+03 0.  0.
   -9000010    2    1    2    0  501 -0.38264442872E+02 -0.68910127931E+03 -0.67638492797E+02  0.12140380648E+04  0.99648819181E+03 0.  0.
        -13    1    3    3    0    0  0.35297828407E+03  0.53247862827E+03 -0.16973732564E+04  0.18136160402E+04  0.10566000000E+00 0.  1.
          4    1    3    3  502    0 -0.31471384120E+03  0.15662265104E+03 -0.14495659460E+03  0.38024711831E+03  0.00000000000E+00 0.  1.
         13    1    4    4    0    0  0.17997152096E+03 -0.70651700436E+03  0.29819220118E+03  0.78770211744E+03  0.10566000000E+00 0. -1.
         -4    1    4    4    0  501 -0.21823596383E+03  0.17415725052E+02 -0.36583069398E+03  0.42633594740E+03  0.00000000000E+00 0. -1.
<mgrwt>
<rscale>  2 0.12016091E+04</rscale>
<asrwt>0</asrwt>
<pdfrwt beam="2">  1        2 0.40906689E+00 0.12016091E+04</pdfrwt>
<pdfrwt beam="1">  1       -2 0.11522561E+00 0.12016091E+04</pdfrwt>
<totfact> 0.25353072E+00</totfact>
</mgrwt>
</event>
<event>
 8    1  0.1408247E-005  0.1070923E+04  0.7818608E-02  0.8710665E-01
         -2   -1    0    0    0  501 -0.00000000000E+00  0.00000000000E+00  0.58113138643E+03  0.58113138643E+03  0.00000000000E+00 0.  1.
          2   -1    0    0  502    0  0.00000000000E+00 -0.00000000000E+00 -0.20355115304E+04  0.20355115304E+04  0.00000000000E+00 0. -1.
    9000010    2    1    2  502    0 -0.37855993322E+03 -0.86244861748E+02 -0.95352107926E+03  0.14316916581E+04  0.99488328760E+03 0.  0.
   -9000010    2    1    2    0  501  0.37855993322E+03  0.86244861748E+02 -0.50085906471E+03  0.11849512588E+04  0.10012511592E+04 0.  0.
        -13    1    3    3    0    0  0.71347476231E+02 -0.46983616157E+03 -0.46277456565E+03  0.66332253908E+03  0.10566000000E+00 0.  1.
          4    1    3    3  502    0 -0.44990740945E+03  0.38359129982E+03 -0.49074651361E+03  0.76836911898E+03  0.00000000000E+00 0.  1.
         13    1    4    4    0    0  0.63032732490E+03 -0.13369292850E+03 -0.54986241313E+03  0.84707438881E+03  0.10566000000E+00 0. -1.
         -4    1    4    4    0  501 -0.25176739168E+03  0.21993779025E+03  0.49003348419E+02  0.33787686995E+03  0.00000000000E+00 0. -1.
<mgrwt>
<rscale>  2 0.10709232E+04</rscale>
<asrwt>0</asrwt>
<pdfrwt beam="2">  1        2 0.31315562E+00 0.10709232E+04</pdfrwt>
<pdfrwt beam="1">  1       -2 0.89404828E-01 0.10709232E+04</pdfrwt>
<totfact> 0.10555302E+01</totfact>
</mgrwt>
</event>
<event>
 8    1  0.1408247E-005  0.1533820E+04  0.7818608E-02  0.8390297E-01
          2   -1    0    0  502    0  0.00000000000E+00  0.00000000000E+00  0.16613838855E+04  0.16613838855E+04  0.00000000000E+00 0.  1.
         -2   -1    0    0    0  501 -0.00000000000E+00 -0.00000000000E+00 -0.14800633602E+04  0.14800633602E+04  0.00000000000E+00 0. -1.
    9000010    2    1    2  502    0 -0.25185450557E+03 -0.11312490385E+04 -0.23639566499E+03  0.15423251945E+04  0.98981261659E+03 0.  0.
   -9000010    2    1    2    0  501  0.25185450557E+03  0.11312490385E+04  0.41771619025E+03  0.15991220512E+04  0.10195829735E+04 0.  0.
        -13    1    3    3    0    0  0.34321635568E+03 -0.14688294892E+03 -0.75305643258E+02  0.38084513724E+03  0.10566000000E+00 0.  1.
          4    1    3    3  502    0 -0.59507086125E+03 -0.98436608961E+03 -0.16109002173E+03  0.11614800572E+04  0.00000000000E+00 0.  1.
         13    1    4    4    0    0 -0.15325560030E+03  0.45672804820E+03  0.62148460620E+03  0.78634020370E+03  0.10566000000E+00 0. -1.
         -4    1    4    4    0  501  0.40511010587E+03  0.67452099033E+03 -0.20376841595E+03  0.81278184749E+03  0.00000000000E+00 0. -1.
<mgrwt>
<rscale>  2 0.15338201E+04</rscale>
<asrwt>0</asrwt>
<pdfrwt beam="1">  1        2 0.25559752E+00 0.15338201E+04</pdfrwt>
<pdfrwt beam="2">  1       -2 0.22770205E+00 0.15338201E+04</pdfrwt>
<totfact> 0.92987980E-01</totfact>
</mgrwt>
</event>
<event>
 8    1  0.1408247E-005  0.1642423E+04  0.7818608E-02  0.8331941E-01
         -2   -1    0    0    0  501 -0.00000000000E+00  0.00000000000E+00  0.11007189699E+04  0.11007189699E+04  0.00000000000E+00 0. -1.
          2   -1    0    0  502    0  0.00000000000E+00 -0.00000000000E+00 -0.32572826371E+04  0.32572826371E+04  0.00000000000E+00 0.  1.
    9000010    2    1    2  502    0 -0.64402959843E+03 -0.11292371710E+04 -0.21586867249E+04  0.27077692147E+04  0.99102726099E+03 0.  0.
   -9000010    2    1    2    0  501  0.64402959843E+03  0.11292371710E+04  0.21230576234E+01  0.16502323923E+04  0.10165194190E+04 0.  0.
        -13    1    3    3    0    0 -0.26345555070E+01  0.14478177888E+03 -0.49795086696E+03  0.51857861646E+03  0.10566000000E+00 0.  1.
          4    1    3    3  502    0 -0.64139504293E+03 -0.12740189499E+04 -0.16607358579E+04  0.21891905983E+04  0.00000000000E+00 0.  1.
         13    1    4    4    0    0  0.38755669565E+03  0.11136675859E+04 -0.33548216198E+03  0.12259706262E+04  0.10566000000E+00 0. -1.
         -4    1    4    4    0  501  0.25647290279E+03  0.15569585138E+02  0.33760521960E+03  0.42426176607E+03  0.00000000000E+00 0. -1.
<mgrwt>
<rscale>  2 0.16424228E+04</rscale>
<asrwt>0</asrwt>
<pdfrwt beam="2">  1        2 0.50112040E+00 0.16424228E+04</pdfrwt>
<pdfrwt beam="1">  1       -2 0.16934138E+00 0.16424228E+04</pdfrwt>
<totfact> 0.33311600E-01</totfact>
</mgrwt>
</event>
<event>
 8    1  0.1408247E-005  0.1015841E+04  0.7818608E-02  0.8759849E-01
          2   -1    0    0  502    0  0.00000000000E+00  0.00000000000E+00  0.10946659615E+04  0.10946659615E+04  0.00000000000E+00 0. -1.
         -2   -1    0    0    0  501 -0.00000000000E+00 -0.00000000000E+00 -0.95809194221E+03  0.95809194221E+03  0.00000000000E+00 0.  1.
    9000010    2    1    2  502    0  0.20221019493E+03 -0.21445774902E+03 -0.60980828852E+02  0.99273655742E+03  0.94600534982E+03 0.  0.
   -9000010    2    1    2    0  501 -0.20221019493E+03  0.21445774902E+03  0.19755484816E+03  0.10600213463E+04  0.99886748248E+03 0.  0.
        -13    1    3    3    0    0  0.13805633625E+03 -0.49240377567E+03  0.25128575678E+03  0.56979432517E+03  0.10566000000E+00 0.  1.
          4    1    3    3  502    0  0.64153858682E+02  0.27794602665E+03 -0.31226658563E+03  0.42294223225E+03  0.00000000000E+00 0.  1.
         13    1    4    4    0    0  0.59711063521E+02 -0.10764458905E+03  0.51999061187E+03  0.53436225190E+03  0.10566000000E+00 0. -1.
         -4    1    4    4    0  501 -0.26192125845E+03  0.32210233807E+03 -0.32243576371E+03  0.52565909441E+03  0.00000000000E+00 0. -1.
<mgrwt>
<rscale>  2 0.10158409E+04</rscale>
<asrwt>0</asrwt>
<pdfrwt beam="1">  1        2 0.16841015E+00 0.10158409E+04</pdfrwt>
<pdfrwt beam="2">  1       -2 0.14739876E+00 0.10158409E+04</pdfrwt>
<totfact> 0.95528155E+00</totfact>
</mgrwt>
</event>
<event>
 8    1  0.1408247E-005  0.1839229E+04  0.7818608E-02  0.8237188E-01
          1   -1    0    0  502    0  0.00000000000E+00  0.00000000000E+00  0.19257795152E+04  0.19257795152E+04  0.00000000000E+00 0.  1.
         -1   -1    0    0    0  501 -0.00000000000E+00 -0.00000000000E+00 -0.18094230630E+04  0.18094230630E+04  0.00000000000E+00 0. -1.
    9000010    2    1    2  502    0  0.92052705651E+03  0.12383110145E+04 -0.26085455104E+03  0.18619589916E+04  0.10089905644E+04 0.  0.
   -9000010    2    1    2    0  501 -0.92052705651E+03 -0.12383110145E+04  0.37721100332E+03  0.18732435866E+04  0.99295979948E+03 0.  0.
        -13    1    3    3    0    0  0.57872478562E+03  0.26170548706E+03  0.28035610804E+03  0.69427062297E+03  0.10566000000E+00 0.  1.
          4    1    3    3  502    0  0.34180227089E+03  0.97660552747E+03 -0.54121065908E+03  0.11676883686E+04  0.00000000000E+00 0.  1.
         13    1    4    4    0    0 -0.70561197330E+03 -0.13612108181E+04  0.15582899476E+03  0.15411248602E+04  0.10566000000E+00 0. -1.
         -4    1    4    4    0  501 -0.21491508322E+03  0.12289980354E+03  0.22138200856E+03  0.33211872639E+03  0.00000000000E+00 0. -1.
<mgrwt>
<rscale>  2 0.18392286E+04</rscale>
<asrwt>0</asrwt>
<pdfrwt beam="1">  1        1 0.29627377E+00 0.18392286E+04</pdfrwt>
<pdfrwt beam="2">  1       -1 0.27837278E+00 0.18392286E+04</pdfrwt>
<totfact> 0.93948030E-02</totfact>
</mgrwt>
</event>
<event>
 8    1  0.1408247E-005  0.2209497E+04  0.7818608E-02  0.8088059E-01
         -1   -1    0    0    0  501 -0.00000000000E+00  0.00000000000E+00  0.28172487275E+04  0.28172487275E+04  0.00000000000E+00 0. -1.
          1   -1    0    0  502    0  0.00000000000E+00 -0.00000000000E+00 -0.30779815453E+04  0.30779815453E+04  0.00000000000E+00 0.  1.
    9000010    2    1    2  502    0  0.11440889760E+04  0.16102778162E+04 -0.20790515590E+04  0.30361137719E+04  0.99679346935E+03 0.  0.
   -9000010    2    1    2    0  501 -0.11440889760E+04 -0.16102778162E+04  0.18183187413E+04  0.28591165009E+04  0.98302079855E+03 0.  0.
        -13    1    3    3    0    0  0.22309427583E+03 -0.11898901827E+03 -0.21728452097E+03  0.33337968833E+03  0.10566000000E+00 0.  1.
          4    1    3    3  502    0  0.92099470018E+03  0.17292668345E+04 -0.18617670381E+04  0.27027340836E+04  0.00000000000E+00 0.  1.
         13    1    4    4    0    0 -0.25268985325E+03  0.98877854480E+02  0.30639383278E+03  0.40927519345E+03  0.10566000000E+00 0. -1.
         -4    1    4    4    0  501 -0.89139912276E+03 -0.17091556707E+04  0.15119249085E+04  0.24498413074E+04  0.00000000000E+00 0. -1.
<mgrwt>
<rscale>  2 0.22094974E+04</rscale>
<asrwt>0</asrwt>
<pdfrwt beam="2">  1        1 0.47353562E+00 0.22094974E+04</pdfrwt>
<pdfrwt beam="1">  1       -1 0.43342288E+00 0.22094974E+04</pdfrwt>
<totfact> 0.36615107E-03</totfact>
</mgrwt>
</event>
<event>
 8    1  0.1408247E-005  0.1036828E+04  0.7818608E-02  0.8740737E-01
         -2   -1    0    0    0  501 -0.00000000000E+00  0.00000000000E+00  0.80091590399E+03  0.80091590399E+03  0.00000000000E+00 0.  1.
          2   -1    0    0  502    0  0.00000000000E+00 -0.00000000000E+00 -0.17581633431E+04  0.17581633431E+04  0.00000000000E+00 0. -1.
    9000010    2    1    2  502    0 -0.18273830322E+03  0.44768404137E+03 -0.10701017803E+04  0.14431825762E+04  0.83895401514E+03 0.  0.
   -9000010    2    1    2    0  501  0.18273830322E+03 -0.44768404137E+03  0.11285434121E+03  0.11158966709E+04  0.99933727516E+03 0.  0.
        -13    1    3    3    0    0  0.26377614688E+03 -0.50607717297E+02 -0.48477408266E+03  0.55420656717E+03  0.10566000000E+00 0.  1.
          4    1    3    3  502    0 -0.44651445010E+03  0.49829175867E+03 -0.58532769766E+03  0.88897600899E+03  0.00000000000E+00 0.  1.
         13    1    4    4    0    0  0.55906746113E+03 -0.86825039250E+02 -0.54306686000E+02  0.56836980993E+03  0.10566000000E+00 0. -1.
         -4    1    4    4    0  501 -0.37632915791E+03 -0.36085900212E+03  0.16716102721E+03  0.54752686101E+03  0.00000000000E+00 0. -1.
<mgrwt>
<rscale>  2 0.10368285E+04</rscale>
<asrwt>0</asrwt>
<pdfrwt beam="2">  1        2 0.27048667E+00 0.10368285E+04</pdfrwt>
<pdfrwt beam="1">  1       -2 0.12321783E+00 0.10368285E+04</pdfrwt>
<totfact> 0.67971368E+00</totfact>
</mgrwt>
</event>
<event>
 8    1  0.1408247E-005  0.2280040E+04  0.7818608E-02  0.8063049E-01
         -2   -1    0    0    0  501 -0.00000000000E+00  0.00000000000E+00  0.27018360443E+04  0.27018360443E+04  0.00000000000E+00 0. -1.
          2   -1    0    0  502    0  0.00000000000E+00 -0.00000000000E+00 -0.24116597582E+04  0.24116597582E+04  0.00000000000E+00 0.  1.
    9000010    2    1    2  502    0  0.40322414202E+03  0.19867340319E+04  0.12941230418E+04  0.26129570608E+04  0.10213169597E+04 0.  0.
   -9000010    2    1    2    0  501 -0.40322414202E+03 -0.19867340319E+04 -0.10039467557E+04  0.25005387417E+04  0.10654027821E+04 0.  0.
        -13    1    3    3    0    0  0.12311279508E+03  0.19473450237E+04  0.12720002538E+04  0.23292260643E+04  0.10566000000E+00 0.  1.
          4    1    3    3  502    0  0.28011134694E+03  0.39389008183E+02  0.22122788043E+02  0.28373099654E+03  0.00000000000E+00 0.  1.
         13    1    4    4    0    0  0.32891695481E+03 -0.10553786082E+04 -0.49093067144E+03  0.12095550029E+04  0.10566000000E+00 0. -1.
         -4    1    4    4    0  501 -0.73214109683E+03 -0.93135542371E+03 -0.51301608429E+03  0.12909837387E+04  0.00000000000E+00 0. -1.
<mgrwt>
<rscale>  2 0.22800404E+04</rscale>
<asrwt>0</asrwt>
<pdfrwt beam="2">  1        2 0.37102458E+00 0.22800404E+04</pdfrwt>
<pdfrwt beam="1">  1       -2 0.41566708E+00 0.22800404E+04</pdfrwt>
<totfact> 0.18875571E-02</totfact>
</mgrwt>
</event>
<event>
 8    1  0.1408247E-005  0.1207788E+04  0.7818608E-02  0.8600721E-01
         -1   -1    0    0    0  501 -0.00000000000E+00  0.00000000000E+00  0.73974467764E+03  0.73974467764E+03  0.00000000000E+00 0. -1.
          1   -1    0    0  502    0  0.00000000000E+00 -0.00000000000E+00 -0.19790527151E+04  0.19790527151E+04  0.00000000000E+00 0.  1.
    9000010    2    1    2  502    0 -0.55454931426E+03  0.33007846119E+03 -0.68473000503E+03  0.13683505021E+04  0.99350449637E+03 0.  0.
   -9000010    2    1    2    0  501  0.55454931426E+03 -0.33007846119E+03 -0.55457803243E+03  0.13504468907E+04  0.10486530780E+04 0.  0.
        -13    1    3    3    0    0 -0.25850277409E+03 -0.24626213276E+03 -0.62226974660E+03  0.71741784962E+03  0.10566000000E+00 0.  1.
          4    1    3    3  502    0 -0.29604654016E+03  0.57634059395E+03 -0.62460258425E+02  0.65093265247E+03  0.00000000000E+00 0.  1.
         13    1    4    4    0    0  0.76129025180E+03 -0.21458191572E+03 -0.71352537451E+03  0.10652355220E+04  0.10566000000E+00 0. -1.
         -4    1    4    4    0  501 -0.20674093755E+03 -0.11549654546E+03  0.15894734208E+03  0.28521136868E+03  0.00000000000E+00 0. -1.
<mgrwt>
<rscale>  2 0.12077883E+04</rscale>
<asrwt>0</asrwt>
<pdfrwt beam="2">  1        1 0.30446965E+00 0.12077883E+04</pdfrwt>
<pdfrwt beam="1">  1       -1 0.11380687E+00 0.12077883E+04</pdfrwt>
<totfact> 0.29270305E+00</totfact>
</mgrwt>
</event>
<event>
 8    1  0.1408247E-005  0.1758078E+04  0.7818608E-02  0.8274708E-01
          4   -1    0    0  502    0  0.00000000000E+00  0.00000000000E+00  0.17974088475E+04  0.17974088475E+04  0.00000000000E+00 0.  1.
         -4   -1    0    0    0  501 -0.00000000000E+00 -0.00000000000E+00 -0.18545175918E+04  0.18545175918E+04  0.00000000000E+00 0. -1.
    9000010    2    1    2  502    0  0.45209737255E+03  0.13733288076E+04  0.46392316765E+03  0.18191622274E+04  0.10018495177E+04 0.  0.
   -9000010    2    1    2    0  501 -0.45209737255E+03 -0.13733288076E+04 -0.52103191193E+03  0.18327642119E+04  0.99856214395E+03 0.  0.
        -13    1    3    3    0    0 -0.84396075387E+02  0.99339325527E+03  0.57730333760E+03  0.11520555594E+04  0.10566000000E+00 0.  1.
          4    1    3    3  502    0  0.53649344793E+03  0.37993555228E+03 -0.11338016994E+03  0.66710666801E+03  0.00000000000E+00 0.  1.
         13    1    4    4    0    0 -0.18442491485E+03 -0.10097225407E+04  0.13616047542E+03  0.10354186809E+04  0.10566000000E+00 0. -1.
         -4    1    4    4    0  501 -0.26767245769E+03 -0.36360626682E+03 -0.65719238735E+03  0.79734553104E+03  0.00000000000E+00 0. -1.
<mgrwt>
<rscale>  2 0.17580776E+04</rscale>
<asrwt>0</asrwt>
<pdfrwt beam="1">  1        4 0.27652444E+00 0.17580776E+04</pdfrwt>
<pdfrwt beam="2">  1       -4 0.28531040E+00 0.17580776E+04</pdfrwt>
<totfact> 0.68795244E-02</totfact>
</mgrwt>
</event>
<event>
 8    1  0.1408247E-005  0.1429671E+04  0.7818608E-02  0.8451160E-01
         -2   -1    0    0    0  501 -0.00000000000E+00  0.00000000000E+00  0.11792503973E+04  0.11792503973E+04  0.00000000000E+00 0.  1.
          2   -1    0    0  502    0  0.00000000000E+00 -0.00000000000E+00 -0.19473972669E+04  0.19473972669E+04  0.00000000000E+00 0. -1.
    9000010    2    1    2  502    0  0.24845871184E+03 -0.98732488990E+03  0.13486238429E+03  0.14337312779E+04  0.10004275810E+04 0.  0.
   -9000010    2    1    2    0  501 -0.24845871184E+03  0.98732488990E+03 -0.90300925384E+03  0.16929163863E+04  0.10069746814E+04 0.  0.
        -13    1    3    3    0    0  0.50788267303E+03 -0.10299521354E+04  0.24566661644E+02  0.11486295063E+04  0.10566000000E+00 0.  1.
          4    1    3    3  502    0 -0.25942396119E+03  0.42627245519E+02  0.11029572265E+03  0.28510177154E+03  0.00000000000E+00 0.  1.
         13    1    4    4    0    0 -0.71016543332E+02  0.74573111263E+03 -0.11024503220E+04  0.13328746998E+04  0.10566000000E+00 0. -1.
         -4    1    4    4    0  501 -0.17744216851E+03  0.24159377727E+03  0.19944106814E+03  0.36004168653E+03  0.00000000000E+00 0. -1.
<mgrwt>
<rscale>  2 0.14296707E+04</rscale>
<asrwt>0</asrwt>
<pdfrwt beam="2">  1        2 0.29959958E+00 0.14296707E+04</pdfrwt>
<pdfrwt beam="1">  1       -2 0.18142314E+00 0.14296707E+04</pdfrwt>
<totfact> 0.15773205E+00</totfact>
</mgrwt>
</event>
<event>
 8    1  0.1408247E-005  0.1163671E+04  0.7818608E-02  0.8634432E-01
         -2   -1    0    0    0  501 -0.00000000000E+00  0.00000000000E+00  0.48442867164E+03  0.48442867164E+03  0.00000000000E+00 0.  1.
          2   -1    0    0  502    0  0.00000000000E+00 -0.00000000000E+00 -0.28059269471E+04  0.28059269471E+04  0.00000000000E+00 0. -1.
    9000010    2    1    2  502    0 -0.19720313498E+03  0.62719004432E+03 -0.11003386196E+04  0.16244749920E+04  0.99795665916E+03 0.  0.
   -9000010    2    1    2    0  501  0.19720313498E+03 -0.62719004432E+03 -0.12211596559E+04  0.16658806268E+04  0.92286018956E+03 0.  0.
        -13    1    3    3    0    0  0.28555380721E+03  0.15097395682E+03  0.10315196035E+02  0.32317259612E+03  0.10566000000E+00 0.  1.
          4    1    3    3  502    0 -0.48275694219E+03  0.47621608750E+03 -0.11106538156E+04  0.13013023958E+04  0.00000000000E+00 0.  1.
         13    1    4    4    0    0 -0.23672090411E+03 -0.12114436787E+03  0.97040762771E+01  0.26609570565E+03  0.10566000000E+00 0. -1.
         -4    1    4    4    0  501  0.43392403908E+03 -0.50604567645E+03 -0.12308637321E+04  0.13997849211E+04  0.00000000000E+00 0. -1.
<mgrwt>
<rscale>  2 0.11636715E+04</rscale>
<asrwt>0</asrwt>
<pdfrwt beam="2">  1        2 0.43168107E+00 0.11636715E+04</pdfrwt>
<pdfrwt beam="1">  1       -2 0.74527488E-01 0.11636715E+04</pdfrwt>
<totfact> 0.57863552E+00</totfact>
</mgrwt>
</event>
<event>
 8    1  0.1408247E-005  0.1059684E+04  0.7818608E-02  0.8720448E-01
         -2   -1    0    0    0  501 -0.00000000000E+00  0.00000000000E+00  0.10174469311E+04  0.10174469311E+04  0.00000000000E+00 0. -1.
          2   -1    0    0  502    0  0.00000000000E+00 -0.00000000000E+00 -0.11122990741E+04  0.11122990741E+04  0.00000000000E+00 0.  1.
    9000010    2    1    2  502    0 -0.29774210015E+01 -0.40066190457E+03 -0.14128624101E+03  0.10728914127E+04  0.98518797935E+03 0.  0.
   -9000010    2    1    2    0  501  0.29774210015E+01  0.40066190457E+03  0.46434097965E+02  0.10568545926E+04  0.97685550497E+03 0.  0.
        -13    1    3    3    0    0  0.13050859827E+03  0.22785343957E+03 -0.31226848826E+03  0.40799669615E+03  0.10566000000E+00 0.  1.
          4    1    3    3  502    0 -0.13348601927E+03 -0.62851534414E+03  0.17098224725E+03  0.66489471650E+03  0.00000000000E+00 0.  1.
         13    1    4    4    0    0 -0.32428921235E+03 -0.11222604150E+03  0.23959039441E+03  0.41852329194E+03  0.10566000000E+00 0. -1.
         -4    1    4    4    0  501  0.32726663335E+03  0.51288794606E+03 -0.19315629644E+03  0.63833130064E+03  0.00000000000E+00 0. -1.
<mgrwt>
<rscale>  2 0.10596840E+04</rscale>
<asrwt>0</asrwt>
<pdfrwt beam="2">  1        2 0.17112293E+00 0.10596840E+04</pdfrwt>
<pdfrwt beam="1">  1       -2 0.15653030E+00 0.10596840E+04</pdfrwt>
<totfact> 0.77157541E+00</totfact>
</mgrwt>
</event>
<event>
 8    1  0.1408247E-005  0.1919396E+04  0.7818608E-02  0.8202022E-01
          1   -1    0    0  502    0  0.00000000000E+00  0.00000000000E+00  0.16463444807E+04  0.16463444807E+04  0.00000000000E+00 0. -1.
         -1   -1    0    0    0  501 -0.00000000000E+00 -0.00000000000E+00 -0.31709262711E+04  0.31709262711E+04  0.00000000000E+00 0.  1.
    9000010    2    1    2  502    0  0.15318357108E+04 -0.55149103612E+03 -0.20730394090E+04  0.28354319614E+04  0.10447578709E+04 0.  0.
   -9000010    2    1    2    0  501 -0.15318357108E+04  0.55149103612E+03  0.54845761864E+03  0.19818387903E+04  0.98803654976E+03 0.  0.
        -13    1    3    3    0    0  0.10970523919E+04  0.94822052633E+02 -0.87517045923E+03  0.14065697694E+04  0.10566000000E+00 0.  1.
          4    1    3    3  502    0  0.43478331887E+03 -0.64631308875E+03 -0.11978689498E+04  0.14288621921E+04  0.00000000000E+00 0.  1.
         13    1    4    4    0    0 -0.13330080486E+04  0.35755539467E+03  0.81005354972E+03  0.16002946862E+04  0.10566000000E+00 0. -1.
         -4    1    4    4    0  501 -0.19882766212E+03  0.19393564145E+03 -0.26159593108E+03  0.38154410414E+03  0.00000000000E+00 0. -1.
<mgrwt>
<rscale>  2 0.19193956E+04</rscale>
<asrwt>0</asrwt>
<pdfrwt beam="1">  1        1 0.25328377E+00 0.19193956E+04</pdfrwt>
<pdfrwt beam="2">  1       -1 0.48783481E+00 0.19193956E+04</pdfrwt>
<totfact> 0.59436647E-02</totfact>
</mgrwt>
</event>
<event>
 8    1  0.1408247E-005  0.1194950E+04  0.7818608E-02  0.8610375E-01
         -2   -1    0    0    0  501 -0.00000000000E+00  0.00000000000E+00  0.11444153619E+04  0.11444153619E+04  0.00000000000E+00 0.  1.
          2   -1    0    0  502    0  0.00000000000E+00 -0.00000000000E+00 -0.12548364602E+04  0.12548364602E+04  0.00000000000E+00 0. -1.
    9000010    2    1    2  502    0  0.31263068929E+03 -0.54978194816E+03 -0.14204813580E+03  0.11824612951E+04  0.98895849413E+03 0.  0.
   -9000010    2    1    2    0  501 -0.31263068929E+03  0.54978194816E+03  0.31627037449E+02  0.12167905270E+04  0.10390287670E+04 0.  0.
        -13    1    3    3    0    0  0.41918393154E+03  0.13959360689E+03  0.82899554643E+02  0.44952629608E+03  0.10566000000E+00 0.  1.
          4    1    3    3  502    0 -0.10655324226E+03 -0.68937555505E+03 -0.22494769044E+03  0.73293499901E+03  0.00000000000E+00 0.  1.
         13    1    4    4    0    0  0.27970779820E+03 -0.72010318645E+02  0.18699415983E+03  0.34407668526E+03  0.10566000000E+00 0. -1.
         -4    1    4    4    0  501 -0.59233848748E+03  0.62179226680E+03 -0.15536712238E+03  0.87271384172E+03  0.00000000000E+00 0. -1.
<mgrwt>
<rscale>  2 0.11949501E+04</rscale>
<asrwt>0</asrwt>
<pdfrwt beam="2">  1        2 0.19305176E+00 0.11949501E+04</pdfrwt>
<pdfrwt beam="1">  1       -2 0.17606390E+00 0.11949501E+04</pdfrwt>
<totfact> 0.43033376E+00</totfact>
</mgrwt>
</event>
<event>
 8    1  0.1408247E-005  0.1111241E+04  0.7818608E-02  0.8676576E-01
         -2   -1    0    0    0  501 -0.00000000000E+00  0.00000000000E+00  0.13709821472E+04  0.13709821472E+04  0.00000000000E+00 0.  1.
          2   -1    0    0  502    0  0.00000000000E+00 -0.00000000000E+00 -0.17988928863E+04  0.17988928863E+04  0.00000000000E+00 0. -1.
    9000010    2    1    2  502    0  0.24860735232E+03  0.37319233463E+03 -0.13345301596E+04  0.17411167074E+04  0.10244210598E+04 0.  0.
   -9000010    2    1    2    0  501 -0.24860735232E+03 -0.37319233463E+03  0.90661942056E+03  0.14287583260E+04  0.10091151798E+04 0.  0.
        -13    1    3    3    0    0  0.42008269470E+03  0.10328357149E+03 -0.13533336966E+04  0.14207917061E+04  0.10566000000E+00 0.  1.
          4    1    3    3  502    0 -0.17147534238E+03  0.26990876314E+03  0.18803537014E+02  0.32032500132E+03  0.00000000000E+00 0.  1.
         13    1    4    4    0    0 -0.53527389843E+02 -0.64677761137E+03  0.25823285927E+03  0.69847740179E+03  0.10566000000E+00 0. -1.
         -4    1    4    4    0  501 -0.19507996248E+03  0.27358527674E+03  0.64838656128E+03  0.73028092421E+03  0.00000000000E+00 0. -1.
<mgrwt>
<rscale>  2 0.11112408E+04</rscale>
<asrwt>0</asrwt>
<pdfrwt beam="2">  1        2 0.27675275E+00 0.11112408E+04</pdfrwt>
<pdfrwt beam="1">  1       -2 0.21092033E+00 0.11112408E+04</pdfrwt>
<totfact> 0.11242759E+00</totfact>
</mgrwt>
</event>
<event>
 8    1  0.1408247E-005  0.1101253E+04  0.7818608E-02  0.8684878E-01
          2   -1    0    0  502    0  0.00000000000E+00  0.00000000000E+00  0.17475255654E+04  0.17475255654E+04  0.00000000000E+00 0.  1.
         -2   -1    0    0    0  501 -0.00000000000E+00 -0.00000000000E+00 -0.80249566818E+03  0.80249566818E+03  0.00000000000E+00 0. -1.
    9000010    2    1    2  502    0  0.53546317754E+02 -0.46953512181E+03  0.94449214554E+03  0.14574709421E+04  0.10044031538E+04 0.  0.
   -9000010    2    1    2    0  501 -0.53546317754E+02  0.46953512181E+03  0.53775170525E+00  0.10925502915E+04  0.98505604490E+03 0.  0.
        -13    1    3    3    0    0  0.52316872779E+02 -0.15671720253E+03  0.10970580099E+04  0.11094294142E+04  0.10566000000E+00 0.  1.
          4    1    3    3  502    0  0.12294449756E+01 -0.31281791928E+03 -0.15256586439E+03  0.34804152789E+03  0.00000000000E+00 0.  1.
         13    1    4    4    0    0 -0.49554176691E+03  0.80426646175E+02  0.30220657911E+02  0.50293477460E+03  0.10566000000E+00 0. -1.
         -4    1    4    4    0  501  0.44199544916E+03  0.38910847563E+03 -0.29682906206E+02  0.58961551693E+03  0.00000000000E+00 0. -1.
<mgrwt>
<rscale>  2 0.11012531E+04</rscale>
<asrwt>0</asrwt>
<pdfrwt beam="1">  1        2 0.26885009E+00 0.11012531E+04</pdfrwt>
<pdfrwt beam="2">  1       -2 0.12346087E+00 0.11012531E+04</pdfrwt>
<totfact> 0.68005590E+00</totfact>
</mgrwt>
</event>
<event>
 8    1  0.1408247E-005  0.1264341E+04  0.7818608E-02  0.8559625E-01
         -1   -1    0    0    0  501 -0.00000000000E+00  0.00000000000E+00  0.91753304087E+03  0.91753304087E+03  0.00000000000E+00 0.  1.
          1   -1    0    0  502    0  0.00000000000E+00 -0.00000000000E+00 -0.17940416133E+04  0.17940416133E+04  0.00000000000E+00 0. -1.
    9000010    2    1    2  502    0 -0.22109826722E+02 -0.76593621829E+03 -0.66856749862E+03  0.14300226506E+04  0.10054029770E+04 0.  0.
   -9000010    2    1    2    0  501  0.22109826722E+02  0.76593621829E+03 -0.20794107379E+03  0.12815520035E+04  0.10059765965E+04 0.  0.
        -13    1    3    3    0    0  0.40754815568E+03 -0.46683213973E+03 -0.66154421388E+03  0.90645932284E+03  0.10566000000E+00 0.  1.
          4    1    3    3  502    0 -0.42965798240E+03 -0.29910407856E+03 -0.70232847350E+01  0.52356332777E+03  0.00000000000E+00 0.  1.
         13    1    4    4    0    0  0.37831987214E+03  0.62355918649E+03  0.16364097729E+03  0.74748268564E+03  0.10566000000E+00 0. -1.
         -4    1    4    4    0  501 -0.35621004542E+03  0.14237703180E+03 -0.37158205109E+03  0.53406931791E+03  0.00000000000E+00 0. -1.
<mgrwt>
<rscale>  2 0.12643414E+04</rscale>
<asrwt>0</asrwt>
<pdfrwt beam="2">  1        1 0.27600640E+00 0.12643414E+04</pdfrwt>
<pdfrwt beam="1">  1       -1 0.14115893E+00 0.12643414E+04</pdfrwt>
<totfact> 0.22963168E+00</totfact>
</mgrwt>
</event>
<event>
 8    1  0.1408247E-005  0.1109481E+04  0.7818608E-02  0.8678032E-01
          2   -1    0    0  502    0  0.00000000000E+00  0.00000000000E+00  0.12468535543E+04  0.12468535543E+04  0.00000000000E+00 0. -1.
         -2   -1    0    0    0  501 -0.00000000000E+00 -0.00000000000E+00 -0.99009187942E+03  0.99009187942E+03  0.00000000000E+00 0.  1.
    9000010    2    1    2  502    0  0.59806937183E+02  0.51717003332E+03  0.73212253401E+02  0.11298383011E+04  0.10000664175E+04 0.  0.
   -9000010    2    1    2    0  501 -0.59806937183E+02 -0.51717003332E+03  0.18354942152E+03  0.11071071327E+04  0.95966353479E+03 0.  0.
        -13    1    3    3    0    0 -0.29876966867E+03 -0.43023780107E+02 -0.24851019849E+03  0.39098809507E+03  0.10566000000E+00 0.  1.
          4    1    3    3  502    0  0.35857660585E+03  0.56019381343E+03  0.32172245190E+03  0.73885020601E+03  0.00000000000E+00 0.  1.
         13    1    4    4    0    0 -0.29900267381E+03 -0.68848878700E+03  0.27437587625E+03  0.79918805134E+03  0.10566000000E+00 0. -1.
         -4    1    4    4    0  501  0.23919573662E+03  0.17131875368E+03 -0.90826454727E+02  0.30791908135E+03  0.00000000000E+00 0. -1.
<mgrwt>
<rscale>  2 0.11094813E+04</rscale>
<asrwt>0</asrwt>
<pdfrwt beam="1">  1        2 0.19182362E+00 0.11094813E+04</pdfrwt>
<pdfrwt beam="2">  1       -2 0.15232183E+00 0.11094813E+04</pdfrwt>
<totfact> 0.70004128E+00</totfact>
</mgrwt>
</event>
<event>
 8    1  0.1408247E-005  0.1096178E+04  0.7818608E-02  0.8689133E-01
          2   -1    0    0  502    0  0.00000000000E+00  0.00000000000E+00  0.41043603093E+04  0.41043603093E+04  0.00000000000E+00 0.  1.
         -2   -1    0    0    0  501 -0.00000000000E+00 -0.00000000000E+00 -0.34812389332E+03  0.34812389332E+03  0.00000000000E+00 0. -1.
    9000010    2    1    2  502    0 -0.74895212810E+02 -0.45215030083E+03  0.99319857204E+03  0.14806747638E+04  0.99795048239E+03 0.  0.
   -9000010    2    1    2    0  501  0.74895212810E+02  0.45215030083E+03  0.27630378440E+04  0.29718094388E+04  0.99359147842E+03 0.  0.
        -13    1    3    3    0    0  0.20655428354E+02  0.16837410380E+03  0.80868437648E+03  0.82628500983E+03  0.10566000000E+00 0.  1.
          4    1    3    3  502    0 -0.95550641164E+02 -0.62052440464E+03  0.18451419557E+03  0.65438975400E+03  0.00000000000E+00 0.  1.
         13    1    4    4    0    0 -0.43832764746E+03  0.20339572787E+03  0.16755990074E+04  0.17438844553E+04  0.10566000000E+00 0. -1.
         -4    1    4    4    0  501  0.51322286027E+03  0.24875457297E+03  0.10874388365E+04  0.12279249835E+04  0.00000000000E+00 0. -1.
<mgrwt>
<rscale>  2 0.10961779E+04</rscale>
<asrwt>0</asrwt>
<pdfrwt beam="1">  1        2 0.63144001E+00 0.10961779E+04</pdfrwt>
<pdfrwt beam="2">  1       -2 0.53557525E-01 0.10961779E+04</pdfrwt>
<totfact> 0.12821211E+00</totfact>
</mgrwt>
</event>
<event>
 8    1  0.1408247E-005  0.1159333E+04  0.7818608E-02  0.8637832E-01
         -2   -1    0    0    0  501 -0.00000000000E+00  0.00000000000E+00  0.59878583117E+03  0.59878583117E+03  0.00000000000E+00 0.  1.
          2   -1    0    0  502    0  0.00000000000E+00 -0.00000000000E+00 -0.23339094720E+04  0.23339094720E+04  0.00000000000E+00 0. -1.
    9000010    2    1    2  502    0  0.75867242322E+02 -0.60900512001E+03 -0.56367452292E+03  0.12656305018E+04  0.95260092628E+03 0.  0.
   -9000010    2    1    2    0  501 -0.75867242322E+02  0.60900512001E+03 -0.11714491179E+04  0.16670648013E+04  0.10149723845E+04 0.  0.
        -13    1    3    3    0    0  0.43241105188E+03 -0.30241242880E+03  0.50362059349E+01  0.52769116860E+03  0.10566000000E+00 0.  1.
          4    1    3    3  502    0 -0.35654380956E+03 -0.30659269121E+03 -0.56871072886E+03  0.73793933325E+03  0.00000000000E+00 0.  1.
         13    1    4    4    0    0  0.37929049632E+03  0.31307843898E+03 -0.97080308512E+03  0.10882729578E+04  0.10566000000E+00 0. -1.
         -4    1    4    4    0  501 -0.45515773864E+03  0.29592668103E+03 -0.20064603279E+03  0.57879184347E+03  0.00000000000E+00 0. -1.
<mgrwt>
<rscale>  2 0.11593325E+04</rscale>
<asrwt>0</asrwt>
<pdfrwt beam="2">  1        2 0.35906300E+00 0.11593325E+04</pdfrwt>
<pdfrwt beam="1">  1       -2 0.92120896E-01 0.11593325E+04</pdfrwt>
<totfact> 0.66976006E+00</totfact>
</mgrwt>
</event>
<event>
 8    1  0.1408247E-005  0.1209958E+04  0.7818608E-02  0.8599101E-01
          2   -1    0    0  502    0  0.00000000000E+00  0.00000000000E+00  0.22726310548E+04  0.22726310548E+04  0.00000000000E+00 0. -1.
         -2   -1    0    0    0  501 -0.00000000000E+00 -0.00000000000E+00 -0.64531512836E+03  0.64531512836E+03  0.00000000000E+00 0.  1.
    9000010    2    1    2  502    0  0.12423364717E+03  0.71496504977E+03  0.77786011206E+03  0.14600319582E+04  0.10000089717E+04 0.  0.
   -9000010    2    1    2    0  501 -0.12423364717E+03 -0.71496504977E+03  0.84945581438E+03  0.14579142250E+04  0.93665878806E+03 0.  0.
        -13    1    3    3    0    0 -0.44862454933E+02 -0.24763753198E+03  0.10092582649E+03  0.27115128752E+03  0.10566000000E+00 0.  1.
          4    1    3    3  502    0  0.16909610210E+03  0.96260258175E+03  0.67693428556E+03  0.11888806707E+04  0.00000000000E+00 0.  1.
         13    1    4    4    0    0  0.40552796468E+03 -0.24719051498E+03  0.28914361909E+03  0.55602169423E+03  0.10566000000E+00 0. -1.
         -4    1    4    4    0  501 -0.52976161185E+03 -0.46777453480E+03  0.56031219529E+03  0.90189253073E+03  0.00000000000E+00 0. -1.
<mgrwt>
<rscale>  2 0.12099579E+04</rscale>
<asrwt>0</asrwt>
<pdfrwt beam="1">  1        2 0.34963554E+00 0.12099579E+04</pdfrwt>
<pdfrwt beam="2">  1       -2 0.99279252E-01 0.12099579E+04</pdfrwt>
<totfact> 0.60318356E+00</totfact>
</mgrwt>
</event>
<event>
 8    1  0.1408247E-005  0.1145343E+04  0.7818608E-02  0.8648897E-01
         -2   -1    0    0    0  501 -0.00000000000E+00  0.00000000000E+00  0.10665423687E+04  0.10665423687E+04  0.00000000000E+00 0.  1.
          2   -1    0    0  502    0  0.00000000000E+00 -0.00000000000E+00 -0.16344273121E+04  0.16344273121E+04  0.00000000000E+00 0. -1.
    9000010    2    1    2  502    0 -0.24769858675E+03  0.48794362692E+03  0.38704923860E+03  0.12130371690E+04  0.10110432667E+04 0.  0.
   -9000010    2    1    2    0  501  0.24769858675E+03 -0.48794362692E+03 -0.95493418204E+03  0.14879325118E+04  0.10012993033E+04 0.  0.
        -13    1    3    3    0    0  0.32004240475E+03 -0.13701784542E+01  0.33257159812E+03  0.46155486918E+03  0.10566000000E+00 0.  1.
          4    1    3    3  502    0 -0.56774099150E+03  0.48931380538E+03  0.54477640477E+02  0.75148229978E+03  0.00000000000E+00 0.  1.
         13    1    4    4    0    0 -0.13405882403E+03 -0.62096491297E+01  0.16362259934E+03  0.21161921988E+03  0.10566000000E+00 0. -1.
         -4    1    4    4    0  501  0.38175741079E+03 -0.48173397779E+03 -0.11185567814E+04  0.12763132920E+04  0.00000000000E+00 0. -1.
<mgrwt>
<rscale>  2 0.11453433E+04</rscale>
<asrwt>0</asrwt>
<pdfrwt beam="2">  1        2 0.25145035E+00 0.11453433E+04</pdfrwt>
<pdfrwt beam="1">  1       -2 0.16408344E+00 0.11453433E+04</pdfrwt>
<totfact> 0.33698973E+00</totfact>
</mgrwt>
</event>
<event>
 8    1  0.1408247E-005  0.1268202E+04  0.7818608E-02  0.8556901E-01
         -1   -1    0    0    0  501 -0.00000000000E+00  0.00000000000E+00  0.27762133079E+04  0.27762133079E+04  0.00000000000E+00 0. -1.
          1   -1    0    0  502    0  0.00000000000E+00 -0.00000000000E+00 -0.78954028738E+03  0.78954028738E+03  0.00000000000E+00 0.  1.
    9000010    2    1    2  502    0 -0.77145380907E+03 -0.42756284085E+02  0.73781035276E+02  0.12710308660E+04  0.10065320372E+04 0.  0.
   -9000010    2    1    2    0  501  0.77145380907E+03  0.42756284085E+02  0.19128919853E+04  0.22947227293E+04  0.10048022580E+04 0.  0.
        -13    1    3    3    0    0 -0.19567322814E+03 -0.49710881470E+03  0.38469673662E+01  0.53424713026E+03  0.10566000000E+00 0.  1.
          4    1    3    3  502    0 -0.57578058093E+03  0.45435253062E+03  0.69934067910E+02  0.73678373578E+03  0.00000000000E+00 0.  1.
         13    1    4    4    0    0  0.28080802451E+03  0.48329562755E+03  0.11990467104E+04  0.13229288851E+04  0.10566000000E+00 0. -1.
         -4    1    4    4    0  501  0.49064578456E+03 -0.44053934347E+03  0.71384527487E+03  0.97179384414E+03  0.00000000000E+00 0. -1.
<mgrwt>
<rscale>  2 0.12682016E+04</rscale>
<asrwt>0</asrwt>
<pdfrwt beam="2">  1        1 0.12146774E+00 0.12682016E+04</pdfrwt>
<pdfrwt beam="1">  1       -1 0.42710974E+00 0.12682016E+04</pdfrwt>
<totfact> 0.35357549E-01</totfact>
</mgrwt>
</event>
<event>
 8    1  0.1408247E-005  0.1134558E+04  0.7818608E-02  0.8657541E-01
         -2   -1    0    0    0  501 -0.00000000000E+00  0.00000000000E+00  0.54347867974E+03  0.54347867974E+03  0.00000000000E+00 0.  1.
          2   -1    0    0  502    0  0.00000000000E+00 -0.00000000000E+00 -0.23703551277E+04  0.23703551277E+04  0.00000000000E+00 0. -1.
    9000010    2    1    2  502    0  0.72684159505E+02  0.50157380294E+03 -0.95627563321E+03  0.14857620216E+04  0.10179226058E+04 0.  0.
   -9000010    2    1    2    0  501 -0.72684159505E+02 -0.50157380294E+03 -0.87060081475E+03  0.14280717858E+04  0.10122173580E+04 0.  0.
        -13    1    3    3    0    0  0.43036492914E+03  0.25506147116E+03 -0.92328887697E+03  0.10501107979E+04  0.10566000000E+00 0.  1.
          4    1    3    3  502    0 -0.35768076964E+03  0.24651233178E+03 -0.32986756243E+02  0.43565122377E+03  0.00000000000E+00 0.  1.
         13    1    4    4    0    0  0.11826711532E+00  0.29918262999E+03 -0.38924839579E+03  0.49094254741E+03  0.10566000000E+00 0. -1.
         -4    1    4    4    0  501 -0.72802426620E+02 -0.80075643293E+03 -0.48135241896E+03  0.93712923839E+03  0.00000000000E+00 0. -1.
<mgrwt>
<rscale>  2 0.11345578E+04</rscale>
<asrwt>0</asrwt>
<pdfrwt beam="2">  1        2 0.36467002E+00 0.11345578E+04</pdfrwt>
<pdfrwt beam="1">  1       -2 0.83612105E-01 0.11345578E+04</pdfrwt>
<totfact> 0.80058971E+00</totfact>
</mgrwt>
</event>
<event>
 8    1  0.1408247E-005  0.1177330E+04  0.7818608E-02  0.8623832E-01
          1   -1    0    0  502    0  0.00000000000E+00  0.00000000000E+00  0.33171841644E+04  0.33171841644E+04  0.00000000000E+00 0.  1.
         -1   -1    0    0    0  501 -0.00000000000E+00 -0.00000000000E+00 -0.46612872037E+03  0.46612872037E+03  0.00000000000E+00 0. -1.
    9000010    2    1    2  502    0  0.56350586317E+03 -0.26888174111E+03  0.82162474529E+03  0.14393191528E+04  0.10033624236E+04 0.  0.
   -9000010    2    1    2    0  501 -0.56350586317E+03  0.26888174111E+03  0.20294306987E+04  0.23439937319E+04  0.99291560857E+03 0.  0.
        -13    1    3    3    0    0  0.19704738595E+03  0.36750045540E+03  0.14705652577E+03  0.44216500310E+03  0.10566000000E+00 0.  1.
          4    1    3    3  502    0  0.36645847722E+03 -0.63638219651E+03  0.67456821953E+03  0.99715414975E+03  0.00000000000E+00 0.  1.
         13    1    4    4    0    0  0.13639929291E+03  0.30941922196E+02 -0.40834024469E+02  0.14570380356E+03  0.10566000000E+00 0. -1.
         -4    1    4    4    0  501 -0.69990515608E+03  0.23793981891E+03  0.20702647232E+04  0.21982899284E+04  0.00000000000E+00 0. -1.
<mgrwt>
<rscale>  2 0.11773299E+04</rscale>
<asrwt>0</asrwt>
<pdfrwt beam="1">  1        1 0.51033601E+00 0.11773299E+04</pdfrwt>
<pdfrwt beam="2">  1       -1 0.71712113E-01 0.11773299E+04</pdfrwt>
<totfact> 0.39119543E-01</totfact>
</mgrwt>
</event>
<event>
 8    1  0.1408247E-005  0.1216208E+04  0.7818608E-02  0.8594456E-01
          2   -1    0    0  502    0  0.00000000000E+00  0.00000000000E+00  0.15893827249E+04  0.15893827249E+04  0.00000000000E+00 0. -1.
         -2   -1    0    0    0  501 -0.00000000000E+00 -0.00000000000E+00 -0.11136649871E+04  0.11136649871E+04  0.00000000000E+00 0.  1.
    9000010    2    1    2  502    0 -0.24852634308E+03 -0.65184013372E+03  0.78875808598E+03  0.14678990714E+04  0.10227059511E+04 0.  0.
   -9000010    2    1    2    0  501  0.24852634308E+03  0.65184013372E+03 -0.31304034814E+03  0.12351486406E+04  0.97001907284E+03 0.  0.
        -13    1    3    3    0    0 -0.31613328378E+03 -0.88520543616E+03  0.78542229060E+03  0.12249151412E+04  0.10566000000E+00 0.  1.
          4    1    3    3  502    0  0.67606940701E+02  0.23336530244E+03  0.33357953778E+01  0.24298393022E+03  0.00000000000E+00 0.  1.
         13    1    4    4    0    0  0.20806732569E+03  0.43268401710E+02  0.30179453011E+03  0.36911260636E+03  0.10566000000E+00 0. -1.
         -4    1    4    4    0  501  0.40459017387E+02  0.60857173201E+03 -0.61483487825E+03  0.86603603424E+03  0.00000000000E+00 0. -1.
<mgrwt>
<rscale>  2 0.12162080E+04</rscale>
<asrwt>0</asrwt>
<pdfrwt beam="1">  1        2 0.24452042E+00 0.12162080E+04</pdfrwt>
<pdfrwt beam="2">  1       -2 0.17133307E+00 0.12162080E+04</pdfrwt>
<totfact> 0.30723524E+00</totfact>
</mgrwt>
</event>
<event>
 8    1  0.1408247E-005  0.1696347E+04  0.7818608E-02  0.8304672E-01
         -2   -1    0    0    0  501 -0.00000000000E+00  0.00000000000E+00  0.28019387180E+04  0.28019387180E+04  0.00000000000E+00 0.  1.
          2   -1    0    0  502    0  0.00000000000E+00 -0.00000000000E+00 -0.10473216397E+04  0.10473216397E+04  0.00000000000E+00 0. -1.
    9000010    2    1    2  502    0 -0.48796524891E+03  0.12843057874E+04  0.11454474974E+04  0.20469406373E+04  0.99517062030E+03 0.  0.
   -9000010    2    1    2    0  501  0.48796524891E+03 -0.12843057874E+04  0.60916958086E+03  0.18023197204E+04  0.99484539322E+03 0.  0.
        -13    1    3    3    0    0 -0.40674771677E+03  0.45421567510E+00  0.22195665708E+03  0.46336668006E+03  0.10566000000E+00 0.  1.
          4    1    3    3  502    0 -0.81217532142E+02  0.12838515718E+04  0.92349084035E+03  0.15835739572E+04  0.00000000000E+00 0.  1.
         13    1    4    4    0    0 -0.26506454792E+03 -0.83272318780E+02  0.12094844495E+03  0.30302150277E+03  0.10566000000E+00 0. -1.
         -4    1    4    4    0  501  0.75302979683E+03 -0.12010334687E+04  0.48822113591E+03  0.14992982176E+04  0.00000000000E+00 0. -1.
<mgrwt>
<rscale>  2 0.16963468E+04</rscale>
<asrwt>0</asrwt>
<pdfrwt beam="2">  1        2 0.16112641E+00 0.16963468E+04</pdfrwt>
<pdfrwt beam="1">  1       -2 0.43106749E+00 0.16963468E+04</pdfrwt>
<totfact> 0.10337216E-01</totfact>
</mgrwt>
</event>
<event>
 8    1  0.1408247E-005  0.1223724E+04  0.7818608E-02  0.8588908E-01
         -2   -1    0    0    0  501 -0.00000000000E+00  0.00000000000E+00  0.38584937094E+03  0.38584937094E+03  0.00000000000E+00 0.  1.
          2   -1    0    0  502    0  0.00000000000E+00 -0.00000000000E+00 -0.42953669570E+04  0.42953669570E+04  0.00000000000E+00 0. -1.
    9000010    2    1    2  502    0  0.34676214025E+03 -0.56525922228E+03 -0.12259409992E+04  0.17312512817E+04  0.10269068588E+04 0.  0.
   -9000010    2    1    2    0  501 -0.34676214025E+03  0.56525922228E+03 -0.26835765868E+04  0.29499650462E+04  0.10300235465E+04 0.  0.
        -13    1    3    3    0    0 -0.22923934627E+03 -0.51623962323E+03 -0.29974236931E+03  0.63945252020E+03  0.10566000000E+00 0.  1.
          4    1    3    3  502    0  0.57600148652E+03 -0.49019599055E+02 -0.92619862993E+03  0.10917987615E+04  0.00000000000E+00 0.  1.
         13    1    4    4    0    0 -0.53745059801E+03 -0.87286263660E+02 -0.12433891645E+04  0.13573830199E+04  0.10566000000E+00 0. -1.
         -4    1    4    4    0  501  0.19068845776E+03  0.65254548594E+03 -0.14401874223E+04  0.15925820263E+04  0.00000000000E+00 0. -1.
<mgrwt>
<rscale>  2 0.12237245E+04</rscale>
<asrwt>0</asrwt>
<pdfrwt beam="2">  1        2 0.66082572E+00 0.12237245E+04</pdfrwt>
<pdfrwt beam="1">  1       -2 0.59361439E-01 0.12237245E+04</pdfrwt>
<totfact> 0.68789320E-01</totfact>
</mgrwt>
</event>
<event>
 8    1  0.1408247E-005  0.1121954E+04  0.7818608E-02  0.8667770E-01
         -1   -1    0    0    0  501 -0.00000000000E+00  0.00000000000E+00  0.10720061775E+04  0.10720061775E+04  0.00000000000E+00 0. -1.
          1   -1    0    0  502    0  0.00000000000E+00 -0.00000000000E+00 -0.12938288189E+04  0.12938288189E+04  0.00000000000E+00 0.  1.
    9000010    2    1    2  502    0 -0.23497445181E+03  0.45730144493E+03  0.24894374184E+03  0.11469285264E+04  0.99455238853E+03 0.  0.
   -9000010    2    1    2    0  501  0.23497445181E+03 -0.45730144493E+03 -0.47076638316E+03  0.12189064700E+04  0.99988718893E+03 0.  0.
        -13    1    3    3    0    0 -0.48816906097E+03  0.35266423021E+03 -0.18826829277E+03  0.63097230731E+03  0.10566000000E+00 0.  1.
          4    1    3    3  502    0  0.25319460916E+03  0.10463721472E+03  0.43721203461E+03  0.51595621909E+03  0.00000000000E+00 0.  1.
         13    1    4    4    0    0  0.55155875786E+03 -0.45027964635E+03 -0.54138639134E+03  0.89446523643E+03  0.10566000000E+00 0. -1.
         -4    1    4    4    0  501 -0.31658430605E+03 -0.70217985818E+01  0.70620008187E+02  0.32444123358E+03  0.00000000000E+00 0. -1.
<mgrwt>
<rscale>  2 0.11219540E+04</rscale>
<asrwt>0</asrwt>
<pdfrwt beam="2">  1        1 0.19905059E+00 0.11219540E+04</pdfrwt>
<pdfrwt beam="1">  1       -1 0.16492403E+00 0.11219540E+04</pdfrwt>
<totfact> 0.34412558E+00</totfact>
</mgrwt>
</event>
<event>
 8    1  0.1408247E-005  0.1890119E+04  0.7818608E-02  0.8214658E-01
         -2   -1    0    0    0  501 -0.00000000000E+00  0.00000000000E+00  0.18842736875E+04  0.18842736875E+04  0.00000000000E+00 0. -1.
          2   -1    0    0  502    0  0.00000000000E+00 -0.00000000000E+00 -0.35609550280E+04  0.35609550280E+04  0.00000000000E+00 0.  1.
    9000010    2    1    2  502    0 -0.56369678225E+03  0.15051055056E+04 -0.27002636791E+04  0.32966305894E+04  0.99662062026E+03 0.  0.
   -9000010    2    1    2    0  501  0.56369678225E+03 -0.15051055056E+04  0.10235823386E+04  0.21485981261E+04  0.99280232574E+03 0.  0.
        -13    1    3    3    0    0 -0.67261158831E+03  0.14806235575E+04 -0.27330480257E+04  0.31802836335E+04  0.10566000000E+00 0.  1.
          4    1    3    3  502    0  0.10891480606E+03  0.24481948092E+02  0.32784346548E+02  0.11634695587E+03  0.00000000000E+00 0.  1.
         13    1    4    4    0    0  0.20069015021E+03 -0.69063076423E+03  0.10307537223E+04  0.12568614228E+04  0.10566000000E+00 0. -1.
         -4    1    4    4    0  501  0.36300663205E+03 -0.81447474138E+03 -0.71713836420E+01  0.89173670329E+03  0.00000000000E+00 0. -1.
<mgrwt>
<rscale>  2 0.18901188E+04</rscale>
<asrwt>0</asrwt>
<pdfrwt beam="2">  1        2 0.54783923E+00 0.18901188E+04</pdfrwt>
<pdfrwt beam="1">  1       -2 0.28988826E+00 0.18901188E+04</pdfrwt>
<totfact> 0.21491242E-02</totfact>
</mgrwt>
</event>
<event>
 8    1  0.1408247E-005  0.1405178E+04  0.7818608E-02  0.8466249E-01
          2   -1    0    0  502    0  0.00000000000E+00  0.00000000000E+00  0.69374745656E+03  0.69374745656E+03  0.00000000000E+00 0. -1.
         -2   -1    0    0    0  501 -0.00000000000E+00 -0.00000000000E+00 -0.28704362448E+04  0.28704362448E+04  0.00000000000E+00 0.  1.
    9000010    2    1    2  502    0 -0.27587805394E+03  0.97726152179E+03 -0.12675735168E+04  0.19101912453E+04  0.10054547183E+04 0.  0.
   -9000010    2    1    2    0  501  0.27587805394E+03 -0.97726152179E+03 -0.90911527142E+03  0.16539924560E+04  0.93704412132E+03 0.  0.
        -13    1    3    3    0    0  0.20471648300E+03  0.68878449805E+03 -0.11197867431E+04  0.13305094079E+04  0.10566000000E+00 0.  1.
          4    1    3    3  502    0 -0.48059453694E+03  0.28847702373E+03 -0.14778677365E+03  0.57968183741E+03  0.00000000000E+00 0.  1.
         13    1    4    4    0    0 -0.33878466902E+03 -0.35221382814E+03 -0.20653013921E+03  0.53055097989E+03  0.10566000000E+00 0. -1.
         -4    1    4    4    0  501  0.61466272296E+03 -0.62504769364E+03 -0.70258513221E+03  0.11234414761E+04  0.00000000000E+00 0. -1.
<mgrwt>
<rscale>  2 0.14051785E+04</rscale>
<asrwt>0</asrwt>
<pdfrwt beam="1">  1        2 0.10673038E+00 0.14051785E+04</pdfrwt>
<pdfrwt beam="2">  1       -2 0.44160557E+00 0.14051785E+04</pdfrwt>
<totfact> 0.17686677E-01</totfact>
</mgrwt>
</event>
<event>
 8    1  0.1408247E-005  0.1093966E+04  0.7818608E-02  0.8690994E-01
         -2   -1    0    0    0  501 -0.00000000000E+00  0.00000000000E+00  0.59711367866E+03  0.59711367866E+03  0.00000000000E+00 0. -1.
          2   -1    0    0  502    0  0.00000000000E+00 -0.00000000000E+00 -0.26297428110E+04  0.26297428110E+04  0.00000000000E+00 0.  1.
    9000010    2    1    2  502    0 -0.40375514096E+03 -0.26017487116E+03 -0.18068069398E+04  0.21148644603E+04  0.98863096766E+03 0.  0.
   -9000010    2    1    2    0  501  0.40375514096E+03  0.26017487116E+03 -0.22582219253E+03  0.11119920294E+04  0.97714964734E+03 0.  0.
        -13    1    3    3    0    0 -0.27764348469E+03 -0.39900730132E+02 -0.18378689113E+04  0.18591503756E+04  0.10566000000E+00 0.  1.
          4    1    3    3  502    0 -0.12611165627E+03 -0.22027414103E+03  0.31061971443E+02  0.25571408472E+03  0.00000000000E+00 0.  1.
         13    1    4    4    0    0 -0.17019110651E+03 -0.25322062891E+03 -0.14469641834E+03  0.33767256964E+03  0.10566000000E+00 0. -1.
         -4    1    4    4    0  501  0.57394624747E+03  0.51339550007E+03 -0.81125774184E+02  0.77431945973E+03  0.00000000000E+00 0. -1.
<mgrwt>
<rscale>  2 0.10939663E+04</rscale>
<asrwt>0</asrwt>
<pdfrwt beam="2">  1        2 0.40457582E+00 0.10939663E+04</pdfrwt>
<pdfrwt beam="1">  1       -2 0.91863642E-01 0.10939663E+04</pdfrwt>
<totfact> 0.46427535E+00</totfact>
</mgrwt>
</event>
<event>
 8    1  0.1408247E-005  0.1349722E+04  0.7818608E-02  0.8501613E-01
         -2   -1    0    0    0  501 -0.00000000000E+00  0.00000000000E+00  0.24749225144E+04  0.24749225144E+04  0.00000000000E+00 0. -1.
          2   -1    0    0  502    0  0.00000000000E+00 -0.00000000000E+00 -0.88419171279E+03  0.88419171279E+03  0.00000000000E+00 0.  1.
    9000010    2    1    2  502    0  0.81138233699E+03  0.35153392055E+03  0.11797277762E+03  0.13744839846E+04  0.10456439420E+04 0.  0.
   -9000010    2    1    2    0  501 -0.81138233699E+03 -0.35153392055E+03  0.14727580240E+04  0.19846302426E+04  0.99389315749E+03 0.  0.
        -13    1    3    3    0    0  0.28901257164E+03  0.68721748023E+03  0.19330806202E+02  0.74576794175E+03  0.10566000000E+00 0.  1.
          4    1    3    3  502    0  0.52236976535E+03 -0.33568355968E+03  0.98641971419E+02  0.62871604283E+03  0.00000000000E+00 0.  1.
         13    1    4    4    0    0 -0.28387971018E+03 -0.63029093923E+03  0.10350515739E+04  0.12446630587E+04  0.10566000000E+00 0. -1.
         -4    1    4    4    0  501 -0.52750262681E+03  0.27875701868E+03  0.43770645003E+03  0.73996718384E+03  0.00000000000E+00 0. -1.
<mgrwt>
<rscale>  2 0.13497224E+04</rscale>
<asrwt>0</asrwt>
<pdfrwt beam="2">  1        2 0.13602949E+00 0.13497224E+04</pdfrwt>
<pdfrwt beam="1">  1       -2 0.38075731E+00 0.13497224E+04</pdfrwt>
<totfact> 0.19894798E-01</totfact>
</mgrwt>
</event>
<event>
 8    1  0.1408247E-005  0.1440548E+04  0.7818608E-02  0.8444558E-01
          1   -1    0    0  502    0  0.00000000000E+00  0.00000000000E+00  0.21727829395E+04  0.21727829395E+04  0.00000000000E+00 0.  1.
         -1   -1    0    0    0  501 -0.00000000000E+00 -0.00000000000E+00 -0.96297746195E+03  0.96297746195E+03  0.00000000000E+00 0. -1.
    9000010    2    1    2  502    0 -0.56995125843E+03 -0.85509955640E+03  0.46333753621E+03  0.15142088575E+04  0.10109931272E+04 0.  0.
   -9000010    2    1    2    0  501  0.56995125843E+03  0.85509955640E+03  0.74646794134E+03  0.16215515440E+04  0.10080552237E+04 0.  0.
        -13    1    3    3    0    0 -0.23153081291E+02  0.13594132812E+03  0.35058146605E+03  0.37672733557E+03  0.10566000000E+00 0.  1.
          4    1    3    3  502    0 -0.54679817714E+03 -0.99104088453E+03  0.11275607016E+03  0.11374815219E+04  0.00000000000E+00 0.  1.
         13    1    4    4    0    0  0.32528118490E+03  0.10668143159E+04  0.55787286594E+03  0.12470456205E+04  0.10566000000E+00 0. -1.
         -4    1    4    4    0  501  0.24467007354E+03 -0.21171475948E+03  0.18859507540E+03  0.37450592349E+03  0.00000000000E+00 0. -1.
<mgrwt>
<rscale>  2 0.14405481E+04</rscale>
<asrwt>0</asrwt>
<pdfrwt beam="1">  1        1 0.33427430E+00 0.14405481E+04</pdfrwt>
<pdfrwt beam="2">  1       -1 0.14815038E+00 0.14405481E+04</pdfrwt>
<totfact> 0.10013548E+00</totfact>
</mgrwt>
</event>
<event>
 8    1  0.1408247E-005  0.1267056E+04  0.7818608E-02  0.8557709E-01
         -2   -1    0    0    0  501 -0.00000000000E+00  0.00000000000E+00  0.58524701717E+03  0.58524701717E+03  0.00000000000E+00 0.  1.
          2   -1    0    0  502    0  0.00000000000E+00 -0.00000000000E+00 -0.29515440117E+04  0.29515440117E+04  0.00000000000E+00 0. -1.
    9000010    2    1    2  502    0  0.61464309625E+03  0.47925194865E+03 -0.69639098077E+03  0.14280757764E+04  0.97312458560E+03 0.  0.
   -9000010    2    1    2    0  501 -0.61464309625E+03 -0.47925194865E+03 -0.16699060137E+04  0.21087152524E+04  0.10250001731E+04 0.  0.
        -13    1    3    3    0    0  0.49763780070E+03 -0.17664489972E+03 -0.51491068594E+03  0.73754988099E+03  0.10566000000E+00 0.  1.
          4    1    3    3  502    0  0.11700529555E+03  0.65589684836E+03 -0.18148029483E+03  0.69052589545E+03  0.00000000000E+00 0.  1.
         13    1    4    4    0    0 -0.86666884682E+03 -0.39403108827E+03 -0.15450840236E+04  0.18148443569E+04  0.10566000000E+00 0. -1.
         -4    1    4    4    0  501  0.25202575057E+03 -0.85220860373E+02 -0.12482199007E+03  0.29387089546E+03  0.00000000000E+00 0. -1.
<mgrwt>
<rscale>  2 0.12670559E+04</rscale>
<asrwt>0</asrwt>
<pdfrwt beam="2">  1        2 0.45408370E+00 0.12670559E+04</pdfrwt>
<pdfrwt beam="1">  1       -2 0.90038002E-01 0.12670559E+04</pdfrwt>
<totfact> 0.30680014E+00</totfact>
</mgrwt>
</event>
<event>
 8    1  0.1408247E-005  0.1222442E+04  0.7818608E-02  0.8589852E-01
          4   -1    0    0  502    0  0.00000000000E+00  0.00000000000E+00  0.14316403224E+04  0.14316403224E+04  0.00000000000E+00 0. -1.
         -4   -1    0    0    0  501 -0.00000000000E+00 -0.00000000000E+00 -0.10877129145E+04  0.10877129145E+04  0.00000000000E+00 0.  1.
    9000010    2    1    2  502    0  0.68768725778E+03  0.10783409009E+03 -0.81396994999E+02  0.12228884905E+04  0.10021421226E+04 0.  0.
   -9000010    2    1    2    0  501 -0.68768725778E+03 -0.10783409009E+03  0.42532440293E+03  0.12964647463E+04  0.10076596823E+04 0.  0.
        -13    1    3    3    0    0  0.36592505174E+03 -0.30202289772E+03 -0.39270882528E+03  0.61590519307E+03  0.10566000000E+00 0.  1.
          4    1    3    3  502    0  0.32176220604E+03  0.40985698780E+03  0.31131183028E+03  0.60698329743E+03  0.00000000000E+00 0.  1.
         13    1    4    4    0    0 -0.69927717419E+03  0.29802078134E+03  0.46079744317E+03  0.88889777098E+03  0.10566000000E+00 0. -1.
         -4    1    4    4    0  501  0.11589916402E+02 -0.40585487143E+03 -0.35473040242E+02  0.40756697537E+03  0.00000000000E+00 0. -1.
<mgrwt>
<rscale>  2 0.12224423E+04</rscale>
<asrwt>0</asrwt>
<pdfrwt beam="1">  1        4 0.22025236E+00 0.12224423E+04</pdfrwt>
<pdfrwt beam="2">  1       -4 0.16734045E+00 0.12224423E+04</pdfrwt>
<totfact> 0.20391062E-01</totfact>
</mgrwt>
</event>
<event>
 8    1  0.1408247E-005  0.1318572E+04  0.7818608E-02  0.8522252E-01
         -1   -1    0    0    0  501 -0.00000000000E+00  0.00000000000E+00  0.71912469044E+03  0.71912469044E+03  0.00000000000E+00 0.  1.
          1   -1    0    0  502    0  0.00000000000E+00 -0.00000000000E+00 -0.32633171693E+04  0.32633171693E+04  0.00000000000E+00 0. -1.
    9000010    2    1    2  502    0  0.57725584410E+03  0.67811032214E+03 -0.24560974734E+03  0.13231947997E+04  0.94734492743E+03 0.  0.
   -9000010    2    1    2    0  501 -0.57725584410E+03 -0.67811032214E+03 -0.22985827315E+04  0.26592470600E+04  0.99752415210E+03 0.  0.
        -13    1    3    3    0    0  0.40330442699E+03  0.40976805029E+03 -0.61008629399E+03  0.83831355300E+03  0.10566000000E+00 0.  1.
          4    1    3    3  502    0  0.17395141711E+03  0.26834227185E+03  0.36447654665E+03  0.48488124673E+03  0.00000000000E+00 0.  1.
         13    1    4    4    0    0 -0.57686695011E+03 -0.91236578724E+03 -0.16705762765E+04  0.19889725776E+04  0.10566000000E+00 0. -1.
         -4    1    4    4    0  501 -0.38889398877E+00  0.23425546510E+03 -0.62800645504E+03  0.67027448239E+03  0.00000000000E+00 0. -1.
<mgrwt>
<rscale>  2 0.13185719E+04</rscale>
<asrwt>0</asrwt>
<pdfrwt beam="2">  1        1 0.50204879E+00 0.13185719E+04</pdfrwt>
<pdfrwt beam="1">  1       -1 0.11063457E+00 0.13185719E+04</pdfrwt>
<totfact> 0.18091107E-01</totfact>
</mgrwt>
</event>
<event>
 8    1  0.1408247E-005  0.1129194E+04  0.7818608E-02  0.8661878E-01
          4   -1    0    0  502    0  0.00000000000E+00  0.00000000000E+00  0.66762664204E+03  0.66762664204E+03  0.00000000000E+00 0.  1.
         -4   -1    0    0    0  501 -0.00000000000E+00 -0.00000000000E+00 -0.21190424665E+04  0.21190424665E+04  0.00000000000E+00 0. -1.
    9000010    2    1    2  502    0  0.90156839762E+02  0.50415865744E+03 -0.28014173723E+03  0.11498727413E+04  0.99066832021E+03 0.  0.
   -9000010    2    1    2    0  501 -0.90156839762E+02 -0.50415865744E+03 -0.11712740872E+04  0.16367963672E+04  0.10222109140E+04 0.  0.
        -13    1    3    3    0    0  0.49975905583E+03  0.85209256283E+02 -0.24457502683E+03  0.56288247988E+03  0.10566000000E+00 0.  1.
          4    1    3    3  502    0 -0.40960221607E+03  0.41894940115E+03 -0.35566710400E+02  0.58699026144E+03  0.00000000000E+00 0.  1.
         13    1    4    4    0    0 -0.14768429167E+03  0.22306218188E+03 -0.74571553463E+03  0.79224936525E+03  0.10566000000E+00 0. -1.
         -4    1    4    4    0  501  0.57527451908E+02 -0.72722083931E+03 -0.42555855262E+03  0.84454700198E+03  0.00000000000E+00 0. -1.
<mgrwt>
<rscale>  2 0.11291937E+04</rscale>
<asrwt>0</asrwt>
<pdfrwt beam="1">  1        4 0.10271179E+00 0.11291937E+04</pdfrwt>
<pdfrwt beam="2">  1       -4 0.32600653E+00 0.11291937E+04</pdfrwt>
<totfact> 0.24086725E-01</totfact>
</mgrwt>
</event>
<event>
 8    1  0.1408247E-005  0.1800641E+04  0.7818608E-02  0.8254776E-01
         -2   -1    0    0    0  501 -0.00000000000E+00  0.00000000000E+00  0.40910958273E+04  0.40910958273E+04  0.00000000000E+00 0. -1.
          2   -1    0    0  502    0  0.00000000000E+00 -0.00000000000E+00 -0.12394831034E+04  0.12394831034E+04  0.00000000000E+00 0.  1.
    9000010    2    1    2  502    0  0.17191152160E+03 -0.14809844386E+04 -0.17529627787E+03  0.18079698064E+04  0.10075502752E+04 0.  0.
   -9000010    2    1    2    0  501 -0.17191152160E+03  0.14809844386E+04  0.30269090017E+04  0.35226091243E+04  0.10117946727E+04 0.  0.
        -13    1    3    3    0    0  0.50918122410E+03 -0.68313938629E+03  0.18153301294E+03  0.87114819980E+03  0.10566000000E+00 0.  1.
          4    1    3    3  502    0 -0.33726970249E+03 -0.79784505232E+03 -0.35682929080E+03  0.93682160655E+03  0.00000000000E+00 0.  1.
         13    1    4    4    0    0 -0.59760665388E+03  0.86637432265E+03  0.16938299593E+04  0.19941910946E+04  0.10566000000E+00 0. -1.
         -4    1    4    4    0  501  0.42569513227E+03  0.61461011595E+03  0.13330790424E+04  0.15284180297E+04  0.00000000000E+00 0. -1.
<mgrwt>
<rscale>  2 0.18006412E+04</rscale>
<asrwt>0</asrwt>
<pdfrwt beam="2">  1        2 0.19068971E+00 0.18006412E+04</pdfrwt>
<pdfrwt beam="1">  1       -2 0.62939935E+00 0.18006412E+04</pdfrwt>
<totfact> 0.10301711E-01</totfact>
</mgrwt>
</event>
<event>
 8    1  0.1408247E-005  0.9809633E+03  0.7818608E-02  0.8792686E-01
          1   -1    0    0  502    0  0.00000000000E+00  0.00000000000E+00  0.10226444692E+04  0.10226444692E+04  0.00000000000E+00 0.  1.
         -1   -1    0    0    0  501 -0.00000000000E+00 -0.00000000000E+00 -0.10333343097E+04  0.10333343097E+04  0.00000000000E+00 0. -1.
    9000010    2    1    2  502    0 -0.39042052423E+03  0.84126967627E+02  0.28476706176E+03  0.11187344851E+04  0.10054695601E+04 0.  0.
   -9000010    2    1    2    0  501  0.39042052423E+03 -0.84126967627E+02 -0.29545690230E+03  0.93724429378E+03  0.79474936469E+03 0.  0.
        -13    1    3    3    0    0  0.14852989982E+03  0.41672482782E+03  0.58703800692E+02  0.44628114529E+03  0.10566000000E+00 0.  1.
          4    1    3    3  502    0 -0.53895042404E+03 -0.33259786019E+03  0.22606326107E+03  0.67245333978E+03  0.00000000000E+00 0.  1.
         13    1    4    4    0    0  0.40370859711E+03 -0.31311897648E+03  0.59777525178E+02  0.51439040475E+03  0.10566000000E+00 0. -1.
         -4    1    4    4    0  501 -0.13288072886E+02  0.22899200885E+03 -0.35523442748E+03  0.42285388903E+03  0.00000000000E+00 0. -1.
<mgrwt>
<rscale>  2 0.98096327E+03</rscale>
<asrwt>0</asrwt>
<pdfrwt beam="1">  1        1 0.15732992E+00 0.98096327E+03</pdfrwt>
<pdfrwt beam="2">  1       -1 0.15897451E+00 0.98096327E+03</pdfrwt>
<totfact> 0.64068857E+00</totfact>
</mgrwt>
</event>
<event>
 8    1  0.1408247E-005  0.1390698E+04  0.7818608E-02  0.8475319E-01
         -1   -1    0    0    0  501 -0.00000000000E+00  0.00000000000E+00  0.46582187015E+03  0.46582187015E+03  0.00000000000E+00 0.  1.
          1   -1    0    0  502    0  0.00000000000E+00 -0.00000000000E+00 -0.45401890310E+04  0.45401890310E+04  0.00000000000E+00 0. -1.
    9000010    2    1    2  502    0  0.54236975341E+03  0.88612292410E+03 -0.12433149309E+04  0.18289034002E+04  0.84833769454E+03 0.  0.
   -9000010    2    1    2    0  501 -0.54236975341E+03 -0.88612292410E+03 -0.28310522299E+04  0.31771075009E+04  0.99988827256E+03 0.  0.
        -13    1    3    3    0    0  0.28151333150E+02  0.82214161647E+03 -0.73883970248E+03  0.11057094791E+04  0.10566000000E+00 0.  1.
          4    1    3    3  502    0  0.51421842026E+03  0.63981307633E+02 -0.50447522842E+03  0.72319392112E+03  0.00000000000E+00 0.  1.
         13    1    4    4    0    0 -0.27117455340E+03 -0.45448268296E+03 -0.32791364604E+03  0.62258936543E+03  0.10566000000E+00 0. -1.
         -4    1    4    4    0  501 -0.27119520001E+03 -0.43164024114E+03 -0.25031385839E+04  0.25545181355E+04  0.00000000000E+00 0. -1.
<mgrwt>
<rscale>  2 0.13906982E+04</rscale>
<asrwt>0</asrwt>
<pdfrwt beam="2">  1        1 0.69849063E+00 0.13906982E+04</pdfrwt>
<pdfrwt beam="1">  1       -1 0.71664902E-01 0.13906982E+04</pdfrwt>
<totfact> 0.55054847E-02</totfact>
</mgrwt>
</event>
<event>
 8    1  0.1408247E-005  0.1273059E+04  0.7818608E-02  0.8553488E-01
          2   -1    0    0  502    0  0.00000000000E+00  0.00000000000E+00  0.26042683463E+04  0.26042683463E+04  0.00000000000E+00 0. -1.
         -2   -1    0    0    0  501 -0.00000000000E+00 -0.00000000000E+00 -0.67599473576E+03  0.67599473576E+03  0.00000000000E+00 0.  1.
    9000010    2    1    2  502    0  0.93010232497E+02  0.79725992482E+03  0.14199998919E+04  0.19012368996E+04  0.97674344856E+03 0.  0.
   -9000010    2    1    2    0  501 -0.93010232497E+02 -0.79725992482E+03  0.50827371863E+03  0.13790261825E+04  0.99954827186E+03 0.  0.
        -13    1    3    3    0    0  0.38261922785E+03  0.86957861138E+03  0.94335174041E+03  0.13388341765E+04  0.10566000000E+00 0.  1.
          4    1    3    3  502    0 -0.28960899535E+03 -0.72318686564E+02  0.47664815145E+03  0.56240272305E+03  0.00000000000E+00 0.  1.
         13    1    4    4    0    0 -0.67671893030E+02 -0.10377034134E+04  0.42315088767E+03  0.11227041214E+04  0.10566000000E+00 0. -1.
         -4    1    4    4    0  501 -0.25338339467E+02  0.24044348857E+03  0.85122830957E+02  0.25632206107E+03  0.00000000000E+00 0. -1.
<mgrwt>
<rscale>  2 0.12730593E+04</rscale>
<asrwt>0</asrwt>
<pdfrwt beam="1">  1        2 0.40065666E+00 0.12730593E+04</pdfrwt>
<pdfrwt beam="2">  1       -2 0.10399919E+00 0.12730593E+04</pdfrwt>
<totfact> 0.34959756E+00</totfact>
</mgrwt>
</event>
<event>
 8    1  0.1408247E-005  0.1199066E+04  0.7818608E-02  0.8607266E-01
          1   -1    0    0  502    0  0.00000000000E+00  0.00000000000E+00  0.71986894268E+03  0.71986894268E+03  0.00000000000E+00 0.  1.
         -1   -1    0    0    0  501 -0.00000000000E+00 -0.00000000000E+00 -0.27554377512E+04  0.27554377512E+04  0.00000000000E+00 0. -1.
    9000010    2    1    2  502    0  0.47193857856E+03  0.46056561917E+03 -0.19246956318E+04  0.22637718844E+04  0.99265460153E+03 0.  0.
   -9000010    2    1    2    0  501 -0.47193857856E+03 -0.46056561917E+03 -0.11087317676E+03  0.12115348095E+04  0.10102856140E+04 0.  0.
        -13    1    3    3    0    0  0.52751558652E+03  0.66907183514E+03 -0.18476650736E+04  0.20346488764E+04  0.10566000000E+00 0.  1.
          4    1    3    3  502    0 -0.55577007959E+02 -0.20850621597E+03 -0.77030558166E+02  0.22912300802E+03  0.00000000000E+00 0.  1.
         13    1    4    4    0    0 -0.73850006523E+02  0.32054210271E+03 -0.10496331105E+02  0.32910674135E+03  0.10566000000E+00 0. -1.
         -4    1    4    4    0  501 -0.39808857204E+03 -0.78110772188E+03 -0.10037684565E+03  0.88242806818E+03  0.00000000000E+00 0. -1.
<mgrwt>
<rscale>  2 0.11990656E+04</rscale>
<asrwt>0</asrwt>
<pdfrwt beam="1">  1        1 0.11074907E+00 0.11990656E+04</pdfrwt>
<pdfrwt beam="2">  1       -1 0.42391351E+00 0.11990656E+04</pdfrwt>
<totfact> 0.41246708E-01</totfact>
</mgrwt>
</event>
<event>
 8    1  0.1408247E-005  0.1264362E+04  0.7818608E-02  0.8559611E-01
          1   -1    0    0  502    0  0.00000000000E+00  0.00000000000E+00  0.26724556609E+04  0.26724556609E+04  0.00000000000E+00 0. -1.
         -1   -1    0    0    0  501 -0.00000000000E+00 -0.00000000000E+00 -0.66021382395E+03  0.66021382395E+03  0.00000000000E+00 0.  1.
    9000010    2    1    2  502    0  0.59753009880E+03 -0.50519745715E+03  0.49848903114E+03  0.13631093094E+04  0.99865358629E+03 0.  0.
   -9000010    2    1    2    0  501 -0.59753009880E+03  0.50519745715E+03  0.15137528058E+04  0.19695601755E+04  0.98765026102E+03 0.  0.
        -13    1    3    3    0    0  0.17584313957E+03 -0.69010152863E+02  0.69904971893E+03  0.72412273243E+03  0.10566000000E+00 0.  1.
          4    1    3    3  502    0  0.42168695923E+03 -0.43618730429E+03 -0.20056068778E+03  0.63898657693E+03  0.00000000000E+00 0.  1.
         13    1    4    4    0    0 -0.11183028689E+03  0.50553114014E+03  0.13676325727E+04  0.14623565269E+04  0.10566000000E+00 0. -1.
         -4    1    4    4    0  501 -0.48569981191E+03 -0.33368299205E+00  0.14612023315E+03  0.50720364862E+03  0.00000000000E+00 0. -1.
<mgrwt>
<rscale>  2 0.12643616E+04</rscale>
<asrwt>0</asrwt>
<pdfrwt beam="1">  1        1 0.41114702E+00 0.12643616E+04</pdfrwt>
<pdfrwt beam="2">  1       -1 0.10157136E+00 0.12643616E+04</pdfrwt>
<totfact> 0.96953205E-01</totfact>
</mgrwt>
</event>
<event>
 8    1  0.1408247E-005  0.1266384E+04  0.7818608E-02  0.8558182E-01
         -2   -1    0    0    0  501 -0.00000000000E+00  0.00000000000E+00  0.82027831291E+03  0.82027831291E+03  0.00000000000E+00 0.  1.
          2   -1    0    0  502    0  0.00000000000E+00 -0.00000000000E+00 -0.20361766303E+04  0.20361766303E+04  0.00000000000E+00 0. -1.
    9000010    2    1    2  502    0 -0.79611082690E+03  0.49285773673E+01 -0.88487047681E+03  0.15317155528E+04  0.96402283914E+03 0.  0.
   -9000010    2    1    2    0  501  0.79611082690E+03 -0.49285773673E+01 -0.33102784059E+03  0.13247393904E+04  0.10057525947E+04 0.  0.
        -13    1    3    3    0    0 -0.10694820536E+02  0.23242341263E+02  0.19479389638E+03  0.19646694084E+03  0.10566000000E+00 0.  1.
          4    1    3    3  502    0 -0.78541600636E+03 -0.18313763895E+02 -0.10796643732E+04  0.13352486120E+04  0.00000000000E+00 0.  1.
         13    1    4    4    0    0  0.62313166358E+03 -0.63888551233E+02 -0.68386267581E+03  0.92738502666E+03  0.10566000000E+00 0. -1.
         -4    1    4    4    0  501  0.17297916332E+03  0.58959973866E+02  0.35283483522E+03  0.39735436377E+03  0.00000000000E+00 0. -1.
<mgrwt>
<rscale>  2 0.12663844E+04</rscale>
<asrwt>0</asrwt>
<pdfrwt beam="2">  1        2 0.31325794E+00 0.12663844E+04</pdfrwt>
<pdfrwt beam="1">  1       -2 0.12619666E+00 0.12663844E+04</pdfrwt>
<totfact> 0.43860286E+00</totfact>
</mgrwt>
</event>
<event>
 8    1  0.1408247E-005  0.1330057E+04  0.7818608E-02  0.8514575E-01
         -2   -1    0    0    0  501 -0.00000000000E+00  0.00000000000E+00  0.13382098075E+04  0.13382098075E+04  0.00000000000E+00 0. -1.
          2   -1    0    0  502    0  0.00000000000E+00 -0.00000000000E+00 -0.18072008638E+04  0.18072008638E+04  0.00000000000E+00 0.  1.
    9000010    2    1    2  502    0 -0.85673614271E+03  0.17560861727E+03  0.57963893446E+03  0.14564104969E+04  0.10101064481E+04 0.  0.
   -9000010    2    1    2    0  501  0.85673614271E+03 -0.17560861727E+03 -0.10486299908E+04  0.16890001744E+04  0.99411343758E+03 0.  0.
        -13    1    3    3    0    0 -0.42977475904E+03  0.12825009661E+01  0.82778978715E+03  0.93270784879E+03  0.10566000000E+00 0.  1.
          4    1    3    3  502    0 -0.42696138367E+03  0.17432611630E+03 -0.24815085269E+03  0.52370264813E+03  0.00000000000E+00 0.  1.
         13    1    4    4    0    0 -0.84849226362E+02 -0.25051787096E+03 -0.57375643293E+03  0.63178718756E+03  0.10566000000E+00 0. -1.
         -4    1    4    4    0  501  0.94158536907E+03  0.74909253688E+02 -0.47487355790E+03  0.10572129868E+04  0.00000000000E+00 0. -1.
<mgrwt>
<rscale>  2 0.13300567E+04</rscale>
<asrwt>0</asrwt>
<pdfrwt beam="2">  1        2 0.27803090E+00 0.13300567E+04</pdfrwt>
<pdfrwt beam="1">  1       -2 0.20587843E+00 0.13300567E+04</pdfrwt>
<totfact> 0.11911027E+00</totfact>
</mgrwt>
</event>
<event>
 8    1  0.1408247E-005  0.1132248E+04  0.7818608E-02  0.8659406E-01
         -2   -1    0    0    0  501 -0.00000000000E+00  0.00000000000E+00  0.14801726853E+04  0.14801726853E+04  0.00000000000E+00 0.  1.
          2   -1    0    0  502    0  0.00000000000E+00 -0.00000000000E+00 -0.99961001768E+03  0.99961001768E+03  0.00000000000E+00 0. -1.
    9000010    2    1    2  502    0 -0.52895361874E+03 -0.10258604345E+03 -0.21279998856E+03  0.11523021615E+04  0.99609267095E+03 0.  0.
   -9000010    2    1    2    0  501  0.52895361874E+03  0.10258604345E+03  0.69336265616E+03  0.13274805415E+04  0.99555863111E+03 0.  0.
        -13    1    3    3    0    0 -0.62868013832E+03 -0.28083247760E+03  0.17813877196E+03  0.71122361465E+03  0.10566000000E+00 0.  1.
          4    1    3    3  502    0  0.99726519576E+02  0.17824643415E+03 -0.39093876052E+03  0.44107854683E+03  0.00000000000E+00 0.  1.
         13    1    4    4    0    0  0.34707779504E+03 -0.29953756206E+03  0.75354773878E+03  0.88205439326E+03  0.10566000000E+00 0. -1.
         -4    1    4    4    0  501  0.18187582370E+03  0.40212360551E+03 -0.60185082613E+02  0.44542614823E+03  0.00000000000E+00 0. -1.
<mgrwt>
<rscale>  2 0.11322476E+04</rscale>
<asrwt>0</asrwt>
<pdfrwt beam="2">  1        2 0.15378616E+00 0.11322476E+04</pdfrwt>
<pdfrwt beam="1">  1       -2 0.22771887E+00 0.11322476E+04</pdfrwt>
<totfact> 0.22918803E+00</totfact>
</mgrwt>
</event>
<event>
 8    1  0.1408247E-005  0.1188665E+04  0.7818608E-02  0.8615147E-01
         -2   -1    0    0    0  501 -0.00000000000E+00  0.00000000000E+00  0.88548738129E+03  0.88548738129E+03  0.00000000000E+00 0.  1.
          2   -1    0    0  502    0  0.00000000000E+00 -0.00000000000E+00 -0.16129171979E+04  0.16129171979E+04  0.00000000000E+00 0. -1.
    9000010    2    1    2  502    0 -0.19861106615E+03  0.63880452284E+03 -0.49061847198E+03  0.12794033548E+04  0.97398608063E+03 0.  0.
   -9000010    2    1    2    0  501  0.19861106615E+03 -0.63880452284E+03 -0.23681134466E+03  0.12190012244E+04  0.99114418637E+03 0.  0.
        -13    1    3    3    0    0  0.40758648971E+01 -0.20178902231E+03  0.10686163350E+03  0.22837434636E+03  0.10566000000E+00 0.  1.
          4    1    3    3  502    0 -0.20268693105E+03  0.84059354515E+03 -0.59748010549E+03  0.10510290085E+04  0.00000000000E+00 0.  1.
         13    1    4    4    0    0  0.25128916420E+03 -0.14062260875E+03  0.34621280053E+03  0.45031575206E+03  0.10566000000E+00 0. -1.
         -4    1    4    4    0  501 -0.52678098049E+02 -0.49818191409E+03 -0.58302414519E+03  0.76868547236E+03  0.00000000000E+00 0. -1.
<mgrwt>
<rscale>  2 0.11886652E+04</rscale>
<asrwt>0</asrwt>
<pdfrwt beam="2">  1        2 0.24814111E+00 0.11886652E+04</pdfrwt>
<pdfrwt beam="1">  1       -2 0.13622883E+00 0.11886652E+04</pdfrwt>
<totfact> 0.60700191E+00</totfact>
</mgrwt>
</event>
<event>
 8    1  0.1408247E-005  0.1175545E+04  0.7818608E-02  0.8625209E-01
         -1   -1    0    0    0  501 -0.00000000000E+00  0.00000000000E+00  0.92565794250E+03  0.92565794250E+03  0.00000000000E+00 0.  1.
          1   -1    0    0  502    0  0.00000000000E+00 -0.00000000000E+00 -0.16253338002E+04  0.16253338002E+04  0.00000000000E+00 0. -1.
    9000010    2    1    2  502    0 -0.28021225450E+03 -0.58219120844E+03  0.17073670582E+02  0.11647326380E+04  0.96894019271E+03 0.  0.
   -9000010    2    1    2    0  501  0.28021225450E+03  0.58219120844E+03 -0.71674952833E+03  0.13862591047E+04  0.99524816421E+03 0.  0.
        -13    1    3    3    0    0  0.67035496615E+02  0.23668912340E+03  0.11185092278E+03  0.27023348984E+03  0.10566000000E+00 0.  1.
          4    1    3    3  502    0 -0.34724775111E+03 -0.81888033184E+03 -0.94777252199E+02  0.89449914816E+03  0.00000000000E+00 0.  1.
         13    1    4    4    0    0  0.47936557680E+03  0.76546264285E+03 -0.63313624237E+03  0.11029895405E+04  0.10566000000E+00 0. -1.
         -4    1    4    4    0  501 -0.19915332230E+03 -0.18327143441E+03 -0.83613285961E+02  0.28326956427E+03  0.00000000000E+00 0. -1.
<mgrwt>
<rscale>  2 0.11755450E+04</rscale>
<asrwt>0</asrwt>
<pdfrwt beam="2">  1        1 0.25005135E+00 0.11755450E+04</pdfrwt>
<pdfrwt beam="1">  1       -1 0.14240891E+00 0.11755450E+04</pdfrwt>
<totfact> 0.30268138E+00</totfact>
</mgrwt>
</event>
<event>
 8    1  0.1408247E-005  0.1055151E+04  0.7818608E-02  0.8724430E-01
         -2   -1    0    0    0  501 -0.00000000000E+00  0.00000000000E+00  0.59158154182E+03  0.59158154182E+03  0.00000000000E+00 0. -1.
          2   -1    0    0  502    0  0.00000000000E+00 -0.00000000000E+00 -0.19767804771E+04  0.19767804771E+04  0.00000000000E+00 0.  1.
    9000010    2    1    2  502    0  0.35741317641E+03 -0.24102611000E+02 -0.97810019792E+03  0.14439524659E+04  0.99999680607E+03 0.  0.
   -9000010    2    1    2    0  501 -0.35741317641E+03  0.24102611000E+02 -0.40709873737E+03  0.11244095530E+04  0.98500880524E+03 0.  0.
        -13    1    3    3    0    0  0.74618247452E+02  0.16757629330E+03 -0.10736501226E+04  0.10892081040E+04  0.10566000000E+00 0.  1.
          4    1    3    3  502    0  0.28279492896E+03 -0.19167890430E+03  0.95549924680E+02  0.35474436191E+03  0.00000000000E+00 0.  1.
         13    1    4    4    0    0 -0.61157687850E+03  0.16011482641E+03 -0.81873610396E+01  0.63224210552E+03  0.10566000000E+00 0. -1.
         -4    1    4    4    0  501  0.25416370209E+03 -0.13601221541E+03 -0.39891137633E+03  0.49216744749E+03  0.00000000000E+00 0. -1.
<mgrwt>
<rscale>  2 0.10551510E+04</rscale>
<asrwt>0</asrwt>
<pdfrwt beam="2">  1        2 0.30412007E+00 0.10551510E+04</pdfrwt>
<pdfrwt beam="1">  1       -2 0.91012544E-01 0.10551510E+04</pdfrwt>
<totfact> 0.10920788E+01</totfact>
</mgrwt>
</event>
<event>
 8    1  0.1408247E-005  0.1095848E+04  0.7818608E-02  0.8689410E-01
          1   -1    0    0  502    0  0.00000000000E+00  0.00000000000E+00  0.18032938117E+04  0.18032938117E+04  0.00000000000E+00 0.  1.
         -1   -1    0    0    0  501 -0.00000000000E+00 -0.00000000000E+00 -0.66732445457E+03  0.66732445457E+03  0.00000000000E+00 0. -1.
    9000010    2    1    2  502    0  0.20359071321E+03 -0.39477708934E+03  0.62454023408E+03  0.12617422874E+04  0.10023197928E+04 0.  0.
   -9000010    2    1    2    0  501 -0.20359071321E+03  0.39477708934E+03  0.51142912308E+03  0.12088759789E+04  0.10012608330E+04 0.  0.
        -13    1    3    3    0    0  0.12617407504E+02  0.31097434257E+03  0.37914607777E+03  0.49052624818E+03  0.10566000000E+00 0.  1.
          4    1    3    3  502    0  0.19097330571E+03 -0.70575143191E+03  0.24539415632E+03  0.77121603918E+03  0.00000000000E+00 0.  1.
         13    1    4    4    0    0 -0.23463741796E+03  0.31437263099E+02 -0.26241250881E+03  0.35341668800E+03  0.10566000000E+00 0. -1.
         -4    1    4    4    0  501  0.31046704747E+02  0.36333982624E+03  0.77384163188E+03  0.85545929093E+03  0.00000000000E+00 0. -1.
<mgrwt>
<rscale>  2 0.10958475E+04</rscale>
<asrwt>0</asrwt>
<pdfrwt beam="1">  1        1 0.27742982E+00 0.10958475E+04</pdfrwt>
<pdfrwt beam="2">  1       -1 0.10266530E+00 0.10958475E+04</pdfrwt>
<totfact> 0.50865938E+00</totfact>
</mgrwt>
</event>
<event>
 8    1  0.1408247E-005  0.1177878E+04  0.7818608E-02  0.8623409E-01
         -2   -1    0    0    0  501 -0.00000000000E+00  0.00000000000E+00  0.73548001039E+03  0.73548001039E+03  0.00000000000E+00 0.  1.
          2   -1    0    0  502    0  0.00000000000E+00 -0.00000000000E+00 -0.21776915921E+04  0.21776915921E+04  0.00000000000E+00 0. -1.
    9000010    2    1    2  502    0 -0.52253201526E+03 -0.37345574671E+03 -0.12574525974E+04  0.17277168484E+04  0.99564530417E+03 0.  0.
   -9000010    2    1    2    0  501  0.52253201526E+03  0.37345574671E+03 -0.18475898428E+03  0.11854547541E+04  0.97911091813E+03 0.  0.
        -13    1    3    3    0    0 -0.38816495662E+01 -0.21404190065E+02  0.16858734475E+03  0.16998503031E+03  0.10566000000E+00 0.  1.
          4    1    3    3  502    0 -0.51865036569E+03 -0.35205155664E+03 -0.14260399422E+04  0.15577318181E+04  0.00000000000E+00 0.  1.
         13    1    4    4    0    0  0.79212949075E+03  0.20429265686E+03 -0.12183536752E+01  0.81805019119E+03  0.10566000000E+00 0. -1.
         -4    1    4    4    0  501 -0.26959747549E+03  0.16916308985E+03 -0.18354063061E+03  0.36740456290E+03  0.00000000000E+00 0. -1.
<mgrwt>
<rscale>  2 0.11778781E+04</rscale>
<asrwt>0</asrwt>
<pdfrwt beam="2">  1        2 0.33502947E+00 0.11778781E+04</pdfrwt>
<pdfrwt beam="1">  1       -2 0.11315077E+00 0.11778781E+04</pdfrwt>
<totfact> 0.49393749E+00</totfact>
</mgrwt>
</event>
<event>
 8    1  0.1408247E-005  0.1290430E+04  0.7818608E-02  0.8541410E-01
         -2   -1    0    0    0  501 -0.00000000000E+00  0.00000000000E+00  0.81062159322E+03  0.81062159322E+03  0.00000000000E+00 0. -1.
          2   -1    0    0  502    0  0.00000000000E+00 -0.00000000000E+00 -0.20838245750E+04  0.20838245750E+04  0.00000000000E+00 0.  1.
    9000010    2    1    2  502    0 -0.37118235469E+03 -0.71896396480E+03 -0.46458992058E+03  0.13723584181E+04  0.10063986835E+04 0.  0.
   -9000010    2    1    2    0  501  0.37118235469E+03  0.71896396480E+03 -0.80861306123E+03  0.15220877502E+04  0.10040968645E+04 0.  0.
        -13    1    3    3    0    0 -0.10005161531E+03 -0.17612932381E+03  0.32109147191E+03  0.37964668961E+03  0.10566000000E+00 0.  1.
          4    1    3    3  502    0 -0.27113073937E+03 -0.54283464098E+03 -0.78568139249E+03  0.99271172844E+03  0.00000000000E+00 0.  1.
         13    1    4    4    0    0 -0.92111354017E+02  0.55323294830E+03  0.16848285981E+02  0.56110165971E+03  0.10566000000E+00 0. -1.
         -4    1    4    4    0  501  0.46329370871E+03  0.16573101650E+03 -0.82546134721E+03  0.96098609048E+03  0.00000000000E+00 0. -1.
<mgrwt>
<rscale>  2 0.12904295E+04</rscale>
<asrwt>0</asrwt>
<pdfrwt beam="2">  1        2 0.32058840E+00 0.12904295E+04</pdfrwt>
<pdfrwt beam="1">  1       -2 0.12471101E+00 0.12904295E+04</pdfrwt>
<totfact> 0.42552257E+00</totfact>
</mgrwt>
</event>
<event>
 8    1  0.1408247E-005  0.1165541E+04  0.7818608E-02  0.8632972E-01
         -2   -1    0    0    0  501 -0.00000000000E+00  0.00000000000E+00  0.14162760909E+04  0.14162760909E+04  0.00000000000E+00 0.  1.
          2   -1    0    0  502    0  0.00000000000E+00 -0.00000000000E+00 -0.96550491244E+03  0.96550491244E+03  0.00000000000E+00 0. -1.
    9000010    2    1    2  502    0  0.18414341824E+03 -0.37981406258E+03  0.19565899289E+03  0.10931371315E+04  0.98919099584E+03 0.  0.
   -9000010    2    1    2    0  501 -0.18414341824E+03  0.37981406258E+03  0.25511218553E+03  0.12886438718E+04  0.11905264719E+04 0.  0.
        -13    1    3    3    0    0 -0.28734538958E+03 -0.49599756555E+03  0.20122252144E+03  0.60751252847E+03  0.10566000000E+00 0.  1.
          4    1    3    3  502    0  0.47148880782E+03  0.11618350297E+03 -0.55635285525E+01  0.48562460308E+03  0.00000000000E+00 0.  1.
         13    1    4    4    0    0 -0.75286731975E+02 -0.29130320249E+03  0.48516738982E+03  0.57088795319E+03  0.10566000000E+00 0. -1.
         -4    1    4    4    0  501 -0.10885668626E+03  0.67111726507E+03 -0.23005520428E+03  0.71775591857E+03  0.00000000000E+00 0. -1.
<mgrwt>
<rscale>  2 0.11655412E+04</rscale>
<asrwt>0</asrwt>
<pdfrwt beam="2">  1        2 0.14853922E+00 0.11655412E+04</pdfrwt>
<pdfrwt beam="1">  1       -2 0.21788863E+00 0.11655412E+04</pdfrwt>
<totfact> 0.28766781E+00</totfact>
</mgrwt>
</event>
<event>
 8    1  0.1408247E-005  0.1487108E+04  0.7818608E-02  0.8416957E-01
          2   -1    0    0  502    0  0.00000000000E+00  0.00000000000E+00  0.21572124990E+04  0.21572124990E+04  0.00000000000E+00 0.  1.
         -2   -1    0    0    0  501 -0.00000000000E+00 -0.00000000000E+00 -0.12360350497E+04  0.12360350497E+04  0.00000000000E+00 0. -1.
    9000010    2    1    2  502    0 -0.98608256396E+03 -0.40755589549E+03  0.11458405885E+04  0.18377424135E+04  0.96222964672E+03 0.  0.
   -9000010    2    1    2    0  501  0.98608256396E+03  0.40755589549E+03 -0.22466313927E+03  0.15555051352E+04  0.11093520941E+04 0.  0.
        -13    1    3    3    0    0  0.54335702423E+02 -0.39211479469E+03  0.29681909305E+03  0.49478072511E+03  0.10566000000E+00 0.  1.
          4    1    3    3  502    0 -0.10404182664E+04 -0.15441100801E+02  0.84902149547E+03  0.13429616884E+04  0.00000000000E+00 0.  1.
         13    1    4    4    0    0  0.57253237148E+03 -0.11712080535E+03  0.34405803312E+03  0.67814934988E+03  0.10566000000E+00 0. -1.
         -4    1    4    4    0  501  0.41355019248E+03  0.52467670084E+03 -0.56872117239E+03  0.87735578531E+03  0.00000000000E+00 0. -1.
<mgrwt>
<rscale>  2 0.14871081E+04</rscale>
<asrwt>0</asrwt>
<pdfrwt beam="1">  1        2 0.33187885E+00 0.14871081E+04</pdfrwt>
<pdfrwt beam="2">  1       -2 0.19015924E+00 0.14871081E+04</pdfrwt>
<totfact> 0.10167836E+00</totfact>
</mgrwt>
</event>
<event>
 8    1  0.1408247E-005  0.1280616E+04  0.7818608E-02  0.8548209E-01
         -2   -1    0    0    0  501 -0.00000000000E+00  0.00000000000E+00  0.65803984855E+03  0.65803984855E+03  0.00000000000E+00 0. -1.
          2   -1    0    0  502    0  0.00000000000E+00 -0.00000000000E+00 -0.31896810385E+04  0.31896810385E+04  0.00000000000E+00 0.  1.
    9000010    2    1    2  502    0 -0.14304215617E+03 -0.78472317464E+03 -0.21642961438E+04  0.25140320593E+04  0.99996393836E+03 0.  0.
   -9000010    2    1    2    0  501  0.14304215617E+03  0.78472317464E+03 -0.36734504616E+03  0.13336888277E+04  0.10037589287E+04 0.  0.
        -13    1    3    3    0    0  0.51903704654E+02 -0.85485300776E+03 -0.21405245719E+04  0.23054962835E+04  0.10566000000E+00 0.  1.
          4    1    3    3  502    0 -0.19494586082E+03  0.70129833111E+02 -0.23771571890E+02  0.20853577577E+03  0.00000000000E+00 0.  1.
         13    1    4    4    0    0  0.56725919123E+03  0.32814354685E+03 -0.23769771829E+03  0.69710931267E+03  0.10566000000E+00 0. -1.
         -4    1    4    4    0  501 -0.42421703505E+03  0.45657962780E+03 -0.12964732787E+03  0.63657951504E+03  0.00000000000E+00 0. -1.
<mgrwt>
<rscale>  2 0.12806159E+04</rscale>
<asrwt>0</asrwt>
<pdfrwt beam="2">  1        2 0.49072015E+00 0.12806159E+04</pdfrwt>
<pdfrwt beam="1">  1       -2 0.10123690E+00 0.12806159E+04</pdfrwt>
<totfact> 0.16453972E+00</totfact>
</mgrwt>
</event>
<event>
 8    1  0.1408247E-005  0.1145069E+04  0.7818608E-02  0.8649116E-01
          2   -1    0    0  502    0  0.00000000000E+00  0.00000000000E+00  0.12186786038E+04  0.12186786038E+04  0.00000000000E+00 0. -1.
         -2   -1    0    0    0  501 -0.00000000000E+00 -0.00000000000E+00 -0.12440212815E+04  0.12440212815E+04  0.00000000000E+00 0.  1.
    9000010    2    1    2  502    0  0.35624953628E+03  0.42617580274E+03  0.43968322124E+03  0.12380713251E+04  0.10153618686E+04 0.  0.
   -9000010    2    1    2    0  501 -0.35624953628E+03 -0.42617580274E+03 -0.46502589895E+03  0.12246285601E+04  0.98738365214E+03 0.  0.
        -13    1    3    3    0    0  0.10242707674E+03  0.40248859802E+03 -0.26231398979E+03  0.49121992833E+03  0.10566000000E+00 0.  1.
          4    1    3    3  502    0  0.25382245954E+03  0.23687204717E+02  0.70199721103E+03  0.74685139681E+03  0.00000000000E+00 0.  1.
         13    1    4    4    0    0 -0.58542798177E+03 -0.76293992542E+02  0.11616754968E+02  0.59049272248E+03  0.10566000000E+00 0. -1.
         -4    1    4    4    0  501  0.22917844550E+03 -0.34988181020E+03 -0.47664265392E+03  0.63413583759E+03  0.00000000000E+00 0. -1.
<mgrwt>
<rscale>  2 0.11450692E+04</rscale>
<asrwt>0</asrwt>
<pdfrwt beam="1">  1        2 0.18748902E+00 0.11450692E+04</pdfrwt>
<pdfrwt beam="2">  1       -2 0.19138789E+00 0.11450692E+04</pdfrwt>
<totfact> 0.33821705E+00</totfact>
</mgrwt>
</event>
<event>
 8    1  0.1408247E-005  0.1720195E+04  0.7818608E-02  0.8292943E-01
         -2   -1    0    0    0  501 -0.00000000000E+00  0.00000000000E+00  0.34722887473E+04  0.34722887473E+04  0.00000000000E+00 0.  1.
          2   -1    0    0  502    0  0.00000000000E+00 -0.00000000000E+00 -0.89988006796E+03  0.89988006796E+03  0.00000000000E+00 0. -1.
    9000010    2    1    2  502    0 -0.26934808457E+03  0.13971595657E+04  0.76934308499E+03  0.18661037310E+04  0.93051120874E+03 0.  0.
   -9000010    2    1    2    0  501  0.26934808457E+03 -0.13971595657E+04  0.18030655943E+04  0.25060650843E+04  0.10023539427E+04 0.  0.
        -13    1    3    3    0    0 -0.56821525774E+03  0.11124237876E+04  0.39841417387E+03  0.13111403920E+04  0.10566000000E+00 0.  1.
          4    1    3    3  502    0  0.29886717317E+03  0.28473577811E+03  0.37092891112E+03  0.55496333900E+03  0.00000000000E+00 0.  1.
         13    1    4    4    0    0  0.48307211382E+03 -0.42384777390E+03  0.31640108127E+03  0.71632063909E+03  0.10566000000E+00 0. -1.
         -4    1    4    4    0  501 -0.21372402925E+03 -0.97331179180E+03  0.14866645130E+04  0.17897444452E+04  0.00000000000E+00 0. -1.
<mgrwt>
<rscale>  2 0.17201951E+04</rscale>
<asrwt>0</asrwt>
<pdfrwt beam="2">  1        2 0.13844309E+00 0.17201951E+04</pdfrwt>
<pdfrwt beam="1">  1       -2 0.53419826E+00 0.17201951E+04</pdfrwt>
<totfact> 0.13316019E-01</totfact>
</mgrwt>
</event>
<event>
 8    1  0.1408247E-005  0.1264516E+04  0.7818608E-02  0.8559502E-01
          2   -1    0    0  502    0  0.00000000000E+00  0.00000000000E+00  0.19381586675E+04  0.19381586675E+04  0.00000000000E+00 0. -1.
         -2   -1    0    0    0  501 -0.00000000000E+00 -0.00000000000E+00 -0.85843048407E+03  0.85843048407E+03  0.00000000000E+00 0.  1.
    9000010    2    1    2  502    0  0.77303057657E+03 -0.20287329778E+02  0.81715013082E+03  0.15084617877E+04  0.10048556018E+04 0.  0.
   -9000010    2    1    2    0  501 -0.77303057657E+03  0.20287329778E+02  0.26257805262E+03  0.12881273639E+04  0.99616114351E+03 0.  0.
        -13    1    3    3    0    0  0.65292079458E+03  0.43633489917E+03  0.41475054512E+03  0.88809443984E+03  0.10566000000E+00 0.  1.
          4    1    3    3  502    0  0.12010978198E+03 -0.45662222895E+03  0.40239958570E+03  0.62036734785E+03  0.00000000000E+00 0.  1.
         13    1    4    4    0    0 -0.99846256910E+03 -0.90393992895E+02  0.15311501266E+03  0.10141709886E+04  0.10566000000E+00 0. -1.
         -4    1    4    4    0  501  0.22543199254E+03  0.11068132267E+03  0.10946303996E+03  0.27395637529E+03  0.00000000000E+00 0. -1.
<mgrwt>
<rscale>  2 0.12645158E+04</rscale>
<asrwt>0</asrwt>
<pdfrwt beam="1">  1        2 0.29817826E+00 0.12645158E+04</pdfrwt>
<pdfrwt beam="2">  1       -2 0.13206623E+00 0.12645158E+04</pdfrwt>
<totfact> 0.43743565E+00</totfact>
</mgrwt>
</event>
<event>
 8    1  0.1408247E-005  0.1278680E+04  0.7818608E-02  0.8549558E-01
          1   -1    0    0  502    0  0.00000000000E+00  0.00000000000E+00  0.69721561040E+03  0.69721561040E+03  0.00000000000E+00 0.  1.
         -1   -1    0    0    0  501 -0.00000000000E+00 -0.00000000000E+00 -0.23638967526E+04  0.23638967526E+04  0.00000000000E+00 0. -1.
    9000010    2    1    2  502    0 -0.55443860698E+03  0.59148328482E+03 -0.69284610213E+03  0.14487183896E+04  0.98055831334E+03 0.  0.
   -9000010    2    1    2    0  501  0.55443860698E+03 -0.59148328482E+03 -0.97383504005E+03  0.16123939734E+04  0.99709828763E+03 0.  0.
        -13    1    3    3    0    0 -0.37524490143E+03  0.60658217296E+03  0.19991578380E+02  0.71354771598E+03  0.10566000000E+00 0.  1.
          4    1    3    3  502    0 -0.17919370555E+03 -0.15098888148E+02 -0.71283768051E+03  0.73517067357E+03  0.00000000000E+00 0.  1.
         13    1    4    4    0    0 -0.16442060039E+01  0.22216104518E+02  0.18594891675E+03  0.18727858799E+03  0.10566000000E+00 0. -1.
         -4    1    4    4    0  501  0.55608281299E+03 -0.61369938933E+03 -0.11597839568E+04  0.14251153854E+04  0.00000000000E+00 0. -1.
<mgrwt>
<rscale>  2 0.12786800E+04</rscale>
<asrwt>0</asrwt>
<pdfrwt beam="1">  1        1 0.10726394E+00 0.12786800E+04</pdfrwt>
<pdfrwt beam="2">  1       -1 0.36367643E+00 0.12786800E+04</pdfrwt>
<totfact> 0.37036238E-01</totfact>
</mgrwt>
</event>
<event>
 8    1  0.1408247E-005  0.1364359E+04  0.7818608E-02  0.8492112E-01
          2   -1    0    0  502    0  0.00000000000E+00  0.00000000000E+00  0.36527281166E+04  0.36527281166E+04  0.00000000000E+00 0. -1.
         -2   -1    0    0    0  501 -0.00000000000E+00 -0.00000000000E+00 -0.74646567590E+03  0.74646567590E+03  0.00000000000E+00 0.  1.
    9000010    2    1    2  502    0  0.14137820977E+03 -0.89654647523E+03  0.26864680541E+04  0.30095835255E+04  0.10083149363E+04 0.  0.
   -9000010    2    1    2    0  501 -0.14137820977E+03  0.89654647523E+03  0.21979438666E+03  0.13896102671E+04  0.10290402040E+04 0.  0.
        -13    1    3    3    0    0 -0.36384940593E+03 -0.49907868081E+03  0.18764511388E+04  0.19754834363E+04  0.10566000000E+00 0.  1.
          4    1    3    3  502    0  0.50522761570E+03 -0.39746779442E+03  0.81001691530E+03  0.10341000891E+04  0.00000000000E+00 0.  1.
         13    1    4    4    0    0 -0.38955702168E+03  0.98178871984E+03  0.32764693803E+03  0.11059006695E+04  0.10566000000E+00 0. -1.
         -4    1    4    4    0  501  0.24817881191E+03 -0.85242244608E+02 -0.10785255137E+03  0.28370959762E+03  0.00000000000E+00 0. -1.
<mgrwt>
<rscale>  2 0.13643588E+04</rscale>
<asrwt>0</asrwt>
<pdfrwt beam="1">  1        2 0.56195816E+00 0.13643588E+04</pdfrwt>
<pdfrwt beam="2">  1       -2 0.11484088E+00 0.13643588E+04</pdfrwt>
<totfact> 0.55380603E-01</totfact>
</mgrwt>
</event>
<event>
 8    1  0.1408247E-005  0.1095369E+04  0.7818608E-02  0.8689813E-01
         -1   -1    0    0    0  501 -0.00000000000E+00  0.00000000000E+00  0.39884490756E+04  0.39884490756E+04  0.00000000000E+00 0. -1.
          1   -1    0    0  502    0  0.00000000000E+00 -0.00000000000E+00 -0.30098494026E+03  0.30098494026E+03  0.00000000000E+00 0.  1.
    9000010    2    1    2  502    0  0.44783219045E+03  0.23270735249E+03  0.18575938445E+04  0.21489270150E+04  0.95526228960E+03 0.  0.
   -9000010    2    1    2    0  501 -0.44783219045E+03 -0.23270735249E+03  0.18298702909E+04  0.21405070009E+04  0.98926162203E+03 0.  0.
        -13    1    3    3    0    0  0.11346589514E+03  0.54319169271E+03  0.13848760132E+04  0.14919159854E+04  0.10566000000E+00 0.  1.
          4    1    3    3  502    0  0.33436629532E+03 -0.31048434022E+03  0.47271783126E+03  0.65701102956E+03  0.00000000000E+00 0.  1.
         13    1    4    4    0    0 -0.68975524019E+03 -0.51806255459E-01  0.15738695144E+04  0.17183793393E+04  0.10566000000E+00 0. -1.
         -4    1    4    4    0  501  0.24192304973E+03 -0.23265554623E+03  0.25600077649E+03  0.42212766167E+03  0.00000000000E+00 0. -1.
<mgrwt>
<rscale>  2 0.10953691E+04</rscale>
<asrwt>0</asrwt>
<pdfrwt beam="2">  1        1 0.46305378E-01 0.10953691E+04</pdfrwt>
<pdfrwt beam="1">  1       -1 0.61360751E+00 0.10953691E+04</pdfrwt>
<totfact> 0.26230109E-01</totfact>
</mgrwt>
</event>
<event>
 8    1  0.1408247E-005  0.1384525E+04  0.7818608E-02  0.8479220E-01
          2   -1    0    0  502    0  0.00000000000E+00  0.00000000000E+00  0.42681185322E+04  0.42681185322E+04  0.00000000000E+00 0. -1.
         -2   -1    0    0    0  501 -0.00000000000E+00 -0.00000000000E+00 -0.55054022687E+03  0.55054022687E+03  0.00000000000E+00 0.  1.
    9000010    2    1    2  502    0  0.88215656169E+03  0.57483535395E+03  0.28095635097E+04  0.31027462545E+04  0.79041212112E+03 0.  0.
   -9000010    2    1    2    0  501 -0.88215656169E+03 -0.57483535395E+03  0.90801479563E+03  0.17159125046E+04  0.10055988121E+04 0.  0.
        -13    1    3    3    0    0  0.21990362391E+03 -0.70079201825E+02  0.12285377750E+03  0.26146081953E+03  0.10566000000E+00 0.  1.
          4    1    3    3  502    0  0.66225293778E+03  0.64491455577E+03  0.26867097322E+04  0.28412854349E+04  0.00000000000E+00 0.  1.
         13    1    4    4    0    0 -0.21139420867E+03 -0.40770822345E+03 -0.12223320867E+03  0.47524149165E+03  0.10566000000E+00 0. -1.
         -4    1    4    4    0  501 -0.67076235302E+03 -0.16712713050E+03  0.10302480043E+04  0.12406710129E+04  0.00000000000E+00 0. -1.
<mgrwt>
<rscale>  2 0.13845254E+04</rscale>
<asrwt>0</asrwt>
<pdfrwt beam="1">  1        2 0.65663360E+00 0.13845254E+04</pdfrwt>
<pdfrwt beam="2">  1       -2 0.84698499E-01 0.13845254E+04</pdfrwt>
<totfact> 0.33556753E-01</totfact>
</mgrwt>
</event>
<event>
 8    1  0.1408247E-005  0.1378263E+04  0.7818608E-02  0.8483199E-01
          2   -1    0    0  502    0  0.00000000000E+00  0.00000000000E+00  0.22479102527E+04  0.22479102527E+04  0.00000000000E+00 0.  1.
         -2   -1    0    0    0  501 -0.00000000000E+00 -0.00000000000E+00 -0.86834901850E+03  0.86834901850E+03  0.00000000000E+00 0. -1.
    9000010    2    1    2  502    0 -0.85183446940E+03  0.42056728352E+03  0.94184180501E+03  0.16641959674E+04  0.98994112409E+03 0.  0.
   -9000010    2    1    2    0  501  0.85183446940E+03 -0.42056728352E+03  0.43771942920E+03  0.14520633038E+04  0.10071696661E+04 0.  0.
        -13    1    3    3    0    0 -0.16289838704E+02 -0.28071699261E+03  0.19490551550E+03  0.34213383335E+03  0.10566000000E+00 0.  1.
          4    1    3    3  502    0 -0.83554463070E+03  0.70128427612E+03  0.74693628952E+03  0.13220621341E+04  0.00000000000E+00 0.  1.
         13    1    4    4    0    0  0.29217690268E+03 -0.24492562929E+03 -0.31726308158E+03  0.49599574639E+03  0.10566000000E+00 0. -1.
         -4    1    4    4    0  501  0.55965756672E+03 -0.17564165423E+03  0.75498251078E+03  0.95606755738E+03  0.00000000000E+00 0. -1.
<mgrwt>
<rscale>  2 0.13782627E+04</rscale>
<asrwt>0</asrwt>
<pdfrwt beam="1">  1        2 0.34583234E+00 0.13782627E+04</pdfrwt>
<pdfrwt beam="2">  1       -2 0.13359216E+00 0.13782627E+04</pdfrwt>
<totfact> 0.28311706E+00</totfact>
</mgrwt>
</event>
<event>
 8    1  0.1408247E-005  0.1345811E+04  0.7818608E-02  0.8504173E-01
          1   -1    0    0  502    0  0.00000000000E+00  0.00000000000E+00  0.22124084220E+04  0.22124084220E+04  0.00000000000E+00 0.  1.
         -1   -1    0    0    0  501 -0.00000000000E+00 -0.00000000000E+00 -0.13484108791E+04  0.13484108791E+04  0.00000000000E+00 0. -1.
    9000010    2    1    2  502    0  0.81521751183E+03  0.31517053262E+03  0.15538494427E+04  0.20785147517E+04  0.10685800981E+04 0.  0.
   -9000010    2    1    2    0  501 -0.81521751183E+03 -0.31517053262E+03 -0.68985189987E+03  0.14823045495E+04  0.97847793913E+03 0.  0.
        -13    1    3    3    0    0  0.33951578926E+03  0.31967740932E+03  0.15329739802E+04  0.16023338766E+04  0.10566000000E+00 0.  1.
          4    1    3    3  502    0  0.47570172257E+03 -0.45068767003E+01  0.20875462545E+02  0.47618087501E+03  0.00000000000E+00 0.  1.
         13    1    4    4    0    0 -0.84570852598E+03 -0.19326024144E+03 -0.89199905873E+03  0.12442808219E+04  0.10566000000E+00 0. -1.
         -4    1    4    4    0  501  0.30491014150E+02 -0.12191029118E+03  0.20214715886E+03  0.23802372755E+03  0.00000000000E+00 0. -1.
<mgrwt>
<rscale>  2 0.13458109E+04</rscale>
<asrwt>0</asrwt>
<pdfrwt beam="1">  1        1 0.34037053E+00 0.13458109E+04</pdfrwt>
<pdfrwt beam="2">  1       -1 0.20744783E+00 0.13458109E+04</pdfrwt>
<totfact> 0.28336422E-01</totfact>
</mgrwt>
</event>
<event>
 8    1  0.1408247E-005  0.1071777E+04  0.7818608E-02  0.8709927E-01
          2   -1    0    0  502    0  0.00000000000E+00  0.00000000000E+00  0.17488598322E+04  0.17488598322E+04  0.00000000000E+00 0.  1.
         -2   -1    0    0    0  501 -0.00000000000E+00 -0.00000000000E+00 -0.68680373874E+03  0.68680373874E+03  0.00000000000E+00 0. -1.
    9000010    2    1    2  502    0 -0.10928006771E+03  0.36997084078E+03  0.78499773353E+03  0.13277602903E+04  0.99895214633E+03 0.  0.
   -9000010    2    1    2    0  501  0.10928006771E+03 -0.36997084078E+03  0.27705835990E+03  0.11079032806E+04  0.10009334584E+04 0.  0.
        -13    1    3    3    0    0  0.32731701675E+03  0.35166664822E+03  0.74829375119E+03  0.88924091795E+03  0.10566000000E+00 0.  1.
          4    1    3    3  502    0 -0.43659708446E+03  0.18304192565E+02  0.36703982346E+02  0.43851937237E+03  0.00000000000E+00 0.  1.
         13    1    4    4    0    0 -0.34670338628E+03  0.26549323580E+02 -0.13875875663E+03  0.37438230239E+03  0.10566000000E+00 0. -1.
         -4    1    4    4    0  501  0.45598345399E+03 -0.39652016436E+03  0.41581711653E+03  0.73352097820E+03  0.00000000000E+00 0. -1.
<mgrwt>
<rscale>  2 0.10717768E+04</rscale>
<asrwt>0</asrwt>
<pdfrwt beam="1">  1        2 0.26905536E+00 0.10717768E+04</pdfrwt>
<pdfrwt beam="2">  1       -2 0.10566211E+00 0.10717768E+04</pdfrwt>
<totfact> 0.10151020E+01</totfact>
</mgrwt>
</event>
<event>
 8    1  0.1408247E-005  0.1040230E+04  0.7818608E-02  0.8737683E-01
          2   -1    0    0  502    0  0.00000000000E+00  0.00000000000E+00  0.19599108025E+04  0.19599108025E+04  0.00000000000E+00 0.  1.
         -2   -1    0    0    0  501 -0.00000000000E+00 -0.00000000000E+00 -0.61474956047E+03  0.61474956047E+03  0.00000000000E+00 0. -1.
    9000010    2    1    2  502    0  0.14462503886E+03  0.32269699079E+03  0.10854295046E+04  0.15057138118E+04  0.98181827438E+03 0.  0.
   -9000010    2    1    2    0  501 -0.14462503886E+03 -0.32269699079E+03  0.25973173743E+03  0.10689465512E+04  0.97474940579E+03 0.  0.
        -13    1    3    3    0    0 -0.29939295428E+02 -0.23616677673E+03  0.83612477157E+03  0.86935364072E+03  0.10566000000E+00 0.  1.
          4    1    3    3  502    0  0.17456433429E+03  0.55886376752E+03  0.24930473306E+03  0.63636017111E+03  0.00000000000E+00 0.  1.
         13    1    4    4    0    0 -0.51433583018E+03 -0.82388268969E+02 -0.59917450938E+02  0.52432745985E+03  0.10566000000E+00 0. -1.
         -4    1    4    4    0  501  0.36971079131E+03 -0.24030872182E+03  0.31964918837E+03  0.54461909131E+03  0.00000000000E+00 0. -1.
<mgrwt>
<rscale>  2 0.10402305E+04</rscale>
<asrwt>0</asrwt>
<pdfrwt beam="1">  1        2 0.30152474E+00 0.10402305E+04</pdfrwt>
<pdfrwt beam="2">  1       -2 0.94576856E-01 0.10402305E+04</pdfrwt>
<totfact> 0.10217336E+01</totfact>
</mgrwt>
</event>
<event>
 8    1  0.1408247E-005  0.1327391E+04  0.7818608E-02  0.8516350E-01
         -2   -1    0    0    0  501 -0.00000000000E+00  0.00000000000E+00  0.88992199958E+03  0.88992199958E+03  0.00000000000E+00 0.  1.
          2   -1    0    0  502    0  0.00000000000E+00 -0.00000000000E+00 -0.21117700013E+04  0.21117700013E+04  0.00000000000E+00 0. -1.
    9000010    2    1    2  502    0  0.42913127865E+03  0.77389116223E+03 -0.99191075959E+03  0.16688781416E+04  0.10090619957E+04 0.  0.
   -9000010    2    1    2    0  501 -0.42913127865E+03 -0.77389116223E+03 -0.22993724217E+03  0.13328138593E+04  0.96977340807E+03 0.  0.
        -13    1    3    3    0    0 -0.16105142277E+03  0.53658593733E+03 -0.84856667237E+03  0.10168222251E+04  0.10566000000E+00 0.  1.
          4    1    3    3  502    0  0.59018270142E+03  0.23730522490E+03 -0.14334408722E+03  0.65205591643E+03  0.00000000000E+00 0.  1.
         13    1    4    4    0    0  0.41544663404E+02  0.39989148869E+02 -0.37684067560E+03  0.38122696263E+03  0.10566000000E+00 0. -1.
         -4    1    4    4    0  501 -0.47067594205E+03 -0.81388031110E+03  0.14690343343E+03  0.95158689670E+03  0.00000000000E+00 0. -1.
<mgrwt>
<rscale>  2 0.13273906E+04</rscale>
<asrwt>0</asrwt>
<pdfrwt beam="2">  1        2 0.32488769E+00 0.13273906E+04</pdfrwt>
<pdfrwt beam="1">  1       -2 0.13691108E+00 0.13273906E+04</pdfrwt>
<totfact> 0.31522613E+00</totfact>
</mgrwt>
</event>
<event>
 8    1  0.1408247E-005  0.1221025E+04  0.7818608E-02  0.8590896E-01
         -2   -1    0    0    0  501 -0.00000000000E+00  0.00000000000E+00  0.65956461013E+03  0.65956461013E+03  0.00000000000E+00 0. -1.
          2   -1    0    0  502    0  0.00000000000E+00 -0.00000000000E+00 -0.22618666485E+04  0.22618666485E+04  0.00000000000E+00 0.  1.
    9000010    2    1    2  502    0  0.57659766327E+03 -0.39319601578E+03 -0.77386188434E+03  0.14548234962E+04  0.10151754611E+04 0.  0.
   -9000010    2    1    2    0  501 -0.57659766327E+03  0.39319601578E+03 -0.82844015406E+03  0.14666077625E+04  0.98871495793E+03 0.  0.
        -13    1    3    3    0    0 -0.18522777194E+03 -0.13723184290E+03 -0.58567263338E+03  0.62940793676E+03  0.10566000000E+00 0.  1.
          4    1    3    3  502    0  0.76182543521E+03 -0.25596417287E+03 -0.18818925097E+03  0.82541555940E+03  0.00000000000E+00 0.  1.
         13    1    4    4    0    0 -0.68545383336E+03  0.93885990845E+01 -0.18587747117E+03  0.71027146143E+03  0.10566000000E+00 0. -1.
         -4    1    4    4    0  501  0.10885617009E+03  0.38380741669E+03 -0.64256268288E+03  0.75633630107E+03  0.00000000000E+00 0. -1.
<mgrwt>
<rscale>  2 0.12210248E+04</rscale>
<asrwt>0</asrwt>
<pdfrwt beam="2">  1        2 0.34797948E+00 0.12210248E+04</pdfrwt>
<pdfrwt beam="1">  1       -2 0.10147148E+00 0.12210248E+04</pdfrwt>
<totfact> 0.57940375E+00</totfact>
</mgrwt>
</event>
<event>
 8    1  0.1408247E-005  0.1686851E+04  0.7818608E-02  0.8309397E-01
         -2   -1    0    0    0  501 -0.00000000000E+00  0.00000000000E+00  0.98907066542E+03  0.98907066542E+03  0.00000000000E+00 0. -1.
          2   -1    0    0  502    0  0.00000000000E+00 -0.00000000000E+00 -0.31241617127E+04  0.31241617127E+04  0.00000000000E+00 0.  1.
    9000010    2    1    2  502    0 -0.30065605833E+03  0.13021991935E+04 -0.50045610320E+03  0.17777668177E+04  0.10601328887E+04 0.  0.
   -9000010    2    1    2    0  501  0.30065605833E+03 -0.13021991935E+04 -0.16346349441E+04  0.23354655605E+04  0.99812382932E+03 0.  0.
        -13    1    3    3    0    0 -0.64233173913E+02  0.35614608299E+03 -0.69484033350E+03  0.78343412823E+03  0.10566000000E+00 0.  1.
          4    1    3    3  502    0 -0.23642288441E+03  0.94605311056E+03  0.19438423030E+03  0.99433268943E+03  0.00000000000E+00 0.  1.
         13    1    4    4    0    0 -0.19315852474E+02 -0.12564778645E+04 -0.15610148819E+04  0.20039653686E+04  0.10566000000E+00 0. -1.
         -4    1    4    4    0  501  0.31997191080E+03 -0.45721329080E+02 -0.73620062206E+02  0.33150019184E+03  0.00000000000E+00 0. -1.
<mgrwt>
<rscale>  2 0.16868514E+04</rscale>
<asrwt>0</asrwt>
<pdfrwt beam="2">  1        2 0.48064026E+00 0.16868514E+04</pdfrwt>
<pdfrwt beam="1">  1       -2 0.15216472E+00 0.16868514E+04</pdfrwt>
<totfact> 0.57013683E-01</totfact>
</mgrwt>
</event>
<event>
 8    1  0.1408247E-005  0.9910009E+03  0.7818608E-02  0.8783093E-01
         -2   -1    0    0    0  501 -0.00000000000E+00  0.00000000000E+00  0.30833068229E+03  0.30833068229E+03  0.00000000000E+00 0.  1.
          2   -1    0    0  502    0  0.00000000000E+00 -0.00000000000E+00 -0.35313811578E+04  0.35313811578E+04  0.00000000000E+00 0. -1.
    9000010    2    1    2  502    0 -0.39077392732E+03  0.68197226874E+02 -0.23076095801E+04  0.25441167362E+04  0.99504415437E+03 0.  0.
   -9000010    2    1    2    0  501  0.39077392732E+03 -0.68197226874E+02 -0.91544089541E+03  0.12955951039E+04  0.82654674172E+03 0.  0.
        -13    1    3    3    0    0  0.16573174398E+03  0.36139261423E+03 -0.56024630256E+03  0.68698439813E+03  0.10566000000E+00 0.  1.
          4    1    3    3  502    0 -0.55650567130E+03 -0.29319538735E+03 -0.17473632775E+04  0.18571323380E+04  0.00000000000E+00 0.  1.
         13    1    4    4    0    0  0.36926246188E+03 -0.30577740617E+03 -0.94058181273E+03  0.10557219073E+04  0.10566000000E+00 0. -1.
         -4    1    4    4    0  501  0.21511465435E+02  0.23758017930E+03  0.25140917322E+02  0.23987319663E+03  0.00000000000E+00 0. -1.
<mgrwt>
<rscale>  2 0.99100090E+03</rscale>
<asrwt>0</asrwt>
<pdfrwt beam="2">  1        2 0.54328942E+00 0.99100090E+03</pdfrwt>
<pdfrwt beam="1">  1       -2 0.47435488E-01 0.99100090E+03</pdfrwt>
<totfact> 0.49522414E+00</totfact>
</mgrwt>
</event>
<event>
 8    1  0.1408247E-005  0.2369346E+04  0.7818608E-02  0.8032689E-01
          1   -1    0    0  502    0  0.00000000000E+00  0.00000000000E+00  0.26124093506E+04  0.26124093506E+04  0.00000000000E+00 0.  1.
         -1   -1    0    0    0  501 -0.00000000000E+00 -0.00000000000E+00 -0.34418768873E+04  0.34418768873E+04  0.00000000000E+00 0. -1.
    9000010    2    1    2  502    0 -0.16919822982E+04 -0.13225155969E+04 -0.22698353452E+04  0.32793821450E+04  0.99515986493E+03 0.  0.
   -9000010    2    1    2    0  501  0.16919822982E+04  0.13225155969E+04  0.14403678085E+04  0.27749040930E+04  0.10067679473E+04 0.  0.
        -13    1    3    3    0    0 -0.17163681805E+04 -0.89513460409E+03 -0.19211113246E+04  0.27272430078E+04  0.10566000000E+00 0.  1.
          4    1    3    3  502    0  0.24385882320E+02 -0.42738099285E+03 -0.34872402056E+03  0.55213913719E+03  0.00000000000E+00 0.  1.
         13    1    4    4    0    0  0.17552724663E+04  0.11741907937E+04  0.15131803890E+04  0.25979646556E+04  0.10566000000E+00 0. -1.
         -4    1    4    4    0  501 -0.63290168070E+02  0.14832480326E+03 -0.72812580437E+02  0.17693943740E+03  0.00000000000E+00 0. -1.
<mgrwt>
<rscale>  2 0.23693463E+04</rscale>
<asrwt>0</asrwt>
<pdfrwt beam="1">  1        1 0.40190913E+00 0.23693463E+04</pdfrwt>
<pdfrwt beam="2">  1       -1 0.52951952E+00 0.23693463E+04</pdfrwt>
<totfact> 0.67643101E-03</totfact>
</mgrwt>
</event>
<event>
 8    1  0.1408247E-005  0.1121224E+04  0.7818608E-02  0.8668367E-01
         -2   -1    0    0    0  501 -0.00000000000E+00  0.00000000000E+00  0.12483743839E+04  0.12483743839E+04  0.00000000000E+00 0. -1.
          2   -1    0    0  502    0  0.00000000000E+00 -0.00000000000E+00 -0.13144721571E+04  0.13144721571E+04  0.00000000000E+00 0.  1.
    9000010    2    1    2  502    0 -0.49174675052E+03  0.49140667219E+02 -0.65165341991E+03  0.12762518253E+04  0.97976368073E+03 0.  0.
   -9000010    2    1    2    0  501  0.49174675052E+03 -0.49140667219E+02  0.58555564674E+03  0.12865947158E+04  0.10335477132E+04 0.  0.
        -13    1    3    3    0    0 -0.48872111803E+03 -0.84779001365E+02 -0.88077754213E+03  0.10108436576E+04  0.10566000000E+00 0.  1.
          4    1    3    3  502    0 -0.30256324852E+01  0.13391966858E+03  0.22912412222E+03  0.26540816767E+03  0.00000000000E+00 0.  1.
         13    1    4    4    0    0  0.70805510726E+03  0.24189207682E+03  0.53645151446E+03  0.92067043521E+03  0.10566000000E+00 0. -1.
         -4    1    4    4    0  501 -0.21630835674E+03 -0.29103274404E+03  0.49104132280E+02  0.36592428056E+03  0.00000000000E+00 0. -1.
<mgrwt>
<rscale>  2 0.11212240E+04</rscale>
<asrwt>0</asrwt>
<pdfrwt beam="2">  1        2 0.20222649E+00 0.11212240E+04</pdfrwt>
<pdfrwt beam="1">  1       -2 0.19205760E+00 0.11212240E+04</pdfrwt>
<totfact> 0.29570213E+00</totfact>
</mgrwt>
</event>
<event>
 8    1  0.1408247E-005  0.1118024E+04  0.7818608E-02  0.8670988E-01
          2   -1    0    0  502    0  0.00000000000E+00  0.00000000000E+00  0.14444393026E+04  0.14444393026E+04  0.00000000000E+00 0.  1.
         -2   -1    0    0    0  501 -0.00000000000E+00 -0.00000000000E+00 -0.93122739142E+03  0.93122739142E+03  0.00000000000E+00 0. -1.
    9000010    2    1    2  502    0 -0.25951424006E+03 -0.44969584878E+03 -0.59374218939E+02  0.11191229559E+04  0.98961451858E+03 0.  0.
   -9000010    2    1    2    0  501  0.25951424006E+03  0.44969584878E+03  0.57258613010E+03  0.12565437381E+04  0.99069333908E+03 0.  0.
        -13    1    3    3    0    0  0.30081369222E+03 -0.39202956794E+03  0.15275882334E+03  0.51721497353E+03  0.10566000000E+00 0.  1.
          4    1    3    3  502    0 -0.56032793228E+03 -0.57666280845E+02 -0.21213304228E+03  0.60190798239E+03  0.00000000000E+00 0.  1.
         13    1    4    4    0    0 -0.91879711550E+02  0.60017420640E+03  0.50204338631E+02  0.60923841491E+03  0.10566000000E+00 0. -1.
         -4    1    4    4    0  501  0.35139395161E+03 -0.15047835761E+03  0.52238179147E+03  0.64730532316E+03  0.00000000000E+00 0. -1.
<mgrwt>
<rscale>  2 0.11180244E+04</rscale>
<asrwt>0</asrwt>
<pdfrwt beam="1">  1        2 0.22222143E+00 0.11180244E+04</pdfrwt>
<pdfrwt beam="2">  1       -2 0.14326575E+00 0.11180244E+04</pdfrwt>
<totfact> 0.65334774E+00</totfact>
</mgrwt>
</event>
<event>
 8    1  0.1408247E-005  0.1109246E+04  0.7818608E-02  0.8678226E-01
         -2   -1    0    0    0  501 -0.00000000000E+00  0.00000000000E+00  0.57007635563E+03  0.57007635563E+03  0.00000000000E+00 0.  1.
          2   -1    0    0  502    0  0.00000000000E+00 -0.00000000000E+00 -0.21777634084E+04  0.21777634084E+04  0.00000000000E+00 0. -1.
    9000010    2    1    2  502    0  0.17401994703E+03  0.45274090493E+03 -0.93274334893E+03  0.14484431112E+04  0.99635336227E+03 0.  0.
   -9000010    2    1    2    0  501 -0.17401994703E+03 -0.45274090493E+03 -0.67494370385E+03  0.12993966528E+04  0.99881198884E+03 0.  0.
        -13    1    3    3    0    0  0.33269538693E+03 -0.21066162578E+03 -0.18109600533E+03  0.43342855855E+03  0.10566000000E+00 0.  1.
          4    1    3    3  502    0 -0.15867543990E+03  0.66340253071E+03 -0.75164734360E+03  0.10150145527E+04  0.00000000000E+00 0.  1.
         13    1    4    4    0    0  0.36995271677E+03 -0.25297638498E+03 -0.54482312554E+03  0.70547453058E+03  0.10566000000E+00 0. -1.
         -4    1    4    4    0  501 -0.54397266380E+03 -0.19976451995E+03 -0.13012057831E+03  0.59392212225E+03  0.00000000000E+00 0. -1.
<mgrwt>
<rscale>  2 0.11092464E+04</rscale>
<asrwt>0</asrwt>
<pdfrwt beam="2">  1        2 0.33504053E+00 0.11092464E+04</pdfrwt>
<pdfrwt beam="1">  1       -2 0.87704052E-01 0.11092464E+04</pdfrwt>
<totfact> 0.91872431E+00</totfact>
</mgrwt>
</event>
<event>
 8    1  0.1408247E-005  0.1315439E+04  0.7818608E-02  0.8524360E-01
          4   -1    0    0  502    0  0.00000000000E+00  0.00000000000E+00  0.32610096390E+04  0.32610096390E+04  0.00000000000E+00 0.  1.
         -4   -1    0    0    0  501 -0.00000000000E+00 -0.00000000000E+00 -0.63635873897E+03  0.63635873897E+03  0.00000000000E+00 0. -1.
    9000010    2    1    2  502    0 -0.71207479116E+03  0.42695916070E+03  0.21149545533E+04  0.24960671445E+04  0.10334281757E+04 0.  0.
   -9000010    2    1    2    0  501  0.71207479116E+03 -0.42695916070E+03  0.50969634672E+03  0.14013012334E+04  0.10072289451E+04 0.  0.
        -13    1    3    3    0    0 -0.77253720027E+03 -0.79679509528E+02  0.97026254560E+03  0.12428080981E+04  0.10566000000E+00 0.  1.
          4    1    3    3  502    0  0.60462409112E+02  0.50663867023E+03  0.11446920077E+04  0.12532590465E+04  0.00000000000E+00 0.  1.
         13    1    4    4    0    0  0.20437692296E+03 -0.69905561739E+03  0.25755346595E+03  0.77251697834E+03  0.10566000000E+00 0. -1.
         -4    1    4    4    0  501  0.50769786820E+03  0.27209645669E+03  0.25214288077E+03  0.62878425508E+03  0.00000000000E+00 0. -1.
<mgrwt>
<rscale>  2 0.13154391E+04</rscale>
<asrwt>0</asrwt>
<pdfrwt beam="1">  1        4 0.50169378E+00 0.13154391E+04</pdfrwt>
<pdfrwt beam="2">  1       -4 0.97901346E-01 0.13154391E+04</pdfrwt>
<totfact> 0.49807430E-02</totfact>
</mgrwt>
</event>
<event>
 8    1  0.1408247E-005  0.1172052E+04  0.7818608E-02  0.8627910E-01
          2   -1    0    0  502    0  0.00000000000E+00  0.00000000000E+00  0.23085923792E+04  0.23085923792E+04  0.00000000000E+00 0. -1.
         -2   -1    0    0    0  501 -0.00000000000E+00 -0.00000000000E+00 -0.87960412990E+03  0.87960412990E+03  0.00000000000E+00 0.  1.
    9000010    2    1    2  502    0 -0.59069132140E+03 -0.24245840746E+02  0.16205539218E+04  0.19990773309E+04  0.10102529699E+04 0.  0.
   -9000010    2    1    2    0  501  0.59069132140E+03  0.24245840746E+02 -0.19156567258E+03  0.11891191782E+04  0.10138061526E+04 0.  0.
        -13    1    3    3    0    0 -0.10256858189E+03 -0.41846998352E+03  0.26623432275E+03  0.50647622538E+03  0.10566000000E+00 0.  1.
          4    1    3    3  502    0 -0.48812273951E+03  0.39422414278E+03  0.13543195991E+04  0.14926011055E+04  0.00000000000E+00 0.  1.
         13    1    4    4    0    0  0.26865404228E+03 -0.17773851669E+03  0.38283080321E+03  0.50032530397E+03  0.10566000000E+00 0. -1.
         -4    1    4    4    0  501  0.32203727911E+03  0.20198435743E+03 -0.57439647579E+03  0.68879387424E+03  0.00000000000E+00 0. -1.
<mgrwt>
<rscale>  2 0.11720522E+04</rscale>
<asrwt>0</asrwt>
<pdfrwt beam="1">  1        2 0.35516806E+00 0.11720522E+04</pdfrwt>
<pdfrwt beam="2">  1       -2 0.13532371E+00 0.11720522E+04</pdfrwt>
<totfact> 0.25870569E+00</totfact>
</mgrwt>
</event>
<event>
 8    1  0.1408247E-005  0.1224421E+04  0.7818608E-02  0.8588396E-01
         -1   -1    0    0    0  501 -0.00000000000E+00  0.00000000000E+00  0.82404167087E+03  0.82404167087E+03  0.00000000000E+00 0. -1.
          1   -1    0    0  502    0  0.00000000000E+00 -0.00000000000E+00 -0.19967339933E+04  0.19967339933E+04  0.00000000000E+00 0.  1.
    9000010    2    1    2  502    0  0.46854444436E+03  0.57172361802E+03 -0.17059496877E+03  0.12464547718E+04  0.98901216523E+03 0.  0.
   -9000010    2    1    2    0  501 -0.46854444436E+03 -0.57172361802E+03 -0.10020973536E+04  0.15743208924E+04  0.96326806977E+03 0.  0.
        -13    1    3    3    0    0  0.83258768718E+02  0.17997643711E+03 -0.54606460390E+03  0.58095619738E+03  0.10566000000E+00 0.  1.
          4    1    3    3  502    0  0.38528567564E+03  0.39174718092E+03  0.37546963513E+03  0.66549857439E+03  0.00000000000E+00 0.  1.
         13    1    4    4    0    0  0.30011773756E+03 -0.12898559154E+03 -0.25005723885E+03  0.41138372973E+03  0.10566000000E+00 0. -1.
         -4    1    4    4    0  501 -0.76866218192E+03 -0.44273802648E+03 -0.75204011478E+03  0.11629371626E+04  0.00000000000E+00 0. -1.
<mgrwt>
<rscale>  2 0.12244208E+04</rscale>
<asrwt>0</asrwt>
<pdfrwt beam="2">  1        1 0.30718984E+00 0.12244208E+04</pdfrwt>
<pdfrwt beam="1">  1       -1 0.12677564E+00 0.12244208E+04</pdfrwt>
<totfact> 0.21718481E+00</totfact>
</mgrwt>
</event>
<event>
 8    1  0.1408247E-005  0.2003603E+04  0.7818608E-02  0.8166927E-01
         -2   -1    0    0    0  501 -0.00000000000E+00  0.00000000000E+00  0.38118158551E+04  0.38118158551E+04  0.00000000000E+00 0.  1.
          2   -1    0    0  502    0  0.00000000000E+00 -0.00000000000E+00 -0.13449432990E+04  0.13449432990E+04  0.00000000000E+00 0. -1.
    9000010    2    1    2  502    0 -0.11126235819E+04 -0.13172335035E+04  0.24382047835E+04  0.31609123507E+04  0.10360931353E+04 0.  0.
   -9000010    2    1    2    0  501  0.11126235819E+04  0.13172335035E+04  0.28667772592E+02  0.19958468034E+04  0.10047623022E+04 0.  0.
        -13    1    3    3    0    0 -0.19317037805E+03 -0.25679902903E+03  0.13422318556E+04  0.13801619114E+04  0.10566000000E+00 0.  1.
          4    1    3    3  502    0 -0.91945320381E+03 -0.10604344744E+04  0.10959729279E+04  0.17807504394E+04  0.00000000000E+00 0.  1.
         13    1    4    4    0    0  0.95643795058E+03  0.43384514935E+03 -0.20220791941E+03  0.10695247640E+04  0.10566000000E+00 0. -1.
         -4    1    4    4    0  501  0.15618563129E+03  0.88338835410E+03  0.23087569200E+03  0.92632203943E+03  0.00000000000E+00 0. -1.
<mgrwt>
<rscale>  2 0.20036033E+04</rscale>
<asrwt>0</asrwt>
<pdfrwt beam="2">  1        2 0.20691436E+00 0.20036033E+04</pdfrwt>
<pdfrwt beam="1">  1       -2 0.58643320E+00 0.20036033E+04</pdfrwt>
<totfact> 0.10563457E-01</totfact>
</mgrwt>
</event>
<event>
 8    1  0.1408247E-005  0.1280471E+04  0.7818608E-02  0.8548310E-01
          2   -1    0    0  502    0  0.00000000000E+00  0.00000000000E+00  0.22365004680E+04  0.22365004680E+04  0.00000000000E+00 0.  1.
         -2   -1    0    0    0  501 -0.00000000000E+00 -0.00000000000E+00 -0.74058818489E+03  0.74058818489E+03  0.00000000000E+00 0. -1.
    9000010    2    1    2  502    0  0.15038837682E+03  0.72211369424E+03  0.90645824827E+03  0.15836834155E+04  0.10687945328E+04 0.  0.
   -9000010    2    1    2    0  501 -0.15038837682E+03 -0.72211369424E+03  0.58945403482E+03  0.13934052373E+04  0.10247230089E+04 0.  0.
        -13    1    3    3    0    0 -0.21882020772E+03  0.70924580201E+03  0.17253438429E+03  0.76202363211E+03  0.10566000000E+00 0.  1.
          4    1    3    3  502    0  0.36920858454E+03  0.12867892234E+02  0.73392386398E+03  0.82165978341E+03  0.00000000000E+00 0.  1.
         13    1    4    4    0    0 -0.69198004607E+02 -0.22477023659E+02  0.67946129440E+03  0.68334562425E+03  0.10566000000E+00 0. -1.
         -4    1    4    4    0  501 -0.81190372215E+02 -0.69963667058E+03 -0.90007259585E+02  0.71005961309E+03  0.00000000000E+00 0. -1.
<mgrwt>
<rscale>  2 0.12804708E+04</rscale>
<asrwt>0</asrwt>
<pdfrwt beam="1">  1        2 0.34407699E+00 0.12804708E+04</pdfrwt>
<pdfrwt beam="2">  1       -2 0.11393664E+00 0.12804708E+04</pdfrwt>
<totfact> 0.44555597E+00</totfact>
</mgrwt>
</event>
<event>
 8    1  0.1408247E-005  0.1161351E+04  0.7818608E-02  0.8636248E-01
         -4   -1    0    0    0  501 -0.00000000000E+00  0.00000000000E+00  0.33555106111E+04  0.33555106111E+04  0.00000000000E+00 0. -1.
          4   -1    0    0  502    0  0.00000000000E+00 -0.00000000000E+00 -0.62452820946E+03  0.62452820946E+03  0.00000000000E+00 0.  1.
    9000010    2    1    2  502    0 -0.13218583486E+03  0.59359590244E+03  0.17799286881E+03  0.11755999993E+04  0.99021447512E+03 0.  0.
   -9000010    2    1    2    0  501  0.13218583486E+03 -0.59359590244E+03  0.25529895328E+04  0.28044388212E+04  0.98858098151E+03 0.  0.
        -13    1    3    3    0    0  0.27827237383E+03  0.65310628689E+03  0.25391136673E+03  0.75395910323E+03  0.10566000000E+00 0.  1.
          4    1    3    3  502    0 -0.41045820869E+03 -0.59510384449E+02 -0.75918497920E+02  0.42164089610E+03  0.00000000000E+00 0.  1.
         13    1    4    4    0    0  0.33046967873E+03 -0.39724537452E+02  0.22135420846E+03  0.39973234070E+03  0.10566000000E+00 0. -1.
         -4    1    4    4    0  501 -0.19828384387E+03 -0.55387136499E+03  0.23316353244E+04  0.24047064805E+04  0.00000000000E+00 0. -1.
<mgrwt>
<rscale>  2 0.11613513E+04</rscale>
<asrwt>0</asrwt>
<pdfrwt beam="2">  1        4 0.96081265E-01 0.11613513E+04</pdfrwt>
<pdfrwt beam="1">  1       -4 0.51623239E+00 0.11613513E+04</pdfrwt>
<totfact> 0.44809764E-02</totfact>
</mgrwt>
</event>
<event>
 8    1  0.1408247E-005  0.1338284E+04  0.7818608E-02  0.8509124E-01
          2   -1    0    0  502    0  0.00000000000E+00  0.00000000000E+00  0.27137272890E+04  0.27137272890E+04  0.00000000000E+00 0.  1.
         -2   -1    0    0    0  501 -0.00000000000E+00 -0.00000000000E+00 -0.94587373474E+03  0.94587373474E+03  0.00000000000E+00 0. -1.
    9000010    2    1    2  502    0 -0.97218298431E+03 -0.92575971572E+02  0.18482953807E+04  0.22379417938E+04  0.79904792896E+03 0.  0.
   -9000010    2    1    2    0  501  0.97218298431E+03  0.92575971572E+02 -0.80441826426E+02  0.14216592299E+04  0.10300165111E+04 0.  0.
        -13    1    3    3    0    0 -0.73708741032E+01 -0.94632875968E+02 -0.50916482672E+02  0.10771355704E+03  0.10566000000E+00 0.  1.
          4    1    3    3  502    0 -0.96481211020E+03  0.20569043960E+01  0.18992118634E+04  0.21302282368E+04  0.00000000000E+00 0.  1.
         13    1    4    4    0    0  0.30557271021E+03  0.53524771719E+03  0.95848847532E+01  0.61640626307E+03  0.10566000000E+00 0. -1.
         -4    1    4    4    0  501  0.66661027410E+03 -0.44267174561E+03 -0.90026711179E+02  0.80525296685E+03  0.00000000000E+00 0. -1.
<mgrwt>
<rscale>  2 0.13382836E+04</rscale>
<asrwt>0</asrwt>
<pdfrwt beam="1">  1        2 0.41749650E+00 0.13382836E+04</pdfrwt>
<pdfrwt beam="2">  1       -2 0.14551904E+00 0.13382836E+04</pdfrwt>
<totfact> 0.12123470E+00</totfact>
</mgrwt>
</event>
<event>
 8    1  0.1408247E-005  0.1042548E+04  0.7818608E-02  0.8735609E-01
          1   -1    0    0  502    0  0.00000000000E+00  0.00000000000E+00  0.13774828408E+04  0.13774828408E+04  0.00000000000E+00 0.  1.
         -1   -1    0    0    0  501 -0.00000000000E+00 -0.00000000000E+00 -0.79746131586E+03  0.79746131586E+03  0.00000000000E+00 0. -1.
    9000010    2    1    2  502    0  0.46815842670E+03 -0.20630874447E+02  0.38598987885E+03  0.10796194052E+04  0.89274404395E+03 0.  0.
   -9000010    2    1    2    0  501 -0.46815842670E+03  0.20630874447E+02  0.19403164607E+03  0.10953247514E+04  0.97081928596E+03 0.  0.
        -13    1    3    3    0    0 -0.15206064176E+01 -0.38013441728E+03  0.29502756154E+03  0.48119202059E+03  0.10566000000E+00 0.  1.
          4    1    3    3  502    0  0.46967903311E+03  0.35950354284E+03  0.90962317303E+02  0.59842738459E+03  0.00000000000E+00 0.  1.
         13    1    4    4    0    0 -0.20121632395E+03 -0.26857466226E+03  0.49627472630E+03  0.59909012123E+03  0.10566000000E+00 0. -1.
         -4    1    4    4    0  501 -0.26694210274E+03  0.28920553670E+03 -0.30224308023E+03  0.49623463021E+03  0.00000000000E+00 0. -1.
<mgrwt>
<rscale>  2 0.10425483E+04</rscale>
<asrwt>0</asrwt>
<pdfrwt beam="1">  1        1 0.21192044E+00 0.10425483E+04</pdfrwt>
<pdfrwt beam="2">  1       -1 0.12268636E+00 0.10425483E+04</pdfrwt>
<totfact> 0.70052202E+00</totfact>
</mgrwt>
</event>
<event>
 8    1  0.1408247E-005  0.1092821E+04  0.7818608E-02  0.8691960E-01
         -1   -1    0    0    0  501 -0.00000000000E+00  0.00000000000E+00  0.44480991421E+03  0.44480991421E+03  0.00000000000E+00 0. -1.
          1   -1    0    0  502    0  0.00000000000E+00 -0.00000000000E+00 -0.26973354638E+04  0.26973354638E+04  0.00000000000E+00 0.  1.
    9000010    2    1    2  502    0  0.28547337495E+03  0.35200535385E+03 -0.12360456888E+04  0.16518610604E+04  0.99771398766E+03 0.  0.
   -9000010    2    1    2    0  501 -0.28547337495E+03 -0.35200535385E+03 -0.10164798608E+04  0.14902843176E+04  0.99111715904E+03 0.  0.
        -13    1    3    3    0    0  0.31213663482E+03  0.42865816348E+03 -0.13413235995E+03  0.54696307103E+03  0.10566000000E+00 0.  1.
          4    1    3    3  502    0 -0.26663259870E+02 -0.76652809635E+02 -0.11019133289E+04  0.11048979894E+04  0.00000000000E+00 0.  1.
         13    1    4    4    0    0 -0.44695420935E+03  0.80629403238E+02 -0.10149457930E+03  0.46537117091E+03  0.10566000000E+00 0. -1.
         -4    1    4    4    0  501  0.16148083440E+03 -0.43263475708E+03 -0.91498528149E+03  0.10249131467E+04  0.00000000000E+00 0. -1.
<mgrwt>
<rscale>  2 0.10928211E+04</rscale>
<asrwt>0</asrwt>
<pdfrwt beam="2">  1        1 0.41497468E+00 0.10928211E+04</pdfrwt>
<pdfrwt beam="1">  1       -1 0.68432295E-01 0.10928211E+04</pdfrwt>
<totfact> 0.20717366E+00</totfact>
</mgrwt>
</event>
<event>
 8    1  0.1408247E-005  0.1137247E+04  0.7818608E-02  0.8655377E-01
          4   -1    0    0  502    0  0.00000000000E+00  0.00000000000E+00  0.38935464931E+03  0.38935464931E+03  0.00000000000E+00 0.  1.
         -4   -1    0    0    0  501 -0.00000000000E+00 -0.00000000000E+00 -0.42399965619E+04  0.42399965619E+04  0.00000000000E+00 0. -1.
    9000010    2    1    2  502    0  0.50917362028E+03 -0.18054704150E+03 -0.84648177348E+03  0.14166976750E+04  0.99932272055E+03 0.  0.
   -9000010    2    1    2    0  501 -0.50917362028E+03  0.18054704150E+03 -0.30041601391E+04  0.32126535362E+04  0.10021524796E+04 0.  0.
        -13    1    3    3    0    0  0.31204962315E+02 -0.50067061704E+03 -0.17222744310E+03  0.53038393618E+03  0.10566000000E+00 0.  1.
          4    1    3    3  502    0  0.47796865796E+03  0.32012357554E+03 -0.67425433039E+03  0.88631373884E+03  0.00000000000E+00 0.  1.
         13    1    4    4    0    0  0.29043143838E+03 -0.69770289588E+02 -0.87420456081E+03  0.92382462569E+03  0.10566000000E+00 0. -1.
         -4    1    4    4    0  501 -0.79960505866E+03  0.25031733109E+03 -0.21299555783E+04  0.22888289105E+04  0.00000000000E+00 0. -1.
<mgrwt>
<rscale>  2 0.11372465E+04</rscale>
<asrwt>0</asrwt>
<pdfrwt beam="1">  1        4 0.59900716E-01 0.11372465E+04</pdfrwt>
<pdfrwt beam="2">  1       -4 0.65230715E+00 0.11372465E+04</pdfrwt>
<totfact> 0.23085073E-02</totfact>
</mgrwt>
</event>
<event>
 8    1  0.1408247E-005  0.1243655E+04  0.7818608E-02  0.8574395E-01
         -2   -1    0    0    0  501 -0.00000000000E+00  0.00000000000E+00  0.79768739267E+03  0.79768739267E+03  0.00000000000E+00 0.  1.
          2   -1    0    0  502    0  0.00000000000E+00 -0.00000000000E+00 -0.34163770922E+04  0.34163770922E+04  0.00000000000E+00 0. -1.
    9000010    2    1    2  502    0 -0.56185765244E+02  0.73632097023E+03  0.77082534095E+02  0.12446744332E+04  0.99897313090E+03 0.  0.
   -9000010    2    1    2    0  501  0.56185765244E+02 -0.73632097023E+03 -0.26957722336E+04  0.29693900517E+04  0.10023791358E+04 0.  0.
        -13    1    3    3    0    0  0.94755358417E+02  0.92645437707E+03 -0.11058587264E+03  0.93783022831E+03  0.10566000000E+00 0.  1.
          4    1    3    3  502    0 -0.15094112366E+03 -0.19013340684E+03  0.18766840673E+03  0.30684420492E+03  0.00000000000E+00 0.  1.
         13    1    4    4    0    0  0.11751720674E+03 -0.97161398462E+03 -0.18993160652E+04  0.21366435256E+04  0.10566000000E+00 0. -1.
         -4    1    4    4    0  501 -0.61331441493E+02  0.23529301439E+03 -0.79645616848E+03  0.83274652604E+03  0.00000000000E+00 0. -1.
<mgrwt>
<rscale>  2 0.12436548E+04</rscale>
<asrwt>0</asrwt>
<pdfrwt beam="2">  1        2 0.52559647E+00 0.12436548E+04</pdfrwt>
<pdfrwt beam="1">  1       -2 0.12272114E+00 0.12436548E+04</pdfrwt>
<totfact> 0.71298541E-01</totfact>
</mgrwt>
</event>
<event>
 8    1  0.1408247E-005  0.1647207E+04  0.7818608E-02  0.8329478E-01
         -1   -1    0    0    0  501 -0.00000000000E+00  0.00000000000E+00  0.11458185773E+04  0.11458185773E+04  0.00000000000E+00 0. -1.
          1   -1    0    0  502    0  0.00000000000E+00 -0.00000000000E+00 -0.28781316162E+04  0.28781316162E+04  0.00000000000E+00 0.  1.
    9000010    2    1    2  502    0  0.13097551417E+04 -0.26366594841E+02 -0.17090881143E+04  0.23671995517E+04  0.98310620303E+03 0.  0.
   -9000010    2    1    2    0  501 -0.13097551417E+04  0.26366594841E+02 -0.23224924594E+02  0.16567506418E+04  0.10139672397E+04 0.  0.
        -13    1    3    3    0    0  0.13680058916E+03 -0.69326233644E+02 -0.96580445059E+03  0.97790530002E+03  0.10566000000E+00 0.  1.
          4    1    3    3  502    0  0.11729545526E+04  0.42959638802E+02 -0.74328366372E+03  0.13892942517E+04  0.00000000000E+00 0.  1.
         13    1    4    4    0    0 -0.43453003015E+02  0.34587476031E+03 -0.38163633374E+02  0.35067647108E+03  0.10566000000E+00 0. -1.
         -4    1    4    4    0  501 -0.12663021387E+04 -0.31950816547E+03  0.14938708780E+02  0.13060741707E+04  0.00000000000E+00 0. -1.
<mgrwt>
<rscale>  2 0.16472075E+04</rscale>
<asrwt>0</asrwt>
<pdfrwt beam="2">  1        1 0.44278947E+00 0.16472075E+04</pdfrwt>
<pdfrwt beam="1">  1       -1 0.17627978E+00 0.16472075E+04</pdfrwt>
<totfact> 0.12546177E-01</totfact>
</mgrwt>
</event>
<event>
 8    1  0.1408247E-005  0.1092095E+04  0.7818608E-02  0.8692573E-01
          1   -1    0    0  502    0  0.00000000000E+00  0.00000000000E+00  0.99359171072E+03  0.99359171072E+03  0.00000000000E+00 0.  1.
         -1   -1    0    0    0  501 -0.00000000000E+00 -0.00000000000E+00 -0.12525721240E+04  0.12525721240E+04  0.00000000000E+00 0. -1.
    9000010    2    1    2  502    0 -0.43862902408E+03 -0.18483447788E+03 -0.35963760575E+03  0.11586736907E+04  0.99329064685E+03 0.  0.
   -9000010    2    1    2    0  501  0.43862902408E+03  0.18483447788E+03  0.10065719251E+03  0.10874901439E+04  0.97259638998E+03 0.  0.
        -13    1    3    3    0    0 -0.92800833423E+01  0.13219024414E+03  0.28944903438E+03  0.31834122457E+03  0.10566000000E+00 0.  1.
          4    1    3    3  502    0 -0.42934894074E+03 -0.31702472203E+03 -0.64908664013E+03  0.84033246616E+03  0.00000000000E+00 0.  1.
         13    1    4    4    0    0  0.57550057842E+02  0.50057600180E+03 -0.15933325020E+03  0.52846517247E+03  0.10566000000E+00 0. -1.
         -4    1    4    4    0  501  0.38107896624E+03 -0.31574152392E+03  0.25999044271E+03  0.55902497148E+03  0.00000000000E+00 0. -1.
<mgrwt>
<rscale>  2 0.10920947E+04</rscale>
<asrwt>0</asrwt>
<pdfrwt beam="1">  1        1 0.15286026E+00 0.10920947E+04</pdfrwt>
<pdfrwt beam="2">  1       -1 0.19270340E+00 0.10920947E+04</pdfrwt>
<totfact> 0.33910190E+00</totfact>
</mgrwt>
</event>
<event>
 8    1  0.1408247E-005  0.1194711E+04  0.7818608E-02  0.8610556E-01
          2   -1    0    0  502    0  0.00000000000E+00  0.00000000000E+00  0.34370351948E+04  0.34370351948E+04  0.00000000000E+00 0.  1.
         -2   -1    0    0    0  501 -0.00000000000E+00 -0.00000000000E+00 -0.41981624978E+03  0.41981624978E+03  0.00000000000E+00 0. -1.
    9000010    2    1    2  502    0  0.17926919990E+03  0.61466671687E+03  0.17153148493E+04  0.20933209313E+04  0.10147585280E+04 0.  0.
   -9000010    2    1    2    0  501 -0.17926919990E+03 -0.61466671687E+03  0.13019040957E+04  0.17635305133E+04  0.10025632041E+04 0.  0.
        -13    1    3    3    0    0  0.36638647609E+03  0.47290366795E+02  0.11780928490E+03  0.38775568007E+03  0.10566000000E+00 0.  1.
          4    1    3    3  502    0 -0.18711727618E+03  0.56737635008E+03  0.15975055645E+04  0.17055652512E+04  0.00000000000E+00 0.  1.
         13    1    4    4    0    0 -0.32893238673E+03 -0.40251366727E+03  0.94266466184E+02  0.52829910580E+03  0.10566000000E+00 0. -1.
         -4    1    4    4    0  501  0.14966318683E+03 -0.21215304960E+03  0.12076376295E+04  0.12352314075E+04  0.00000000000E+00 0. -1.
<mgrwt>
<rscale>  2 0.11947107E+04</rscale>
<asrwt>0</asrwt>
<pdfrwt beam="1">  1        2 0.52877463E+00 0.11947107E+04</pdfrwt>
<pdfrwt beam="2">  1       -2 0.64587118E-01 0.11947107E+04</pdfrwt>
<totfact> 0.30623521E+00</totfact>
</mgrwt>
</event>
<event>
 8    1  0.1408247E-005  0.1351573E+04  0.7818608E-02  0.8500404E-01
          1   -1    0    0  502    0  0.00000000000E+00  0.00000000000E+00  0.21953228196E+04  0.21953228196E+04  0.00000000000E+00 0. -1.
         -1   -1    0    0    0  501 -0.00000000000E+00 -0.00000000000E+00 -0.83411365088E+03  0.83411365088E+03  0.00000000000E+00 0.  1.
    9000010    2    1    2  502    0  0.80679453184E+03  0.39536660514E+03  0.75723245160E+03  0.15538004660E+04  0.10166920543E+04 0.  0.
   -9000010    2    1    2    0  501 -0.80679453184E+03 -0.39536660514E+03  0.60397671714E+03  0.14756360045E+04  0.10027370413E+04 0.  0.
        -13    1    3    3    0    0 -0.17607455247E+03  0.32461044116E+03  0.24539613507E+03  0.44338861150E+03  0.10566000000E+00 0.  1.
          4    1    3    3  502    0  0.98286908431E+03  0.70756163984E+02  0.51183631653E+03  0.11104118545E+04  0.00000000000E+00 0.  1.
         13    1    4    4    0    0 -0.93407097069E+03 -0.17751623865E+03  0.15883825013E+03  0.96396586773E+03  0.10566000000E+00 0. -1.
         -4    1    4    4    0  501  0.12727643885E+03 -0.21785036650E+03  0.44513846701E+03  0.51167013679E+03  0.00000000000E+00 0. -1.
<mgrwt>
<rscale>  2 0.13515732E+04</rscale>
<asrwt>0</asrwt>
<pdfrwt beam="1">  1        1 0.33774197E+00 0.13515732E+04</pdfrwt>
<pdfrwt beam="2">  1       -1 0.12832518E+00 0.13515732E+04</pdfrwt>
<totfact> 0.14479817E+00</totfact>
</mgrwt>
</event>
<event>
 8    1  0.1408247E-005  0.1041441E+04  0.7818608E-02  0.8736600E-01
         -2   -1    0    0    0  501 -0.00000000000E+00  0.00000000000E+00  0.77809291283E+03  0.77809291283E+03  0.00000000000E+00 0.  1.
          2   -1    0    0  502    0  0.00000000000E+00 -0.00000000000E+00 -0.14662908269E+04  0.14662908269E+04  0.00000000000E+00 0. -1.
    9000010    2    1    2  502    0 -0.32638646885E+02  0.34281277774E+03 -0.58386736544E+03  0.11720055647E+04  0.95609103199E+03 0.  0.
   -9000010    2    1    2    0  501  0.32638646885E+02 -0.34281277774E+03 -0.10433054864E+03  0.10723781750E+04  0.10102099807E+04 0.  0.
        -13    1    3    3    0    0 -0.12386302446E+03  0.24458475080E+03  0.22341799600E+03  0.35366560655E+03  0.10566000000E+00 0.  1.
          4    1    3    3  502    0  0.91224377574E+02  0.98228026943E+02 -0.80728536144E+03  0.81833995817E+03  0.00000000000E+00 0.  1.
         13    1    4    4    0    0 -0.37368326148E+02 -0.60789750158E+03 -0.35153481690E+03  0.70321582952E+03  0.10566000000E+00 0. -1.
         -4    1    4    4    0  501  0.70006973033E+02  0.26508472384E+03  0.24720426826E+03  0.36916234550E+03  0.00000000000E+00 0. -1.
<mgrwt>
<rscale>  2 0.10414407E+04</rscale>
<asrwt>0</asrwt>
<pdfrwt beam="2">  1        2 0.22558320E+00 0.10414407E+04</pdfrwt>
<pdfrwt beam="1">  1       -2 0.11970660E+00 0.10414407E+04</pdfrwt>
<totfact> 0.10569753E+01</totfact>
</mgrwt>
</event>
<event>
 8    1  0.1408247E-005  0.1695187E+04  0.7818608E-02  0.8305247E-01
          1   -1    0    0  502    0  0.00000000000E+00  0.00000000000E+00  0.41389579421E+04  0.41389579421E+04  0.00000000000E+00 0. -1.
         -1   -1    0    0    0  501 -0.00000000000E+00 -0.00000000000E+00 -0.69464139901E+03  0.69464139901E+03  0.00000000000E+00 0.  1.
    9000010    2    1    2  502    0  0.10958252918E+04 -0.82646926511E+03  0.17787377557E+04  0.24590099117E+04  0.99946847190E+03 0.  0.
   -9000010    2    1    2    0  501 -0.10958252918E+04  0.82646926511E+03  0.16655787874E+04  0.23745894294E+04  0.99027155101E+03 0.  0.
        -13    1    3    3    0    0 -0.17392726757E+03 -0.21812483141E+03  0.19769593432E+03  0.34192518201E+03  0.10566000000E+00 0.  1.
          4    1    3    3  502    0  0.12697525593E+04 -0.60834443370E+03  0.15810418213E+04  0.21170847297E+04  0.00000000000E+00 0.  1.
         13    1    4    4    0    0 -0.74984050682E+03  0.57913525150E+03  0.17017865889E+04  0.19477515320E+04  0.10566000000E+00 0. -1.
         -4    1    4    4    0  501 -0.34598478495E+03  0.24733401361E+03 -0.36207801497E+02  0.42683789733E+03  0.00000000000E+00 0. -1.
<mgrwt>
<rscale>  2 0.16951865E+04</rscale>
<asrwt>0</asrwt>
<pdfrwt beam="1">  1        1 0.63676274E+00 0.16951865E+04</pdfrwt>
<pdfrwt beam="2">  1       -1 0.10686791E+00 0.16951865E+04</pdfrwt>
<totfact> 0.42221831E-02</totfact>
</mgrwt>
</event>
<event>
 8    1  0.1408247E-005  0.1207565E+04  0.7818608E-02  0.8600887E-01
         -2   -1    0    0    0  501 -0.00000000000E+00  0.00000000000E+00  0.58949438370E+03  0.58949438370E+03  0.00000000000E+00 0. -1.
          2   -1    0    0  502    0  0.00000000000E+00 -0.00000000000E+00 -0.26613685024E+04  0.26613685024E+04  0.00000000000E+00 0.  1.
    9000010    2    1    2  502    0  0.20075028781E+02  0.81993869154E+03 -0.14523654173E+04  0.18772836116E+04  0.86146734595E+03 0.  0.
   -9000010    2    1    2    0  501 -0.20075028781E+02 -0.81993869154E+03 -0.61950870133E+03  0.13735792745E+04  0.91116767264E+03 0.  0.
        -13    1    3    3    0    0  0.27951999971E+03  0.52779972835E+03 -0.13456856238E+04  0.14722682475E+04  0.10566000000E+00 0.  1.
          4    1    3    3  502    0 -0.25944497092E+03  0.29213896320E+03 -0.10667979356E+03  0.40501536404E+03  0.00000000000E+00 0.  1.
         13    1    4    4    0    0  0.44254175782E+03 -0.46270279438E+03 -0.35397768467E+03  0.73159913597E+03  0.10566000000E+00 0. -1.
         -4    1    4    4    0  501 -0.46261678660E+03 -0.35723589717E+03 -0.26553101666E+03  0.64198013854E+03  0.00000000000E+00 0. -1.
<mgrwt>
<rscale>  2 0.12075651E+04</rscale>
<asrwt>0</asrwt>
<pdfrwt beam="2">  1        2 0.40944130E+00 0.12075651E+04</pdfrwt>
<pdfrwt beam="1">  1       -2 0.90691445E-01 0.12075651E+04</pdfrwt>
<totfact> 0.45231664E+00</totfact>
</mgrwt>
</event>
<event>
 8    1  0.1408247E-005  0.1012941E+04  0.7818608E-02  0.8762527E-01
         -2   -1    0    0    0  501 -0.00000000000E+00  0.00000000000E+00  0.50272274321E+03  0.50272274321E+03  0.00000000000E+00 0. -1.
          2   -1    0    0  502    0  0.00000000000E+00 -0.00000000000E+00 -0.24964464911E+04  0.24964464911E+04  0.00000000000E+00 0.  1.
    9000010    2    1    2  502    0  0.11028889240E+03 -0.11218487802E+03 -0.35454330617E+03  0.10710850649E+04  0.99838528314E+03 0.  0.
   -9000010    2    1    2    0  501 -0.11028889240E+03  0.11218487802E+03 -0.16391804417E+04  0.19280841695E+04  0.10029192178E+04 0.  0.
        -13    1    3    3    0    0  0.33963735578E+03  0.34284176199E+03 -0.70519907802E+02  0.48771618363E+03  0.10566000000E+00 0.  1.
          4    1    3    3  502    0 -0.22934846339E+03 -0.45502664001E+03 -0.28402339837E+03  0.58336888124E+03  0.00000000000E+00 0.  1.
         13    1    4    4    0    0  0.11271966043E+02  0.31582836369E+03 -0.48391181467E+02  0.31971288704E+03  0.10566000000E+00 0. -1.
         -4    1    4    4    0  501 -0.12156085844E+03 -0.20364348567E+03 -0.15907892603E+04  0.16083712824E+04  0.00000000000E+00 0. -1.
<mgrwt>
<rscale>  2 0.10129408E+04</rscale>
<asrwt>0</asrwt>
<pdfrwt beam="2">  1        2 0.38406869E+00 0.10129408E+04</pdfrwt>
<pdfrwt beam="1">  1       -2 0.77341960E-01 0.10129408E+04</pdfrwt>
<totfact> 0.82057800E+00</totfact>
</mgrwt>
</event>
<event>
 8    1  0.1408247E-005  0.1313151E+04  0.7818608E-02  0.8525904E-01
         -4   -1    0    0    0  501 -0.00000000000E+00  0.00000000000E+00  0.11383666138E+04  0.11383666138E+04  0.00000000000E+00 0.  1.
          4   -1    0    0  502    0  0.00000000000E+00 -0.00000000000E+00 -0.16322916722E+04  0.16322916722E+04  0.00000000000E+00 0. -1.
    9000010    2    1    2  502    0  0.15305961612E+03 -0.84750590919E+03  0.12652536910E+03  0.13080996329E+04  0.97643354524E+03 0.  0.
   -9000010    2    1    2    0  501 -0.15305961612E+03  0.84750590919E+03 -0.62045042749E+03  0.14625586532E+04  0.10061936041E+04 0.  0.
        -13    1    3    3    0    0 -0.10755236786E+03  0.18842232694E+03 -0.56815287178E+02  0.22427321094E+03  0.10566000000E+00 0.  1.
          4    1    3    3  502    0  0.26061198398E+03 -0.10359282361E+04  0.18334065628E+03  0.10838264219E+04  0.00000000000E+00 0.  1.
         13    1    4    4    0    0  0.19713054748E+02  0.38834994625E+03  0.25077733328E+03  0.46270246091E+03  0.10566000000E+00 0. -1.
         -4    1    4    4    0  501 -0.17277267087E+03  0.45915596294E+03 -0.87122776077E+03  0.99985619228E+03  0.00000000000E+00 0. -1.
<mgrwt>
<rscale>  2 0.13131509E+04</rscale>
<asrwt>0</asrwt>
<pdfrwt beam="2">  1        4 0.25112180E+00 0.13131509E+04</pdfrwt>
<pdfrwt beam="1">  1       -4 0.17513333E+00 0.13131509E+04</pdfrwt>
<totfact> 0.16013418E-01</totfact>
</mgrwt>
</event>
<event>
 8    1  0.1408247E-005  0.1526857E+04  0.7818608E-02  0.8394208E-01
          2   -1    0    0  502    0  0.00000000000E+00  0.00000000000E+00  0.37352642524E+04  0.37352642524E+04  0.00000000000E+00 0. -1.
         -2   -1    0    0    0  501 -0.00000000000E+00 -0.00000000000E+00 -0.96423698590E+03  0.96423698590E+03  0.00000000000E+00 0.  1.
    9000010    2    1    2  502    0  0.10554992591E+04 -0.46726414676E+03  0.27818988482E+04  0.31740738773E+04  0.10016832373E+04 0.  0.
   -9000010    2    1    2    0  501 -0.10554992591E+04  0.46726414676E+03 -0.10871581661E+02  0.15254273610E+04  0.99719405015E+03 0.  0.
        -13    1    3    3    0    0  0.11945643607E+04 -0.21245248461E+03  0.24440291649E+04  0.27286257787E+04  0.10566000000E+00 0.  1.
          4    1    3    3  502    0 -0.13906510157E+03 -0.25481166215E+03  0.33786968327E+03  0.44544809856E+03  0.00000000000E+00 0.  1.
         13    1    4    4    0    0  0.12655506572E+03  0.29160706916E+03  0.77286619506E+02  0.32714538078E+03  0.10566000000E+00 0. -1.
         -4    1    4    4    0  501 -0.11820543249E+04  0.17565707760E+03 -0.88158201167E+02  0.11982819803E+04  0.00000000000E+00 0. -1.
<mgrwt>
<rscale>  2 0.15268572E+04</rscale>
<asrwt>0</asrwt>
<pdfrwt beam="1">  1        2 0.57465603E+00 0.15268572E+04</pdfrwt>
<pdfrwt beam="2">  1       -2 0.14834415E+00 0.15268572E+04</pdfrwt>
<totfact> 0.22610483E-01</totfact>
</mgrwt>
</event>
<event>
 8    1  0.1408247E-005  0.1749153E+04  0.7818608E-02  0.8278961E-01
         -1   -1    0    0    0  501 -0.00000000000E+00  0.00000000000E+00  0.91186709399E+03  0.91186709399E+03  0.00000000000E+00 0.  1.
          1   -1    0    0  502    0  0.00000000000E+00 -0.00000000000E+00 -0.33556768192E+04  0.33556768192E+04  0.00000000000E+00 0. -1.
    9000010    2    1    2  502    0 -0.95274824606E+03  0.10922919175E+04 -0.11993536158E+04  0.21059842948E+04  0.94651460673E+03 0.  0.
   -9000010    2    1    2    0  501  0.95274824606E+03 -0.10922919175E+04 -0.12444561094E+04  0.21615596184E+04  0.10113545977E+04 0.  0.
        -13    1    3    3    0    0 -0.55629789362E+03  0.11395584147E+04 -0.64467832053E+03  0.14225578636E+04  0.10566000000E+00 0.  1.
          4    1    3    3  502    0 -0.39645035243E+03 -0.47266497235E+02 -0.55467529531E+03  0.68342643125E+03  0.00000000000E+00 0.  1.
         13    1    4    4    0    0  0.31629422182E+03  0.94742883423E+02 -0.35863331584E+01  0.33019860943E+03  0.10566000000E+00 0. -1.
         -4    1    4    4    0  501  0.63645402423E+03 -0.11870348009E+04 -0.12408697762E+04  0.18313610089E+04  0.00000000000E+00 0. -1.
<mgrwt>
<rscale>  2 0.17491531E+04</rscale>
<asrwt>0</asrwt>
<pdfrwt beam="2">  1        1 0.51625797E+00 0.17491531E+04</pdfrwt>
<pdfrwt beam="1">  1       -1 0.14028724E+00 0.17491531E+04</pdfrwt>
<totfact> 0.72616692E-02</totfact>
</mgrwt>
</event>
<event>
 8    1  0.1408247E-005  0.1646450E+04  0.7818608E-02  0.8329867E-01
          2   -1    0    0  502    0  0.00000000000E+00  0.00000000000E+00  0.24836638394E+04  0.24836638394E+04  0.00000000000E+00 0.  1.
         -2   -1    0    0    0  501 -0.00000000000E+00 -0.00000000000E+00 -0.12658913703E+04  0.12658913703E+04  0.00000000000E+00 0. -1.
    9000010    2    1    2  502    0  0.13427265892E+04 -0.80226292869E+02 -0.94722205885E+02  0.16234596228E+04  0.90404529704E+03 0.  0.
   -9000010    2    1    2    0  501 -0.13427265892E+04  0.80226292869E+02  0.13124946750E+04  0.21260955869E+04  0.99412736662E+03 0.  0.
        -13    1    3    3    0    0  0.11119339004E+04  0.74375259218E+02 -0.42427189160E+03  0.11924492976E+04  0.10566000000E+00 0.  1.
          4    1    3    3  502    0  0.23079268882E+03 -0.15460155209E+03  0.32954968572E+03  0.43101032526E+03  0.00000000000E+00 0.  1.
         13    1    4    4    0    0 -0.22099301263E+03 -0.38879531378E+03  0.45721016820E+03  0.63956302013E+03  0.10566000000E+00 0. -1.
         -4    1    4    4    0  501 -0.11217335766E+04  0.46902160665E+03  0.85528450679E+03  0.14865325667E+04  0.00000000000E+00 0. -1.
<mgrwt>
<rscale>  2 0.16464497E+04</rscale>
<asrwt>0</asrwt>
<pdfrwt beam="1">  1        2 0.38210213E+00 0.16464497E+04</pdfrwt>
<pdfrwt beam="2">  1       -2 0.19475252E+00 0.16464497E+04</pdfrwt>
<totfact> 0.60363173E-01</totfact>
</mgrwt>
</event>
<event>
 8    1  0.1408247E-005  0.1158899E+04  0.7818608E-02  0.8638172E-01
         -2   -1    0    0    0  501 -0.00000000000E+00  0.00000000000E+00  0.10066430435E+04  0.10066430435E+04  0.00000000000E+00 0.  1.
          2   -1    0    0  502    0  0.00000000000E+00 -0.00000000000E+00 -0.18076508819E+04  0.18076508819E+04  0.00000000000E+00 0. -1.
    9000010    2    1    2  502    0  0.49411399353E+03  0.19967162269E+03  0.33382862671E+03  0.11334157212E+04  0.94295930430E+03 0.  0.
   -9000010    2    1    2    0  501 -0.49411399353E+03 -0.19967162269E+03 -0.11348364651E+04  0.16808782042E+04  0.11195893619E+04 0.  0.
        -13    1    3    3    0    0  0.18852239217E+03 -0.33876746851E+03 -0.70387336048E+02  0.39402852474E+03  0.10566000000E+00 0.  1.
          4    1    3    3  502    0  0.30559160136E+03  0.53843909120E+03  0.40421596276E+03  0.73938719647E+03  0.00000000000E+00 0.  1.
         13    1    4    4    0    0 -0.56929480552E+03 -0.60315885930E+03 -0.74760161816E+03  0.11166043954E+04  0.10566000000E+00 0. -1.
         -4    1    4    4    0  501  0.75180811989E+02  0.40348723661E+03 -0.38723484693E+03  0.56427380879E+03  0.00000000000E+00 0. -1.
<mgrwt>
<rscale>  2 0.11588992E+04</rscale>
<asrwt>0</asrwt>
<pdfrwt beam="2">  1        2 0.27810014E+00 0.11588992E+04</pdfrwt>
<pdfrwt beam="1">  1       -2 0.15486816E+00 0.11588992E+04</pdfrwt>
<totfact> 0.32549436E+00</totfact>
</mgrwt>
</event>
<event>
 8    1  0.1408247E-005  0.1549976E+04  0.7818608E-02  0.8381304E-01
         -4   -1    0    0    0  501 -0.00000000000E+00  0.00000000000E+00  0.15761492765E+04  0.15761492765E+04  0.00000000000E+00 0. -1.
          4   -1    0    0  502    0  0.00000000000E+00 -0.00000000000E+00 -0.15644989972E+04  0.15644989972E+04  0.00000000000E+00 0.  1.
    9000010    2    1    2  502    0 -0.10209366523E+04  0.60337178999E+03  0.25692122544E+03  0.15524192114E+04  0.96831179208E+03 0.  0.
   -9000010    2    1    2    0  501  0.10209366523E+04 -0.60337178999E+03 -0.24527094616E+03  0.15882290624E+04  0.10275916274E+04 0.  0.
        -13    1    3    3    0    0  0.39745346403E+02  0.23583740888E+03  0.35231122162E+03  0.42581942656E+03  0.10566000000E+00 0.  1.
          4    1    3    3  502    0 -0.10606819987E+04  0.36753438111E+03 -0.95389996187E+02  0.11265997848E+04  0.00000000000E+00 0.  1.
         13    1    4    4    0    0  0.42927704886E+03 -0.79016426421E+03 -0.33844943829E+03  0.96082588566E+03  0.10566000000E+00 0. -1.
         -4    1    4    4    0  501  0.59165960347E+03  0.18679247422E+03  0.93178492132E+02  0.62740317675E+03  0.00000000000E+00 0. -1.
<mgrwt>
<rscale>  2 0.15499765E+04</rscale>
<asrwt>0</asrwt>
<pdfrwt beam="2">  1        4 0.24069215E+00 0.15499765E+04</pdfrwt>
<pdfrwt beam="1">  1       -4 0.24248451E+00 0.15499765E+04</pdfrwt>
<totfact> 0.10877372E-01</totfact>
</mgrwt>
</event>
<event>
 8    1  0.1408247E-005  0.9936314E+03  0.7818608E-02  0.8780598E-01
         -2   -1    0    0    0  501 -0.00000000000E+00  0.00000000000E+00  0.96926388047E+03  0.96926388047E+03  0.00000000000E+00 0. -1.
          2   -1    0    0  502    0  0.00000000000E+00 -0.00000000000E+00 -0.10645200812E+04  0.10645200812E+04  0.00000000000E+00 0.  1.
    9000010    2    1    2  502    0 -0.23414190935E+03  0.30069884986E+03 -0.24546054254E+03  0.96336661840E+03  0.85004831126E+03 0.  0.
   -9000010    2    1    2    0  501  0.23414190935E+03 -0.30069884986E+03  0.15020434182E+03  0.10704173433E+04  0.98893362387E+03 0.  0.
        -13    1    3    3    0    0  0.60499347773E+02  0.41995965832E+03  0.15532674122E+03  0.45183259444E+03  0.10566000000E+00 0.  1.
          4    1    3    3  502    0 -0.29464125712E+03 -0.11926080846E+03 -0.40078728376E+03  0.51153402395E+03  0.00000000000E+00 0.  1.
         13    1    4    4    0    0 -0.29484077749E+03 -0.47063043772E+02 -0.22516395181E+03  0.37395832725E+03  0.10566000000E+00 0. -1.
         -4    1    4    4    0  501  0.52898268684E+03 -0.25363580609E+03  0.37536829363E+03  0.69645901601E+03  0.00000000000E+00 0. -1.
<mgrwt>
<rscale>  2 0.99363143E+03</rscale>
<asrwt>0</asrwt>
<pdfrwt beam="2">  1        2 0.16377232E+00 0.99363143E+03</pdfrwt>
<pdfrwt beam="1">  1       -2 0.14911752E+00 0.99363143E+03</pdfrwt>
<totfact> 0.96307460E+00</totfact>
</mgrwt>
</event>
<event>
 8    1  0.1408247E-005  0.1507326E+04  0.7818608E-02  0.8405295E-01
          2   -1    0    0  502    0  0.00000000000E+00  0.00000000000E+00  0.16848386630E+04  0.16848386630E+04  0.00000000000E+00 0. -1.
         -2   -1    0    0    0  501 -0.00000000000E+00 -0.00000000000E+00 -0.13764119878E+04  0.13764119878E+04  0.00000000000E+00 0.  1.
    9000010    2    1    2  502    0  0.75145366242E+03  0.83040467341E+03  0.37254765735E+03  0.15573563299E+04  0.10160277816E+04 0.  0.
   -9000010    2    1    2    0  501 -0.75145366242E+03 -0.83040467341E+03 -0.64120982157E+02  0.15038943209E+04  0.10016646643E+04 0.  0.
        -13    1    3    3    0    0 -0.21458831773E+03  0.20230962375E+03  0.27115549145E+03  0.40062780941E+03  0.10566000000E+00 0.  1.
          4    1    3    3  502    0  0.96604198015E+03  0.62809504966E+03  0.10139216590E+03  0.11567285205E+04  0.00000000000E+00 0.  1.
         13    1    4    4    0    0  0.80155446638E+02  0.17813865055E+03 -0.82708614266E+01  0.19551647695E+03  0.10566000000E+00 0. -1.
         -4    1    4    4    0  501 -0.83160910905E+03 -0.10085433240E+04 -0.55850120731E+02  0.13083778440E+04  0.00000000000E+00 0. -1.
<mgrwt>
<rscale>  2 0.15073256E+04</rscale>
<asrwt>0</asrwt>
<pdfrwt beam="1">  1        2 0.25920595E+00 0.15073256E+04</pdfrwt>
<pdfrwt beam="2">  1       -2 0.21175569E+00 0.15073256E+04</pdfrwt>
<totfact> 0.12203889E+00</totfact>
</mgrwt>
</event>
<event>
 8    1  0.1408247E-005  0.1487641E+04  0.7818608E-02  0.8416647E-01
          2   -1    0    0  502    0  0.00000000000E+00  0.00000000000E+00  0.25312266911E+04  0.25312266911E+04  0.00000000000E+00 0.  1.
         -2   -1    0    0    0  501 -0.00000000000E+00 -0.00000000000E+00 -0.99065729619E+03  0.99065729619E+03  0.00000000000E+00 0. -1.
    9000010    2    1    2  502    0  0.29717936243E+03  0.10536413955E+04  0.13772101517E+04  0.20329243681E+04  0.10186255055E+04 0.  0.
   -9000010    2    1    2    0  501 -0.29717936243E+03 -0.10536413955E+04  0.16335924318E+03  0.14889596192E+04  0.99591101082E+03 0.  0.
        -13    1    3    3    0    0 -0.34989600637E+03  0.57518023283E+03  0.78253808914E+03  0.10322913289E+04  0.10566000000E+00 0.  1.
          4    1    3    3  502    0  0.64707536881E+03  0.47846116272E+03  0.59467206258E+03  0.10006330392E+04  0.00000000000E+00 0.  1.
         13    1    4    4    0    0 -0.36218439622E+03 -0.12102373315E+04  0.14530488959E+02  0.12633539020E+04  0.10566000000E+00 0. -1.
         -4    1    4    4    0  501  0.65005033785E+02  0.15659593593E+03  0.14882875422E+03  0.22560571724E+03  0.00000000000E+00 0. -1.
<mgrwt>
<rscale>  2 0.14876410E+04</rscale>
<asrwt>0</asrwt>
<pdfrwt beam="1">  1        2 0.38941949E+00 0.14876410E+04</pdfrwt>
<pdfrwt beam="2">  1       -2 0.15240882E+00 0.14876410E+04</pdfrwt>
<totfact> 0.13189842E+00</totfact>
</mgrwt>
</event>
<event>
 8    1  0.1408247E-005  0.1177116E+04  0.7818608E-02  0.8623996E-01
          2   -1    0    0  502    0  0.00000000000E+00  0.00000000000E+00  0.15197057054E+04  0.15197057054E+04  0.00000000000E+00 0. -1.
         -2   -1    0    0    0  501 -0.00000000000E+00 -0.00000000000E+00 -0.91458579094E+03  0.91458579094E+03  0.00000000000E+00 0.  1.
    9000010    2    1    2  502    0 -0.59103228317E+03 -0.13094257826E+03  0.23915664246E+03  0.12131285286E+04  0.10237283862E+04 0.  0.
   -9000010    2    1    2    0  501  0.59103228317E+03  0.13094257826E+03  0.36596327198E+03  0.12211629677E+04  0.99541185386E+03 0.  0.
        -13    1    3    3    0    0 -0.22933478193E+03 -0.12331932342E+03  0.62931086882E+03  0.68105380001E+03  0.10566000000E+00 0.  1.
          4    1    3    3  502    0 -0.36169750124E+03 -0.76232548401E+01 -0.39015422636E+03  0.53207472856E+03  0.00000000000E+00 0.  1.
         13    1    4    4    0    0 -0.10137266953E+03  0.36399686344E+03  0.30947031425E+03  0.48840763844E+03  0.10566000000E+00 0. -1.
         -4    1    4    4    0  501  0.69240495270E+03 -0.23305428518E+03  0.56492957730E+02  0.73275532931E+03  0.00000000000E+00 0. -1.
<mgrwt>
<rscale>  2 0.11771162E+04</rscale>
<asrwt>0</asrwt>
<pdfrwt beam="1">  1        2 0.23380088E+00 0.11771162E+04</pdfrwt>
<pdfrwt beam="2">  1       -2 0.14070551E+00 0.11771162E+04</pdfrwt>
<totfact> 0.62241101E+00</totfact>
</mgrwt>
</event>
<event>
 8    1  0.1408247E-005  0.1068606E+04  0.7818608E-02  0.8712672E-01
          2   -1    0    0  502    0  0.00000000000E+00  0.00000000000E+00  0.25032784618E+04  0.25032784618E+04  0.00000000000E+00 0. -1.
         -2   -1    0    0    0  501 -0.00000000000E+00 -0.00000000000E+00 -0.45893528588E+03  0.45893528588E+03  0.00000000000E+00 0.  1.
    9000010    2    1    2  502    0  0.11150377457E+02  0.39723495340E+03  0.90343053082E+03  0.13962012884E+04  0.98755828919E+03 0.  0.
   -9000010    2    1    2    0  501 -0.11150377457E+02 -0.39723495340E+03  0.11409126451E+04  0.15660124593E+04  0.99639019455E+03 0.  0.
        -13    1    3    3    0    0 -0.45663044139E+03  0.45488692419E+02  0.26422052353E+03  0.52952155514E+03  0.10566000000E+00 0.  1.
          4    1    3    3  502    0  0.46778081884E+03  0.35174626098E+03  0.63921000729E+03  0.86667973324E+03  0.00000000000E+00 0.  1.
         13    1    4    4    0    0 -0.82209489821E+02 -0.21691223251E+03 -0.13971935229E+03  0.27079664953E+03  0.10566000000E+00 0. -1.
         -4    1    4    4    0  501  0.71059112364E+02 -0.18032272089E+03  0.12806319974E+04  0.12952158098E+04  0.00000000000E+00 0. -1.
<mgrwt>
<rscale>  2 0.10686060E+04</rscale>
<asrwt>0</asrwt>
<pdfrwt beam="1">  1        2 0.38511975E+00 0.10686060E+04</pdfrwt>
<pdfrwt beam="2">  1       -2 0.70605430E-01 0.10686060E+04</pdfrwt>
<totfact> 0.98024281E+00</totfact>
</mgrwt>
</event>
<event>
 8    1  0.1408247E-005  0.1155287E+04  0.7818608E-02  0.8641015E-01
          1   -1    0    0  502    0  0.00000000000E+00  0.00000000000E+00  0.11851629766E+04  0.11851629766E+04  0.00000000000E+00 0. -1.
         -1   -1    0    0    0  501 -0.00000000000E+00 -0.00000000000E+00 -0.12133240996E+04  0.12133240996E+04  0.00000000000E+00 0.  1.
    9000010    2    1    2  502    0 -0.19620535942E+03 -0.55857338572E+03  0.30590169350E+03  0.12207266740E+04  0.10227888327E+04 0.  0.
   -9000010    2    1    2    0  501  0.19620535942E+03  0.55857338572E+03 -0.33406281651E+03  0.11777604022E+04  0.96178003163E+03 0.  0.
        -13    1    3    3    0    0  0.21020407366E+03 -0.41908871536E+03  0.55304739394E+03  0.72503967825E+03  0.10566000000E+00 0.  1.
          4    1    3    3  502    0 -0.40640943307E+03 -0.13948467036E+03 -0.24714570044E+03  0.49568699580E+03  0.00000000000E+00 0.  1.
         13    1    4    4    0    0  0.27300374370E+03  0.76287029353E+03 -0.39578801259E+02  0.81121428828E+03  0.10566000000E+00 0. -1.
         -4    1    4    4    0  501 -0.76798384287E+02 -0.20429690781E+03 -0.29448401525E+03  0.36654611389E+03  0.00000000000E+00 0. -1.
<mgrwt>
<rscale>  2 0.11552867E+04</rscale>
<asrwt>0</asrwt>
<pdfrwt beam="1">  1        1 0.18233276E+00 0.11552867E+04</pdfrwt>
<pdfrwt beam="2">  1       -1 0.18666525E+00 0.11552867E+04</pdfrwt>
<totfact> 0.26813248E+00</totfact>
</mgrwt>
</event>
<event>
 8    1  0.1408247E-005  0.1182973E+04  0.7818608E-02  0.8619495E-01
          4   -1    0    0  502    0  0.00000000000E+00  0.00000000000E+00  0.35222556332E+04  0.35222556332E+04  0.00000000000E+00 0.  1.
         -4   -1    0    0    0  501 -0.00000000000E+00 -0.00000000000E+00 -0.59768130931E+03  0.59768130931E+03  0.00000000000E+00 0. -1.
    9000010    2    1    2  502    0  0.43993909722E+03 -0.39687809054E+03  0.26708290960E+04  0.29292177962E+04  0.10468668539E+04 0.  0.
   -9000010    2    1    2    0  501 -0.43993909722E+03  0.39687809054E+03  0.25374522789E+03  0.11907191463E+04  0.10011827089E+04 0.  0.
        -13    1    3    3    0    0  0.31722414573E+03 -0.66085544491E+01  0.10985426417E+03  0.33577194962E+03  0.10566000000E+00 0.  1.
          4    1    3    3  502    0  0.12271495148E+03 -0.39026953609E+03  0.25609748318E+04  0.25934458466E+04  0.00000000000E+00 0.  1.
         13    1    4    4    0    0 -0.57858294547E+03  0.60002065181E+03  0.37791525391E+03  0.91520651095E+03  0.10566000000E+00 0. -1.
         -4    1    4    4    0  501  0.13864384825E+03 -0.20314256127E+03 -0.12417002602E+03  0.27551263532E+03  0.00000000000E+00 0. -1.
<mgrwt>
<rscale>  2 0.11829731E+04</rscale>
<asrwt>0</asrwt>
<pdfrwt beam="1">  1        4 0.54188547E+00 0.11829731E+04</pdfrwt>
<pdfrwt beam="2">  1       -4 0.91950973E-01 0.11829731E+04</pdfrwt>
<totfact> 0.36924020E-02</totfact>
</mgrwt>
</event>
<event>
 8    1  0.1408247E-005  0.1233325E+04  0.7818608E-02  0.8581882E-01
         -1   -1    0    0    0  501 -0.00000000000E+00  0.00000000000E+00  0.88616268419E+03  0.88616268419E+03  0.00000000000E+00 0.  1.
          1   -1    0    0  502    0  0.00000000000E+00 -0.00000000000E+00 -0.18551611859E+04  0.18551611859E+04  0.00000000000E+00 0. -1.
    9000010    2    1    2  502    0 -0.71043228779E+03  0.26079830405E+02 -0.11268970712E+03  0.12462469900E+04  0.10173683684E+04 0.  0.
   -9000010    2    1    2    0  501  0.71043228779E+03 -0.26079830405E+02 -0.85630879459E+03  0.14950768801E+04  0.99829651536E+03 0.  0.
        -13    1    3    3    0    0 -0.47020214077E+03 -0.43794308146E+03  0.15231566575E+03  0.66036676854E+03  0.10566000000E+00 0.  1.
          4    1    3    3  502    0 -0.24023014701E+03  0.46402291187E+03 -0.26500537287E+03  0.58588022148E+03  0.00000000000E+00 0.  1.
         13    1    4    4    0    0 -0.83113544991E+02 -0.15231213152E+03  0.13440033341E+03  0.21947735089E+03  0.10566000000E+00 0. -1.
         -4    1    4    4    0  501  0.79354583278E+03  0.12623230111E+03 -0.99070912801E+03  0.12755995292E+04  0.00000000000E+00 0. -1.
<mgrwt>
<rscale>  2 0.12333247E+04</rscale>
<asrwt>0</asrwt>
<pdfrwt beam="2">  1        1 0.28540941E+00 0.12333247E+04</pdfrwt>
<pdfrwt beam="1">  1       -1 0.13633272E+00 0.12333247E+04</pdfrwt>
<totfact> 0.22859030E+00</totfact>
</mgrwt>
</event>
<event>
 8    1  0.1408247E-005  0.1157811E+04  0.7818608E-02  0.8639027E-01
          1   -1    0    0  502    0  0.00000000000E+00  0.00000000000E+00  0.67853966486E+03  0.67853966486E+03  0.00000000000E+00 0. -1.
         -1   -1    0    0    0  501 -0.00000000000E+00 -0.00000000000E+00 -0.20365331726E+04  0.20365331726E+04  0.00000000000E+00 0.  1.
    9000010    2    1    2  502    0 -0.47538731369E+01  0.50076051541E+03 -0.43202427124E+03  0.12131362723E+04  0.10169911264E+04 0.  0.
   -9000010    2    1    2    0  501  0.47538731369E+01 -0.50076051541E+03 -0.92596923647E+03  0.15019365651E+04  0.10712659453E+04 0.  0.
        -13    1    3    3    0    0 -0.44471600588E+03  0.23468009366E+03  0.53855912743E+02  0.50571488286E+03  0.10566000000E+00 0.  1.
          4    1    3    3  502    0  0.43996213275E+03  0.26608042176E+03 -0.48588018398E+03  0.70742138947E+03  0.00000000000E+00 0.  1.
         13    1    4    4    0    0 -0.43978338805E+03  0.48888530608E+02 -0.53440501194E+03  0.69382147904E+03  0.10566000000E+00 0. -1.
         -4    1    4    4    0  501  0.44453726118E+03 -0.54964904602E+03 -0.39156422453E+03  0.80811508605E+03  0.00000000000E+00 0. -1.
<mgrwt>
<rscale>  2 0.11578114E+04</rscale>
<asrwt>0</asrwt>
<pdfrwt beam="1">  1        1 0.10439072E+00 0.11578114E+04</pdfrwt>
<pdfrwt beam="2">  1       -1 0.31331280E+00 0.11578114E+04</pdfrwt>
<totfact> 0.49238700E-01</totfact>
</mgrwt>
</event>
<event>
 8    1  0.1408247E-005  0.1059578E+04  0.7818608E-02  0.8720541E-01
         -2   -1    0    0    0  501 -0.00000000000E+00  0.00000000000E+00  0.63609832943E+03  0.63609832943E+03  0.00000000000E+00 0. -1.
          2   -1    0    0  502    0  0.00000000000E+00 -0.00000000000E+00 -0.18043277590E+04  0.18043277590E+04  0.00000000000E+00 0.  1.
    9000010    2    1    2  502    0 -0.37995871748E+03  0.64111317427E+02 -0.40302927188E+03  0.11320521368E+04  0.98520584571E+03 0.  0.
   -9000010    2    1    2    0  501  0.37995871748E+03 -0.64111317427E+02 -0.76520015768E+03  0.13083739516E+04  0.98885399730E+03 0.  0.
        -13    1    3    3    0    0  0.12847798263E+03 -0.10495658977E+03  0.24206524530E+03  0.29345880785E+03  0.10566000000E+00 0.  1.
          4    1    3    3  502    0 -0.50843670011E+03  0.16906790720E+03 -0.64509451718E+03  0.83859332895E+03  0.00000000000E+00 0.  1.
         13    1    4    4    0    0  0.41460573276E+03 -0.36519749860E+03 -0.78876483784E+02  0.55811167115E+03  0.10566000000E+00 0. -1.
         -4    1    4    4    0  501 -0.34647015272E+02  0.30108618117E+03 -0.68632367390E+03  0.75026228048E+03  0.00000000000E+00 0. -1.
<mgrwt>
<rscale>  2 0.10595775E+04</rscale>
<asrwt>0</asrwt>
<pdfrwt beam="2">  1        2 0.27758889E+00 0.10595775E+04</pdfrwt>
<pdfrwt beam="1">  1       -2 0.97861280E-01 0.10595775E+04</pdfrwt>
<totfact> 0.11421448E+01</totfact>
</mgrwt>
</event>
<event>
 8    1  0.1408247E-005  0.1176465E+04  0.7818608E-02  0.8624498E-01
         -1   -1    0    0    0  501 -0.00000000000E+00  0.00000000000E+00  0.80768673241E+03  0.80768673241E+03  0.00000000000E+00 0.  1.
          1   -1    0    0  502    0  0.00000000000E+00 -0.00000000000E+00 -0.18269585656E+04  0.18269585656E+04  0.00000000000E+00 0. -1.
    9000010    2    1    2  502    0  0.16938517399E+03  0.61972760102E+03 -0.84380254597E+03  0.14610193895E+04  0.10048986432E+04 0.  0.
   -9000010    2    1    2    0  501 -0.16938517399E+03 -0.61972760102E+03 -0.17546928725E+03  0.11736259086E+04  0.96636156065E+03 0.  0.
        -13    1    3    3    0    0  0.14241798434E+03  0.57253809569E+03 -0.10735196155E+04  0.12249600521E+04  0.10566000000E+00 0.  1.
          4    1    3    3  502    0  0.26967189654E+02  0.47189505334E+02  0.22971706950E+03  0.23605933735E+03  0.00000000000E+00 0.  1.
         13    1    4    4    0    0 -0.56905761143E+03 -0.27704748293E+03 -0.12065055061E+03  0.64431237723E+03  0.10566000000E+00 0. -1.
         -4    1    4    4    0  501  0.39967243744E+03 -0.34268011809E+03 -0.54818736642E+02  0.52931353135E+03  0.00000000000E+00 0. -1.
<mgrwt>
<rscale>  2 0.11764653E+04</rscale>
<asrwt>0</asrwt>
<pdfrwt beam="2">  1        1 0.28107055E+00 0.11764653E+04</pdfrwt>
<pdfrwt beam="1">  1       -1 0.12425950E+00 0.11764653E+04</pdfrwt>
<totfact> 0.30884510E+00</totfact>
</mgrwt>
</event>
<event>
 8    1  0.1408247E-005  0.1100690E+04  0.7818608E-02  0.8685349E-01
          2   -1    0    0  502    0  0.00000000000E+00  0.00000000000E+00  0.13991056066E+04  0.13991056066E+04  0.00000000000E+00 0.  1.
         -2   -1    0    0    0  501 -0.00000000000E+00 -0.00000000000E+00 -0.11971679930E+04  0.11971679930E+04  0.00000000000E+00 0. -1.
    9000010    2    1    2  502    0  0.18818753959E+03 -0.36924840960E+03  0.78482964048E+03  0.13706542772E+04  0.10444982743E+04 0.  0.
   -9000010    2    1    2    0  501 -0.18818753959E+03  0.36924840960E+03 -0.58289202688E+03  0.12256193223E+04  0.99529928677E+03 0.  0.
        -13    1    3    3    0    0  0.10457173656E+03 -0.66490399887E+03  0.82059899728E+03  0.10613271415E+04  0.10566000000E+00 0.  1.
          4    1    3    3  502    0  0.83615803030E+02  0.29565558927E+03 -0.35769356803E+02  0.30932713568E+03  0.00000000000E+00 0.  1.
         13    1    4    4    0    0  0.44455256579E+02 -0.28041632966E+03 -0.43568464741E+03  0.52002952890E+03  0.10566000000E+00 0. -1.
         -4    1    4    4    0  501 -0.23264279617E+03  0.64966473925E+03 -0.14720737947E+03  0.70558979344E+03  0.00000000000E+00 0. -1.
<mgrwt>
<rscale>  2 0.11006902E+04</rscale>
<asrwt>0</asrwt>
<pdfrwt beam="1">  1        2 0.21524702E+00 0.11006902E+04</pdfrwt>
<pdfrwt beam="2">  1       -2 0.18417969E+00 0.11006902E+04</pdfrwt>
<totfact> 0.30938287E+00</totfact>
</mgrwt>
</event>
<event>
 8    1  0.1408247E-005  0.1134937E+04  0.7818608E-02  0.8657236E-01
          1   -1    0    0  502    0  0.00000000000E+00  0.00000000000E+00  0.14917436397E+04  0.14917436397E+04  0.00000000000E+00 0. -1.
         -1   -1    0    0    0  501 -0.00000000000E+00 -0.00000000000E+00 -0.86495718616E+03  0.86495718616E+03  0.00000000000E+00 0.  1.
    9000010    2    1    2  502    0 -0.77986157155E+02  0.56770832490E+03  0.36384815029E+03  0.12020756830E+04  0.99208159357E+03 0.  0.
   -9000010    2    1    2    0  501  0.77986157155E+02 -0.56770832490E+03  0.26293830327E+03  0.11546251429E+04  0.96728903972E+03 0.  0.
        -13    1    3    3    0    0  0.38901391272E+03 -0.18724227673E+02  0.64076616207E+02  0.39470019623E+03  0.10566000000E+00 0.  1.
          4    1    3    3  502    0 -0.46700006988E+03  0.58643255258E+03  0.29977153409E+03  0.80737548677E+03  0.00000000000E+00 0.  1.
         13    1    4    4    0    0 -0.29581594967E+03 -0.61502036472E+03  0.35136565271E+03  0.76760338598E+03  0.10566000000E+00 0. -1.
         -4    1    4    4    0  501  0.37380210683E+03  0.47312039819E+02 -0.88427349442E+02  0.38702175689E+03  0.00000000000E+00 0. -1.
<mgrwt>
<rscale>  2 0.11349373E+04</rscale>
<asrwt>0</asrwt>
<pdfrwt beam="1">  1        1 0.22949902E+00 0.11349373E+04</pdfrwt>
<pdfrwt beam="2">  1       -1 0.13307034E+00 0.11349373E+04</pdfrwt>
<totfact> 0.46118489E+00</totfact>
</mgrwt>
</event>
<event>
 8    1  0.1408247E-005  0.1445950E+04  0.7818608E-02  0.8441301E-01
          2   -1    0    0  502    0  0.00000000000E+00  0.00000000000E+00  0.30272321327E+04  0.30272321327E+04  0.00000000000E+00 0.  1.
         -2   -1    0    0    0  501 -0.00000000000E+00 -0.00000000000E+00 -0.70486541513E+03  0.70486541513E+03  0.00000000000E+00 0. -1.
    9000010    2    1    2  502    0  0.30459154913E+02  0.10316753251E+04  0.89274840751E+03  0.16955305249E+04  0.10062516112E+04 0.  0.
   -9000010    2    1    2    0  501 -0.30459154913E+02 -0.10316753251E+04  0.14296183101E+04  0.20365670230E+04  0.10190755565E+04 0.  0.
        -13    1    3    3    0    0 -0.60498416544E+02 -0.15935962230E+03  0.33788429800E+03  0.37844597715E+03  0.10566000000E+00 0.  1.
          4    1    3    3  502    0  0.90957571457E+02  0.11910349474E+04  0.55486410951E+03  0.13170845477E+04  0.00000000000E+00 0.  1.
         13    1    4    4    0    0  0.12597994997E+03  0.30678226102E+02  0.76021659824E+03  0.77119478004E+03  0.10566000000E+00 0. -1.
         -4    1    4    4    0  501 -0.15643910488E+03 -0.10623535512E+04  0.66940171185E+03  0.12653722429E+04  0.00000000000E+00 0. -1.
<mgrwt>
<rscale>  2 0.14459495E+04</rscale>
<asrwt>0</asrwt>
<pdfrwt beam="1">  1        2 0.46572801E+00 0.14459495E+04</pdfrwt>
<pdfrwt beam="2">  1       -2 0.10844084E+00 0.14459495E+04</pdfrwt>
<totfact> 0.17258025E+00</totfact>
</mgrwt>
</event>
<event>
 8    1  0.1408247E-005  0.1281829E+04  0.7818608E-02  0.8547365E-01
          2   -1    0    0  502    0  0.00000000000E+00  0.00000000000E+00  0.23738409522E+04  0.23738409522E+04  0.00000000000E+00 0. -1.
         -2   -1    0    0    0  501 -0.00000000000E+00 -0.00000000000E+00 -0.74287814585E+03  0.74287814585E+03  0.00000000000E+00 0.  1.
    9000010    2    1    2  502    0  0.76550585609E+03 -0.25620087652E+03  0.40869184821E+03  0.13460137243E+04  0.99653691065E+03 0.  0.
   -9000010    2    1    2    0  501 -0.76550585609E+03  0.25620087652E+03  0.12222709581E+04  0.17707053738E+04  0.99489352233E+03 0.  0.
        -13    1    3    3    0    0  0.52788067749E+01  0.30078221467E+03  0.24822978516E+03  0.39002031212E+03  0.10566000000E+00 0.  1.
          4    1    3    3  502    0  0.76022704932E+03 -0.55698309120E+03  0.16046206305E+03  0.95599341215E+03  0.00000000000E+00 0.  1.
         13    1    4    4    0    0 -0.45501647922E+03 -0.27901078439E+03  0.96053861026E+03  0.10988728075E+04  0.10566000000E+00 0. -1.
         -4    1    4    4    0  501 -0.31048937687E+03  0.53521166091E+03  0.26173234785E+03  0.67183256622E+03  0.00000000000E+00 0. -1.
<mgrwt>
<rscale>  2 0.12818295E+04</rscale>
<asrwt>0</asrwt>
<pdfrwt beam="1">  1        2 0.36520630E+00 0.12818295E+04</pdfrwt>
<pdfrwt beam="2">  1       -2 0.11428895E+00 0.12818295E+04</pdfrwt>
<totfact> 0.37144578E+00</totfact>
</mgrwt>
</event>
<event>
 8    1  0.1408247E-005  0.1379000E+04  0.7818608E-02  0.8482730E-01
          4   -1    0    0  502    0  0.00000000000E+00  0.00000000000E+00  0.14508462553E+04  0.14508462553E+04  0.00000000000E+00 0.  1.
         -4   -1    0    0    0  501 -0.00000000000E+00 -0.00000000000E+00 -0.13137851283E+04  0.13137851283E+04  0.00000000000E+00 0. -1.
    9000010    2    1    2  502    0 -0.58416994301E+03 -0.76382220921E+03  0.13410425949E+03  0.13753961103E+04  0.97419280339E+03 0.  0.
   -9000010    2    1    2    0  501  0.58416994301E+03  0.76382220921E+03  0.29568675359E+01  0.13892352733E+04  0.10026400210E+04 0.  0.
        -13    1    3    3    0    0 -0.29612865756E+03 -0.85636407127E-01  0.41705640589E+03  0.51149608603E+03  0.10566000000E+00 0.  1.
          4    1    3    3  502    0 -0.28804128545E+03 -0.76373657281E+03 -0.28295214640E+03  0.86390002426E+03  0.00000000000E+00 0.  1.
         13    1    4    4    0    0  0.41764904297E+03  0.91585756164E+01 -0.34490877870E+03  0.54173487924E+03  0.10566000000E+00 0. -1.
         -4    1    4    4    0  501  0.16652090003E+03  0.75466363360E+03  0.34786564623E+03  0.84750039401E+03  0.00000000000E+00 0. -1.
<mgrwt>
<rscale>  2 0.13789998E+04</rscale>
<asrwt>0</asrwt>
<pdfrwt beam="1">  1        4 0.22320712E+00 0.13789998E+04</pdfrwt>
<pdfrwt beam="2">  1       -4 0.20212079E+00 0.13789998E+04</pdfrwt>
<totfact> 0.15406563E-01</totfact>
</mgrwt>
</event>
<event>
 8    1  0.1408247E-005  0.1474864E+04  0.7818608E-02  0.8424114E-01
          2   -1    0    0  502    0  0.00000000000E+00  0.00000000000E+00  0.10758149286E+04  0.10758149286E+04  0.00000000000E+00 0.  1.
         -2   -1    0    0    0  501 -0.00000000000E+00 -0.00000000000E+00 -0.20607668877E+04  0.20607668877E+04  0.00000000000E+00 0. -1.
    9000010    2    1    2  502    0 -0.69768418785E+03  0.74590601360E+03 -0.29198216978E+03  0.15384248718E+04  0.11128155694E+04 0.  0.
   -9000010    2    1    2    0  501  0.69768418785E+03 -0.74590601360E+03 -0.69296978933E+03  0.15981569445E+04  0.10152632581E+04 0.  0.
        -13    1    3    3    0    0 -0.82570160170E+03  0.48598501175E+03  0.18933189042E+03  0.97663255249E+03  0.10566000000E+00 0.  1.
          4    1    3    3  502    0  0.12801741385E+03  0.25992100185E+03 -0.48131406021E+03  0.56179231928E+03  0.00000000000E+00 0.  1.
         13    1    4    4    0    0  0.39749385498E+03  0.19892159912E+03 -0.15858271323E+03  0.47193183346E+03  0.10566000000E+00 0. -1.
         -4    1    4    4    0  501  0.30019033288E+03 -0.94482761271E+03 -0.53438707610E+03  0.11262251111E+04  0.00000000000E+00 0. -1.
<mgrwt>
<rscale>  2 0.14748637E+04</rscale>
<asrwt>0</asrwt>
<pdfrwt beam="1">  1        2 0.16550999E+00 0.14748637E+04</pdfrwt>
<pdfrwt beam="2">  1       -2 0.31704106E+00 0.14748637E+04</pdfrwt>
<totfact> 0.43733632E-01</totfact>
</mgrwt>
</event>
<event>
 8    1  0.1408247E-005  0.1110909E+04  0.7818608E-02  0.8676850E-01
          2   -1    0    0  502    0  0.00000000000E+00  0.00000000000E+00  0.28066038776E+04  0.28066038776E+04  0.00000000000E+00 0.  1.
         -2   -1    0    0    0  501 -0.00000000000E+00 -0.00000000000E+00 -0.53974154149E+03  0.53974154149E+03  0.00000000000E+00 0. -1.
    9000010    2    1    2  502    0 -0.28448073743E+03 -0.50797971775E+03  0.44941313173E+03  0.12367648723E+04  0.99430503506E+03 0.  0.
   -9000010    2    1    2    0  501  0.28448073743E+03  0.50797971775E+03  0.18174492044E+04  0.21095805468E+04  0.89901934869E+03 0.  0.
        -13    1    3    3    0    0 -0.51280672308E+03  0.27246161606E+02  0.20611022676E+02  0.51394349299E+03  0.10566000000E+00 0.  1.
          4    1    3    3  502    0  0.22832598565E+03 -0.53522587935E+03  0.42880210906E+03  0.72282137931E+03  0.00000000000E+00 0.  1.
         13    1    4    4    0    0  0.41836805843E+03  0.69756368852E+03  0.11976842176E+04  0.14477825901E+04  0.10566000000E+00 0. -1.
         -4    1    4    4    0  501 -0.13388732099E+03 -0.18958397077E+03  0.61976498679E+03  0.66179795674E+03  0.00000000000E+00 0. -1.
<mgrwt>
<rscale>  2 0.11109094E+04</rscale>
<asrwt>0</asrwt>
<pdfrwt beam="1">  1        2 0.43178520E+00 0.11109094E+04</pdfrwt>
<pdfrwt beam="2">  1       -2 0.83037162E-01 0.11109094E+04</pdfrwt>
<totfact> 0.46012703E+00</totfact>
</mgrwt>
</event>
<event>
 8    1  0.1408247E-005  0.1146390E+04  0.7818608E-02  0.8648063E-01
          2   -1    0    0  502    0  0.00000000000E+00  0.00000000000E+00  0.16838392269E+04  0.16838392269E+04  0.00000000000E+00 0. -1.
         -2   -1    0    0    0  501 -0.00000000000E+00 -0.00000000000E+00 -0.78234287357E+03  0.78234287357E+03  0.00000000000E+00 0.  1.
    9000010    2    1    2  502    0 -0.17961543912E+03 -0.55667028381E+03  0.50697862216E+03  0.12460290383E+04  0.97643101658E+03 0.  0.
   -9000010    2    1    2    0  501  0.17961543912E+03  0.55667028381E+03  0.39451773117E+03  0.12201530622E+04  0.99548266889E+03 0.  0.
        -13    1    3    3    0    0 -0.84100861060E+02 -0.57773078011E+03  0.76948391892E+03  0.96589405307E+03  0.10566000000E+00 0.  1.
          4    1    3    3  502    0 -0.95514578062E+02  0.21060496299E+02 -0.26250529676E+03  0.28013498524E+03  0.00000000000E+00 0.  1.
         13    1    4    4    0    0  0.35517579731E+03 -0.14534990054E+03 -0.23445136557E+02  0.38448163308E+03  0.10566000000E+00 0. -1.
         -4    1    4    4    0  501 -0.17556035819E+03  0.70202018435E+03  0.41796286772E+03  0.83567142909E+03  0.00000000000E+00 0. -1.
<mgrwt>
<rscale>  2 0.11463904E+04</rscale>
<asrwt>0</asrwt>
<pdfrwt beam="1">  1        2 0.25905219E+00 0.11463904E+04</pdfrwt>
<pdfrwt beam="2">  1       -2 0.12036044E+00 0.11463904E+04</pdfrwt>
<totfact> 0.78453814E+00</totfact>
</mgrwt>
</event>
<event>
 8    1  0.1408247E-005  0.1268933E+04  0.7818608E-02  0.8556387E-01
          2   -1    0    0  502    0  0.00000000000E+00  0.00000000000E+00  0.11415967792E+04  0.11415967792E+04  0.00000000000E+00 0.  1.
         -2   -1    0    0    0  501 -0.00000000000E+00 -0.00000000000E+00 -0.17011145246E+04  0.17011145246E+04  0.00000000000E+00 0. -1.
    9000010    2    1    2  502    0 -0.20336388539E+03  0.76975245938E+03  0.30802751721E+03  0.13043035231E+04  0.98612930715E+03 0.  0.
   -9000010    2    1    2    0  501  0.20336388539E+03 -0.76975245938E+03 -0.86754526265E+03  0.15384077807E+04  0.99004444257E+03 0.  0.
        -13    1    3    3    0    0 -0.17888606567E+03  0.71238417942E+03  0.63530517187E+03  0.97113547775E+03  0.10566000000E+00 0.  1.
          4    1    3    3  502    0 -0.24477819724E+02  0.57368279963E+02 -0.32727765466E+03  0.33316804535E+03  0.00000000000E+00 0.  1.
         13    1    4    4    0    0  0.46368245463E+03 -0.78883238563E+03 -0.88995371648E+03  0.12764307972E+04  0.10566000000E+00 0. -1.
         -4    1    4    4    0  501 -0.26031856924E+03  0.19079926246E+02  0.22408453832E+02  0.26197698349E+03  0.00000000000E+00 0. -1.
<mgrwt>
<rscale>  2 0.12689328E+04</rscale>
<asrwt>0</asrwt>
<pdfrwt beam="1">  1        2 0.17563027E+00 0.12689328E+04</pdfrwt>
<pdfrwt beam="2">  1       -2 0.26170993E+00 0.12689328E+04</pdfrwt>
<totfact> 0.10111404E+00</totfact>
</mgrwt>
</event>
<event>
 8    1  0.1408247E-005  0.1258741E+04  0.7818608E-02  0.8563595E-01
          2   -1    0    0  502    0  0.00000000000E+00  0.00000000000E+00  0.22249255440E+04  0.22249255440E+04  0.00000000000E+00 0.  1.
         -2   -1    0    0    0  501 -0.00000000000E+00 -0.00000000000E+00 -0.71685208791E+03  0.71685208791E+03  0.00000000000E+00 0. -1.
    9000010    2    1    2  502    0 -0.57126070861E+03  0.48511702517E+03  0.87898450360E+03  0.15437590533E+04  0.10241586458E+04 0.  0.
   -9000010    2    1    2    0  501  0.57126070861E+03 -0.48511702517E+03  0.62908895250E+03  0.13980185786E+04  0.99851174793E+03 0.  0.
        -13    1    3    3    0    0 -0.13216690897E+03  0.20243661794E+02 -0.22860021313E+03  0.26483195856E+03  0.10566000000E+00 0.  1.
          4    1    3    3  502    0 -0.43909379964E+03  0.46487336338E+03  0.11075847167E+04  0.12789270947E+04  0.00000000000E+00 0.  1.
         13    1    4    4    0    0  0.48806057952E+03 -0.60462597860E+03  0.83835570040E+03  0.11430730488E+04  0.10566000000E+00 0. -1.
         -4    1    4    4    0  501  0.83200129095E+02  0.11950895342E+03 -0.20926674789E+03  0.25494552987E+03  0.00000000000E+00 0. -1.
<mgrwt>
<rscale>  2 0.12587408E+04</rscale>
<asrwt>0</asrwt>
<pdfrwt beam="1">  1        2 0.34229623E+00 0.12587408E+04</pdfrwt>
<pdfrwt beam="2">  1       -2 0.11028494E+00 0.12587408E+04</pdfrwt>
<totfact> 0.49233168E+00</totfact>
</mgrwt>
</event>
<event>
 8    1  0.1408247E-005  0.1075410E+04  0.7818608E-02  0.8706795E-01
          1   -1    0    0  502    0  0.00000000000E+00  0.00000000000E+00  0.16170227695E+04  0.16170227695E+04  0.00000000000E+00 0. -1.
         -1   -1    0    0    0  501 -0.00000000000E+00 -0.00000000000E+00 -0.74235386928E+03  0.74235386928E+03  0.00000000000E+00 0.  1.
    9000010    2    1    2  502    0 -0.23482839240E+03  0.35346253273E+03  0.66459775314E+03  0.12679482321E+04  0.99293625676E+03 0.  0.
   -9000010    2    1    2    0  501  0.23482839240E+03 -0.35346253273E+03  0.21007114708E+03  0.10914284066E+04  0.98336460383E+03 0.  0.
        -13    1    3    3    0    0  0.36093868647E+03 -0.32530791911E+02  0.29689862566E+03  0.46849097419E+03  0.10566000000E+00 0.  1.
          4    1    3    3  502    0 -0.59576707887E+03  0.38599332464E+03  0.36769912748E+03  0.79945725795E+03  0.00000000000E+00 0.  1.
         13    1    4    4    0    0  0.10482818417E+03 -0.62646795320E+03  0.38436004518E+03  0.74241747021E+03  0.10566000000E+00 0. -1.
         -4    1    4    4    0  501  0.13000020824E+03  0.27300542047E+03 -0.17428889809E+03  0.34901093643E+03  0.00000000000E+00 0. -1.
<mgrwt>
<rscale>  2 0.10754095E+04</rscale>
<asrwt>0</asrwt>
<pdfrwt beam="1">  1        1 0.24877273E+00 0.10754095E+04</pdfrwt>
<pdfrwt beam="2">  1       -1 0.11420829E+00 0.10754095E+04</pdfrwt>
<totfact> 0.55074969E+00</totfact>
</mgrwt>
</event>
<event>
 8    1  0.1408247E-005  0.1174543E+04  0.7818608E-02  0.8625982E-01
         -4   -1    0    0    0  501 -0.00000000000E+00  0.00000000000E+00  0.21774451544E+04  0.21774451544E+04  0.00000000000E+00 0. -1.
          4   -1    0    0  502    0  0.00000000000E+00 -0.00000000000E+00 -0.66830199760E+03  0.66830199760E+03  0.00000000000E+00 0.  1.
    9000010    2    1    2  502    0 -0.48512069608E+03  0.33906169107E+03  0.43556288965E+03  0.12607798535E+04  0.10244734687E+04 0.  0.
   -9000010    2    1    2    0  501  0.48512069608E+03 -0.33906169107E+03  0.10735802672E+04  0.15849672985E+04  0.10046102862E+04 0.  0.
        -13    1    3    3    0    0 -0.48595195156E+03 -0.18579652693E+03 -0.78456862813E+02  0.52614174814E+03  0.10566000000E+00 0.  1.
          4    1    3    3  502    0  0.83125548217E+00  0.52485821800E+03  0.51401975246E+03  0.73463810540E+03  0.00000000000E+00 0.  1.
         13    1    4    4    0    0  0.14953666485E+03 -0.67280019029E+03  0.57565908963E+03  0.89800039467E+03  0.10566000000E+00 0. -1.
         -4    1    4    4    0  501  0.33558403123E+03  0.33373849923E+03  0.49792117753E+03  0.68696690380E+03  0.00000000000E+00 0. -1.
<mgrwt>
<rscale>  2 0.11745431E+04</rscale>
<asrwt>0</asrwt>
<pdfrwt beam="2">  1        4 0.10281569E+00 0.11745431E+04</pdfrwt>
<pdfrwt beam="1">  1       -4 0.33499156E+00 0.11745431E+04</pdfrwt>
<totfact> 0.22590780E-01</totfact>
</mgrwt>
</event>
<event>
 8    1  0.1408247E-005  0.1111567E+04  0.7818608E-02  0.8676306E-01
         -2   -1    0    0    0  501 -0.00000000000E+00  0.00000000000E+00  0.96195719112E+03  0.96195719112E+03  0.00000000000E+00 0. -1.
          2   -1    0    0  502    0  0.00000000000E+00 -0.00000000000E+00 -0.13278321829E+04  0.13278321829E+04  0.00000000000E+00 0.  1.
    9000010    2    1    2  502    0 -0.57754819340E+03 -0.77957789847E+02 -0.37437195467E+03  0.11244804403E+04  0.88581181268E+03 0.  0.
   -9000010    2    1    2    0  501  0.57754819340E+03  0.77957789847E+02  0.84969629017E+01  0.11653089337E+04  0.10090755075E+04 0.  0.
        -13    1    3    3    0    0 -0.10982648264E+03 -0.43190943766E+03 -0.35480797627E+02  0.44706433183E+03  0.10566000000E+00 0.  1.
          4    1    3    3  502    0 -0.46772171076E+03  0.35395164781E+03 -0.33889115704E+03  0.67741610848E+03  0.00000000000E+00 0.  1.
         13    1    4    4    0    0  0.43793566818E+03 -0.36130263890E+03 -0.26800803796E+03  0.62781809939E+03  0.10566000000E+00 0. -1.
         -4    1    4    4    0  501  0.13961252521E+03  0.43926042875E+03  0.27650500086E+03  0.53749083430E+03  0.00000000000E+00 0. -1.
<mgrwt>
<rscale>  2 0.11115666E+04</rscale>
<asrwt>0</asrwt>
<pdfrwt beam="2">  1        2 0.20428187E+00 0.11115666E+04</pdfrwt>
<pdfrwt beam="1">  1       -2 0.14799341E+00 0.11115666E+04</pdfrwt>
<totfact> 0.68851917E+00</totfact>
</mgrwt>
</event>
<event>
 8    1  0.1408247E-005  0.1975391E+04  0.7818608E-02  0.8178486E-01
         -2   -1    0    0    0  501 -0.00000000000E+00  0.00000000000E+00  0.22905797809E+04  0.22905797809E+04  0.00000000000E+00 0. -1.
          2   -1    0    0  502    0  0.00000000000E+00 -0.00000000000E+00 -0.17068305410E+04  0.17068305410E+04  0.00000000000E+00 0.  1.
    9000010    2    1    2  502    0  0.16845679037E+04 -0.10669822573E+03  0.20422073974E+03  0.19834842732E+04  0.10214451614E+04 0.  0.
   -9000010    2    1    2    0  501 -0.16845679037E+04  0.10669822573E+03  0.37952850014E+03  0.20139260487E+04  0.10308747323E+04 0.  0.
        -13    1    3    3    0    0  0.16692048385E+03 -0.36724338505E+03  0.18430158559E+03  0.44350562275E+03  0.10566000000E+00 0.  1.
          4    1    3    3  502    0  0.15176474199E+04  0.26054515932E+03  0.19919154152E+02  0.15399786504E+04  0.00000000000E+00 0.  1.
         13    1    4    4    0    0 -0.16893025781E+04  0.20116829810E+03  0.83647512989E+02  0.17032935162E+04  0.10566000000E+00 0. -1.
         -4    1    4    4    0  501  0.47346744123E+01 -0.94470072370E+02  0.29588098715E+03  0.31063253254E+03  0.00000000000E+00 0. -1.
<mgrwt>
<rscale>  2 0.19753906E+04</rscale>
<asrwt>0</asrwt>
<pdfrwt beam="2">  1        2 0.26258931E+00 0.19753906E+04</pdfrwt>
<pdfrwt beam="1">  1       -2 0.35239689E+00 0.19753906E+04</pdfrwt>
<totfact> 0.10840848E-01</totfact>
</mgrwt>
</event>
<event>
 8    1  0.1408247E-005  0.1467191E+04  0.7818608E-02  0.8428635E-01
          1   -1    0    0  502    0  0.00000000000E+00  0.00000000000E+00  0.23121743245E+04  0.23121743245E+04  0.00000000000E+00 0. -1.
         -1   -1    0    0    0  501 -0.00000000000E+00 -0.00000000000E+00 -0.94297290670E+03  0.94297290670E+03  0.00000000000E+00 0.  1.
    9000010    2    1    2  502    0  0.80820964740E+03  0.70650989511E+03  0.86921244850E+03  0.17077556689E+04  0.10042609612E+04 0.  0.
   -9000010    2    1    2    0  501 -0.80820964740E+03 -0.70650989511E+03  0.49998896933E+03  0.15473915623E+04  0.99602841907E+03 0.  0.
        -13    1    3    3    0    0  0.32401831714E+03  0.60437423569E+03 -0.24501121529E+02  0.68618977166E+03  0.10566000000E+00 0.  1.
          4    1    3    3  502    0  0.48419133025E+03  0.10213565943E+03  0.89371357003E+03  0.10215658973E+04  0.00000000000E+00 0.  1.
         13    1    4    4    0    0  0.11742172816E+03 -0.50307211764E+03  0.18362505567E+03  0.54825868896E+03  0.10566000000E+00 0. -1.
         -4    1    4    4    0  501 -0.92563137556E+03 -0.20343777747E+03  0.31636391366E+03  0.99913287334E+03  0.00000000000E+00 0. -1.
<mgrwt>
<rscale>  2 0.14671911E+04</rscale>
<asrwt>0</asrwt>
<pdfrwt beam="1">  1        1 0.35571912E+00 0.14671911E+04</pdfrwt>
<pdfrwt beam="2">  1       -1 0.14507276E+00 0.14671911E+04</pdfrwt>
<totfact> 0.81541254E-01</totfact>
</mgrwt>
</event>
<event>
 8    1  0.1408247E-005  0.1291428E+04  0.7818608E-02  0.8540722E-01
          1   -1    0    0  502    0  0.00000000000E+00  0.00000000000E+00  0.11168936093E+04  0.11168936093E+04  0.00000000000E+00 0.  1.
         -1   -1    0    0    0  501 -0.00000000000E+00 -0.00000000000E+00 -0.16010839990E+04  0.16010839990E+04  0.00000000000E+00 0. -1.
    9000010    2    1    2  502    0 -0.96474285647E+02 -0.81623727626E+03 -0.59479929985E+03  0.14218102693E+04  0.99609620807E+03 0.  0.
   -9000010    2    1    2    0  501  0.96474285647E+02  0.81623727626E+03  0.11060891019E+03  0.12961673390E+04  0.99612492227E+03 0.  0.
        -13    1    3    3    0    0  0.35473117138E+03 -0.51380904426E+02 -0.34927445559E+03  0.50046664003E+03  0.10566000000E+00 0.  1.
          4    1    3    3  502    0 -0.45120545703E+03 -0.76485637183E+03 -0.24552484426E+03  0.92134362924E+03  0.00000000000E+00 0.  1.
         13    1    4    4    0    0  0.89914056484E+02 -0.19775724467E+03 -0.13111365095E+03  0.25373857807E+03  0.10566000000E+00 0. -1.
         -4    1    4    4    0  501  0.65602291633E+01  0.10139945209E+04  0.24172256114E+03  0.10424287609E+04  0.00000000000E+00 0. -1.
<mgrwt>
<rscale>  2 0.12914282E+04</rscale>
<asrwt>0</asrwt>
<pdfrwt beam="1">  1        1 0.17182979E+00 0.12914282E+04</pdfrwt>
<pdfrwt beam="2">  1       -1 0.24632062E+00 0.12914282E+04</pdfrwt>
<totfact> 0.84001738E-01</totfact>
</mgrwt>
</event>
<event>
 8    1  0.1408247E-005  0.1328863E+04  0.7818608E-02  0.8515369E-01
          1   -1    0    0  502    0  0.00000000000E+00  0.00000000000E+00  0.28211845684E+04  0.28211845684E+04  0.00000000000E+00 0.  1.
         -1   -1    0    0    0  501 -0.00000000000E+00 -0.00000000000E+00 -0.66602367112E+03  0.66602367112E+03  0.00000000000E+00 0. -1.
    9000010    2    1    2  502    0 -0.43383828177E+03 -0.76840322968E+03  0.64853912563E+03  0.14771781178E+04  0.99135917617E+03 0.  0.
   -9000010    2    1    2    0  501  0.43383828177E+03  0.76840322968E+03  0.15066217716E+04  0.20100301217E+04  0.99581762850E+03 0.  0.
        -13    1    3    3    0    0 -0.74738449000E+03 -0.49220164187E+03  0.54097515780E+03  0.10457055822E+04  0.10566000000E+00 0.  1.
          4    1    3    3  502    0  0.31354620823E+03 -0.27620158781E+03  0.10756396784E+03  0.43147253560E+03  0.00000000000E+00 0.  1.
         13    1    4    4    0    0  0.59506091349E+03  0.42687549788E+03  0.14549210845E+04  0.16288387136E+04  0.10566000000E+00 0. -1.
         -4    1    4    4    0  501 -0.16122263172E+03  0.34152773180E+03  0.51700687087E+02  0.38119140810E+03  0.00000000000E+00 0. -1.
<mgrwt>
<rscale>  2 0.13288629E+04</rscale>
<asrwt>0</asrwt>
<pdfrwt beam="1">  1        1 0.43402839E+00 0.13288629E+04</pdfrwt>
<pdfrwt beam="2">  1       -1 0.10246518E+00 0.13288629E+04</pdfrwt>
<totfact> 0.67249695E-01</totfact>
</mgrwt>
</event>
<event>
 8    1  0.1408247E-005  0.1091976E+04  0.7818608E-02  0.8692673E-01
         -2   -1    0    0    0  501 -0.00000000000E+00  0.00000000000E+00  0.84210009145E+03  0.84210009145E+03  0.00000000000E+00 0. -1.
          2   -1    0    0  502    0  0.00000000000E+00 -0.00000000000E+00 -0.16120751535E+04  0.16120751535E+04  0.00000000000E+00 0.  1.
    9000010    2    1    2  502    0 -0.45763797667E+02  0.30583433117E+03  0.15195995768E+02  0.11620206163E+04  0.11200142995E+04 0.  0.
   -9000010    2    1    2    0  501  0.45763797667E+02 -0.30583433117E+03 -0.78517105781E+03  0.12921546286E+04  0.97854025515E+03 0.  0.
        -13    1    3    3    0    0 -0.50333866276E+03  0.18613593640E+03  0.29509287311E+03  0.61243465870E+03  0.10566000000E+00 0.  1.
          4    1    3    3  502    0  0.45757486509E+03  0.11969839478E+03 -0.27989687734E+03  0.54958595763E+03  0.00000000000E+00 0.  1.
         13    1    4    4    0    0 -0.12014057070E+03  0.33939073657E+03 -0.27503282590E+03  0.45305948316E+03  0.10566000000E+00 0. -1.
         -4    1    4    4    0  501  0.16590436837E+03 -0.64522506774E+03 -0.51013823191E+03  0.83909514546E+03  0.00000000000E+00 0. -1.
<mgrwt>
<rscale>  2 0.10919757E+04</rscale>
<asrwt>0</asrwt>
<pdfrwt beam="2">  1        2 0.24801156E+00 0.10919757E+04</pdfrwt>
<pdfrwt beam="1">  1       -2 0.12955386E+00 0.10919757E+04</pdfrwt>
<totfact> 0.70734282E+00</totfact>
</mgrwt>
</event>
<event>
 8    1  0.1408247E-005  0.1247970E+04  0.7818608E-02  0.8571290E-01
          1   -1    0    0  502    0  0.00000000000E+00  0.00000000000E+00  0.61018538203E+03  0.61018538203E+03  0.00000000000E+00 0.  1.
         -1   -1    0    0    0  501 -0.00000000000E+00 -0.00000000000E+00 -0.35922250386E+04  0.35922250386E+04  0.00000000000E+00 0. -1.
    9000010    2    1    2  502    0 -0.62471360497E+03 -0.43842577902E+03 -0.26247517722E+04  0.29079781674E+04  0.99223530713E+03 0.  0.
   -9000010    2    1    2    0  501  0.62471360497E+03  0.43842577902E+03 -0.35728788436E+03  0.12944322532E+04  0.98255583749E+03 0.  0.
        -13    1    3    3    0    0 -0.57854109086E+03 -0.53829944017E+03 -0.26733444607E+04  0.27876955892E+04  0.10566000000E+00 0.  1.
          4    1    3    3  502    0 -0.46172514112E+02  0.99873661149E+02  0.48592688539E+02  0.12028257825E+03  0.00000000000E+00 0.  1.
         13    1    4    4    0    0 -0.11378635778E+03  0.38510845488E+03 -0.38111269863E+03  0.55362691180E+03  0.10566000000E+00 0. -1.
         -4    1    4    4    0  501  0.73849996275E+03  0.53317324135E+02  0.23824814274E+02  0.74080534137E+03  0.00000000000E+00 0. -1.
<mgrwt>
<rscale>  2 0.12479697E+04</rscale>
<asrwt>0</asrwt>
<pdfrwt beam="1">  1        1 0.93874673E-01 0.12479697E+04</pdfrwt>
<pdfrwt beam="2">  1       -1 0.55265001E+00 0.12479697E+04</pdfrwt>
<totfact> 0.25573844E-01</totfact>
</mgrwt>
</event>
<event>
 8    1  0.1408247E-005  0.1119516E+04  0.7818608E-02  0.8669765E-01
          2   -1    0    0  502    0  0.00000000000E+00  0.00000000000E+00  0.96370627566E+03  0.96370627566E+03  0.00000000000E+00 0. -1.
         -2   -1    0    0    0  501 -0.00000000000E+00 -0.00000000000E+00 -0.13670756390E+04  0.13670756390E+04  0.00000000000E+00 0.  1.
    9000010    2    1    2  502    0 -0.44308497919E+03 -0.97556134821E+02  0.54517418973E+02  0.11260216392E+04  0.10291312281E+04 0.  0.
   -9000010    2    1    2    0  501  0.44308497919E+03  0.97556134821E+02 -0.45788678234E+03  0.12047602755E+04  0.10178140880E+04 0.  0.
        -13    1    3    3    0    0 -0.30570901098E+03 -0.45850677121E+03 -0.27723863651E+03  0.61688550913E+03  0.10566000000E+00 0.  1.
          4    1    3    3  502    0 -0.13737596821E+03  0.36095063639E+03  0.33175605549E+03  0.50913613003E+03  0.00000000000E+00 0.  1.
         13    1    4    4    0    0 -0.11705638165E+03 -0.10755070228E+03 -0.57525178502E+03  0.59681150909E+03  0.10566000000E+00 0. -1.
         -4    1    4    4    0  501  0.56014136084E+03  0.20510683710E+03  0.11736500267E+03  0.60794876643E+03  0.00000000000E+00 0. -1.
<mgrwt>
<rscale>  2 0.11195161E+04</rscale>
<asrwt>0</asrwt>
<pdfrwt beam="1">  1        2 0.14826250E+00 0.11195161E+04</pdfrwt>
<pdfrwt beam="2">  1       -2 0.21031933E+00 0.11195161E+04</pdfrwt>
<totfact> 0.33430338E+00</totfact>
</mgrwt>
</event>
<event>
 8    1  0.1408247E-005  0.1183166E+04  0.7818608E-02  0.8619347E-01
         -1   -1    0    0    0  501 -0.00000000000E+00  0.00000000000E+00  0.94959779330E+03  0.94959779330E+03  0.00000000000E+00 0. -1.
          1   -1    0    0  502    0  0.00000000000E+00 -0.00000000000E+00 -0.14742974686E+04  0.14742974686E+04  0.00000000000E+00 0.  1.
    9000010    2    1    2  502    0 -0.34228890143E+03  0.54902037039E+03 -0.26939590821E+03  0.12223642833E+04  0.10015064786E+04 0.  0.
   -9000010    2    1    2    0  501  0.34228890143E+03 -0.54902037039E+03 -0.25530376709E+03  0.12015309786E+04  0.97975079478E+03 0.  0.
        -13    1    3    3    0    0 -0.59382372457E+03  0.43551629253E+02  0.31512487832E+01  0.59542699116E+03  0.10566000000E+00 0.  1.
          4    1    3    3  502    0  0.25153482314E+03  0.50546874113E+03 -0.27254715699E+03  0.62693729216E+03  0.00000000000E+00 0.  1.
         13    1    4    4    0    0 -0.23399320587E+03 -0.28095225381E+03 -0.40800588291E+03  0.54786476522E+03  0.10566000000E+00 0. -1.
         -4    1    4    4    0  501  0.57628210730E+03 -0.26806811658E+03  0.15270211582E+03  0.65366621337E+03  0.00000000000E+00 0. -1.
<mgrwt>
<rscale>  2 0.11831663E+04</rscale>
<asrwt>0</asrwt>
<pdfrwt beam="2">  1        1 0.22681500E+00 0.11831663E+04</pdfrwt>
<pdfrwt beam="1">  1       -1 0.14609197E+00 0.11831663E+04</pdfrwt>
<totfact> 0.36379688E+00</totfact>
</mgrwt>
</event>
<event>
 8    1  0.1408247E-005  0.1087483E+04  0.7818608E-02  0.8696477E-01
          4   -1    0    0  502    0  0.00000000000E+00  0.00000000000E+00  0.16546721536E+04  0.16546721536E+04  0.00000000000E+00 0. -1.
         -4   -1    0    0    0  501 -0.00000000000E+00 -0.00000000000E+00 -0.73487017214E+03  0.73487017214E+03  0.00000000000E+00 0.  1.
    9000010    2    1    2  502    0 -0.21092965536E+03  0.37068361132E+03  0.26253970704E+03  0.11199011702E+04  0.10016755334E+04 0.  0.
   -9000010    2    1    2    0  501  0.21092965536E+03 -0.37068361132E+03  0.65726227438E+03  0.12696411554E+04  0.99904820057E+03 0.  0.
        -13    1    3    3    0    0  0.29750393163E+03 -0.17188180727E+03  0.11085005263E+03  0.36102588597E+03  0.10566000000E+00 0.  1.
          4    1    3    3  502    0 -0.50843358699E+03  0.54256541860E+03  0.15168965440E+03  0.75887528428E+03  0.00000000000E+00 0.  1.
         13    1    4    4    0    0  0.21331360945E+03 -0.44963134943E+03  0.89229312093E+03  0.10216937267E+04  0.10566000000E+00 0. -1.
         -4    1    4    4    0  501 -0.23839540868E+01  0.78947738106E+02 -0.23503084655E+03  0.24794742874E+03  0.00000000000E+00 0. -1.
<mgrwt>
<rscale>  2 0.10874835E+04</rscale>
<asrwt>0</asrwt>
<pdfrwt beam="1">  1        4 0.25456495E+00 0.10874835E+04</pdfrwt>
<pdfrwt beam="2">  1       -4 0.11305695E+00 0.10874835E+04</pdfrwt>
<totfact> 0.31061458E-01</totfact>
</mgrwt>
</event>
<event>
 8    1  0.1408247E-005  0.1183266E+04  0.7818608E-02  0.8619271E-01
         -2   -1    0    0    0  501 -0.00000000000E+00  0.00000000000E+00  0.52354186034E+03  0.52354186034E+03  0.00000000000E+00 0. -1.
          2   -1    0    0  502    0  0.00000000000E+00 -0.00000000000E+00 -0.27213530291E+04  0.27213530291E+04  0.00000000000E+00 0.  1.
    9000010    2    1    2  502    0 -0.25777505913E+03 -0.60175958883E+03 -0.87739110181E+03  0.14655272346E+04  0.97436766471E+03 0.  0.
   -9000010    2    1    2    0  501  0.25777505913E+03  0.60175958883E+03 -0.13204200670E+04  0.17793676548E+04  0.99703435947E+03 0.  0.
        -13    1    3    3    0    0  0.26363345003E+03 -0.26626634796E+03  0.19479576475E+02  0.37520638200E+03  0.10566000000E+00 0.  1.
          4    1    3    3  502    0 -0.52140850917E+03 -0.33549324087E+03 -0.89687067828E+03  0.10903208526E+04  0.00000000000E+00 0.  1.
         13    1    4    4    0    0 -0.16743751898E+03 -0.14728885638E+03 -0.65208144167E+03  0.68915857951E+03  0.10566000000E+00 0. -1.
         -4    1    4    4    0  501  0.42521257811E+03  0.74904844521E+03 -0.66833862530E+03  0.10902090753E+04  0.00000000000E+00 0. -1.
<mgrwt>
<rscale>  2 0.11832664E+04</rscale>
<asrwt>0</asrwt>
<pdfrwt beam="2">  1        2 0.41866969E+00 0.11832664E+04</pdfrwt>
<pdfrwt beam="1">  1       -2 0.80544903E-01 0.11832664E+04</pdfrwt>
<totfact> 0.54732814E+00</totfact>
</mgrwt>
</event>
<event>
 8    1  0.1408247E-005  0.1199879E+04  0.7818608E-02  0.8606653E-01
         -2   -1    0    0    0  501 -0.00000000000E+00  0.00000000000E+00  0.91388388966E+03  0.91388388966E+03  0.00000000000E+00 0.  1.
          2   -1    0    0  502    0  0.00000000000E+00 -0.00000000000E+00 -0.15788868731E+04  0.15788868731E+04  0.00000000000E+00 0. -1.
    9000010    2    1    2  502    0 -0.42207411114E+03 -0.51041325525E+03 -0.38905212811E+03  0.12551023017E+04  0.99259860116E+03 0.  0.
   -9000010    2    1    2    0  501  0.42207411114E+03  0.51041325525E+03 -0.27595085537E+03  0.12376684611E+04  0.10084672025E+04 0.  0.
        -13    1    3    3    0    0  0.18018225494E+03 -0.28323591784E+03  0.19305785673E+03  0.38724614570E+03  0.10566000000E+00 0.  1.
          4    1    3    3  502    0 -0.60225636608E+03 -0.22717733741E+03 -0.58210998485E+03  0.86785615604E+03  0.00000000000E+00 0.  1.
         13    1    4    4    0    0  0.66318170770E+02  0.46470543357E+03 -0.59482612743E+03  0.75773832740E+03  0.10566000000E+00 0. -1.
         -4    1    4    4    0  501  0.35575594037E+03  0.45707821683E+02  0.31887527206E+03  0.47993013367E+03  0.00000000000E+00 0. -1.
<mgrwt>
<rscale>  2 0.11998791E+04</rscale>
<asrwt>0</asrwt>
<pdfrwt beam="2">  1        2 0.24290567E+00 0.11998791E+04</pdfrwt>
<pdfrwt beam="1">  1       -2 0.14059752E+00 0.11998791E+04</pdfrwt>
<totfact> 0.57768165E+00</totfact>
</mgrwt>
</event>
<event>
 8    1  0.1408247E-005  0.1186478E+04  0.7818608E-02  0.8616815E-01
          1   -1    0    0  502    0  0.00000000000E+00  0.00000000000E+00  0.59246919444E+03  0.59246919444E+03  0.00000000000E+00 0. -1.
         -1   -1    0    0    0  501 -0.00000000000E+00 -0.00000000000E+00 -0.26467637214E+04  0.26467637214E+04  0.00000000000E+00 0.  1.
    9000010    2    1    2  502    0 -0.58661021245E+03 -0.12210850420E+03 -0.49685868575E+03  0.12712599658E+04  0.10050926917E+04 0.  0.
   -9000010    2    1    2    0  501  0.58661021245E+03  0.12210850420E+03 -0.15574358412E+04  0.19679729500E+04  0.10432109587E+04 0.  0.
        -13    1    3    3    0    0 -0.54173915472E+03 -0.78043016047E+02  0.19162712795E+03  0.57990774391E+03  0.10566000000E+00 0.  1.
          4    1    3    3  502    0 -0.44871057731E+02 -0.44065488152E+02 -0.68848581370E+03  0.69135222191E+03  0.00000000000E+00 0.  1.
         13    1    4    4    0    0 -0.12067989157E+03 -0.16480784259E+03  0.30108183650E+02  0.20647463548E+03  0.10566000000E+00 0. -1.
         -4    1    4    4    0  501  0.70729010402E+03  0.28691634679E+03 -0.15875440248E+04  0.17614983145E+04  0.00000000000E+00 0. -1.
<mgrwt>
<rscale>  2 0.11864784E+04</rscale>
<asrwt>0</asrwt>
<pdfrwt beam="1">  1        1 0.91149108E-01 0.11864784E+04</pdfrwt>
<pdfrwt beam="2">  1       -1 0.40719441E+00 0.11864784E+04</pdfrwt>
<totfact> 0.54490980E-01</totfact>
</mgrwt>
</event>
<event>
 8    1  0.1408247E-005  0.1065436E+04  0.7818608E-02  0.8715426E-01
          1   -1    0    0  502    0  0.00000000000E+00  0.00000000000E+00  0.18746470246E+04  0.18746470246E+04  0.00000000000E+00 0. -1.
         -1   -1    0    0    0  501 -0.00000000000E+00 -0.00000000000E+00 -0.60867782498E+03  0.60867782498E+03  0.00000000000E+00 0.  1.
    9000010    2    1    2  502    0 -0.37952636748E+03  0.33411362524E+02  0.71886658058E+03  0.12807936911E+04  0.98919499382E+03 0.  0.
   -9000010    2    1    2    0  501  0.37952636748E+03 -0.33411362524E+02  0.54710261902E+03  0.12025311584E+04  0.10008013432E+04 0.  0.
        -13    1    3    3    0    0 -0.61829599802E+03 -0.25549104842E+03  0.56489825794E+03  0.87560017700E+03  0.10566000000E+00 0.  1.
          4    1    3    3  502    0  0.23876963054E+03  0.28890241094E+03  0.15396832265E+03  0.40519351413E+03  0.00000000000E+00 0.  1.
         13    1    4    4    0    0  0.21897307844E+03 -0.41662188076E+03 -0.51923938406E+02  0.47351780025E+03  0.10566000000E+00 0. -1.
         -4    1    4    4    0  501  0.16055328904E+03  0.38321051824E+03  0.59902655743E+03  0.72901335819E+03  0.00000000000E+00 0. -1.
<mgrwt>
<rscale>  2 0.10654355E+04</rscale>
<asrwt>0</asrwt>
<pdfrwt beam="1">  1        1 0.28840723E+00 0.10654355E+04</pdfrwt>
<pdfrwt beam="2">  1       -1 0.93642743E-01 0.10654355E+04</pdfrwt>
<totfact> 0.54965930E+00</totfact>
</mgrwt>
</event>
<event>
 8    1  0.1408247E-005  0.2208169E+04  0.7818608E-02  0.8088539E-01
          1   -1    0    0  502    0  0.00000000000E+00  0.00000000000E+00  0.20894284332E+04  0.20894284332E+04  0.00000000000E+00 0. -1.
         -1   -1    0    0    0  501 -0.00000000000E+00 -0.00000000000E+00 -0.25590703957E+04  0.25590703957E+04  0.00000000000E+00 0.  1.
    9000010    2    1    2  502    0 -0.14988109829E+04 -0.12525106395E+04 -0.92385238366E+03  0.23866537832E+04  0.10136053422E+04 0.  0.
   -9000010    2    1    2    0  501  0.14988109829E+04  0.12525106395E+04  0.45421042111E+03  0.22618450456E+04  0.10461446550E+04 0.  0.
        -13    1    3    3    0    0 -0.31276594234E+03  0.29399287675E+02 -0.49841805114E+03  0.58915822804E+03  0.10566000000E+00 0.  1.
          4    1    3    3  502    0 -0.11860450405E+04 -0.12819099272E+04 -0.42543433252E+03  0.17974955552E+04  0.00000000000E+00 0.  1.
         13    1    4    4    0    0 -0.13089326075E+03  0.30125782441E+03  0.80427753709E+02  0.33816853374E+03  0.10566000000E+00 0. -1.
         -4    1    4    4    0  501  0.16297042436E+04  0.95125281513E+03  0.37378266740E+03  0.19236765119E+04  0.00000000000E+00 0. -1.
<mgrwt>
<rscale>  2 0.22081688E+04</rscale>
<asrwt>0</asrwt>
<pdfrwt beam="1">  1        1 0.32145053E+00 0.22081688E+04</pdfrwt>
<pdfrwt beam="2">  1       -1 0.39370314E+00 0.22081688E+04</pdfrwt>
<totfact> 0.30998542E-02</totfact>
</mgrwt>
</event>
<event>
 8    1  0.1408247E-005  0.1409348E+04  0.7818608E-02  0.8463658E-01
         -4   -1    0    0    0  501 -0.00000000000E+00  0.00000000000E+00  0.12593710460E+04  0.12593710460E+04  0.00000000000E+00 0. -1.
          4   -1    0    0  502    0  0.00000000000E+00 -0.00000000000E+00 -0.21569654380E+04  0.21569654380E+04  0.00000000000E+00 0.  1.
    9000010    2    1    2  502    0  0.34237152061E+03  0.92289556189E+03 -0.13342638539E+04  0.19403213359E+04  0.10077858793E+04 0.  0.
   -9000010    2    1    2    0  501 -0.34237152061E+03 -0.92289556189E+03  0.43666946192E+03  0.14760151481E+04  0.10094483751E+04 0.  0.
        -13    1    3    3    0    0 -0.77530792753E+02 -0.19750916110E+03 -0.20779257963E+03  0.29698259185E+03  0.10566000000E+00 0.  1.
          4    1    3    3  502    0  0.41990231336E+03  0.11204047230E+04 -0.11264712743E+04  0.16433387441E+04  0.00000000000E+00 0.  1.
         13    1    4    4    0    0  0.21642970682E+01  0.65961259951E+02  0.42366549367E+03  0.42877503855E+03  0.10566000000E+00 0. -1.
         -4    1    4    4    0  501 -0.34453581767E+03 -0.98885682185E+03  0.13003968248E+02  0.10472401095E+04  0.00000000000E+00 0. -1.
<mgrwt>
<rscale>  2 0.14093484E+04</rscale>
<asrwt>0</asrwt>
<pdfrwt beam="2">  1        4 0.33184083E+00 0.14093484E+04</pdfrwt>
<pdfrwt beam="1">  1       -4 0.19374939E+00 0.14093484E+04</pdfrwt>
<totfact> 0.84738774E-02</totfact>
</mgrwt>
</event>
<event>
 8    1  0.1408247E-005  0.1465949E+04  0.7818608E-02  0.8429370E-01
         -2   -1    0    0    0  501 -0.00000000000E+00  0.00000000000E+00  0.20935234621E+04  0.20935234621E+04  0.00000000000E+00 0. -1.
          2   -1    0    0  502    0  0.00000000000E+00 -0.00000000000E+00 -0.10310719233E+04  0.10310719233E+04  0.00000000000E+00 0.  1.
    9000010    2    1    2  502    0  0.37349462439E+03  0.10023782323E+04  0.63588274707E+03  0.15996163221E+04  0.10050697263E+04 0.  0.
   -9000010    2    1    2    0  501 -0.37349462439E+03 -0.10023782323E+04  0.42656879170E+03  0.15249790633E+04  0.99966987271E+03 0.  0.
        -13    1    3    3    0    0  0.32770107775E+03 -0.11426082343E+03  0.19610302461E+03  0.39862255274E+03  0.10566000000E+00 0.  1.
          4    1    3    3  502    0  0.45793546642E+02  0.11166390557E+04  0.43977972246E+03  0.12009937693E+04  0.00000000000E+00 0.  1.
         13    1    4    4    0    0 -0.71652073544E+03 -0.66506928672E+03  0.34694676780E+03  0.10373481534E+04  0.10566000000E+00 0. -1.
         -4    1    4    4    0  501  0.34302611104E+03 -0.33730894555E+03  0.79622023892E+02  0.48763090991E+03  0.00000000000E+00 0. -1.
<mgrwt>
<rscale>  2 0.14659489E+04</rscale>
<asrwt>0</asrwt>
<pdfrwt beam="2">  1        2 0.15862645E+00 0.14659489E+04</pdfrwt>
<pdfrwt beam="1">  1       -2 0.32208053E+00 0.14659489E+04</pdfrwt>
<totfact> 0.43225164E-01</totfact>
</mgrwt>
</event>
<event>
 8    1  0.1408247E-005  0.1362155E+04  0.7818608E-02  0.8493534E-01
         -1   -1    0    0    0  501 -0.00000000000E+00  0.00000000000E+00  0.51829902331E+03  0.51829902331E+03  0.00000000000E+00 0. -1.
          1   -1    0    0  502    0  0.00000000000E+00 -0.00000000000E+00 -0.39142662983E+04  0.39142662983E+04  0.00000000000E+00 0.  1.
    9000010    2    1    2  502    0 -0.64277804893E+03  0.67257789615E+03 -0.23384013720E+04  0.27030295601E+04  0.98626729641E+03 0.  0.
   -9000010    2    1    2    0  501  0.64277804893E+03 -0.67257789615E+03 -0.10575659030E+04  0.17295357615E+04  0.10036551521E+04 0.  0.
        -13    1    3    3    0    0 -0.77630628728E+03  0.37583031930E+03 -0.21731864346E+04  0.23380845090E+04  0.10566000000E+00 0.  1.
          4    1    3    3  502    0  0.13352823836E+03  0.29674757685E+03 -0.16521493736E+03  0.36494505111E+03  0.00000000000E+00 0.  1.
         13    1    4    4    0    0  0.11418828579E+03 -0.32022534786E+02  0.19406802309E+03  0.22743530090E+03  0.10566000000E+00 0. -1.
         -4    1    4    4    0  501  0.52858976313E+03 -0.64055536136E+03 -0.12516339261E+04  0.15021004606E+04  0.00000000000E+00 0. -1.
<mgrwt>
<rscale>  2 0.13621554E+04</rscale>
<asrwt>0</asrwt>
<pdfrwt beam="2">  1        1 0.60219484E+00 0.13621554E+04</pdfrwt>
<pdfrwt beam="1">  1       -1 0.79738308E-01 0.13621554E+04</pdfrwt>
<totfact> 0.10026657E-01</totfact>
</mgrwt>
</event>
<event>
 8    1  0.1408247E-005  0.2241189E+04  0.7818608E-02  0.8076706E-01
         -2   -1    0    0    0  501 -0.00000000000E+00  0.00000000000E+00  0.19607801542E+04  0.19607801542E+04  0.00000000000E+00 0.  1.
          2   -1    0    0  502    0  0.00000000000E+00 -0.00000000000E+00 -0.25627506447E+04  0.25627506447E+04  0.00000000000E+00 0. -1.
    9000010    2    1    2  502    0 -0.17980468879E+04  0.87430007511E+03 -0.25743761027E+03  0.22652862538E+04  0.10333801120E+04 0.  0.
   -9000010    2    1    2    0  501  0.17980468879E+04 -0.87430007511E+03 -0.34453288021E+03  0.22582445451E+04  0.99176221322E+03 0.  0.
        -13    1    3    3    0    0 -0.14129701489E+04  0.10610321879E+04 -0.40460230875E+03  0.18127263954E+04  0.10566000000E+00 0.  1.
          4    1    3    3  502    0 -0.38507673903E+03 -0.18673211277E+03  0.14716469848E+03  0.45255985832E+03  0.00000000000E+00 0.  1.
         13    1    4    4    0    0 -0.10117651117E+02  0.13194110313E+03 -0.11671652152E+03  0.17644710006E+03  0.10566000000E+00 0. -1.
         -4    1    4    4    0  501  0.18081645390E+04 -0.10062411782E+04 -0.22781635869E+03  0.20817974451E+04  0.00000000000E+00 0. -1.
<mgrwt>
<rscale>  2 0.22411894E+04</rscale>
<asrwt>0</asrwt>
<pdfrwt beam="2">  1        2 0.39426933E+00 0.22411894E+04</pdfrwt>
<pdfrwt beam="1">  1       -2 0.30165848E+00 0.22411894E+04</pdfrwt>
<totfact> 0.76770399E-02</totfact>
</mgrwt>
</event>
<event>
 8    1  0.1408247E-005  0.1156673E+04  0.7818608E-02  0.8639922E-01
         -2   -1    0    0    0  501 -0.00000000000E+00  0.00000000000E+00  0.71428465427E+03  0.71428465427E+03  0.00000000000E+00 0. -1.
          2   -1    0    0  502    0  0.00000000000E+00 -0.00000000000E+00 -0.22247672400E+04  0.22247672400E+04  0.00000000000E+00 0.  1.
    9000010    2    1    2  502    0  0.35267758594E+03 -0.45539223824E+03 -0.17158225674E+03  0.11704662799E+04  0.10043840258E+04 0.  0.
   -9000010    2    1    2    0  501 -0.35267758594E+03  0.45539223824E+03 -0.13389003290E+04  0.17685856144E+04  0.10017371981E+04 0.  0.
        -13    1    3    3    0    0  0.13706651291E+03 -0.98724967471E+02  0.41662846218E+03  0.44956994431E+03  0.10566000000E+00 0.  1.
          4    1    3    3  502    0  0.21561107303E+03 -0.35666727077E+03 -0.58821071892E+03  0.72089633561E+03  0.00000000000E+00 0.  1.
         13    1    4    4    0    0 -0.25816981356E+03  0.69938323258E+03 -0.52013184635E+03  0.90902459120E+03  0.10566000000E+00 0. -1.
         -4    1    4    4    0  501 -0.94507772384E+02 -0.24399099434E+03 -0.81876848265E+03  0.85956102316E+03  0.00000000000E+00 0. -1.
<mgrwt>
<rscale>  2 0.11566734E+04</rscale>
<asrwt>0</asrwt>
<pdfrwt beam="2">  1        2 0.34227188E+00 0.11566734E+04</pdfrwt>
<pdfrwt beam="1">  1       -2 0.10988995E+00 0.11566734E+04</pdfrwt>
<totfact> 0.50256201E+00</totfact>
</mgrwt>
</event>
<event>
 8    1  0.1408247E-005  0.1452287E+04  0.7818608E-02  0.8437499E-01
          1   -1    0    0  502    0  0.00000000000E+00  0.00000000000E+00  0.60691413096E+03  0.60691413096E+03  0.00000000000E+00 0. -1.
         -1   -1    0    0    0  501 -0.00000000000E+00 -0.00000000000E+00 -0.35474834412E+04  0.35474834412E+04  0.00000000000E+00 0.  1.
    9000010    2    1    2  502    0 -0.99531235896E+03  0.18465382167E+03 -0.11679683036E+04  0.18590550307E+04  0.10330498163E+04 0.  0.
   -9000010    2    1    2    0  501  0.99531235896E+03 -0.18465382167E+03 -0.17726010066E+04  0.22953425415E+04  0.10496377129E+04 0.  0.
        -13    1    3    3    0    0  0.30221009619E+02 -0.21507110942E+03  0.44294270391E+02  0.22165487832E+03  0.10566000000E+00 0.  1.
          4    1    3    3  502    0 -0.10255333686E+04  0.39972493109E+03 -0.12122625740E+04  0.16374001523E+04  0.00000000000E+00 0.  1.
         13    1    4    4    0    0  0.95040506520E+03  0.20340983543E+03 -0.84146178182E+03  0.12855750816E+04  0.10566000000E+00 0. -1.
         -4    1    4    4    0  501  0.44907293756E+02 -0.38806365710E+03 -0.93113922480E+03  0.10097674598E+04  0.00000000000E+00 0. -1.
<mgrwt>
<rscale>  2 0.14522874E+04</rscale>
<asrwt>0</asrwt>
<pdfrwt beam="1">  1        1 0.93371406E-01 0.14522874E+04</pdfrwt>
<pdfrwt beam="2">  1       -1 0.54576667E+00 0.14522874E+04</pdfrwt>
<totfact> 0.27670618E-01</totfact>
</mgrwt>
</event>
<event>
 8    1  0.1408247E-005  0.1262199E+04  0.7818608E-02  0.8561141E-01
         -2   -1    0    0    0  501 -0.00000000000E+00  0.00000000000E+00  0.83493590840E+03  0.83493590840E+03  0.00000000000E+00 0.  1.
          2   -1    0    0  502    0  0.00000000000E+00 -0.00000000000E+00 -0.19586967453E+04  0.19586967453E+04  0.00000000000E+00 0. -1.
    9000010    2    1    2  502    0 -0.58385448784E+03  0.47328629755E+03 -0.78002400137E+03  0.14723811065E+04  0.99728767039E+03 0.  0.
   -9000010    2    1    2    0  501  0.58385448784E+03 -0.47328629755E+03 -0.34373683558E+03  0.13212515473E+04  0.10308562735E+04 0.  0.
        -13    1    3    3    0    0 -0.81088540252E+03  0.14662161624E+03 -0.66321965199E+03  0.10577775533E+04  0.10566000000E+00 0.  1.
          4    1    3    3  502    0  0.22703091468E+03  0.32666468131E+03 -0.11680434938E+03  0.41460355313E+03  0.00000000000E+00 0.  1.
         13    1    4    4    0    0  0.43579190014E+03 -0.16925191019E+03 -0.69245099342E+03  0.83549337447E+03  0.10566000000E+00 0. -1.
         -4    1    4    4    0  501  0.14806258770E+03 -0.30403438736E+03  0.34871415785E+03  0.48575817282E+03  0.00000000000E+00 0. -1.
<mgrwt>
<rscale>  2 0.12621989E+04</rscale>
<asrwt>0</asrwt>
<pdfrwt beam="2">  1        2 0.30133796E+00 0.12621989E+04</pdfrwt>
<pdfrwt beam="1">  1       -2 0.12845168E+00 0.12621989E+04</pdfrwt>
<totfact> 0.46068907E+00</totfact>
</mgrwt>
</event>
<event>
 8    1  0.1408247E-005  0.1006702E+04  0.7818608E-02  0.8768320E-01
         -2   -1    0    0    0  501 -0.00000000000E+00  0.00000000000E+00  0.14961547127E+04  0.14961547127E+04  0.00000000000E+00 0. -1.
          2   -1    0    0  502    0  0.00000000000E+00 -0.00000000000E+00 -0.67739031627E+03  0.67739031627E+03  0.00000000000E+00 0.  1.
    9000010    2    1    2  502    0 -0.12591601747E+03 -0.87738102258E+02  0.40294279211E+03  0.10829089982E+04  0.99336608891E+03 0.  0.
   -9000010    2    1    2    0  501  0.12591601747E+03  0.87738102258E+02  0.41582160434E+03  0.10906360308E+04  0.99650716354E+03 0.  0.
        -13    1    3    3    0    0  0.62967468220E+02  0.34519622070E+03  0.48992681474E+03  0.60262229282E+03  0.10566000000E+00 0.  1.
          4    1    3    3  502    0 -0.18888348569E+03 -0.43293432296E+03 -0.86984022629E+02  0.48028670537E+03  0.00000000000E+00 0.  1.
         13    1    4    4    0    0 -0.32121968052E+03 -0.76536961390E+02  0.50756286019E+03  0.60552461372E+03  0.10566000000E+00 0. -1.
         -4    1    4    4    0  501  0.44713569799E+03  0.16427506365E+03 -0.91741255851E+02  0.48511141707E+03  0.00000000000E+00 0. -1.
<mgrwt>
<rscale>  2 0.10067022E+04</rscale>
<asrwt>0</asrwt>
<pdfrwt beam="2">  1        2 0.10421390E+00 0.10067022E+04</pdfrwt>
<pdfrwt beam="1">  1       -2 0.23017765E+00 0.10067022E+04</pdfrwt>
<totfact> 0.36693798E+00</totfact>
</mgrwt>
</event>
<event>
 8    1  0.1408247E-005  0.1190482E+04  0.7818608E-02  0.8613764E-01
          2   -1    0    0  502    0  0.00000000000E+00  0.00000000000E+00  0.25973538240E+04  0.25973538240E+04  0.00000000000E+00 0. -1.
         -2   -1    0    0    0  501 -0.00000000000E+00 -0.00000000000E+00 -0.82557281970E+03  0.82557281970E+03  0.00000000000E+00 0.  1.
    9000010    2    1    2  502    0  0.45099993453E+03  0.42487559162E+03 -0.11250330432E+03  0.11920779432E+04  0.10121623486E+04 0.  0.
   -9000010    2    1    2    0  501 -0.45099993453E+03 -0.42487559162E+03  0.18842843087E+04  0.22308487005E+04  0.10209007588E+04 0.  0.
        -13    1    3    3    0    0  0.64590856906E+03 -0.25473171532E+02  0.10576780920E+03  0.65500656690E+03  0.10566000000E+00 0.  1.
          4    1    3    3  502    0 -0.19490863453E+03  0.45034876315E+03 -0.21827111352E+03  0.53707137634E+03  0.00000000000E+00 0.  1.
         13    1    4    4    0    0 -0.37721704119E+03 -0.21143357383E+03  0.19486226654E+04  0.19960278444E+04  0.10566000000E+00 0. -1.
         -4    1    4    4    0  501 -0.73782893346E+02 -0.21344201779E+03 -0.64338356752E+02  0.23482085610E+03  0.00000000000E+00 0. -1.
<mgrwt>
<rscale>  2 0.11904822E+04</rscale>
<asrwt>0</asrwt>
<pdfrwt beam="1">  1        2 0.39959289E+00 0.11904822E+04</pdfrwt>
<pdfrwt beam="2">  1       -2 0.12701120E+00 0.11904822E+04</pdfrwt>
<totfact> 0.21274411E+00</totfact>
</mgrwt>
</event>
<event>
 8    1  0.1408247E-005  0.1331082E+04  0.7818608E-02  0.8513893E-01
          2   -1    0    0  502    0  0.00000000000E+00  0.00000000000E+00  0.30210833347E+04  0.30210833347E+04  0.00000000000E+00 0. -1.
         -2   -1    0    0    0  501 -0.00000000000E+00 -0.00000000000E+00 -0.89217806928E+03  0.89217806928E+03  0.00000000000E+00 0.  1.
    9000010    2    1    2  502    0  0.35032956789E+03  0.82043335656E+03 -0.88111136997E+02  0.13200516567E+04  0.96898457431E+03 0.  0.
   -9000010    2    1    2    0  501 -0.35032956789E+03 -0.82043335656E+03  0.22170164024E+04  0.25932097472E+04  0.10068432678E+04 0.  0.
        -13    1    3    3    0    0  0.38739147269E+03 -0.66392365292E+02  0.11498223293E+03  0.40951315527E+03  0.10566000000E+00 0.  1.
          4    1    3    3  502    0 -0.37061904796E+02  0.88682572185E+03 -0.20309336993E+03  0.91053850145E+03  0.00000000000E+00 0.  1.
         13    1    4    4    0    0 -0.64082890924E+03 -0.80303913879E+03  0.14877367807E+04  0.18080083764E+04  0.10566000000E+00 0. -1.
         -4    1    4    4    0  501  0.29049934135E+03 -0.17394217762E+02  0.72927962170E+03  0.78520137083E+03  0.00000000000E+00 0. -1.
<mgrwt>
<rscale>  2 0.13310820E+04</rscale>
<asrwt>0</asrwt>
<pdfrwt beam="1">  1        2 0.46478205E+00 0.13310820E+04</pdfrwt>
<pdfrwt beam="2">  1       -2 0.13725817E+00 0.13310820E+04</pdfrwt>
<totfact> 0.93840321E-01</totfact>
</mgrwt>
</event>
<event>
 8    1  0.1408247E-005  0.1257480E+04  0.7818608E-02  0.8564491E-01
          1   -1    0    0  502    0  0.00000000000E+00  0.00000000000E+00  0.19613251377E+04  0.19613251377E+04  0.00000000000E+00 0.  1.
         -1   -1    0    0    0  501 -0.00000000000E+00 -0.00000000000E+00 -0.81258595395E+03  0.81258595395E+03  0.00000000000E+00 0. -1.
    9000010    2    1    2  502    0 -0.29747651659E+03 -0.69960326838E+03  0.45069091357E+03  0.13338831611E+04  0.99909207625E+03 0.  0.
   -9000010    2    1    2    0  501  0.29747651659E+03  0.69960326838E+03  0.69804827023E+03  0.14400279306E+04  0.10042270870E+04 0.  0.
        -13    1    3    3    0    0 -0.46170624540E+03 -0.55699407384E+03 -0.11064007121E+03  0.73188543629E+03  0.10566000000E+00 0.  1.
          4    1    3    3  502    0  0.16422972881E+03 -0.14260919455E+03  0.56133098478E+03  0.60199772481E+03  0.00000000000E+00 0.  1.
         13    1    4    4    0    0  0.57335954631E+03  0.36837977497E+03  0.74110079255E+03  0.10068143939E+04  0.10566000000E+00 0. -1.
         -4    1    4    4    0  501 -0.27588302972E+03  0.33122349342E+03 -0.43052522326E+02  0.43321353667E+03  0.00000000000E+00 0. -1.
<mgrwt>
<rscale>  2 0.12574805E+04</rscale>
<asrwt>0</asrwt>
<pdfrwt beam="1">  1        1 0.30174233E+00 0.12574805E+04</pdfrwt>
<pdfrwt beam="2">  1       -1 0.12501322E+00 0.12574805E+04</pdfrwt>
<totfact> 0.23848161E+00</totfact>
</mgrwt>
</event>
<event>
 8    1  0.1408247E-005  0.1402563E+04  0.7818608E-02  0.8467879E-01
          2   -1    0    0  502    0  0.00000000000E+00  0.00000000000E+00  0.31754100599E+04  0.31754100599E+04  0.00000000000E+00 0.  1.
         -2   -1    0    0    0  501 -0.00000000000E+00 -0.00000000000E+00 -0.83478087685E+03  0.83478087685E+03  0.00000000000E+00 0. -1.
    9000010    2    1    2  502    0 -0.12083998256E+03 -0.96692243105E+03  0.21865598872E+04  0.25960153575E+04  0.10043457108E+04 0.  0.
   -9000010    2    1    2    0  501  0.12083998256E+03  0.96692243105E+03  0.15406929581E+03  0.14141755792E+04  0.10132195872E+04 0.  0.
        -13    1    3    3    0    0 -0.42970463578E+03 -0.59714524701E+03  0.18951670522E+04  0.20329502421E+04  0.10566000000E+00 0.  1.
          4    1    3    3  502    0  0.30886465321E+03 -0.36977718404E+03  0.29139283502E+03  0.56306511537E+03  0.00000000000E+00 0.  1.
         13    1    4    4    0    0  0.36897162443E+03  0.10672962777E+04  0.61470884731E+02  0.11309465438E+04  0.10566000000E+00 0. -1.
         -4    1    4    4    0  501 -0.24813164187E+03 -0.10037384667E+03  0.92598411078E+02  0.28322903546E+03  0.00000000000E+00 0. -1.
<mgrwt>
<rscale>  2 0.14025630E+04</rscale>
<asrwt>0</asrwt>
<pdfrwt beam="1">  1        2 0.48852462E+00 0.14025630E+04</pdfrwt>
<pdfrwt beam="2">  1       -2 0.12842783E+00 0.14025630E+04</pdfrwt>
<totfact> 0.89657517E-01</totfact>
</mgrwt>
</event>
<event>
 8    1  0.1408247E-005  0.1429054E+04  0.7818608E-02  0.8451536E-01
          2   -1    0    0  502    0  0.00000000000E+00  0.00000000000E+00  0.20431750288E+04  0.20431750288E+04  0.00000000000E+00 0. -1.
         -2   -1    0    0    0  501 -0.00000000000E+00 -0.00000000000E+00 -0.10779317671E+04  0.10779317671E+04  0.00000000000E+00 0.  1.
    9000010    2    1    2  502    0  0.33873531904E+03  0.85356216933E+03  0.45463028693E+02  0.13489455634E+04  0.98705483772E+03 0.  0.
   -9000010    2    1    2    0  501 -0.33873531904E+03 -0.85356216933E+03  0.91978023303E+03  0.17721612325E+04  0.12046782823E+04 0.  0.
        -13    1    3    3    0    0  0.39591812034E+03 -0.46234360816E+02  0.17997441497E+03  0.43735520500E+03  0.10566000000E+00 0.  1.
          4    1    3    3  502    0 -0.57182801299E+02  0.89979653015E+03 -0.13451138628E+03  0.91159035837E+03  0.00000000000E+00 0.  1.
         13    1    4    4    0    0 -0.52098359544E+03  0.35179252369E+02  0.63321167754E+03  0.82074266750E+03  0.10566000000E+00 0. -1.
         -4    1    4    4    0  501  0.18224827641E+03 -0.88874142170E+03  0.28656855548E+03  0.95141856503E+03  0.00000000000E+00 0. -1.
<mgrwt>
<rscale>  2 0.14290541E+04</rscale>
<asrwt>0</asrwt>
<pdfrwt beam="1">  1        2 0.31433462E+00 0.14290541E+04</pdfrwt>
<pdfrwt beam="2">  1       -2 0.16583566E+00 0.14290541E+04</pdfrwt>
<totfact> 0.18895171E+00</totfact>
</mgrwt>
</event>
<event>
 8    1  0.1408247E-005  0.1239294E+04  0.7818608E-02  0.8577546E-01
         -2   -1    0    0    0  501 -0.00000000000E+00  0.00000000000E+00  0.99121639285E+03  0.99121639285E+03  0.00000000000E+00 0.  1.
          2   -1    0    0  502    0  0.00000000000E+00 -0.00000000000E+00 -0.16285572367E+04  0.16285572367E+04  0.00000000000E+00 0. -1.
    9000010    2    1    2  502    0  0.65856047775E+03  0.33796876225E+03 -0.29731172746E+02  0.12385801385E+04  0.99260869919E+03 0.  0.
   -9000010    2    1    2    0  501 -0.65856047775E+03 -0.33796876225E+03 -0.60760967109E+03  0.13811934910E+04  0.99527943824E+03 0.  0.
        -13    1    3    3    0    0  0.57640944629E+03  0.65735238331E+03  0.10853475543E+03  0.88098797376E+03  0.10566000000E+00 0.  1.
          4    1    3    3  502    0  0.82151031469E+02 -0.31938362107E+03 -0.13826592817E+03  0.35759216472E+03  0.00000000000E+00 0.  1.
         13    1    4    4    0    0  0.29149836451E+02  0.18846898084E+03 -0.46613861046E+03  0.50364221926E+03  0.10566000000E+00 0. -1.
         -4    1    4    4    0  501 -0.68771031421E+03 -0.52643774309E+03 -0.14147106063E+03  0.87755127178E+03  0.00000000000E+00 0. -1.
<mgrwt>
<rscale>  2 0.12392938E+04</rscale>
<asrwt>0</asrwt>
<pdfrwt beam="2">  1        2 0.25054727E+00 0.12392938E+04</pdfrwt>
<pdfrwt beam="1">  1       -2 0.15249483E+00 0.12392938E+04</pdfrwt>
<totfact> 0.42374190E+00</totfact>
</mgrwt>
</event>
<event>
 8    1  0.1408247E-005  0.1531696E+04  0.7818608E-02  0.8391488E-01
         -2   -1    0    0    0  501 -0.00000000000E+00  0.00000000000E+00  0.11282906701E+04  0.11282906701E+04  0.00000000000E+00 0.  1.
          2   -1    0    0  502    0  0.00000000000E+00 -0.00000000000E+00 -0.23016122112E+04  0.23016122112E+04  0.00000000000E+00 0. -1.
    9000010    2    1    2  502    0 -0.11869947568E+03 -0.11506979502E+04 -0.11188218011E+04  0.18949827012E+04  0.10005008130E+04 0.  0.
   -9000010    2    1    2    0  501  0.11869947568E+03  0.11506979502E+04 -0.54499740073E+02  0.15349201801E+04  0.10073799678E+04 0.  0.
        -13    1    3    3    0    0 -0.91250852476E+02 -0.11926535568E+04 -0.53725021893E+03  0.13112539928E+04  0.10566000000E+00 0.  1.
          4    1    3    3  502    0 -0.27448623208E+02  0.41955606564E+02 -0.58157158214E+03  0.58372870839E+03  0.00000000000E+00 0.  1.
         13    1    4    4    0    0  0.16558439135E+03  0.90487064373E+03 -0.48277692992E+03  0.10388852910E+04  0.10566000000E+00 0. -1.
         -4    1    4    4    0  501 -0.46884915665E+02  0.24582730652E+03  0.42827718985E+03  0.49603488918E+03  0.00000000000E+00 0. -1.
<mgrwt>
<rscale>  2 0.15316962E+04</rscale>
<asrwt>0</asrwt>
<pdfrwt beam="2">  1        2 0.35409418E+00 0.15316962E+04</pdfrwt>
<pdfrwt beam="1">  1       -2 0.17358318E+00 0.15316962E+04</pdfrwt>
<totfact> 0.11587579E+00</totfact>
</mgrwt>
</event>
<event>
 8    1  0.1408247E-005  0.1184995E+04  0.7818608E-02  0.8617948E-01
         -2   -1    0    0    0  501 -0.00000000000E+00  0.00000000000E+00  0.60455678202E+03  0.60455678202E+03  0.00000000000E+00 0. -1.
          2   -1    0    0  502    0  0.00000000000E+00 -0.00000000000E+00 -0.23391016478E+04  0.23391016478E+04  0.00000000000E+00 0.  1.
    9000010    2    1    2  502    0 -0.61027110450E+03  0.83650700650E+02 -0.74697512015E+03  0.14040431897E+04  0.10168270196E+04 0.  0.
   -9000010    2    1    2    0  501  0.61027110450E+03 -0.83650700650E+02 -0.98756974563E+03  0.15396152401E+04  0.10078158682E+04 0.  0.
        -13    1    3    3    0    0 -0.27772324637E+02  0.82825114045E+01  0.24743406051E+03  0.24912552554E+03  0.10566000000E+00 0.  1.
          4    1    3    3  502    0 -0.58249877986E+03  0.75368189246E+02 -0.99440918067E+03  0.11549176642E+04  0.00000000000E+00 0.  1.
         13    1    4    4    0    0  0.66056239006E+02  0.64602779053E+02 -0.97093680530E+03  0.97532314482E+03  0.10566000000E+00 0. -1.
         -4    1    4    4    0  501  0.54421486549E+03 -0.14825347970E+03 -0.16632940333E+02  0.56429209526E+03  0.00000000000E+00 0. -1.
<mgrwt>
<rscale>  2 0.11849952E+04</rscale>
<asrwt>0</asrwt>
<pdfrwt beam="2">  1        2 0.35986178E+00 0.11849952E+04</pdfrwt>
<pdfrwt beam="1">  1       -2 0.93008739E-01 0.11849952E+04</pdfrwt>
<totfact> 0.64884255E+00</totfact>
</mgrwt>
</event>
<event>
 8    1  0.1408247E-005  0.1233959E+04  0.7818608E-02  0.8581420E-01
          2   -1    0    0  502    0  0.00000000000E+00  0.00000000000E+00  0.18677152326E+04  0.18677152326E+04  0.00000000000E+00 0.  1.
         -2   -1    0    0    0  501 -0.00000000000E+00 -0.00000000000E+00 -0.85678034424E+03  0.85678034424E+03  0.00000000000E+00 0. -1.
    9000010    2    1    2  502    0 -0.58606982192E+03  0.45655881108E+03  0.80844537853E+03  0.14820906437E+04  0.99553250175E+03 0.  0.
   -9000010    2    1    2    0  501  0.58606982192E+03 -0.45655881108E+03  0.20248950982E+03  0.12424049331E+04  0.97500986255E+03 0.  0.
        -13    1    3    3    0    0 -0.16463760869E+03 -0.23451723746E+03  0.57047946675E+03  0.63839698465E+03  0.10566000000E+00 0.  1.
          4    1    3    3  502    0 -0.42143221323E+03  0.69107604854E+03  0.23796591178E+03  0.84369365908E+03  0.00000000000E+00 0.  1.
         13    1    4    4    0    0  0.79651777776E+03 -0.54263368178E+03  0.43140750069E+02  0.96475541894E+03  0.10566000000E+00 0. -1.
         -4    1    4    4    0  501 -0.21044795584E+03  0.86074870698E+02  0.15934875975E+03  0.27764951417E+03  0.00000000000E+00 0. -1.
<mgrwt>
<rscale>  2 0.12339587E+04</rscale>
<asrwt>0</asrwt>
<pdfrwt beam="1">  1        2 0.28734080E+00 0.12339587E+04</pdfrwt>
<pdfrwt beam="2">  1       -2 0.13181236E+00 0.12339587E+04</pdfrwt>
<totfact> 0.48204163E+00</totfact>
</mgrwt>
</event>
<event>
 8    1  0.1408247E-005  0.1163395E+04  0.7818608E-02  0.8634648E-01
         -2   -1    0    0    0  501 -0.00000000000E+00  0.00000000000E+00  0.12088034742E+04  0.12088034742E+04  0.00000000000E+00 0. -1.
          2   -1    0    0  502    0  0.00000000000E+00 -0.00000000000E+00 -0.11688752797E+04  0.11688752797E+04  0.00000000000E+00 0.  1.
    9000010    2    1    2  502    0 -0.20553320450E+02 -0.61728939387E+03 -0.22387729129E+03  0.11761679757E+04  0.97559286114E+03 0.  0.
   -9000010    2    1    2    0  501  0.20553320450E+02  0.61728939387E+03  0.26380548571E+03  0.12015107782E+04  0.99627615706E+03 0.  0.
        -13    1    3    3    0    0  0.44948075421E+02  0.25730300727E+03  0.30517720460E+02  0.26297625266E+03  0.10566000000E+00 0.  1.
          4    1    3    3  502    0 -0.65501395871E+02 -0.87459240115E+03 -0.25439501175E+03  0.91319172303E+03  0.00000000000E+00 0.  1.
         13    1    4    4    0    0  0.38021980320E+03  0.67406765557E+03  0.31156713784E+03  0.83427117629E+03  0.10566000000E+00 0. -1.
         -4    1    4    4    0  501 -0.35966648275E+03 -0.56778261694E+02 -0.47761652137E+02  0.36723960194E+03  0.00000000000E+00 0. -1.
<mgrwt>
<rscale>  2 0.11633954E+04</rscale>
<asrwt>0</asrwt>
<pdfrwt beam="2">  1        2 0.17982697E+00 0.11633954E+04</pdfrwt>
<pdfrwt beam="1">  1       -2 0.18596977E+00 0.11633954E+04</pdfrwt>
<totfact> 0.39983881E+00</totfact>
</mgrwt>
</event>
<event>
 8    1  0.1408247E-005  0.1103281E+04  0.7818608E-02  0.8683185E-01
          2   -1    0    0  502    0  0.00000000000E+00  0.00000000000E+00  0.17833567302E+04  0.17833567302E+04  0.00000000000E+00 0. -1.
         -2   -1    0    0    0  501 -0.00000000000E+00 -0.00000000000E+00 -0.88706638622E+03  0.88706638622E+03  0.00000000000E+00 0.  1.
    9000010    2    1    2  502    0  0.18660361070E+03  0.42177600045E+03  0.10922177783E+04  0.15594775491E+04  0.10130718873E+04 0.  0.
   -9000010    2    1    2    0  501 -0.18660361070E+03 -0.42177600045E+03 -0.19592743430E+03  0.11109455674E+04  0.99151227529E+03 0.  0.
        -13    1    3    3    0    0 -0.41347781238E+03  0.21513926237E+03  0.34980907696E+03  0.58276513711E+03  0.10566000000E+00 0.  1.
          4    1    3    3  502    0  0.60008142308E+03  0.20663673808E+03  0.74240870135E+03  0.97671241197E+03  0.00000000000E+00 0.  1.
         13    1    4    4    0    0  0.63354990631E+02  0.30044096004E+03 -0.15907507668E+03  0.34580849685E+03  0.10566000000E+00 0. -1.
         -4    1    4    4    0  501 -0.24995860134E+03 -0.72221696050E+03 -0.36852357618E+02  0.76513707051E+03  0.00000000000E+00 0. -1.
<mgrwt>
<rscale>  2 0.11032813E+04</rscale>
<asrwt>0</asrwt>
<pdfrwt beam="1">  1        2 0.27436257E+00 0.11032813E+04</pdfrwt>
<pdfrwt beam="2">  1       -2 0.13647175E+00 0.11032813E+04</pdfrwt>
<totfact> 0.49240804E+00</totfact>
</mgrwt>
</event>
<event>
 8    1  0.1408247E-005  0.1326112E+04  0.7818608E-02  0.8517203E-01
          2   -1    0    0  502    0  0.00000000000E+00  0.00000000000E+00  0.43509683367E+04  0.43509683367E+04  0.00000000000E+00 0.  1.
         -2   -1    0    0    0  501 -0.00000000000E+00 -0.00000000000E+00 -0.49963274619E+03  0.49963274619E+03  0.00000000000E+00 0. -1.
    9000010    2    1    2  502    0 -0.19686478897E+03 -0.84347465648E+03  0.86868101797E+03  0.15874936073E+04  0.10076328701E+04 0.  0.
   -9000010    2    1    2    0  501  0.19686478897E+03  0.84347465648E+03  0.29826545725E+04  0.32631074756E+04  0.10007181707E+04 0.  0.
        -13    1    3    3    0    0 -0.59781995928E+03 -0.64292424199E+03  0.52845311225E+03  0.10246965344E+04  0.10566000000E+00 0.  1.
          4    1    3    3  502    0  0.40095517031E+03 -0.20055041449E+03  0.34022790573E+03  0.56279707283E+03  0.00000000000E+00 0.  1.
         13    1    4    4    0    0  0.32353897373E+03 -0.12100433687E+03  0.91580516792E+03  0.97878426317E+03  0.10566000000E+00 0. -1.
         -4    1    4    4    0  501 -0.12667418475E+03  0.96447899335E+03  0.20668494046E+04  0.22843232125E+04  0.00000000000E+00 0. -1.
<mgrwt>
<rscale>  2 0.13261116E+04</rscale>
<asrwt>0</asrwt>
<pdfrwt beam="1">  1        2 0.66937972E+00 0.13261116E+04</pdfrwt>
<pdfrwt beam="2">  1       -2 0.76866579E-01 0.13261116E+04</pdfrwt>
<totfact> 0.35162870E-01</totfact>
</mgrwt>
</event>
<event>
 8    1  0.1408247E-005  0.1506618E+04  0.7818608E-02  0.8405701E-01
          2   -1    0    0  502    0  0.00000000000E+00  0.00000000000E+00  0.35888139191E+04  0.35888139191E+04  0.00000000000E+00 0.  1.
         -2   -1    0    0    0  501 -0.00000000000E+00 -0.00000000000E+00 -0.88998146377E+03  0.88998146377E+03  0.00000000000E+00 0. -1.
    9000010    2    1    2  502    0  0.11305436016E+03 -0.11167559123E+04  0.14608555659E+03  0.15155672146E+04  0.10078084818E+04 0.  0.
   -9000010    2    1    2    0  501 -0.11305436016E+03  0.11167559123E+04  0.25527468987E+04  0.29632281683E+04  0.10021374119E+04 0.  0.
        -13    1    3    3    0    0 -0.11184852758E+03  0.15568215695E+03 -0.72694519164E+02  0.20501592961E+03  0.10566000000E+00 0.  1.
          4    1    3    3  502    0  0.22490288774E+03 -0.12724380693E+04  0.21878007576E+03  0.13105512850E+04  0.00000000000E+00 0.  1.
         13    1    4    4    0    0 -0.53476966528E+03  0.38666715516E+03  0.11905564690E+04  0.13612181313E+04  0.10566000000E+00 0. -1.
         -4    1    4    4    0  501  0.42171530513E+03  0.73008875714E+03  0.13621904297E+04  0.16020100370E+04  0.00000000000E+00 0. -1.
<mgrwt>
<rscale>  2 0.15066176E+04</rscale>
<asrwt>0</asrwt>
<pdfrwt beam="1">  1        2 0.55212521E+00 0.15066176E+04</pdfrwt>
<pdfrwt beam="2">  1       -2 0.13692023E+00 0.15066176E+04</pdfrwt>
<totfact> 0.37796799E-01</totfact>
</mgrwt>
</event>
<event>
 8    1  0.1408247E-005  0.1075808E+04  0.7818608E-02  0.8706452E-01
         -2   -1    0    0    0  501 -0.00000000000E+00  0.00000000000E+00  0.28811178597E+03  0.28811178597E+03  0.00000000000E+00 0. -1.
          2   -1    0    0  502    0  0.00000000000E+00 -0.00000000000E+00 -0.42189230084E+04  0.42189230084E+04  0.00000000000E+00 0.  1.
    9000010    2    1    2  502    0  0.27032947324E+03 -0.18987097129E+03 -0.14437855081E+04  0.17903492188E+04  0.10058353354E+04 0.  0.
   -9000010    2    1    2    0  501 -0.27032947324E+03  0.18987097129E+03 -0.24870257143E+04  0.27166855756E+04  0.10420914563E+04 0.  0.
        -13    1    3    3    0    0  0.44125229344E+02  0.41261201925E+03 -0.54986841702E+03  0.68887662284E+03  0.10566000000E+00 0.  1.
          4    1    3    3  502    0  0.22620424390E+03 -0.60248299054E+03 -0.89391709113E+03  0.11014725960E+04  0.00000000000E+00 0.  1.
         13    1    4    4    0    0 -0.63358099309E+03 -0.81927200864E+02 -0.14074257591E+04  0.15456339216E+04  0.10566000000E+00 0. -1.
         -4    1    4    4    0  501  0.36325151985E+03  0.27179817215E+03 -0.10795999552E+04  0.11710516540E+04  0.00000000000E+00 0. -1.
<mgrwt>
<rscale>  2 0.10758083E+04</rscale>
<asrwt>0</asrwt>
<pdfrwt beam="2">  1        2 0.64906503E+00 0.10758083E+04</pdfrwt>
<pdfrwt beam="1">  1       -2 0.44324893E-01 0.10758083E+04</pdfrwt>
<totfact> 0.14527046E+00</totfact>
</mgrwt>
</event>
<event>
 8    1  0.1408247E-005  0.1393219E+04  0.7818608E-02  0.8473732E-01
          2   -1    0    0  502    0  0.00000000000E+00  0.00000000000E+00  0.25929096880E+04  0.25929096880E+04  0.00000000000E+00 0.  1.
         -2   -1    0    0    0  501 -0.00000000000E+00 -0.00000000000E+00 -0.95870094481E+03  0.95870094481E+03  0.00000000000E+00 0. -1.
    9000010    2    1    2  502    0 -0.29506532467E+03  0.93262980667E+03  0.16517416353E+04  0.21656300070E+04  0.10024175752E+04 0.  0.
   -9000010    2    1    2    0  501  0.29506532467E+03 -0.93262980667E+03 -0.17532892124E+02  0.13859806258E+04  0.98171940533E+03 0.  0.
        -13    1    3    3    0    0 -0.21222965429E+02 -0.14083508824E+03  0.67130574229E+03  0.68624802160E+03  0.10566000000E+00 0.  1.
          4    1    3    3  502    0 -0.27384235924E+03  0.10734648949E+04  0.98043589305E+03  0.14793819854E+04  0.00000000000E+00 0.  1.
         13    1    4    4    0    0  0.46432727065E+02 -0.80861792276E+03  0.38505817061E+03  0.89682147001E+03  0.10566000000E+00 0. -1.
         -4    1    4    4    0  501  0.24863259760E+03 -0.12401188391E+03 -0.40259106274E+03  0.48915915584E+03  0.00000000000E+00 0. -1.
<mgrwt>
<rscale>  2 0.13932194E+04</rscale>
<asrwt>0</asrwt>
<pdfrwt beam="1">  1        2 0.39890918E+00 0.13932194E+04</pdfrwt>
<pdfrwt beam="2">  1       -2 0.14749245E+00 0.13932194E+04</pdfrwt>
<totfact> 0.13588384E+00</totfact>
</mgrwt>
</event>
<event>
 8    1  0.1408247E-005  0.1155354E+04  0.7818608E-02  0.8640962E-01
         -1   -1    0    0    0  501 -0.00000000000E+00  0.00000000000E+00  0.11060516980E+04  0.11060516980E+04  0.00000000000E+00 0.  1.
          1   -1    0    0  502    0  0.00000000000E+00 -0.00000000000E+00 -0.12078177370E+04  0.12078177370E+04  0.00000000000E+00 0. -1.
    9000010    2    1    2  502    0  0.32019235443E+02 -0.59474639006E+03 -0.83576153094E+02  0.11583754213E+04  0.99000007239E+03 0.  0.
   -9000010    2    1    2    0  501 -0.32019235443E+02  0.59474639006E+03 -0.18189885846E+02  0.11554940137E+04  0.98999345644E+03 0.  0.
        -13    1    3    3    0    0  0.11253622412E+03 -0.65415335492E+02 -0.47668630448E+03  0.49413906130E+03  0.10566000000E+00 0.  1.
          4    1    3    3  502    0 -0.80516988682E+02 -0.52933105457E+03  0.39311015139E+03  0.66423635998E+03  0.00000000000E+00 0.  1.
         13    1    4    4    0    0  0.31882783144E+03  0.69142772393E+03  0.11073855614E+03  0.76940660414E+03  0.10566000000E+00 0. -1.
         -4    1    4    4    0  501 -0.35084706688E+03 -0.96681333864E+02 -0.12892844199E+03  0.38608740955E+03  0.00000000000E+00 0. -1.
<mgrwt>
<rscale>  2 0.11553537E+04</rscale>
<asrwt>0</asrwt>
<pdfrwt beam="2">  1        1 0.18581811E+00 0.11553537E+04</pdfrwt>
<pdfrwt beam="1">  1       -1 0.17016180E+00 0.11553537E+04</pdfrwt>
<totfact> 0.35867399E+00</totfact>
</mgrwt>
</event>
<event>
 8    1  0.1408247E-005  0.1049732E+04  0.7818608E-02  0.8729217E-01
         -2   -1    0    0    0  501 -0.00000000000E+00  0.00000000000E+00  0.13322507594E+04  0.13322507594E+04  0.00000000000E+00 0. -1.
          2   -1    0    0  502    0  0.00000000000E+00 -0.00000000000E+00 -0.91263562454E+03  0.91263562454E+03  0.00000000000E+00 0.  1.
    9000010    2    1    2  502    0 -0.38688827898E+03  0.54008238936E+02  0.55795170753E+03  0.12242220834E+04  0.10172561974E+04 0.  0.
   -9000010    2    1    2    0  501  0.38688827898E+03 -0.54008238936E+02 -0.13833657271E+03  0.10206643005E+04  0.93274818504E+03 0.  0.
        -13    1    3    3    0    0  0.17224836060E+03 -0.11910976542E+03  0.60186040079E+03  0.63725394243E+03  0.10566000000E+00 0.  1.
          4    1    3    3  502    0 -0.55913663957E+03  0.17311800436E+03 -0.43908693253E+02  0.58696814095E+03  0.00000000000E+00 0.  1.
         13    1    4    4    0    0 -0.12363968754E+03 -0.38074505907E+03 -0.10376924930E+03  0.41354762797E+03  0.10566000000E+00 0. -1.
         -4    1    4    4    0  501  0.51052796652E+03  0.32673682013E+03 -0.34567323413E+02  0.60711667254E+03  0.00000000000E+00 0. -1.
<mgrwt>
<rscale>  2 0.10497323E+04</rscale>
<asrwt>0</asrwt>
<pdfrwt beam="2">  1        2 0.14040548E+00 0.10497323E+04</pdfrwt>
<pdfrwt beam="1">  1       -2 0.20496166E+00 0.10497323E+04</pdfrwt>
<totfact> 0.40125461E+00</totfact>
</mgrwt>
</event>
<event>
 8    1  0.1408247E-005  0.1064530E+04  0.7818608E-02  0.8716215E-01
         -1   -1    0    0    0  501 -0.00000000000E+00  0.00000000000E+00  0.29292864497E+04  0.29292864497E+04  0.00000000000E+00 0.  1.
          1   -1    0    0  502    0  0.00000000000E+00 -0.00000000000E+00 -0.42202201788E+03  0.42202201788E+03  0.00000000000E+00 0. -1.
    9000010    2    1    2  502    0 -0.16839371719E+03 -0.44003691854E+03  0.16905547133E+04  0.19773733302E+04  0.91106592233E+03 0.  0.
   -9000010    2    1    2    0  501  0.16839371719E+03  0.44003691854E+03  0.81670971854E+03  0.13739351373E+04  0.99934681848E+03 0.  0.
        -13    1    3    3    0    0  0.83989833312E+01 -0.98745014899E+02 -0.10309520487E+03  0.14300263396E+03  0.10566000000E+00 0.  1.
          4    1    3    3  502    0 -0.17679270053E+03 -0.34129190364E+03  0.17936499182E+04  0.18343706963E+04  0.00000000000E+00 0.  1.
         13    1    4    4    0    0 -0.78709564340E+02 -0.30337682504E+02  0.83794512044E+03  0.84218026962E+03  0.10566000000E+00 0. -1.
         -4    1    4    4    0  501  0.24710328153E+03  0.47037460105E+03 -0.21235401906E+02  0.53175486772E+03  0.00000000000E+00 0. -1.
<mgrwt>
<rscale>  2 0.10645296E+04</rscale>
<asrwt>0</asrwt>
<pdfrwt beam="2">  1        1 0.64926466E-01 0.10645296E+04</pdfrwt>
<pdfrwt beam="1">  1       -1 0.45065944E+00 0.10645296E+04</pdfrwt>
<totfact> 0.86920491E-01</totfact>
</mgrwt>
</event>
<event>
 8    1  0.1408247E-005  0.1442550E+04  0.7818608E-02  0.8443349E-01
          1   -1    0    0  502    0  0.00000000000E+00  0.00000000000E+00  0.91939506814E+03  0.91939506814E+03  0.00000000000E+00 0.  1.
         -1   -1    0    0    0  501 -0.00000000000E+00 -0.00000000000E+00 -0.27920601170E+04  0.27920601170E+04  0.00000000000E+00 0. -1.
    9000010    2    1    2  502    0  0.98313165799E+03  0.29397446937E+03 -0.14019468777E+03  0.14701839814E+04  0.10434642030E+04 0.  0.
   -9000010    2    1    2    0  501 -0.98313165799E+03 -0.29397446937E+03 -0.17324703611E+04  0.22412712038E+04  0.98431408162E+03 0.  0.
        -13    1    3    3    0    0  0.98728531482E+03 -0.16319554988E+03 -0.36309024339E+02  0.10013408195E+04  0.10566000000E+00 0.  1.
          4    1    3    3  502    0 -0.41536568321E+01  0.45717001925E+03 -0.10388566343E+03  0.46884316187E+03  0.00000000000E+00 0.  1.
         13    1    4    4    0    0 -0.86269753950E+03 -0.36671566442E+03 -0.62902761312E+03  0.11288946684E+04  0.10566000000E+00 0. -1.
         -4    1    4    4    0  501 -0.12043411849E+03  0.72741195049E+02 -0.11034427480E+04  0.11123765354E+04  0.00000000000E+00 0. -1.
<mgrwt>
<rscale>  2 0.14425501E+04</rscale>
<asrwt>0</asrwt>
<pdfrwt beam="1">  1        1 0.14144540E+00 0.14425501E+04</pdfrwt>
<pdfrwt beam="2">  1       -1 0.42954771E+00 0.14425501E+04</pdfrwt>
<totfact> 0.26776880E-01</totfact>
</mgrwt>
</event>
<event>
 8    1  0.1408247E-005  0.1167360E+04  0.7818608E-02  0.8631555E-01
          2   -1    0    0  502    0  0.00000000000E+00  0.00000000000E+00  0.17956741362E+04  0.17956741362E+04  0.00000000000E+00 0. -1.
         -2   -1    0    0    0  501 -0.00000000000E+00 -0.00000000000E+00 -0.75953236377E+03  0.75953236377E+03  0.00000000000E+00 0.  1.
    9000010    2    1    2  502    0  0.58388504325E+03 -0.23498271334E+03  0.48096644088E+03  0.12623018835E+04  0.98282180916E+03 0.  0.
   -9000010    2    1    2    0  501 -0.58388504325E+03  0.23498271334E+03  0.55517533156E+03  0.12929046165E+04  0.98348567820E+03 0.  0.
        -13    1    3    3    0    0  0.49342622905E+03  0.15397262531E+03 -0.12945993000E+03  0.53285729562E+03  0.10566000000E+00 0.  1.
          4    1    3    3  502    0  0.90458814206E+02 -0.38895533866E+03  0.61042637088E+03  0.72944458789E+03  0.00000000000E+00 0.  1.
         13    1    4    4    0    0 -0.91639437866E+01 -0.32125556310E+03  0.33302223613E+03  0.46280982661E+03  0.10566000000E+00 0. -1.
         -4    1    4    4    0  501 -0.57472109947E+03  0.55623827644E+03  0.22215309543E+03  0.83009478986E+03  0.00000000000E+00 0. -1.
<mgrwt>
<rscale>  2 0.11673602E+04</rscale>
<asrwt>0</asrwt>
<pdfrwt beam="1">  1        2 0.27625756E+00 0.11673602E+04</pdfrwt>
<pdfrwt beam="2">  1       -2 0.11685113E+00 0.11673602E+04</pdfrwt>
<totfact> 0.73506980E+00</totfact>
</mgrwt>
</event>
<event>
 8    1  0.1408247E-005  0.1064873E+04  0.7818608E-02  0.8715916E-01
          1   -1    0    0  502    0  0.00000000000E+00  0.00000000000E+00  0.88740341473E+03  0.88740341473E+03  0.00000000000E+00 0.  1.
         -1   -1    0    0    0  501 -0.00000000000E+00 -0.00000000000E+00 -0.13182559139E+04  0.13182559139E+04  0.00000000000E+00 0. -1.
    9000010    2    1    2  502    0 -0.30089339248E+03  0.21885601382E+03 -0.26246430248E+02  0.10816231086E+04  0.10152757682E+04 0.  0.
   -9000010    2    1    2    0  501  0.30089339248E+03 -0.21885601382E+03 -0.40460606895E+03  0.11240362201E+04  0.98046752345E+03 0.  0.
        -13    1    3    3    0    0 -0.33545800520E+03 -0.36121195222E+03  0.50257574146E+02  0.49551183901E+03  0.10566000000E+00 0.  1.
          4    1    3    3  502    0  0.34564612721E+02  0.58006796603E+03 -0.76504004394E+02  0.58611126960E+03  0.00000000000E+00 0.  1.
         13    1    4    4    0    0 -0.82873830377E+01  0.30749012151E+03 -0.41125223828E+03  0.51356330690E+03  0.10566000000E+00 0. -1.
         -4    1    4    4    0  501  0.30918077552E+03 -0.52634613533E+03  0.66461693258E+01  0.61047291315E+03  0.00000000000E+00 0. -1.
<mgrwt>
<rscale>  2 0.10648726E+04</rscale>
<asrwt>0</asrwt>
<pdfrwt beam="1">  1        1 0.13652360E+00 0.10648726E+04</pdfrwt>
<pdfrwt beam="2">  1       -1 0.20280860E+00 0.10648726E+04</pdfrwt>
<totfact> 0.33920735E+00</totfact>
</mgrwt>
</event>
<event>
 8    1  0.1408247E-005  0.1211323E+04  0.7818608E-02  0.8598084E-01
          2   -1    0    0  502    0  0.00000000000E+00  0.00000000000E+00  0.16345197093E+04  0.16345197093E+04  0.00000000000E+00 0. -1.
         -2   -1    0    0    0  501 -0.00000000000E+00 -0.00000000000E+00 -0.97719823623E+03  0.97719823623E+03  0.00000000000E+00 0.  1.
    9000010    2    1    2  502    0 -0.62006043932E+03  0.30833128042E+03 -0.46481694068E+02  0.12007327491E+04  0.97982419848E+03 0.  0.
   -9000010    2    1    2    0  501  0.62006043932E+03 -0.30833128042E+03  0.70380316711E+03  0.14109851964E+04  0.10079668643E+04 0.  0.
        -13    1    3    3    0    0 -0.23195585793E+02 -0.30791744819E+03  0.11168009371E+03  0.32836510868E+03  0.10566000000E+00 0.  1.
          4    1    3    3  502    0 -0.59686485353E+03  0.61624872862E+03 -0.15816178778E+03  0.87236764040E+03  0.00000000000E+00 0.  1.
         13    1    4    4    0    0 -0.25471200355E+00  0.96135054980E+01 -0.23860692676E+03  0.23880067217E+03  0.10566000000E+00 0. -1.
         -4    1    4    4    0  501  0.62031515132E+03 -0.31794478592E+03  0.94241009387E+03  0.11721845242E+04  0.00000000000E+00 0. -1.
<mgrwt>
<rscale>  2 0.12113228E+04</rscale>
<asrwt>0</asrwt>
<pdfrwt beam="1">  1        2 0.25146457E+00 0.12113228E+04</pdfrwt>
<pdfrwt beam="2">  1       -2 0.15033819E+00 0.12113228E+04</pdfrwt>
<totfact> 0.44078639E+00</totfact>
</mgrwt>
</event>
<event>
 8    1  0.1408247E-005  0.1022823E+04  0.7818608E-02  0.8753438E-01
         -2   -1    0    0    0  501 -0.00000000000E+00  0.00000000000E+00  0.46887516328E+03  0.46887516328E+03  0.00000000000E+00 0.  1.
          2   -1    0    0  502    0  0.00000000000E+00 -0.00000000000E+00 -0.22552017756E+04  0.22552017756E+04  0.00000000000E+00 0. -1.
    9000010    2    1    2  502    0  0.20880368163E+03  0.23501084478E+03 -0.77673273288E+03  0.13034465208E+04  0.99841375169E+03 0.  0.
   -9000010    2    1    2    0  501 -0.20880368163E+03 -0.23501084478E+03 -0.10095938794E+04  0.14206304181E+04  0.94872646681E+03 0.  0.
        -13    1    3    3    0    0  0.33219829701E+03  0.54305802324E+03 -0.72957484671E+03  0.96827020674E+03  0.10566000000E+00 0.  1.
          4    1    3    3  502    0 -0.12339461538E+03 -0.30804717846E+03 -0.47157886173E+02  0.33517631404E+03  0.00000000000E+00 0.  1.
         13    1    4    4    0    0  0.73110175616E+02  0.18471503084E+03  0.84094861879E+02  0.21572365970E+03  0.10566000000E+00 0. -1.
         -4    1    4    4    0  501 -0.28191385725E+03 -0.41972587562E+03 -0.10936887413E+04  0.12049067584E+04  0.00000000000E+00 0. -1.
<mgrwt>
<rscale>  2 0.10228232E+04</rscale>
<asrwt>0</asrwt>
<pdfrwt beam="2">  1        2 0.34695412E+00 0.10228232E+04</pdfrwt>
<pdfrwt beam="1">  1       -2 0.72134640E-01 0.10228232E+04</pdfrwt>
<totfact> 0.12897380E+01</totfact>
</mgrwt>
</event>
<event>
 8    1  0.1408247E-005  0.1316922E+04  0.7818608E-02  0.8523361E-01
         -1   -1    0    0    0  501 -0.00000000000E+00  0.00000000000E+00  0.66391579384E+03  0.66391579384E+03  0.00000000000E+00 0.  1.
          1   -1    0    0  502    0  0.00000000000E+00 -0.00000000000E+00 -0.26217707751E+04  0.26217707751E+04  0.00000000000E+00 0. -1.
    9000010    2    1    2  502    0  0.63381270838E+03 -0.56480957725E+03 -0.10818758093E+04  0.17084497997E+04  0.10137144782E+04 0.  0.
   -9000010    2    1    2    0  501 -0.63381270838E+03  0.56480957725E+03 -0.87597917197E+03  0.15772367693E+04  0.99980393518E+03 0.  0.
        -13    1    3    3    0    0  0.84817283754E+03 -0.17166076225E+03 -0.80547191216E+03  0.11822223108E+04  0.10566000000E+00 0.  1.
          4    1    3    3  502    0 -0.21436012916E+03 -0.39314881501E+03 -0.27640389713E+03  0.52622748889E+03  0.00000000000E+00 0.  1.
         13    1    4    4    0    0  0.20625318995E+03 -0.53738226384E+02 -0.34783488317E+03  0.40794275634E+03  0.10566000000E+00 0. -1.
         -4    1    4    4    0  501 -0.84006589833E+03  0.61854780364E+03 -0.52814428880E+03  0.11692940129E+04  0.00000000000E+00 0. -1.
<mgrwt>
<rscale>  2 0.13169223E+04</rscale>
<asrwt>0</asrwt>
<pdfrwt beam="2">  1        1 0.40334936E+00 0.13169223E+04</pdfrwt>
<pdfrwt beam="1">  1       -1 0.10214089E+00 0.13169223E+04</pdfrwt>
<totfact> 0.10622400E+00</totfact>
</mgrwt>
</event>
<event>
 8    1  0.1408247E-005  0.1209825E+04  0.7818608E-02  0.8599200E-01
         -1   -1    0    0    0  501 -0.00000000000E+00  0.00000000000E+00  0.61080954640E+03  0.61080954640E+03  0.00000000000E+00 0. -1.
          1   -1    0    0  502    0  0.00000000000E+00 -0.00000000000E+00 -0.24148998865E+04  0.24148998865E+04  0.00000000000E+00 0.  1.
    9000010    2    1    2  502    0  0.61529905787E+03 -0.27331687613E+03 -0.76674637572E+03  0.14294123772E+04  0.10010118351E+04 0.  0.
   -9000010    2    1    2    0  501 -0.61529905787E+03  0.27331687613E+03 -0.10373439644E+04  0.15962970557E+04  0.10093496640E+04 0.  0.
        -13    1    3    3    0    0 -0.22816514826E+03 -0.25303308307E+03 -0.34977871598E+03  0.48829318788E+03  0.10566000000E+00 0.  1.
          4    1    3    3  502    0  0.84346420614E+03 -0.20283793061E+02 -0.41696765974E+03  0.94111918935E+03  0.00000000000E+00 0.  1.
         13    1    4    4    0    0 -0.16935655937E+03  0.61999960656E+03 -0.47447264465E+03  0.79887762393E+03  0.10566000000E+00 0. -1.
         -4    1    4    4    0  501 -0.44594249850E+03 -0.34668273043E+03 -0.56287131975E+03  0.79741943176E+03  0.00000000000E+00 0. -1.
<mgrwt>
<rscale>  2 0.12098251E+04</rscale>
<asrwt>0</asrwt>
<pdfrwt beam="2">  1        1 0.37152305E+00 0.12098251E+04</pdfrwt>
<pdfrwt beam="1">  1       -1 0.93970701E-01 0.12098251E+04</pdfrwt>
<totfact> 0.19808339E+00</totfact>
</mgrwt>
</event>
<event>
 8    1  0.1408247E-005  0.1074591E+04  0.7818608E-02  0.8707500E-01
          2   -1    0    0  502    0  0.00000000000E+00  0.00000000000E+00  0.20555300171E+04  0.20555300171E+04  0.00000000000E+00 0. -1.
         -2   -1    0    0    0  501 -0.00000000000E+00 -0.00000000000E+00 -0.56280030710E+03  0.56280030710E+03  0.00000000000E+00 0.  1.
    9000010    2    1    2  502    0  0.37949297680E+03 -0.16769675788E+02  0.69901387040E+03  0.12905848860E+04  0.10162149455E+04 0.  0.
   -9000010    2    1    2    0  501 -0.37949297680E+03  0.16769675788E+02  0.79371583965E+03  0.13277454382E+04  0.99429722577E+03 0.  0.
        -13    1    3    3    0    0  0.13334105368E+03  0.49391443831E+03  0.26198914691E+03  0.57477789905E+03  0.10566000000E+00 0.  1.
          4    1    3    3  502    0  0.24615192312E+03 -0.51068411410E+03  0.43702472349E+03  0.71580698697E+03  0.00000000000E+00 0.  1.
         13    1    4    4    0    0 -0.64397364526E+03 -0.19498678557E+03  0.71117931645E+03  0.97902907702E+03  0.10566000000E+00 0. -1.
         -4    1    4    4    0  501  0.26448066846E+03  0.21175646136E+03  0.82536523198E+02  0.34871636121E+03  0.00000000000E+00 0. -1.
<mgrwt>
<rscale>  2 0.10745910E+04</rscale>
<asrwt>0</asrwt>
<pdfrwt beam="1">  1        2 0.31623538E+00 0.10745910E+04</pdfrwt>
<pdfrwt beam="2">  1       -2 0.86584664E-01 0.10745910E+04</pdfrwt>
<totfact> 0.11073746E+01</totfact>
</mgrwt>
</event>
<event>
 8    1  0.1408247E-005  0.1061270E+04  0.7818608E-02  0.8719060E-01
          1   -1    0    0  502    0  0.00000000000E+00  0.00000000000E+00  0.75154388640E+03  0.75154388640E+03  0.00000000000E+00 0.  1.
         -1   -1    0    0    0  501 -0.00000000000E+00 -0.00000000000E+00 -0.16026149273E+04  0.16026149273E+04  0.00000000000E+00 0. -1.
    9000010    2    1    2  502    0 -0.39682526250E+03 -0.32617981253E+03 -0.69664701250E+03  0.12227310717E+04  0.86364961337E+03 0.  0.
   -9000010    2    1    2    0  501  0.39682526250E+03  0.32617981253E+03 -0.15442402844E+03  0.11314277420E+04  0.99620198543E+03 0.  0.
        -13    1    3    3    0    0 -0.24879559621E+03 -0.46023603740E+03 -0.26930387686E+02  0.52387185051E+03  0.10566000000E+00 0.  1.
          4    1    3    3  502    0 -0.14802966629E+03  0.13405622486E+03 -0.66971662482E+03  0.69885922122E+03  0.00000000000E+00 0.  1.
         13    1    4    4    0    0 -0.33054362597E+03  0.55888629374E+02 -0.11518051057E+03  0.35447029317E+03  0.10566000000E+00 0. -1.
         -4    1    4    4    0  501  0.72736888847E+03  0.27029118316E+03 -0.39243517867E+02  0.77695744884E+03  0.00000000000E+00 0. -1.
<mgrwt>
<rscale>  2 0.10612695E+04</rscale>
<asrwt>0</asrwt>
<pdfrwt beam="1">  1        1 0.11562214E+00 0.10612695E+04</pdfrwt>
<pdfrwt beam="2">  1       -1 0.24655614E+00 0.10612695E+04</pdfrwt>
<totfact> 0.17520901E+00</totfact>
</mgrwt>
</event>
<event>
 8    1  0.1408247E-005  0.2093052E+04  0.7818608E-02  0.8131522E-01
         -2   -1    0    0    0  501 -0.00000000000E+00  0.00000000000E+00  0.14945003102E+04  0.14945003102E+04  0.00000000000E+00 0. -1.
          2   -1    0    0  502    0  0.00000000000E+00 -0.00000000000E+00 -0.40010313399E+04  0.40010313399E+04  0.00000000000E+00 0.  1.
    9000010    2    1    2  502    0 -0.16593578341E+04  0.80499851975E+03  0.16528729884E+03  0.21045953662E+04  0.10002553305E+04 0.  0.
   -9000010    2    1    2    0  501  0.16593578341E+04 -0.80499851975E+03 -0.26718183286E+04  0.33909362839E+04  0.97895079663E+03 0.  0.
        -13    1    3    3    0    0 -0.12865611109E+04  0.66474773626E+03  0.55167500956E+03  0.15496691170E+04  0.10566000000E+00 0.  1.
          4    1    3    3  502    0 -0.37279672320E+03  0.14025078348E+03 -0.38638771072E+03  0.55492624923E+03  0.00000000000E+00 0.  1.
         13    1    4    4    0    0  0.33838978278E+03  0.21673370490E+03 -0.69817678686E+03  0.80556314514E+03  0.10566000000E+00 0. -1.
         -4    1    4    4    0  501  0.13209680513E+04 -0.10217322246E+04 -0.19736415417E+04  0.25853731387E+04  0.00000000000E+00 0. -1.
<mgrwt>
<rscale>  2 0.20930523E+04</rscale>
<asrwt>0</asrwt>
<pdfrwt beam="2">  1        2 0.61554328E+00 0.20930523E+04</pdfrwt>
<pdfrwt beam="1">  1       -2 0.22992313E+00 0.20930523E+04</pdfrwt>
<totfact> 0.26125754E-02</totfact>
</mgrwt>
</event>
<event>
 8    1  0.1408247E-005  0.1292179E+04  0.7818608E-02  0.8540205E-01
          2   -1    0    0  502    0  0.00000000000E+00  0.00000000000E+00  0.18951282879E+04  0.18951282879E+04  0.00000000000E+00 0. -1.
         -2   -1    0    0    0  501 -0.00000000000E+00 -0.00000000000E+00 -0.11467999328E+04  0.11467999328E+04  0.00000000000E+00 0.  1.
    9000010    2    1    2  502    0  0.26496299461E+03  0.79762076861E+03 -0.35494195981E+03  0.13526565784E+04  0.99864495460E+03 0.  0.
   -9000010    2    1    2    0  501 -0.26496299461E+03 -0.79762076861E+03  0.11032703149E+04  0.16892716423E+04  0.96438011932E+03 0.  0.
        -13    1    3    3    0    0  0.46285106274E+03  0.55947112516E+03  0.16765593470E+03  0.74521645833E+03  0.10566000000E+00 0.  1.
          4    1    3    3  502    0 -0.19788806812E+03  0.23814964346E+03 -0.52259789451E+03  0.60744012012E+03  0.00000000000E+00 0.  1.
         13    1    4    4    0    0  0.19755137083E+02 -0.69240897686E+03  0.17758625355E+03  0.71509254317E+03  0.10566000000E+00 0. -1.
         -4    1    4    4    0  501 -0.28471813170E+03 -0.10521179175E+03  0.92568406139E+03  0.97417909912E+03  0.00000000000E+00 0. -1.
<mgrwt>
<rscale>  2 0.12921788E+04</rscale>
<asrwt>0</asrwt>
<pdfrwt beam="1">  1        2 0.29155820E+00 0.12921788E+04</pdfrwt>
<pdfrwt beam="2">  1       -2 0.17643076E+00 0.12921788E+04</pdfrwt>
<totfact> 0.18816618E+00</totfact>
</mgrwt>
</event>
<event>
 8    1  0.1408247E-005  0.1473787E+04  0.7818608E-02  0.8424746E-01
         -1   -1    0    0    0  501 -0.00000000000E+00  0.00000000000E+00  0.12226247960E+04  0.12226247960E+04  0.00000000000E+00 0.  1.
          1   -1    0    0  502    0  0.00000000000E+00 -0.00000000000E+00 -0.18308550760E+04  0.18308550760E+04  0.00000000000E+00 0. -1.
    9000010    2    1    2  502    0 -0.10887078825E+04 -0.32353921439E+03 -0.55732205818E+03  0.15427505988E+04  0.88289810101E+03 0.  0.
   -9000010    2    1    2    0  501  0.10887078825E+04  0.32353921439E+03 -0.50908221853E+02  0.15107292733E+04  0.99486120306E+03 0.  0.
        -13    1    3    3    0    0 -0.10581134617E+04  0.28174028058E+02 -0.28302317122E+03  0.10956733092E+04  0.10566000000E+00 0.  1.
          4    1    3    3  502    0 -0.30594420762E+02 -0.35171324245E+03 -0.27429888696E+03  0.44707728961E+03  0.00000000000E+00 0.  1.
         13    1    4    4    0    0  0.14804824970E+03  0.35898262606E+03  0.31577946572E+03  0.50050323894E+03  0.10566000000E+00 0. -1.
         -4    1    4    4    0  501  0.94065963280E+03 -0.35443411667E+02 -0.36668768757E+03  0.10102260343E+04  0.00000000000E+00 0. -1.
<mgrwt>
<rscale>  2 0.14737874E+04</rscale>
<asrwt>0</asrwt>
<pdfrwt beam="2">  1        1 0.28167001E+00 0.14737874E+04</pdfrwt>
<pdfrwt beam="1">  1       -1 0.18809612E+00 0.14737874E+04</pdfrwt>
<totfact> 0.81957858E-01</totfact>
</mgrwt>
</event>
<event>
 8    1  0.1408247E-005  0.1307930E+04  0.7818608E-02  0.8529438E-01
          1   -1    0    0  502    0  0.00000000000E+00  0.00000000000E+00  0.66409358672E+03  0.66409358672E+03  0.00000000000E+00 0. -1.
         -1   -1    0    0    0  501 -0.00000000000E+00 -0.00000000000E+00 -0.27445469694E+04  0.27445469694E+04  0.00000000000E+00 0.  1.
    9000010    2    1    2  502    0  0.32105001000E+03  0.79740597442E+03 -0.14701950938E+04  0.19747571825E+04  0.99963139145E+03 0.  0.
   -9000010    2    1    2    0  501 -0.32105001000E+03 -0.79740597442E+03 -0.61025828881E+03  0.14338833736E+04  0.97194493317E+03 0.  0.
        -13    1    3    3    0    0  0.33802795360E+03  0.76446560882E+03 -0.16186593028E+04  0.18217377732E+04  0.10566000000E+00 0.  1.
          4    1    3    3  502    0 -0.16977943597E+02  0.32940365604E+02  0.14846420900E+03  0.15301940926E+03  0.00000000000E+00 0.  1.
         13    1    4    4    0    0 -0.39723972013E+03 -0.90991126909E+03 -0.74595823214E+03  0.12418500747E+04  0.10566000000E+00 0. -1.
         -4    1    4    4    0  501  0.76189710123E+02  0.11250529468E+03  0.13569994333E+03  0.19203329888E+03  0.00000000000E+00 0. -1.
<mgrwt>
<rscale>  2 0.13079303E+04</rscale>
<asrwt>0</asrwt>
<pdfrwt beam="1">  1        1 0.10216824E+00 0.13079303E+04</pdfrwt>
<pdfrwt beam="2">  1       -1 0.42223799E+00 0.13079303E+04</pdfrwt>
<totfact> 0.46342312E-01</totfact>
</mgrwt>
</event>
<event>
 8    1  0.1408247E-005  0.1250476E+04  0.7818608E-02  0.8569492E-01
          1   -1    0    0  502    0  0.00000000000E+00  0.00000000000E+00  0.20296891263E+04  0.20296891263E+04  0.00000000000E+00 0.  1.
         -1   -1    0    0    0  501 -0.00000000000E+00 -0.00000000000E+00 -0.77197562872E+03  0.77197562872E+03  0.00000000000E+00 0. -1.
    9000010    2    1    2  502    0  0.80245575340E+02 -0.75710245452E+03  0.68901102620E+03  0.14230784420E+04  0.98527791959E+03 0.  0.
   -9000010    2    1    2    0  501 -0.80245575340E+02  0.75710245452E+03  0.56870247134E+03  0.13785863130E+04  0.99871629726E+03 0.  0.
        -13    1    3    3    0    0  0.47562152144E+03 -0.61062382300E+03  0.62866506444E+03  0.99714445257E+03  0.10566000000E+00 0.  1.
          4    1    3    3  502    0 -0.39537594610E+03 -0.14647863152E+03  0.60345961762E+02  0.42593398943E+03  0.00000000000E+00 0.  1.
         13    1    4    4    0    0  0.17882118620E+03 -0.71773502192E+01 -0.19698989397E+03  0.26614575045E+03  0.10566000000E+00 0. -1.
         -4    1    4    4    0  501 -0.25906676154E+03  0.76427980474E+03  0.76569236531E+03  0.11124405625E+04  0.00000000000E+00 0. -1.
<mgrwt>
<rscale>  2 0.12504759E+04</rscale>
<asrwt>0</asrwt>
<pdfrwt beam="1">  1        1 0.31225986E+00 0.12504759E+04</pdfrwt>
<pdfrwt beam="2">  1       -1 0.11876548E+00 0.12504759E+04</pdfrwt>
<totfact> 0.24046997E+00</totfact>
</mgrwt>
</event>
<event>
 8    1  0.1408247E-005  0.1028722E+04  0.7818608E-02  0.8748063E-01
         -2   -1    0    0    0  501 -0.00000000000E+00  0.00000000000E+00  0.45671535326E+03  0.45671535326E+03  0.00000000000E+00 0. -1.
          2   -1    0    0  502    0  0.00000000000E+00 -0.00000000000E+00 -0.26471272285E+04  0.26471272285E+04  0.00000000000E+00 0.  1.
    9000010    2    1    2  502    0  0.23718017132E+03 -0.80939872785E+02 -0.54737244626E+03  0.11653898258E+04  0.99785327298E+03 0.  0.
   -9000010    2    1    2    0  501 -0.23718017132E+03  0.80939872785E+02 -0.16430394289E+04  0.19384527560E+04  0.99760454358E+03 0.  0.
        -13    1    3    3    0    0 -0.28226299273E+03  0.56057644164E+00 -0.57322995340E+03  0.63895641631E+03  0.10566000000E+00 0.  1.
          4    1    3    3  502    0  0.51944316405E+03 -0.81500449227E+02  0.25857507139E+02  0.52643340945E+03  0.00000000000E+00 0.  1.
         13    1    4    4    0    0 -0.60682363347E+03  0.20923666291E+02 -0.12808188233E+04  0.14174517950E+04  0.10566000000E+00 0. -1.
         -4    1    4    4    0  501  0.36964346215E+03  0.60016206495E+02 -0.36222060568E+03  0.52100096096E+03  0.00000000000E+00 0. -1.
<mgrwt>
<rscale>  2 0.10287219E+04</rscale>
<asrwt>0</asrwt>
<pdfrwt beam="2">  1        2 0.40725035E+00 0.10287219E+04</pdfrwt>
<pdfrwt beam="1">  1       -2 0.70263900E-01 0.10287219E+04</pdfrwt>
<totfact> 0.82449108E+00</totfact>
</mgrwt>
</event>
<event>
 8    1  0.1408247E-005  0.1201028E+04  0.7818608E-02  0.8605788E-01
         -2   -1    0    0    0  501 -0.00000000000E+00  0.00000000000E+00  0.80792168596E+03  0.80792168596E+03  0.00000000000E+00 0.  1.
          2   -1    0    0  502    0  0.00000000000E+00 -0.00000000000E+00 -0.21159173787E+04  0.21159173787E+04  0.00000000000E+00 0. -1.
    9000010    2    1    2  502    0  0.64343909869E+03 -0.13031901683E+03 -0.77945301964E+02  0.12072867866E+04  0.10101826544E+04 0.  0.
   -9000010    2    1    2    0  501 -0.64343909869E+03  0.13031901683E+03 -0.12300503907E+04  0.17165522780E+04  0.10012646201E+04 0.  0.
        -13    1    3    3    0    0  0.61284329331E+03  0.19298355118E+03 -0.39435656909E+03  0.75388107015E+03  0.10566000000E+00 0.  1.
          4    1    3    3  502    0  0.30595805384E+02 -0.32330256801E+03  0.31641126712E+03  0.45340571650E+03  0.00000000000E+00 0.  1.
         13    1    4    4    0    0  0.99323618415E+00  0.74212032126E+02 -0.10395758045E+04  0.10422217982E+04  0.10566000000E+00 0. -1.
         -4    1    4    4    0  501 -0.64443233488E+03  0.56106984703E+02 -0.19047458629E+03  0.67433047980E+03  0.00000000000E+00 0. -1.
<mgrwt>
<rscale>  2 0.12010283E+04</rscale>
<asrwt>0</asrwt>
<pdfrwt beam="2">  1        2 0.32552575E+00 0.12010283E+04</pdfrwt>
<pdfrwt beam="1">  1       -2 0.12429564E+00 0.12010283E+04</pdfrwt>
<totfact> 0.41635930E+00</totfact>
</mgrwt>
</event>
<event>
 8    1  0.1408247E-005  0.1299438E+04  0.7818608E-02  0.8535223E-01
         -2   -1    0    0    0  501 -0.00000000000E+00  0.00000000000E+00  0.10870750967E+04  0.10870750967E+04  0.00000000000E+00 0. -1.
          2   -1    0    0  502    0  0.00000000000E+00 -0.00000000000E+00 -0.15930022835E+04  0.15930022835E+04  0.00000000000E+00 0.  1.
    9000010    2    1    2  502    0  0.80973031136E+03  0.23976765109E+03 -0.46310556302E+03  0.13729430297E+04  0.97844473354E+03 0.  0.
   -9000010    2    1    2    0  501 -0.80973031136E+03 -0.23976765109E+03 -0.42821623782E+02  0.13071343505E+04  0.99680229495E+03 0.  0.
        -13    1    3    3    0    0 -0.45672006211E+02  0.41539980865E+03 -0.12091368756E+03  0.43504374974E+03  0.10566000000E+00 0.  1.
          4    1    3    3  502    0  0.85540231757E+03 -0.17563215757E+03 -0.34219187545E+03  0.93789927993E+03  0.00000000000E+00 0.  1.
         13    1    4    4    0    0 -0.74234314572E+03  0.13122008843E+03  0.28655052893E+03  0.80647583621E+03  0.10566000000E+00 0. -1.
         -4    1    4    4    0  501 -0.67387165639E+02 -0.37098773952E+03 -0.32937215271E+03  0.50065851431E+03  0.00000000000E+00 0. -1.
<mgrwt>
<rscale>  2 0.12994379E+04</rscale>
<asrwt>0</asrwt>
<pdfrwt beam="2">  1        2 0.24507727E+00 0.12994379E+04</pdfrwt>
<pdfrwt beam="1">  1       -2 0.16724232E+00 0.12994379E+04</pdfrwt>
<totfact> 0.32816515E+00</totfact>
</mgrwt>
</event>
<event>
 8    1  0.1408247E-005  0.1209535E+04  0.7818608E-02  0.8599417E-01
         -2   -1    0    0    0  501 -0.00000000000E+00  0.00000000000E+00  0.16926014466E+04  0.16926014466E+04  0.00000000000E+00 0. -1.
          2   -1    0    0  502    0  0.00000000000E+00 -0.00000000000E+00 -0.93891145814E+03  0.93891145814E+03  0.00000000000E+00 0.  1.
    9000010    2    1    2  502    0 -0.37847224743E+03  0.55159666854E+03  0.42329545490E+01  0.12030807357E+04  0.99994260435E+03 0.  0.
   -9000010    2    1    2    0  501  0.37847224743E+03 -0.55159666854E+03  0.74945703388E+03  0.14284321690E+04  0.10154961787E+04 0.  0.
        -13    1    3    3    0    0 -0.14822403943E+03  0.92196642017E+02 -0.47151918481E+03  0.50279313785E+03  0.10566000000E+00 0.  1.
          4    1    3    3  502    0 -0.23024820799E+03  0.45940002652E+03  0.47575213936E+03  0.70028759789E+03  0.00000000000E+00 0.  1.
         13    1    4    4    0    0  0.31193769508E+03  0.49396798293E+02  0.76070655997E+03  0.82366234031E+03  0.10566000000E+00 0. -1.
         -4    1    4    4    0  501  0.66534552343E+02 -0.60099346683E+03 -0.11249526089E+02  0.60476982867E+03  0.00000000000E+00 0. -1.
<mgrwt>
<rscale>  2 0.12095350E+04</rscale>
<asrwt>0</asrwt>
<pdfrwt beam="2">  1        2 0.14444792E+00 0.12095350E+04</pdfrwt>
<pdfrwt beam="1">  1       -2 0.26040022E+00 0.12095350E+04</pdfrwt>
<totfact> 0.13784693E+00</totfact>
</mgrwt>
</event>
<event>
 8    1  0.1408247E-005  0.1222949E+04  0.7818608E-02  0.8589478E-01
          1   -1    0    0  502    0  0.00000000000E+00  0.00000000000E+00  0.12039285364E+04  0.12039285364E+04  0.00000000000E+00 0. -1.
         -1   -1    0    0    0  501 -0.00000000000E+00 -0.00000000000E+00 -0.12454136990E+04  0.12454136990E+04  0.00000000000E+00 0.  1.
    9000010    2    1    2  502    0  0.67766714432E+03  0.22410899388E+03  0.40513567254E+02  0.12284013742E+04  0.99893492646E+03 0.  0.
   -9000010    2    1    2    0  501 -0.67766714432E+03 -0.22410899388E+03 -0.81998729827E+02  0.12209408612E+04  0.98717536199E+03 0.  0.
        -13    1    3    3    0    0 -0.23253603822E+03  0.12542579148E+01  0.16209403286E+03  0.28345911325E+03  0.10566000000E+00 0.  1.
          4    1    3    3  502    0  0.91020318254E+03  0.22285473596E+03 -0.12158046560E+03  0.94494226091E+03  0.00000000000E+00 0.  1.
         13    1    4    4    0    0 -0.80841696342E+03 -0.18473130924E+03  0.24656246702E+03  0.86513392297E+03  0.10566000000E+00 0. -1.
         -4    1    4    4    0  501  0.13074981910E+03 -0.39377684639E+02 -0.32856119685E+03  0.35580693827E+03  0.00000000000E+00 0. -1.
<mgrwt>
<rscale>  2 0.12229493E+04</rscale>
<asrwt>0</asrwt>
<pdfrwt beam="1">  1        1 0.18521978E+00 0.12229493E+04</pdfrwt>
<pdfrwt beam="2">  1       -1 0.19160211E+00 0.12229493E+04</pdfrwt>
<totfact> 0.23271169E+00</totfact>
</mgrwt>
</event>
<event>
 8    1  0.1408247E-005  0.1153724E+04  0.7818608E-02  0.8642248E-01
         -2   -1    0    0    0  501 -0.00000000000E+00  0.00000000000E+00  0.55364276570E+03  0.55364276570E+03  0.00000000000E+00 0.  1.
          2   -1    0    0  502    0  0.00000000000E+00 -0.00000000000E+00 -0.24809227802E+04  0.24809227802E+04  0.00000000000E+00 0. -1.
    9000010    2    1    2  502    0 -0.61112811971E+03  0.15798856698E+03 -0.11944513855E+04  0.16346126425E+04  0.92022084996E+03 0.  0.
   -9000010    2    1    2    0  501  0.61112811971E+03 -0.15798856698E+03 -0.73282862897E+03  0.13999529034E+04  0.10121227032E+04 0.  0.
        -13    1    3    3    0    0 -0.77857906862E+03  0.33557101682E+03 -0.10552017616E+04  0.13536040936E+04  0.10566000000E+00 0.  1.
          4    1    3    3  502    0  0.16745094892E+03 -0.17758244984E+03 -0.13924962391E+03  0.28100854888E+03  0.00000000000E+00 0.  1.
         13    1    4    4    0    0  0.28740858816E+03 -0.85032627155E+02 -0.95478676787E+03  0.10007257504E+04  0.10566000000E+00 0. -1.
         -4    1    4    4    0  501  0.32371953154E+03 -0.72955939827E+02  0.22195813890E+03  0.39922715299E+03  0.00000000000E+00 0. -1.
<mgrwt>
<rscale>  2 0.11537240E+04</rscale>
<asrwt>0</asrwt>
<pdfrwt beam="2">  1        2 0.38168043E+00 0.11537240E+04</pdfrwt>
<pdfrwt beam="1">  1       -2 0.85175809E-01 0.11537240E+04</pdfrwt>
<totfact> 0.66574607E+00</totfact>
</mgrwt>
</event>
<event>
 8    1  0.1408247E-005  0.1278299E+04  0.7818608E-02  0.8549824E-01
          1   -1    0    0  502    0  0.00000000000E+00  0.00000000000E+00  0.13377376961E+04  0.13377376961E+04  0.00000000000E+00 0.  1.
         -1   -1    0    0    0  501 -0.00000000000E+00 -0.00000000000E+00 -0.12980940169E+04  0.12980940169E+04  0.00000000000E+00 0. -1.
    9000010    2    1    2  502    0 -0.42881667908E+03 -0.67745148747E+03 -0.30031823531E+03  0.13124353195E+04  0.99472165118E+03 0.  0.
   -9000010    2    1    2    0  501  0.42881667908E+03  0.67745148747E+03  0.33996191444E+03  0.13233963935E+04  0.99648364209E+03 0.  0.
        -13    1    3    3    0    0 -0.75588168602E+03 -0.47865096770E+03 -0.22047998717E+03  0.92145282465E+03  0.10566000000E+00 0.  1.
          4    1    3    3  502    0  0.32706500694E+03 -0.19880051976E+03 -0.79838248140E+02  0.39098249487E+03  0.00000000000E+00 0.  1.
         13    1    4    4    0    0 -0.10126155944E+03  0.67396417068E+03 -0.21380703762E+02  0.68186417448E+03  0.10566000000E+00 0. -1.
         -4    1    4    4    0  501  0.53007823851E+03  0.34873167835E+01  0.36134261820E+03  0.64153221903E+03  0.00000000000E+00 0. -1.
<mgrwt>
<rscale>  2 0.12782992E+04</rscale>
<asrwt>0</asrwt>
<pdfrwt beam="1">  1        1 0.20580580E+00 0.12782992E+04</pdfrwt>
<pdfrwt beam="2">  1       -1 0.19970677E+00 0.12782992E+04</pdfrwt>
<totfact> 0.15485908E+00</totfact>
</mgrwt>
</event>
<event>
 8    1  0.1408247E-005  0.1106819E+04  0.7818608E-02  0.8680241E-01
         -2   -1    0    0    0  501 -0.00000000000E+00  0.00000000000E+00  0.94320345179E+03  0.94320345179E+03  0.00000000000E+00 0. -1.
          2   -1    0    0  502    0  0.00000000000E+00 -0.00000000000E+00 -0.13164686862E+04  0.13164686862E+04  0.00000000000E+00 0.  1.
    9000010    2    1    2  502    0  0.41767724552E+03  0.20000823506E+03 -0.54219598728E+02  0.10936275952E+04  0.98925425277E+03 0.  0.
   -9000010    2    1    2    0  501 -0.41767724552E+03 -0.20000823506E+03 -0.31904563570E+03  0.11660445428E+04  0.10214754929E+04 0.  0.
        -13    1    3    3    0    0  0.51211928652E+03  0.46153896735E+03 -0.27129498585E+03  0.74086797914E+03  0.10566000000E+00 0.  1.
          4    1    3    3  502    0 -0.94442040996E+02 -0.26153073229E+03  0.21707538713E+03  0.35275961608E+03  0.00000000000E+00 0.  1.
         13    1    4    4    0    0 -0.48800418222E+03  0.40360550087E+02 -0.60994868340E+03  0.78218569625E+03  0.10566000000E+00 0. -1.
         -4    1    4    4    0  501  0.70326936703E+02 -0.24036878515E+03  0.29090304771E+03  0.38385884654E+03  0.00000000000E+00 0. -1.
<mgrwt>
<rscale>  2 0.11068186E+04</rscale>
<asrwt>0</asrwt>
<pdfrwt beam="2">  1        2 0.20253364E+00 0.11068186E+04</pdfrwt>
<pdfrwt beam="1">  1       -2 0.14510822E+00 0.11068186E+04</pdfrwt>
<totfact> 0.74137080E+00</totfact>
</mgrwt>
</event>
<event>
 8    1  0.1408247E-005  0.1522151E+04  0.7818608E-02  0.8396864E-01
          2   -1    0    0  502    0  0.00000000000E+00  0.00000000000E+00  0.29930507229E+04  0.29930507229E+04  0.00000000000E+00 0.  1.
         -2   -1    0    0    0  501 -0.00000000000E+00 -0.00000000000E+00 -0.77440267868E+03  0.77440267868E+03  0.00000000000E+00 0. -1.
    9000010    2    1    2  502    0  0.70901966920E+03  0.90082826015E+03  0.10737415444E+04  0.18640246684E+04  0.10037263644E+04 0.  0.
   -9000010    2    1    2    0  501 -0.70901966920E+03 -0.90082826015E+03  0.11449064998E+04  0.19034287332E+04  0.99901431590E+03 0.  0.
        -13    1    3    3    0    0  0.72837539872E+03  0.27405475390E+03  0.94442954928E+03  0.12237581110E+04  0.10566000000E+00 0.  1.
          4    1    3    3  502    0 -0.19355729523E+02  0.62677350625E+03  0.12931199512E+03  0.64026655737E+03  0.00000000000E+00 0.  1.
         13    1    4    4    0    0 -0.59904591204E+03  0.13944890288E+02  0.45737133205E+03  0.75381629808E+03  0.10566000000E+00 0. -1.
         -4    1    4    4    0  501 -0.10997375716E+03 -0.91477315044E+03  0.68753516777E+03  0.11496124351E+04  0.00000000000E+00 0. -1.
<mgrwt>
<rscale>  2 0.15221510E+04</rscale>
<asrwt>0</asrwt>
<pdfrwt beam="1">  1        2 0.46046934E+00 0.15221510E+04</pdfrwt>
<pdfrwt beam="2">  1       -2 0.11913888E+00 0.15221510E+04</pdfrwt>
<totfact> 0.14116722E+00</totfact>
</mgrwt>
</event>
<event>
 8    1  0.1408247E-005  0.1064592E+04  0.7818608E-02  0.8716160E-01
         -4   -1    0    0    0  501 -0.00000000000E+00  0.00000000000E+00  0.10755736471E+04  0.10755736471E+04  0.00000000000E+00 0. -1.
          4   -1    0    0  502    0  0.00000000000E+00 -0.00000000000E+00 -0.12507294764E+04  0.12507294764E+04  0.00000000000E+00 0.  1.
    9000010    2    1    2  502    0  0.44093999102E+03  0.20231374336E+02 -0.55015842983E+03  0.12217424302E+04  0.99756848572E+03 0.  0.
   -9000010    2    1    2    0  501 -0.44093999102E+03 -0.20231374336E+02  0.37500260049E+03  0.11045606933E+04  0.94052644334E+03 0.  0.
        -13    1    3    3    0    0  0.31022439040E+03 -0.41182129546E+03 -0.71846798669E+01  0.51564288280E+03  0.10566000000E+00 0.  1.
          4    1    3    3  502    0  0.13071560063E+03  0.43205266979E+03 -0.54297374996E+03  0.70609954742E+03  0.00000000000E+00 0.  1.
         13    1    4    4    0    0 -0.29681888606E+03  0.55295662363E+01  0.69331130855E+03  0.75419666464E+03  0.10566000000E+00 0. -1.
         -4    1    4    4    0  501 -0.14412110497E+03 -0.25760940572E+02 -0.31830870806E+03  0.35036402867E+03  0.00000000000E+00 0. -1.
<mgrwt>
<rscale>  2 0.10645922E+04</rscale>
<asrwt>0</asrwt>
<pdfrwt beam="2">  1        4 0.19241992E+00 0.10645922E+04</pdfrwt>
<pdfrwt beam="1">  1       -4 0.16547287E+00 0.10645922E+04</pdfrwt>
<totfact> 0.24750608E-01</totfact>
</mgrwt>
</event>
<event>
 8    1  0.1408247E-005  0.1391527E+04  0.7818608E-02  0.8474797E-01
          2   -1    0    0  502    0  0.00000000000E+00  0.00000000000E+00  0.27677851602E+04  0.27677851602E+04  0.00000000000E+00 0. -1.
         -2   -1    0    0    0  501 -0.00000000000E+00 -0.00000000000E+00 -0.70063005184E+03  0.70063005184E+03  0.00000000000E+00 0.  1.
    9000010    2    1    2  502    0  0.96117103856E+03 -0.69887817729E+02  0.96695007757E+03  0.16942870917E+04  0.10034352117E+04 0.  0.
   -9000010    2    1    2    0  501 -0.96117103856E+03  0.69887817729E+02  0.11002050308E+04  0.17741281203E+04  0.10041640330E+04 0.  0.
        -13    1    3    3    0    0 -0.59626455048E+02  0.19925619617E+03 -0.65105889727E+02  0.21793837179E+03  0.10566000000E+00 0.  1.
          4    1    3    3  502    0  0.10207974936E+04 -0.26914401390E+03  0.10320559673E+04  0.14763487199E+04  0.00000000000E+00 0.  1.
         13    1    4    4    0    0 -0.10760232774E+04 -0.14188043761E+03  0.65429871842E+03  0.12673053997E+04  0.10566000000E+00 0. -1.
         -4    1    4    4    0  501  0.11485223882E+03  0.21176825534E+03  0.44590631236E+03  0.50682272062E+03  0.00000000000E+00 0. -1.
<mgrwt>
<rscale>  2 0.13915271E+04</rscale>
<asrwt>0</asrwt>
<pdfrwt beam="1">  1        2 0.42581310E+00 0.13915271E+04</pdfrwt>
<pdfrwt beam="2">  1       -2 0.10778924E+00 0.13915271E+04</pdfrwt>
<totfact> 0.25374598E+00</totfact>
</mgrwt>
</event>
<event>
 8    1  0.1408247E-005  0.1368524E+04  0.7818608E-02  0.8489431E-01
         -2   -1    0    0    0  501 -0.00000000000E+00  0.00000000000E+00  0.77866026671E+03  0.77866026671E+03  0.00000000000E+00 0. -1.
          2   -1    0    0  502    0  0.00000000000E+00 -0.00000000000E+00 -0.24838165378E+04  0.24838165378E+04  0.00000000000E+00 0.  1.
    9000010    2    1    2  502    0  0.28298307393E+03 -0.90461509125E+03 -0.11456503038E+04  0.17885511825E+04  0.99397828474E+03 0.  0.
   -9000010    2    1    2    0  501 -0.28298307393E+03  0.90461509125E+03 -0.55950596733E+03  0.14739256220E+04  0.98030705816E+03 0.  0.
        -13    1    3    3    0    0 -0.39531472421E+02 -0.10227943217E+04 -0.93016932823E+03  0.13830712028E+04  0.10566000000E+00 0.  1.
          4    1    3    3  502    0  0.32251454635E+03  0.11817923043E+03 -0.21548097558E+03  0.40547997971E+03  0.00000000000E+00 0.  1.
         13    1    4    4    0    0 -0.23658222590E+03  0.43221533639E+03  0.23695551834E+03  0.54674415905E+03  0.10566000000E+00 0. -1.
         -4    1    4    4    0  501 -0.46400848033E+02  0.47239975486E+03 -0.79646148567E+03  0.92718146296E+03  0.00000000000E+00 0. -1.
<mgrwt>
<rscale>  2 0.13685235E+04</rscale>
<asrwt>0</asrwt>
<pdfrwt beam="2">  1        2 0.38212562E+00 0.13685235E+04</pdfrwt>
<pdfrwt beam="1">  1       -2 0.11979389E+00 0.13685235E+04</pdfrwt>
<totfact> 0.28284274E+00</totfact>
</mgrwt>
</event>
<event>
 8    1  0.1408247E-005  0.1319717E+04  0.7818608E-02  0.8521483E-01
          1   -1    0    0  502    0  0.00000000000E+00  0.00000000000E+00  0.19140649758E+04  0.19140649758E+04  0.00000000000E+00 0. -1.
         -1   -1    0    0    0  501 -0.00000000000E+00 -0.00000000000E+00 -0.10026635495E+04  0.10026635495E+04  0.00000000000E+00 0.  1.
    9000010    2    1    2  502    0  0.19154252068E+02 -0.85091977913E+03  0.90169654430E+03  0.16051142009E+04  0.10192661988E+04 0.  0.
   -9000010    2    1    2    0  501 -0.19154252068E+02  0.85091977913E+03  0.97048820780E+01  0.13116143244E+04  0.99790109497E+03 0.  0.
        -13    1    3    3    0    0  0.48852874607E+03 -0.64367717452E+03  0.47173074510E+03  0.93568720616E+03  0.10566000000E+00 0.  1.
          4    1    3    3  502    0 -0.46937449400E+03 -0.20724260461E+03  0.42996579919E+03  0.66942699472E+03  0.00000000000E+00 0.  1.
         13    1    4    4    0    0 -0.46679050860E+03  0.60322350213E+03  0.15805211206E+03  0.77894316463E+03  0.10566000000E+00 0. -1.
         -4    1    4    4    0  501  0.44763625653E+03  0.24769627700E+03 -0.14834722998E+03  0.53267115977E+03  0.00000000000E+00 0. -1.
<mgrwt>
<rscale>  2 0.13197171E+04</rscale>
<asrwt>0</asrwt>
<pdfrwt beam="1">  1        1 0.29447153E+00 0.13197171E+04</pdfrwt>
<pdfrwt beam="2">  1       -1 0.15425593E+00 0.13197171E+04</pdfrwt>
<totfact> 0.14263556E+00</totfact>
</mgrwt>
</event>
<event>
 8    1  0.1408247E-005  0.1532260E+04  0.7818608E-02  0.8391172E-01
          2   -1    0    0  502    0  0.00000000000E+00  0.00000000000E+00  0.22945058086E+04  0.22945058086E+04  0.00000000000E+00 0.  1.
         -2   -1    0    0    0  501 -0.00000000000E+00 -0.00000000000E+00 -0.11164840538E+04  0.11164840538E+04  0.00000000000E+00 0. -1.
    9000010    2    1    2  502    0  0.11233757720E+04  0.30559872644E+03  0.98736266127E+02  0.15426621511E+04  0.10073201852E+04 0.  0.
   -9000010    2    1    2    0  501 -0.11233757720E+04 -0.30559872644E+03  0.10792854887E+04  0.18683277113E+04  0.98510281893E+03 0.  0.
        -13    1    3    3    0    0  0.84260361621E+03 -0.19390404595E+03  0.32902056139E+03  0.92511306015E+03  0.10566000000E+00 0.  1.
          4    1    3    3  502    0  0.28077215576E+03  0.49950277239E+03 -0.23028429526E+03  0.61754909094E+03  0.00000000000E+00 0.  1.
         13    1    4    4    0    0 -0.61341112773E+03  0.30601548316E+03  0.72178125752E+03  0.99543301252E+03  0.10566000000E+00 0. -1.
         -4    1    4    4    0  501 -0.50996464424E+03 -0.61161420960E+03  0.35750423120E+03  0.87289469874E+03  0.00000000000E+00 0. -1.
<mgrwt>
<rscale>  2 0.15322598E+04</rscale>
<asrwt>0</asrwt>
<pdfrwt beam="1">  1        2 0.35300089E+00 0.15322598E+04</pdfrwt>
<pdfrwt beam="2">  1       -2 0.17176678E+00 0.15322598E+04</pdfrwt>
<totfact> 0.12111785E+00</totfact>
</mgrwt>
</event>
<event>
 8    1  0.1408247E-005  0.1534649E+04  0.7818608E-02  0.8389833E-01
          2   -1    0    0  502    0  0.00000000000E+00  0.00000000000E+00  0.24840579557E+04  0.24840579557E+04  0.00000000000E+00 0.  1.
         -2   -1    0    0    0  501 -0.00000000000E+00 -0.00000000000E+00 -0.10307148908E+04  0.10307148908E+04  0.00000000000E+00 0. -1.
    9000010    2    1    2  502    0  0.20666203280E+03 -0.11417989723E+04  0.22887328090E+03  0.15510017180E+04  0.10033988546E+04 0.  0.
   -9000010    2    1    2    0  501 -0.20666203280E+03  0.11417989723E+04  0.12244697840E+04  0.19637711284E+04  0.10053142314E+04 0.  0.
        -13    1    3    3    0    0  0.27718700393E+03  0.96612326659E+02  0.49319577234E+02  0.29765585611E+03  0.10566000000E+00 0.  1.
          4    1    3    3  502    0 -0.70524971133E+02 -0.12384112990E+04  0.17955370367E+03  0.12533458619E+04  0.00000000000E+00 0.  1.
         13    1    4    4    0    0 -0.38969032737E+03  0.27451089795E+03  0.90262688209E+03  0.10207595622E+04  0.10566000000E+00 0. -1.
         -4    1    4    4    0  501  0.18302829457E+03  0.86728807438E+03  0.32184290191E+03  0.94301156625E+03  0.00000000000E+00 0. -1.
<mgrwt>
<rscale>  2 0.15346486E+04</rscale>
<asrwt>0</asrwt>
<pdfrwt beam="1">  1        2 0.38216276E+00 0.15346486E+04</pdfrwt>
<pdfrwt beam="2">  1       -2 0.15857152E+00 0.15346486E+04</pdfrwt>
<totfact> 0.12319198E+00</totfact>
</mgrwt>
</event>
<event>
 8    1  0.1408247E-005  0.1475286E+04  0.7818608E-02  0.8423866E-01
         -4   -1    0    0    0  501 -0.00000000000E+00  0.00000000000E+00  0.26162598226E+04  0.26162598226E+04  0.00000000000E+00 0. -1.
          4   -1    0    0  502    0  0.00000000000E+00 -0.00000000000E+00 -0.18430285694E+04  0.18430285694E+04  0.00000000000E+00 0.  1.
    9000010    2    1    2  502    0 -0.70904442486E+03 -0.83623676104E+03 -0.12629155250E+04  0.19538552816E+04  0.10102271633E+04 0.  0.
   -9000010    2    1    2    0  501  0.70904442486E+03  0.83623676104E+03  0.20361467781E+04  0.25054331104E+04  0.96398415539E+03 0.  0.
        -13    1    3    3    0    0 -0.66329067809E+03 -0.34708455635E+03 -0.18780395119E+03  0.77181121276E+03  0.10566000000E+00 0.  1.
          4    1    3    3  502    0 -0.45753746770E+02 -0.48915220469E+03 -0.10751115738E+04  0.11820440689E+04  0.00000000000E+00 0.  1.
         13    1    4    4    0    0  0.60855528630E+02  0.76571232123E+03  0.13862793478E+04  0.15848625163E+04  0.10566000000E+00 0. -1.
         -4    1    4    4    0  501  0.64818889623E+03  0.70524439819E+02  0.64986743034E+03  0.92057059415E+03  0.00000000000E+00 0. -1.
<mgrwt>
<rscale>  2 0.14752862E+04</rscale>
<asrwt>0</asrwt>
<pdfrwt beam="2">  1        4 0.28354286E+00 0.14752862E+04</pdfrwt>
<pdfrwt beam="1">  1       -4 0.40250151E+00 0.14752862E+04</pdfrwt>
<totfact> 0.27692054E-02</totfact>
</mgrwt>
</event>
<event>
 8    1  0.1408247E-005  0.1252198E+04  0.7818608E-02  0.8568260E-01
         -1   -1    0    0    0  501 -0.00000000000E+00  0.00000000000E+00  0.97412277814E+03  0.97412277814E+03  0.00000000000E+00 0. -1.
          1   -1    0    0  502    0  0.00000000000E+00 -0.00000000000E+00 -0.19089316042E+04  0.19089316042E+04  0.00000000000E+00 0.  1.
    9000010    2    1    2  502    0  0.12137965928E+03 -0.73243342039E+03  0.96379439305E+02  0.12766876176E+04  0.10341424175E+04 0.  0.
   -9000010    2    1    2    0  501 -0.12137965928E+03  0.73243342039E+03 -0.10311882654E+04  0.16063667648E+04  0.98278848551E+03 0.  0.
        -13    1    3    3    0    0 -0.31461424007E+03 -0.13537982843E+03 -0.28430865291E+03  0.44513058678E+03  0.10566000000E+00 0.  1.
          4    1    3    3  502    0  0.43599389935E+03 -0.59705359197E+03  0.38068809222E+03  0.83155703082E+03  0.00000000000E+00 0.  1.
         13    1    4    4    0    0  0.19049766404E+03 -0.17560633143E+03 -0.13128405424E+03  0.29045216079E+03  0.10566000000E+00 0. -1.
         -4    1    4    4    0  501 -0.31187732332E+03  0.90803975182E+03 -0.89990421115E+03  0.13159146040E+04  0.00000000000E+00 0. -1.
<mgrwt>
<rscale>  2 0.12521975E+04</rscale>
<asrwt>0</asrwt>
<pdfrwt beam="2">  1        1 0.29368178E+00 0.12521975E+04</pdfrwt>
<pdfrwt beam="1">  1       -1 0.14986505E+00 0.12521975E+04</pdfrwt>
<totfact> 0.15841591E+00</totfact>
</mgrwt>
</event>
<event>
 8    1  0.1408247E-005  0.1353073E+04  0.7818608E-02  0.8499427E-01
         -2   -1    0    0    0  501 -0.00000000000E+00  0.00000000000E+00  0.19422826720E+04  0.19422826720E+04  0.00000000000E+00 0.  1.
          2   -1    0    0  502    0  0.00000000000E+00 -0.00000000000E+00 -0.10520187265E+04  0.10520187265E+04  0.00000000000E+00 0. -1.
    9000010    2    1    2  502    0  0.24269743998E+02  0.90291948985E+03 -0.39513249893E+02  0.13473178678E+04  0.99892517950E+03 0.  0.
   -9000010    2    1    2    0  501 -0.24269743998E+02 -0.90291948985E+03  0.92977719538E+03  0.16469835308E+04  0.10159805569E+04 0.  0.
        -13    1    3    3    0    0 -0.85320583518E+02  0.10526058341E+04  0.16759213216E+03  0.10692734813E+04  0.10566000000E+00 0.  1.
          4    1    3    3  502    0  0.10959032752E+03 -0.14968634426E+03 -0.20710538205E+03  0.27804438642E+03  0.00000000000E+00 0.  1.
         13    1    4    4    0    0 -0.24551385769E+03 -0.98731652887E+03  0.97128365327E+03  0.14065784474E+04  0.10566000000E+00 0. -1.
         -4    1    4    4    0  501  0.22124411369E+03  0.84397039022E+02 -0.41506457894E+02  0.24040508332E+03  0.00000000000E+00 0. -1.
<mgrwt>
<rscale>  2 0.13530728E+04</rscale>
<asrwt>0</asrwt>
<pdfrwt beam="2">  1        2 0.16184903E+00 0.13530728E+04</pdfrwt>
<pdfrwt beam="1">  1       -2 0.29881272E+00 0.13530728E+04</pdfrwt>
<totfact> 0.60469086E-01</totfact>
</mgrwt>
</event>
<event>
 8    1  0.1408247E-005  0.1246441E+04  0.7818608E-02  0.8572388E-01
          1   -1    0    0  502    0  0.00000000000E+00  0.00000000000E+00  0.17525082869E+04  0.17525082869E+04  0.00000000000E+00 0.  1.
         -1   -1    0    0    0  501 -0.00000000000E+00 -0.00000000000E+00 -0.11077179220E+04  0.11077179220E+04  0.00000000000E+00 0. -1.
    9000010    2    1    2  502    0 -0.59046879383E+03  0.44180842245E+03 -0.31850463356E+03  0.12776291548E+04  0.99350036585E+03 0.  0.
   -9000010    2    1    2    0  501  0.59046879383E+03 -0.44180842245E+03  0.96329499839E+03  0.15825970541E+04  0.10162815078E+04 0.  0.
        -13    1    3    3    0    0 -0.61735557581E+03  0.68630586230E+03 -0.41666466799E+03  0.10127946980E+04  0.10566000000E+00 0.  1.
          4    1    3    3  502    0  0.26886781983E+02 -0.24449743985E+03  0.98160034435E+02  0.26483445678E+03  0.00000000000E+00 0.  1.
         13    1    4    4    0    0 -0.11054969750E+03 -0.52135685617E+03  0.54561400648E+03  0.76271151973E+03  0.10566000000E+00 0. -1.
         -4    1    4    4    0  501  0.70101849133E+03  0.79548433720E+02  0.41768099190E+03  0.81988553439E+03  0.00000000000E+00 0. -1.
<mgrwt>
<rscale>  2 0.12464409E+04</rscale>
<asrwt>0</asrwt>
<pdfrwt beam="1">  1        1 0.26961666E+00 0.12464409E+04</pdfrwt>
<pdfrwt beam="2">  1       -1 0.17041814E+00 0.12464409E+04</pdfrwt>
<totfact> 0.13780393E+00</totfact>
</mgrwt>
</event>
<event>
 8    1  0.1408247E-005  0.1571728E+04  0.7818608E-02  0.8369375E-01
         -2   -1    0    0    0  501 -0.00000000000E+00  0.00000000000E+00  0.96899970610E+03  0.96899970610E+03  0.00000000000E+00 0.  1.
          2   -1    0    0  502    0  0.00000000000E+00 -0.00000000000E+00 -0.25610398160E+04  0.25610398160E+04  0.00000000000E+00 0. -1.
    9000010    2    1    2  502    0  0.80935049459E+03 -0.90385712537E+03 -0.67871563763E+03  0.17153376707E+04  0.10048494820E+04 0.  0.
   -9000010    2    1    2    0  501 -0.80935049459E+03  0.90385712537E+03 -0.91332447230E+03  0.18147018515E+04  0.99346630135E+03 0.  0.
        -13    1    3    3    0    0 -0.66265125202E+02  0.13079600560E+03  0.74726772617E+02  0.16456841619E+03  0.10566000000E+00 0.  1.
          4    1    3    3  502    0  0.87561561979E+03 -0.10346531310E+04 -0.75344241025E+03  0.15507692545E+04  0.00000000000E+00 0.  1.
         13    1    4    4    0    0 -0.46809639500E+03  0.41974221405E+03  0.10423712318E+03  0.63730930503E+03  0.10566000000E+00 0. -1.
         -4    1    4    4    0  501 -0.34125409959E+03  0.48411491132E+03 -0.10175615955E+04  0.11773925465E+04  0.00000000000E+00 0. -1.
<mgrwt>
<rscale>  2 0.15717279E+04</rscale>
<asrwt>0</asrwt>
<pdfrwt beam="2">  1        2 0.39400612E+00 0.15717279E+04</pdfrwt>
<pdfrwt beam="1">  1       -2 0.14907688E+00 0.15717279E+04</pdfrwt>
<totfact> 0.13459611E+00</totfact>
</mgrwt>
</event>
<event>
 8    1  0.1408247E-005  0.1250428E+04  0.7818608E-02  0.8569526E-01
         -4   -1    0    0    0  501 -0.00000000000E+00  0.00000000000E+00  0.51325565257E+03  0.51325565257E+03  0.00000000000E+00 0. -1.
          4   -1    0    0  502    0  0.00000000000E+00 -0.00000000000E+00 -0.38446145103E+04  0.38446145103E+04  0.00000000000E+00 0.  1.
    9000010    2    1    2  502    0 -0.34323569274E+03 -0.67505047691E+03 -0.26550977150E+04  0.29334347961E+04  0.99095506438E+03 0.  0.
   -9000010    2    1    2    0  501  0.34323569274E+03  0.67505047691E+03 -0.67626114273E+03  0.14244353668E+04  0.99909113387E+03 0.  0.
        -13    1    3    3    0    0  0.20489757080E+03  0.14154334431E+03 -0.37372883235E+03  0.44909997120E+03  0.10566000000E+00 0.  1.
          4    1    3    3  502    0 -0.54813326355E+03 -0.81659382123E+03 -0.22813688827E+04  0.24843348249E+04  0.00000000000E+00 0.  1.
         13    1    4    4    0    0 -0.14561736605E+03 -0.20233235482E+03 -0.13614548879E+03  0.28403944160E+03  0.10566000000E+00 0. -1.
         -4    1    4    4    0  501  0.48885305879E+03  0.87738283173E+03 -0.54011565394E+03  0.11403959252E+04  0.00000000000E+00 0. -1.
<mgrwt>
<rscale>  2 0.12504281E+04</rscale>
<asrwt>0</asrwt>
<pdfrwt beam="2">  1        4 0.59147913E+00 0.12504281E+04</pdfrwt>
<pdfrwt beam="1">  1       -4 0.78962411E-01 0.12504281E+04</pdfrwt>
<totfact> 0.27059362E-02</totfact>
</mgrwt>
</event>
<event>
 8    1  0.1408247E-005  0.1472756E+04  0.7818608E-02  0.8425353E-01
          1   -1    0    0  502    0  0.00000000000E+00  0.00000000000E+00  0.18010911405E+04  0.18010911405E+04  0.00000000000E+00 0. -1.
         -1   -1    0    0    0  501 -0.00000000000E+00 -0.00000000000E+00 -0.12221865026E+04  0.12221865026E+04  0.00000000000E+00 0.  1.
    9000010    2    1    2  502    0  0.10683165287E+04 -0.24806548517E+03  0.10534951320E+03  0.14702559579E+04  0.97350776649E+03 0.  0.
   -9000010    2    1    2    0  501 -0.10683165287E+04  0.24806548517E+03  0.47355512471E+03  0.15530216851E+04  0.99236344547E+03 0.  0.
        -13    1    3    3    0    0  0.71524186906E+03  0.52109390277E+02 -0.36950979829E+03  0.80673652577E+03  0.10566000000E+00 0.  1.
          4    1    3    3  502    0  0.35307465961E+03 -0.30017487545E+03  0.47485931148E+03  0.66351943213E+03  0.00000000000E+00 0.  1.
         13    1    4    4    0    0 -0.24659947989E+03  0.13781333602E+03 -0.30497426094E+03  0.41570798653E+03  0.10566000000E+00 0. -1.
         -4    1    4    4    0  501 -0.82171704879E+03  0.11025214915E+03  0.77852938565E+03  0.11373136986E+04  0.00000000000E+00 0. -1.
<mgrwt>
<rscale>  2 0.14727555E+04</rscale>
<asrwt>0</asrwt>
<pdfrwt beam="1">  1        1 0.27709095E+00 0.14727555E+04</pdfrwt>
<pdfrwt beam="2">  1       -1 0.18802869E+00 0.14727555E+04</pdfrwt>
<totfact> 0.86414431E-01</totfact>
</mgrwt>
</event>
<event>
 8    1  0.1408247E-005  0.1379461E+04  0.7818608E-02  0.8482436E-01
          4   -1    0    0  502    0  0.00000000000E+00  0.00000000000E+00  0.13742123352E+04  0.13742123352E+04  0.00000000000E+00 0. -1.
         -4   -1    0    0    0  501 -0.00000000000E+00 -0.00000000000E+00 -0.13852245329E+04  0.13852245329E+04  0.00000000000E+00 0.  1.
    9000010    2    1    2  502    0  0.78617019077E+03  0.55226688575E+03  0.18375533578E+02  0.13690489923E+04  0.97513855488E+03 0.  0.
   -9000010    2    1    2    0  501 -0.78617019077E+03 -0.55226688575E+03 -0.29387731288E+02  0.13903878757E+04  0.10046156102E+04 0.  0.
        -13    1    3    3    0    0  0.31414833518E+03  0.77047283278E+03 -0.93001534365E+02  0.83723763599E+03  0.10566000000E+00 0.  1.
          4    1    3    3  502    0  0.47202185559E+03 -0.21820594703E+03  0.11137706794E+03  0.53181135635E+03  0.00000000000E+00 0.  1.
         13    1    4    4    0    0 -0.12193674733E+03  0.23182705759E+02  0.39529407338E+03  0.41432284973E+03  0.10566000000E+00 0. -1.
         -4    1    4    4    0  501 -0.66423344344E+03 -0.57544959151E+03 -0.42468180466E+03  0.97606502600E+03  0.00000000000E+00 0. -1.
<mgrwt>
<rscale>  2 0.13794609E+04</rscale>
<asrwt>0</asrwt>
<pdfrwt beam="1">  1        4 0.21141728E+00 0.13794609E+04</pdfrwt>
<pdfrwt beam="2">  1       -4 0.21311147E+00 0.13794609E+04</pdfrwt>
<totfact> 0.15422475E-01</totfact>
</mgrwt>
</event>
<event>
 8    1  0.1408247E-005  0.1245458E+04  0.7818608E-02  0.8573095E-01
          1   -1    0    0  502    0  0.00000000000E+00  0.00000000000E+00  0.16412310788E+04  0.16412310788E+04  0.00000000000E+00 0.  1.
         -1   -1    0    0    0  501 -0.00000000000E+00 -0.00000000000E+00 -0.96288680418E+03  0.96288680418E+03  0.00000000000E+00 0. -1.
    9000010    2    1    2  502    0 -0.64843284150E+03  0.28520482142E+03  0.16869354820E+03  0.12762567487E+04  0.10481253911E+04 0.  0.
   -9000010    2    1    2    0  501  0.64843284150E+03 -0.28520482142E+03  0.50965072647E+03  0.13278611343E+04  0.10008318484E+04 0.  0.
        -13    1    3    3    0    0 -0.44043374440E+03 -0.23824581860E+03 -0.26391663577E+03  0.56603441158E+03  0.10566000000E+00 0.  1.
          4    1    3    3  502    0 -0.20799909709E+03  0.52345064002E+03  0.43261018397E+03  0.71022233716E+03  0.00000000000E+00 0.  1.
         13    1    4    4    0    0  0.80077511466E+03  0.10208055764E+03  0.29391508067E+03  0.85909679915E+03  0.10566000000E+00 0. -1.
         -4    1    4    4    0  501 -0.15234227316E+03 -0.38728537906E+03  0.21573564580E+03  0.46876433514E+03  0.00000000000E+00 0. -1.
<mgrwt>
<rscale>  2 0.12454582E+04</rscale>
<asrwt>0</asrwt>
<pdfrwt beam="1">  1        1 0.25249709E+00 0.12454582E+04</pdfrwt>
<pdfrwt beam="2">  1       -1 0.14813643E+00 0.12454582E+04</pdfrwt>
<totfact> 0.26045856E+00</totfact>
</mgrwt>
</event>
<event>
 8    1  0.1408247E-005  0.1475392E+04  0.7818608E-02  0.8423803E-01
          2   -1    0    0  502    0  0.00000000000E+00  0.00000000000E+00  0.31923692944E+04  0.31923692944E+04  0.00000000000E+00 0.  1.
         -2   -1    0    0    0  501 -0.00000000000E+00 -0.00000000000E+00 -0.78249386831E+03  0.78249386831E+03  0.00000000000E+00 0. -1.
    9000010    2    1    2  502    0  0.96731694898E+03 -0.50975786964E+03  0.19118816050E+04  0.24101252345E+04  0.97870179770E+03 0.  0.
   -9000010    2    1    2    0  501 -0.96731694898E+03  0.50975786964E+03  0.49799382108E+03  0.15647379282E+04  0.10024229510E+04 0.  0.
        -13    1    3    3    0    0  0.43743190664E+03 -0.68058151518E+03  0.15430972039E+04  0.17423222617E+04  0.10566000000E+00 0.  1.
          4    1    3    3  502    0  0.52988504234E+03  0.17082364554E+03  0.36878440117E+03  0.66780297283E+03  0.00000000000E+00 0.  1.
         13    1    4    4    0    0 -0.15628915172E+03 -0.28513046287E+02 -0.27779126071E+03  0.32001138799E+03  0.10566000000E+00 0. -1.
         -4    1    4    4    0  501 -0.81102779726E+03  0.53827091592E+03  0.77578508179E+03  0.12447265402E+04  0.00000000000E+00 0. -1.
<mgrwt>
<rscale>  2 0.14753924E+04</rscale>
<asrwt>0</asrwt>
<pdfrwt beam="1">  1        2 0.49113373E+00 0.14753924E+04</pdfrwt>
<pdfrwt beam="2">  1       -2 0.12038367E+00 0.14753924E+04</pdfrwt>
<totfact> 0.10325829E+00</totfact>
</mgrwt>
</event>
<event>
 8    1  0.1408247E-005  0.1128108E+04  0.7818608E-02  0.8662759E-01
          2   -1    0    0  502    0  0.00000000000E+00  0.00000000000E+00  0.20881031183E+04  0.20881031183E+04  0.00000000000E+00 0. -1.
         -2   -1    0    0    0  501 -0.00000000000E+00 -0.00000000000E+00 -0.14566752417E+04  0.14566752417E+04  0.00000000000E+00 0.  1.
    9000010    2    1    2  502    0 -0.44068675265E+03  0.24318358555E+03  0.16680727802E+04  0.20171037984E+04  0.10163158285E+04 0.  0.
   -9000010    2    1    2    0  501  0.44068675265E+03 -0.24318358555E+03 -0.10366449035E+04  0.15276745616E+04  0.10029027071E+04 0.  0.
        -13    1    3    3    0    0 -0.14965469417E+03 -0.39274119204E+03  0.47571754143E+03  0.63478292494E+03  0.10566000000E+00 0.  1.
          4    1    3    3  502    0 -0.29103205848E+03  0.63592477760E+03  0.11923552387E+04  0.13823208735E+04  0.00000000000E+00 0.  1.
         13    1    4    4    0    0  0.27189841607E+03 -0.10342871909E+03  0.14558843575E+03  0.32530332366E+03  0.10566000000E+00 0. -1.
         -4    1    4    4    0  501  0.16878833658E+03 -0.13975486647E+03 -0.11822333393E+04  0.12023712379E+04  0.00000000000E+00 0. -1.
<mgrwt>
<rscale>  2 0.11281077E+04</rscale>
<asrwt>0</asrwt>
<pdfrwt beam="1">  1        2 0.32124663E+00 0.11281077E+04</pdfrwt>
<pdfrwt beam="2">  1       -2 0.22410388E+00 0.11281077E+04</pdfrwt>
<totfact> 0.60980904E-01</totfact>
</mgrwt>
</event>
<event>
 8    1  0.1408247E-005  0.1167841E+04  0.7818608E-02  0.8631180E-01
         -2   -1    0    0    0  501 -0.00000000000E+00  0.00000000000E+00  0.15532258278E+04  0.15532258278E+04  0.00000000000E+00 0. -1.
          2   -1    0    0  502    0  0.00000000000E+00 -0.00000000000E+00 -0.11285340420E+04  0.11285340420E+04  0.00000000000E+00 0.  1.
    9000010    2    1    2  502    0 -0.57630557761E+03  0.23677568660E+03 -0.41975498517E+03  0.12381422440E+04  0.98418043278E+03 0.  0.
   -9000010    2    1    2    0  501  0.57630557761E+03 -0.23677568660E+03  0.84444677089E+03  0.14436176258E+04  0.99133781130E+03 0.  0.
        -13    1    3    3    0    0 -0.29640825162E+03  0.46735520849E+03  0.14029936767E+03  0.57093140241E+03  0.10566000000E+00 0.  1.
          4    1    3    3  502    0 -0.27989732599E+03 -0.23057952189E+03 -0.56005435283E+03  0.66721084159E+03  0.00000000000E+00 0.  1.
         13    1    4    4    0    0  0.70524927383E+03 -0.43150437346E+03  0.87989916453E+03  0.12073918641E+04  0.10566000000E+00 0. -1.
         -4    1    4    4    0  501 -0.12894369623E+03  0.19472868686E+03 -0.35452393636E+02  0.23622576172E+03  0.00000000000E+00 0. -1.
<mgrwt>
<rscale>  2 0.11678413E+04</rscale>
<asrwt>0</asrwt>
<pdfrwt beam="2">  1        2 0.17362062E+00 0.11678413E+04</pdfrwt>
<pdfrwt beam="1">  1       -2 0.23895782E+00 0.11678413E+04</pdfrwt>
<totfact> 0.15583499E+00</totfact>
</mgrwt>
</event>
<event>
 8    1  0.1408247E-005  0.1212171E+04  0.7818608E-02  0.8597453E-01
         -2   -1    0    0    0  501 -0.00000000000E+00  0.00000000000E+00  0.69225780777E+03  0.69225780777E+03  0.00000000000E+00 0. -1.
          2   -1    0    0  502    0  0.00000000000E+00 -0.00000000000E+00 -0.25446606351E+04  0.25446606351E+04  0.00000000000E+00 0.  1.
    9000010    2    1    2  502    0  0.96399145164E+02  0.54910965708E+03 -0.16152951526E+04  0.20522637126E+04  0.11365710296E+04 0.  0.
   -9000010    2    1    2    0  501 -0.96399145164E+02 -0.54910965708E+03 -0.23710767469E+03  0.11846547303E+04  0.10180238552E+04 0.  0.
        -13    1    3    3    0    0  0.43698417059E+03 -0.17106923691E+03 -0.60323821441E+03  0.76427495291E+03  0.10566000000E+00 0.  1.
          4    1    3    3  502    0 -0.34058502543E+03  0.72017889399E+03 -0.10120569382E+04  0.12879887597E+04  0.00000000000E+00 0.  1.
         13    1    4    4    0    0  0.25296175003E+03 -0.68989151930E+03 -0.31591514457E+03  0.79983894949E+03  0.10566000000E+00 0. -1.
         -4    1    4    4    0  501 -0.34936089520E+03  0.14078186222E+03  0.78807469881E+02  0.38481578077E+03  0.00000000000E+00 0. -1.
<mgrwt>
<rscale>  2 0.12121707E+04</rscale>
<asrwt>0</asrwt>
<pdfrwt beam="2">  1        2 0.39148625E+00 0.12121707E+04</pdfrwt>
<pdfrwt beam="1">  1       -2 0.10650120E+00 0.12121707E+04</pdfrwt>
<totfact> 0.35912205E+00</totfact>
</mgrwt>
</event>
<event>
 8    1  0.1408247E-005  0.1023545E+04  0.7818608E-02  0.8752778E-01
         -2   -1    0    0    0  501 -0.00000000000E+00  0.00000000000E+00  0.10057005407E+04  0.10057005407E+04  0.00000000000E+00 0.  1.
          2   -1    0    0  502    0  0.00000000000E+00 -0.00000000000E+00 -0.11197401327E+04  0.11197401327E+04  0.00000000000E+00 0. -1.
    9000010    2    1    2  502    0 -0.27383511975E+03  0.73320378453E+01  0.21975707800E+03  0.10794942308E+04  0.10207718597E+04 0.  0.
   -9000010    2    1    2    0  501  0.27383511975E+03 -0.73320378453E+01 -0.33379666997E+03  0.10459464426E+04  0.95265120177E+03 0.  0.
        -13    1    3    3    0    0 -0.17335529934E+03  0.51109613542E+03  0.68656789935E+02  0.54404511340E+03  0.10566000000E+00 0.  1.
          4    1    3    3  502    0 -0.10047982041E+03 -0.50376409757E+03  0.15110028806E+03  0.53544911744E+03  0.00000000000E+00 0.  1.
         13    1    4    4    0    0  0.91782153216E+02  0.14985421491E+03 -0.63593170240E+03  0.65976464793E+03  0.10566000000E+00 0. -1.
         -4    1    4    4    0  501  0.18205296654E+03 -0.15718625275E+03  0.30213503243E+03  0.38618179463E+03  0.00000000000E+00 0. -1.
<mgrwt>
<rscale>  2 0.10235454E+04</rscale>
<asrwt>0</asrwt>
<pdfrwt beam="2">  1        2 0.17226771E+00 0.10235454E+04</pdfrwt>
<pdfrwt beam="1">  1       -2 0.15472316E+00 0.10235454E+04</pdfrwt>
<totfact> 0.79537792E+00</totfact>
</mgrwt>
</event>
<event>
 8    1  0.1408247E-005  0.1070636E+04  0.7818608E-02  0.8710914E-01
         -2   -1    0    0    0  501 -0.00000000000E+00  0.00000000000E+00  0.36263500518E+04  0.36263500518E+04  0.00000000000E+00 0.  1.
          2   -1    0    0  502    0  0.00000000000E+00 -0.00000000000E+00 -0.57424105837E+03  0.57424105837E+03  0.00000000000E+00 0. -1.
    9000010    2    1    2  502    0 -0.44156809103E+02  0.41327749708E+03  0.11065481673E+03  0.10671496588E+04  0.97663493309E+03 0.  0.
   -9000010    2    1    2    0  501  0.44156809103E+02 -0.41327749708E+03  0.29414541767E+04  0.31334414513E+04  0.99677206109E+03 0.  0.
        -13    1    3    3    0    0  0.15128154144E+03  0.65100520738E+02  0.48967114071E+03  0.51662560891E+03  0.10566000000E+00 0.  1.
          4    1    3    3  502    0 -0.19543835054E+03  0.34817697634E+03 -0.37901632398E+03  0.55052404994E+03  0.00000000000E+00 0.  1.
         13    1    4    4    0    0 -0.41264764657E+03 -0.46018544848E+03  0.17950280144E+04  0.18984663049E+04  0.10566000000E+00 0. -1.
         -4    1    4    4    0  501  0.45680445567E+03  0.46907951407E+02  0.11464261623E+04  0.12349751464E+04  0.00000000000E+00 0. -1.
<mgrwt>
<rscale>  2 0.10706358E+04</rscale>
<asrwt>0</asrwt>
<pdfrwt beam="2">  1        2 0.88344781E-01 0.10706358E+04</pdfrwt>
<pdfrwt beam="1">  1       -2 0.55789999E+00 0.10706358E+04</pdfrwt>
<totfact> 0.29992713E-01</totfact>
</mgrwt>
</event>
<event>
 8    1  0.1408247E-005  0.1058944E+04  0.7818608E-02  0.8721097E-01
         -1   -1    0    0    0  501 -0.00000000000E+00  0.00000000000E+00  0.32680970114E+04  0.32680970114E+04  0.00000000000E+00 0.  1.
          1   -1    0    0  502    0  0.00000000000E+00 -0.00000000000E+00 -0.43829028345E+03  0.43829028345E+03  0.00000000000E+00 0. -1.
    9000010    2    1    2  502    0  0.37294734647E+03 -0.36814857722E+02  0.54108114336E+03  0.11803252070E+04  0.97977228662E+03 0.  0.
   -9000010    2    1    2    0  501 -0.37294734647E+03  0.36814857722E+02  0.22887255845E+04  0.25260620878E+04  0.10011392576E+04 0.  0.
        -13    1    3    3    0    0  0.38795989234E+03  0.39415061047E+03  0.50272566200E+03  0.74739593536E+03  0.10566000000E+00 0.  1.
          4    1    3    3  502    0 -0.15012545866E+02 -0.43096546819E+03  0.38355481362E+02  0.43292927165E+03  0.00000000000E+00 0.  1.
         13    1    4    4    0    0  0.18187092034E+03 -0.34870548294E+03  0.82647804492E+03  0.91528056649E+03  0.10566000000E+00 0. -1.
         -4    1    4    4    0  501 -0.55481826682E+03  0.38552034066E+03  0.14622475396E+04  0.16107815213E+04  0.00000000000E+00 0. -1.
<mgrwt>
<rscale>  2 0.10589439E+04</rscale>
<asrwt>0</asrwt>
<pdfrwt beam="2">  1        1 0.67429276E-01 0.10589439E+04</pdfrwt>
<pdfrwt beam="1">  1       -1 0.50278414E+00 0.10589439E+04</pdfrwt>
<totfact> 0.69381649E-01</totfact>
</mgrwt>
</event>
<event>
 8    1  0.1408247E-005  0.1157433E+04  0.7818608E-02  0.8639325E-01
          2   -1    0    0  502    0  0.00000000000E+00  0.00000000000E+00  0.16467601443E+04  0.16467601443E+04  0.00000000000E+00 0. -1.
         -2   -1    0    0    0  501 -0.00000000000E+00 -0.00000000000E+00 -0.81488557135E+03  0.81488557135E+03  0.00000000000E+00 0.  1.
    9000010    2    1    2  502    0  0.21875467591E+02 -0.59386977601E+03  0.36373971643E+03  0.12082421569E+04  0.98710824197E+03 0.  0.
   -9000010    2    1    2    0  501 -0.21875467591E+02  0.59386977601E+03  0.46813485655E+03  0.12534035588E+04  0.99935498719E+03 0.  0.
        -13    1    3    3    0    0  0.32967649991E+03  0.66236504804E+02 -0.92559563794E+02  0.34877091790E+03  0.10566000000E+00 0.  1.
          4    1    3    3  502    0 -0.30780103232E+03 -0.66010628081E+03  0.45629928022E+03  0.85947123896E+03  0.00000000000E+00 0.  1.
         13    1    4    4    0    0  0.33515400023E+03  0.70807434123E+03  0.36734358140E+03  0.86523915454E+03  0.10566000000E+00 0. -1.
         -4    1    4    4    0  501 -0.35702946782E+03 -0.11420456523E+03  0.10079127515E+03  0.38816440429E+03  0.00000000000E+00 0. -1.
<mgrwt>
<rscale>  2 0.11574330E+04</rscale>
<asrwt>0</asrwt>
<pdfrwt beam="1">  1        2 0.25334771E+00 0.11574330E+04</pdfrwt>
<pdfrwt beam="2">  1       -2 0.12536701E+00 0.11574330E+04</pdfrwt>
<totfact> 0.73605717E+00</totfact>
</mgrwt>
</event>
<event>
 8    1  0.1408247E-005  0.1372450E+04  0.7818608E-02  0.8486912E-01
          4   -1    0    0  502    0  0.00000000000E+00  0.00000000000E+00  0.10418387220E+04  0.10418387220E+04  0.00000000000E+00 0.  1.
         -4   -1    0    0    0  501 -0.00000000000E+00 -0.00000000000E+00 -0.21471983187E+04  0.21471983187E+04  0.00000000000E+00 0. -1.
    9000010    2    1    2  502    0  0.48729635139E+03 -0.78699534172E+03  0.83513228675E+02  0.13677295023E+04  0.10034391512E+04 0.  0.
   -9000010    2    1    2    0  501 -0.48729635139E+03  0.78699534172E+03 -0.11888728253E+04  0.18213075384E+04  0.10231926274E+04 0.  0.
        -13    1    3    3    0    0  0.20614325311E+03 -0.95367561469E+03  0.24084413280E+03  0.10049866299E+04  0.10566000000E+00 0.  1.
          4    1    3    3  502    0  0.28115309828E+03  0.16668027297E+03 -0.15733090412E+03  0.36274287238E+03  0.00000000000E+00 0.  1.
         13    1    4    4    0    0 -0.71313306683E+03  0.62915847280E+03 -0.12168276949E+04  0.15443667975E+04  0.10566000000E+00 0. -1.
         -4    1    4    4    0  501  0.22583671544E+03  0.15783686892E+03  0.27954869652E+02  0.27694074089E+03  0.00000000000E+00 0. -1.
<mgrwt>
<rscale>  2 0.13724503E+04</rscale>
<asrwt>0</asrwt>
<pdfrwt beam="1">  1        4 0.16028288E+00 0.13724503E+04</pdfrwt>
<pdfrwt beam="2">  1       -4 0.33033820E+00 0.13724503E+04</pdfrwt>
<totfact> 0.11161771E-01</totfact>
</mgrwt>
</event>
<event>
 8    1  0.1408247E-005  0.1303173E+04  0.7818608E-02  0.8532673E-01
          1   -1    0    0  502    0  0.00000000000E+00  0.00000000000E+00  0.13289585723E+04  0.13289585723E+04  0.00000000000E+00 0. -1.
         -1   -1    0    0    0  501 -0.00000000000E+00 -0.00000000000E+00 -0.14420874165E+04  0.14420874165E+04  0.00000000000E+00 0.  1.
    9000010    2    1    2  502    0  0.54349105629E+03 -0.64393620175E+03  0.41091351214E+03  0.13675498235E+04  0.99564363363E+03 0.  0.
   -9000010    2    1    2    0  501 -0.54349105629E+03  0.64393620175E+03 -0.52404235634E+03  0.14034961653E+04  0.99254457568E+03 0.  0.
        -13    1    3    3    0    0  0.66425679795E+03 -0.16337926395E+03 -0.56493317051E+02  0.68638282579E+03  0.10566000000E+00 0.  1.
          4    1    3    3  502    0 -0.12076574166E+03 -0.48055693780E+03  0.46740682920E+03  0.68116699774E+03  0.00000000000E+00 0.  1.
         13    1    4    4    0    0 -0.39638238372E+03  0.82945150528E+03 -0.10908871167E+03  0.92574788788E+03  0.10566000000E+00 0. -1.
         -4    1    4    4    0  501 -0.14710867257E+03 -0.18551530354E+03 -0.41495364467E+03  0.47774827746E+03  0.00000000000E+00 0. -1.
<mgrwt>
<rscale>  2 0.13031727E+04</rscale>
<asrwt>0</asrwt>
<pdfrwt beam="1">  1        1 0.20445516E+00 0.13031727E+04</pdfrwt>
<pdfrwt beam="2">  1       -1 0.22185960E+00 0.13031727E+04</pdfrwt>
<totfact> 0.98331003E-01</totfact>
</mgrwt>
</event>
<event>
 8    1  0.1408247E-005  0.1107845E+04  0.7818608E-02  0.8679388E-01
         -2   -1    0    0    0  501 -0.00000000000E+00  0.00000000000E+00  0.13147044903E+04  0.13147044903E+04  0.00000000000E+00 0.  1.
          2   -1    0    0  502    0  0.00000000000E+00 -0.00000000000E+00 -0.93752481115E+03  0.93752481115E+03  0.00000000000E+00 0. -1.
    9000010    2    1    2  502    0  0.11583532893E+03  0.50815425624E+03  0.26307471276E+03  0.11501552088E+04  0.99096424170E+03 0.  0.
   -9000010    2    1    2    0  501 -0.11583532893E+03 -0.50815425624E+03  0.11410496644E+03  0.11020740927E+04  0.96431778517E+03 0.  0.
        -13    1    3    3    0    0 -0.52483491270E+02 -0.22485683193E+03 -0.16590781921E+03  0.28432468652E+03  0.10566000000E+00 0.  1.
          4    1    3    3  502    0  0.16831882020E+03  0.73301108818E+03  0.42898253198E+03  0.86583052231E+03  0.00000000000E+00 0.  1.
         13    1    4    4    0    0 -0.43668247205E+03  0.39278213835E+02 -0.63837129874E+02  0.44306833535E+03  0.10566000000E+00 0. -1.
         -4    1    4    4    0  501  0.32084714312E+03 -0.54743247008E+03  0.17794209631E+03  0.65900575732E+03  0.00000000000E+00 0. -1.
<mgrwt>
<rscale>  2 0.11078455E+04</rscale>
<asrwt>0</asrwt>
<pdfrwt beam="2">  1        2 0.14423459E+00 0.11078455E+04</pdfrwt>
<pdfrwt beam="1">  1       -2 0.20226223E+00 0.11078455E+04</pdfrwt>
<totfact> 0.40473828E+00</totfact>
</mgrwt>
</event>
<event>
 8    1  0.1408247E-005  0.1042940E+04  0.7818608E-02  0.8735260E-01
         -1   -1    0    0    0  501 -0.00000000000E+00  0.00000000000E+00  0.14479827227E+04  0.14479827227E+04  0.00000000000E+00 0. -1.
          1   -1    0    0  502    0  0.00000000000E+00 -0.00000000000E+00 -0.75820079489E+03  0.75820079489E+03  0.00000000000E+00 0.  1.
    9000010    2    1    2  502    0 -0.12855445950E+03 -0.29181837924E+03  0.44369662462E+03  0.11177364956E+04  0.97508151625E+03 0.  0.
   -9000010    2    1    2    0  501  0.12855445950E+03  0.29181837924E+03  0.24608530323E+03  0.10884470220E+04  0.10111749244E+04 0.  0.
        -13    1    3    3    0    0  0.11314231362E+03  0.31168737992E+03  0.16703553801E+01  0.33159162713E+03  0.10566000000E+00 0.  1.
          4    1    3    3  502    0 -0.24169677311E+03 -0.60350575917E+03  0.44202626924E+03  0.78614486844E+03  0.00000000000E+00 0.  1.
         13    1    4    4    0    0  0.13254083672E+03 -0.14710792152E+03 -0.31744455507E+03  0.37413750237E+03  0.10566000000E+00 0. -1.
         -4    1    4    4    0  501 -0.39863772266E+01  0.43892630076E+03  0.56352985829E+03  0.71430951967E+03  0.00000000000E+00 0. -1.
<mgrwt>
<rscale>  2 0.10429396E+04</rscale>
<asrwt>0</asrwt>
<pdfrwt beam="2">  1        1 0.11664628E+00 0.10429396E+04</pdfrwt>
<pdfrwt beam="1">  1       -1 0.22276657E+00 0.10429396E+04</pdfrwt>
<totfact> 0.29117054E+00</totfact>
</mgrwt>
</event>
<event>
 8    1  0.1408247E-005  0.1308474E+04  0.7818608E-02  0.8529069E-01
         -1   -1    0    0    0  501 -0.00000000000E+00  0.00000000000E+00  0.97198457188E+03  0.97198457188E+03  0.00000000000E+00 0.  1.
          1   -1    0    0  502    0  0.00000000000E+00 -0.00000000000E+00 -0.17632788322E+04  0.17632788322E+04  0.00000000000E+00 0. -1.
    9000010    2    1    2  502    0  0.22957324535E+03  0.81540259157E+03 -0.44066450447E+03  0.13844793970E+04  0.10025032338E+04 0.  0.
   -9000010    2    1    2    0  501 -0.22957324535E+03 -0.81540259157E+03 -0.35062975589E+03  0.13507840071E+04  0.99201358200E+03 0.  0.
        -13    1    3    3    0    0 -0.11776032891E+03  0.30535696802E+03  0.28354663490E+03  0.43302318450E+03  0.10566000000E+00 0.  1.
          4    1    3    3  502    0  0.34733357425E+03  0.51004562355E+03 -0.72421113937E+03  0.95145621250E+03  0.00000000000E+00 0.  1.
         13    1    4    4    0    0  0.65819688229E+02 -0.80053985831E+03 -0.56795954518E+03  0.98375522983E+03  0.10566000000E+00 0. -1.
         -4    1    4    4    0  501 -0.29539293357E+03 -0.14862733264E+02  0.21732978929E+03  0.36702877729E+03  0.00000000000E+00 0. -1.
<mgrwt>
<rscale>  2 0.13084744E+04</rscale>
<asrwt>0</asrwt>
<pdfrwt beam="2">  1        1 0.27127366E+00 0.13084744E+04</pdfrwt>
<pdfrwt beam="1">  1       -1 0.14953609E+00 0.13084744E+04</pdfrwt>
<totfact> 0.20367581E+00</totfact>
</mgrwt>
</event>
<event>
 8    1  0.1408247E-005  0.1029348E+04  0.7818608E-02  0.8747495E-01
         -2   -1    0    0    0  501 -0.00000000000E+00  0.00000000000E+00  0.74724907220E+03  0.74724907220E+03  0.00000000000E+00 0.  1.
          2   -1    0    0  502    0  0.00000000000E+00 -0.00000000000E+00 -0.14207562714E+04  0.14207562714E+04  0.00000000000E+00 0. -1.
    9000010    2    1    2  502    0  0.34822000414E+03  0.13735218986E+03 -0.34963720453E+03  0.10510809861E+04  0.91782474866E+03 0.  0.
   -9000010    2    1    2    0  501 -0.34822000414E+03 -0.13735218986E+03 -0.32386999469E+03  0.11169243575E+04  0.10012519421E+04 0.  0.
        -13    1    3    3    0    0  0.21282170649E+03  0.48480604454E+03 -0.41470915573E+03  0.67254269351E+03  0.10566000000E+00 0.  1.
          4    1    3    3  502    0  0.13539829765E+03 -0.34745385468E+03  0.65071951205E+02  0.37853829261E+03  0.00000000000E+00 0.  1.
         13    1    4    4    0    0  0.19005352381E+02 -0.51990049300E+03 -0.57247080150E+02  0.52338796832E+03  0.10566000000E+00 0. -1.
         -4    1    4    4    0  501 -0.36722535652E+03  0.38254830314E+03 -0.26662291454E+03  0.59353638916E+03  0.00000000000E+00 0. -1.
<mgrwt>
<rscale>  2 0.10293478E+04</rscale>
<asrwt>0</asrwt>
<pdfrwt beam="2">  1        2 0.21857789E+00 0.10293478E+04</pdfrwt>
<pdfrwt beam="1">  1       -2 0.11496140E+00 0.10293478E+04</pdfrwt>
<totfact> 0.12448834E+01</totfact>
</mgrwt>
</event>
<event>
 8    1  0.1408247E-005  0.1200009E+04  0.7818608E-02  0.8606556E-01
          1   -1    0    0  502    0  0.00000000000E+00  0.00000000000E+00  0.22454234213E+04  0.22454234213E+04  0.00000000000E+00 0. -1.
         -1   -1    0    0    0  501 -0.00000000000E+00 -0.00000000000E+00 -0.67016235593E+03  0.67016235593E+03  0.00000000000E+00 0.  1.
    9000010    2    1    2  502    0 -0.48544750916E+03  0.44847825382E+03  0.49064083859E+03  0.13042739452E+04  0.10117361629E+04 0.  0.
   -9000010    2    1    2    0  501  0.48544750916E+03 -0.44847825382E+03  0.10846202268E+04  0.16113118320E+04  0.99153051151E+03 0.  0.
        -13    1    3    3    0    0 -0.69223546512E+03  0.55838767880E+03  0.57075980114E+03  0.10567655846E+04  0.10566000000E+00 0.  1.
          4    1    3    3  502    0  0.20678795596E+03 -0.10990942498E+03 -0.80118962546E+02  0.24750836065E+03  0.00000000000E+00 0.  1.
         13    1    4    4    0    0 -0.10936033221E+03 -0.43537576933E+03  0.86972248506E+03  0.97873845075E+03  0.10566000000E+00 0. -1.
         -4    1    4    4    0  501  0.59480784136E+03 -0.13102484488E+02  0.21489774169E+03  0.63257338122E+03  0.00000000000E+00 0. -1.
<mgrwt>
<rscale>  2 0.12000088E+04</rscale>
<asrwt>0</asrwt>
<pdfrwt beam="1">  1        1 0.34544975E+00 0.12000088E+04</pdfrwt>
<pdfrwt beam="2">  1       -1 0.10310190E+00 0.12000088E+04</pdfrwt>
<totfact> 0.22665269E+00</totfact>
</mgrwt>
</event>
<event>
 8    1  0.1408247E-005  0.1023642E+04  0.7818608E-02  0.8752690E-01
          1   -1    0    0  502    0  0.00000000000E+00  0.00000000000E+00  0.11417830582E+04  0.11417830582E+04  0.00000000000E+00 0.  1.
         -1   -1    0    0    0  501 -0.00000000000E+00 -0.00000000000E+00 -0.93059657887E+03  0.93059657887E+03  0.00000000000E+00 0. -1.
    9000010    2    1    2  502    0  0.21568654735E+03 -0.32203699767E+02 -0.14544041260E+02  0.10353086319E+04  0.10119756268E+04 0.  0.
   -9000010    2    1    2    0  501 -0.21568654735E+03  0.32203699767E+02  0.22573052059E+03  0.10370710052E+04  0.98843524666E+03 0.  0.
        -13    1    3    3    0    0  0.37418203623E+03 -0.16899668913E+03 -0.41477925677E+03  0.58362138427E+03  0.10566000000E+00 0.  1.
          4    1    3    3  502    0 -0.15849548889E+03  0.13679298937E+03  0.40023521551E+03  0.45168724763E+03  0.00000000000E+00 0.  1.
         13    1    4    4    0    0 -0.22021432707E+03  0.36980514548E+03 -0.21561210231E+03  0.48139254803E+03  0.10566000000E+00 0. -1.
         -4    1    4    4    0  501  0.45277797245E+01 -0.33760144571E+03  0.44134262290E+03  0.55567845714E+03  0.00000000000E+00 0. -1.
<mgrwt>
<rscale>  2 0.10236419E+04</rscale>
<asrwt>0</asrwt>
<pdfrwt beam="1">  1        1 0.17565893E+00 0.10236419E+04</pdfrwt>
<pdfrwt beam="2">  1       -1 0.14316870E+00 0.10236419E+04</pdfrwt>
<totfact> 0.70177513E+00</totfact>
</mgrwt>
</event>
<event>
 8    1  0.1408247E-005  0.1246919E+04  0.7818608E-02  0.8572044E-01
          2   -1    0    0  502    0  0.00000000000E+00  0.00000000000E+00  0.91336241909E+03  0.91336241909E+03  0.00000000000E+00 0.  1.
         -2   -1    0    0    0  501 -0.00000000000E+00 -0.00000000000E+00 -0.17023229060E+04  0.17023229060E+04  0.00000000000E+00 0. -1.
    9000010    2    1    2  502    0  0.40595665202E+03  0.62741086675E+03 -0.38977294465E+03  0.13021907416E+04  0.99263919930E+03 0.  0.
   -9000010    2    1    2    0  501 -0.40595665202E+03 -0.62741086675E+03 -0.39918754223E+03  0.13134945835E+04  0.10037291109E+04 0.  0.
        -13    1    3    3    0    0  0.51546786388E+03  0.73404551674E+03 -0.57240255298E+03  0.10640369510E+04  0.10566000000E+00 0.  1.
          4    1    3    3  502    0 -0.10951121186E+03 -0.10663465000E+03  0.18262960833E+03  0.23815379053E+03  0.00000000000E+00 0.  1.
         13    1    4    4    0    0  0.11069276518E+03 -0.75004903051E+01 -0.48909649641E+03  0.50152222242E+03  0.10566000000E+00 0. -1.
         -4    1    4    4    0  501 -0.51664941720E+03 -0.61991037644E+03  0.89908954179E+02  0.81197236108E+03  0.00000000000E+00 0. -1.
<mgrwt>
<rscale>  2 0.12469195E+04</rscale>
<asrwt>0</asrwt>
<pdfrwt beam="1">  1        2 0.14051730E+00 0.12469195E+04</pdfrwt>
<pdfrwt beam="2">  1       -2 0.26189583E+00 0.12469195E+04</pdfrwt>
<totfact> 0.13875282E+00</totfact>
</mgrwt>
</event>
<event>
 8    1  0.1408247E-005  0.9942292E+03  0.7818608E-02  0.8780032E-01
         -2   -1    0    0    0  501 -0.00000000000E+00  0.00000000000E+00  0.91496281961E+03  0.91496281961E+03  0.00000000000E+00 0.  1.
          2   -1    0    0  502    0  0.00000000000E+00 -0.00000000000E+00 -0.11152352483E+04  0.11152352483E+04  0.00000000000E+00 0. -1.
    9000010    2    1    2  502    0  0.11926522497E+03  0.43976726708E+03  0.51696544877E+02  0.89237027106E+03  0.76552774270E+03 0.  0.
   -9000010    2    1    2    0  501 -0.11926522497E+03 -0.43976726708E+03 -0.25196897352E+03  0.11378277968E+04  0.10117036565E+04 0.  0.
        -13    1    3    3    0    0  0.41844697121E+03  0.23240050938E+03 -0.11457517437E+03  0.49217410154E+03  0.10566000000E+00 0.  1.
          4    1    3    3  502    0 -0.29918174624E+03  0.20736675769E+03  0.16627171925E+03  0.40019616952E+03  0.00000000000E+00 0.  1.
         13    1    4    4    0    0  0.24577357900E+03 -0.60185472932E+03 -0.33278278488E+03  0.73032743370E+03  0.10566000000E+00 0. -1.
         -4    1    4    4    0  501 -0.36503880397E+03  0.16208746224E+03  0.80813811359E+02  0.40750036310E+03  0.00000000000E+00 0. -1.
<mgrwt>
<rscale>  2 0.99422918E+03</rscale>
<asrwt>0</asrwt>
<pdfrwt beam="2">  1        2 0.17157465E+00 0.99422918E+03</pdfrwt>
<pdfrwt beam="1">  1       -2 0.14076351E+00 0.99422918E+03</pdfrwt>
<totfact> 0.10668541E+01</totfact>
</mgrwt>
</event>
<event>
 8    1  0.1408247E-005  0.1024213E+04  0.7818608E-02  0.8752169E-01
          2   -1    0    0  502    0  0.00000000000E+00  0.00000000000E+00  0.29464323356E+04  0.29464323356E+04  0.00000000000E+00 0.  1.
         -2   -1    0    0    0  501 -0.00000000000E+00 -0.00000000000E+00 -0.36776666841E+03  0.36776666841E+03  0.00000000000E+00 0. -1.
    9000010    2    1    2  502    0 -0.40949221868E+03  0.24059119380E+02  0.15163574973E+04  0.18039877990E+04  0.88700011330E+03 0.  0.
   -9000010    2    1    2    0  501  0.40949221868E+03 -0.24059119380E+02  0.10623081699E+04  0.15102112050E+04  0.99195590503E+03 0.  0.
        -13    1    3    3    0    0 -0.15054203793E+03  0.35806775289E+03  0.12390364982E+04  0.12984940801E+04  0.10566000000E+00 0.  1.
          4    1    3    3  502    0 -0.25895018076E+03 -0.33400863351E+03  0.27732099906E+03  0.50549371894E+03  0.00000000000E+00 0.  1.
         13    1    4    4    0    0  0.66330495596E+03  0.14745433667E+03  0.98087184484E+03  0.11932417329E+04  0.10566000000E+00 0. -1.
         -4    1    4    4    0  501 -0.25381273728E+03 -0.17151345605E+03  0.81436325097E+02  0.31696947212E+03  0.00000000000E+00 0. -1.
<mgrwt>
<rscale>  2 0.10242127E+04</rscale>
<asrwt>0</asrwt>
<pdfrwt beam="1">  1        2 0.45329727E+00 0.10242127E+04</pdfrwt>
<pdfrwt beam="2">  1       -2 0.56579489E-01 0.10242127E+04</pdfrwt>
<totfact> 0.85359103E+00</totfact>
</mgrwt>
</event>
<event>
 8    1  0.1408247E-005  0.1192715E+04  0.7818608E-02  0.8612069E-01
         -2   -1    0    0    0  501 -0.00000000000E+00  0.00000000000E+00  0.45689636027E+03  0.45689636027E+03  0.00000000000E+00 0. -1.
          2   -1    0    0  502    0  0.00000000000E+00 -0.00000000000E+00 -0.33693939365E+04  0.33693939365E+04  0.00000000000E+00 0.  1.
    9000010    2    1    2  502    0 -0.47236754746E+03 -0.45248388833E+03 -0.93148379693E+03  0.15150343313E+04  0.99989709072E+03 0.  0.
   -9000010    2    1    2    0  501  0.47236754746E+03  0.45248388833E+03 -0.19810137793E+04  0.23112559654E+04  0.99479433802E+03 0.  0.
        -13    1    3    3    0    0 -0.77278184683E+03 -0.38384701559E+03 -0.54431081507E+03  0.10201983085E+04  0.10566000000E+00 0.  1.
          4    1    3    3  502    0  0.30041429937E+03 -0.68636872745E+02 -0.38717298186E+03  0.49483602279E+03  0.00000000000E+00 0.  1.
         13    1    4    4    0    0  0.80160306837E+02  0.21474873421E+03 -0.18058048253E+04  0.18202949683E+04  0.10566000000E+00 0. -1.
         -4    1    4    4    0  501  0.39220724062E+03  0.23773515412E+03 -0.17520895402E+03  0.49096099709E+03  0.00000000000E+00 0. -1.
<mgrwt>
<rscale>  2 0.11927148E+04</rscale>
<asrwt>0</asrwt>
<pdfrwt beam="2">  1        2 0.51836831E+00 0.11927148E+04</pdfrwt>
<pdfrwt beam="1">  1       -2 0.70291747E-01 0.11927148E+04</pdfrwt>
<totfact> 0.28639918E+00</totfact>
</mgrwt>
</event>
<event>
 8    1  0.1408247E-005  0.1160458E+04  0.7818608E-02  0.8636949E-01
         -1   -1    0    0    0  501 -0.00000000000E+00  0.00000000000E+00  0.61727552337E+03  0.61727552337E+03  0.00000000000E+00 0. -1.
          1   -1    0    0  502    0  0.00000000000E+00 -0.00000000000E+00 -0.22026959624E+04  0.22026959624E+04  0.00000000000E+00 0.  1.
    9000010    2    1    2  502    0 -0.52158764034E+03  0.18106492565E+02 -0.94613746925E+03  0.15212028108E+04  0.10707475749E+04 0.  0.
   -9000010    2    1    2    0  501  0.52158764034E+03 -0.18106492565E+02 -0.63928296977E+03  0.12987686750E+04  0.10028638213E+04 0.  0.
        -13    1    3    3    0    0 -0.53898381314E+03 -0.85869791104E+02  0.23079827203E+02  0.54626903759E+03  0.10566000000E+00 0.  1.
          4    1    3    3  502    0  0.17396172796E+02  0.10397628367E+03 -0.96921729646E+03  0.97493377321E+03  0.00000000000E+00 0.  1.
         13    1    4    4    0    0  0.75445001891E+03  0.10836399014E+03 -0.69098199756E+03  0.10287826386E+04  0.10566000000E+00 0. -1.
         -4    1    4    4    0  501 -0.23286237857E+03 -0.12647048271E+03  0.51699027795E+02  0.26998603635E+03  0.00000000000E+00 0. -1.
<mgrwt>
<rscale>  2 0.11604575E+04</rscale>
<asrwt>0</asrwt>
<pdfrwt beam="2">  1        1 0.33887630E+00 0.11604575E+04</pdfrwt>
<pdfrwt beam="1">  1       -1 0.94965464E-01 0.11604575E+04</pdfrwt>
<totfact> 0.29464288E+00</totfact>
</mgrwt>
</event>
<event>
 8    1  0.1408247E-005  0.1116209E+04  0.7818608E-02  0.8672479E-01
         -2   -1    0    0    0  501 -0.00000000000E+00  0.00000000000E+00  0.12813462493E+04  0.12813462493E+04  0.00000000000E+00 0. -1.
          2   -1    0    0  502    0  0.00000000000E+00 -0.00000000000E+00 -0.98533815130E+03  0.98533815130E+03  0.00000000000E+00 0.  1.
    9000010    2    1    2  502    0  0.44362518312E+03  0.21328374577E+03  0.17255346089E+02  0.11102457490E+04  0.99501488270E+03 0.  0.
   -9000010    2    1    2    0  501 -0.44362518312E+03 -0.21328374577E+03  0.27875275187E+03  0.11564386516E+04  0.10086396774E+04 0.  0.
        -13    1    3    3    0    0  0.40263710903E+03 -0.34442888953E+03  0.11592831190E+03  0.54239034484E+03  0.10566000000E+00 0.  1.
          4    1    3    3  502    0  0.40988074091E+02  0.55771263531E+03 -0.98672965813E+02  0.56785540411E+03  0.00000000000E+00 0.  1.
         13    1    4    4    0    0 -0.12066983053E+03  0.23958615875E+03 -0.26607333751E+03  0.37783298898E+03  0.10566000000E+00 0. -1.
         -4    1    4    4    0  501 -0.32295535259E+03 -0.45286990452E+03  0.54482608937E+03  0.77860566261E+03  0.00000000000E+00 0. -1.
<mgrwt>
<rscale>  2 0.11162091E+04</rscale>
<asrwt>0</asrwt>
<pdfrwt beam="2">  1        2 0.15159048E+00 0.11162091E+04</pdfrwt>
<pdfrwt beam="1">  1       -2 0.19713019E+00 0.11162091E+04</pdfrwt>
<totfact> 0.41645914E+00</totfact>
</mgrwt>
</event>
<event>
 8    1  0.1408247E-005  0.1125472E+04  0.7818608E-02  0.8664901E-01
         -2   -1    0    0    0  501 -0.00000000000E+00  0.00000000000E+00  0.50990027010E+03  0.50990027010E+03  0.00000000000E+00 0.  1.
          2   -1    0    0  502    0  0.00000000000E+00 -0.00000000000E+00 -0.31649381161E+04  0.31649381161E+04  0.00000000000E+00 0. -1.
    9000010    2    1    2  502    0  0.36700374768E+03  0.36766148045E+03 -0.46645642453E+03  0.12093230022E+04  0.98742787723E+03 0.  0.
   -9000010    2    1    2    0  501 -0.36700374768E+03 -0.36766148045E+03 -0.21885814215E+04  0.24655153840E+04  0.10094606258E+04 0.  0.
        -13    1    3    3    0    0  0.21359601229E+03 -0.32413922384E+03 -0.27367805620E+03  0.47496229588E+03  0.10566000000E+00 0.  1.
          4    1    3    3  502    0  0.15340773538E+03  0.69180070429E+03 -0.19277836833E+03  0.73436070635E+03  0.00000000000E+00 0.  1.
         13    1    4    4    0    0 -0.40437806742E+02 -0.23806800955E+03  0.74141486001E+01  0.24159175100E+03  0.10566000000E+00 0. -1.
         -4    1    4    4    0  501 -0.32656594093E+03 -0.12959347090E+03 -0.21959955701E+04  0.22239236330E+04  0.00000000000E+00 0. -1.
<mgrwt>
<rscale>  2 0.11254723E+04</rscale>
<asrwt>0</asrwt>
<pdfrwt beam="2">  1        2 0.48691356E+00 0.11254723E+04</pdfrwt>
<pdfrwt beam="1">  1       -2 0.78446195E-01 0.11254723E+04</pdfrwt>
<totfact> 0.31291449E+00</totfact>
</mgrwt>
</event>
<event>
 8    1  0.1408247E-005  0.9986298E+03  0.7818608E-02  0.8775880E-01
         -2   -1    0    0    0  501 -0.00000000000E+00  0.00000000000E+00  0.90401480959E+03  0.90401480959E+03  0.00000000000E+00 0.  1.
          2   -1    0    0  502    0  0.00000000000E+00 -0.00000000000E+00 -0.11091098967E+04  0.11091098967E+04  0.00000000000E+00 0. -1.
    9000010    2    1    2  502    0  0.35604332957E+02  0.31514695348E+03 -0.15238258007E+03  0.96291956431E+03  0.89633050033E+03 0.  0.
   -9000010    2    1    2    0  501 -0.35604332957E+02 -0.31514695348E+03 -0.52712506999E+02  0.10502051419E+04  0.99978345702E+03 0.  0.
        -13    1    3    3    0    0  0.29486367630E+03 -0.20950826055E+03 -0.10044286603E+03  0.37540255638E+03  0.10566000000E+00 0.  1.
          4    1    3    3  502    0 -0.25925934334E+03  0.52465521403E+03 -0.51939714039E+02  0.58751700793E+03  0.00000000000E+00 0.  1.
         13    1    4    4    0    0 -0.40340979968E+03  0.58136859794E+01  0.25111715617E+03  0.47521900500E+03  0.10566000000E+00 0. -1.
         -4    1    4    4    0  501  0.36780546673E+03 -0.32096063946E+03 -0.30382966317E+03  0.57498613693E+03  0.00000000000E+00 0. -1.
<mgrwt>
<rscale>  2 0.99862984E+03</rscale>
<asrwt>0</asrwt>
<pdfrwt beam="2">  1        2 0.17063229E+00 0.99862984E+03</pdfrwt>
<pdfrwt beam="1">  1       -2 0.13907920E+00 0.99862984E+03</pdfrwt>
<totfact> 0.11131766E+01</totfact>
</mgrwt>
</event>
<event>
 8    1  0.1408247E-005  0.9981817E+03  0.7818608E-02  0.8776302E-01
          2   -1    0    0  502    0  0.00000000000E+00  0.00000000000E+00  0.57435344047E+03  0.57435344047E+03  0.00000000000E+00 0. -1.
         -2   -1    0    0    0  501 -0.00000000000E+00 -0.00000000000E+00 -0.17600545949E+04  0.17600545949E+04  0.00000000000E+00 0.  1.
    9000010    2    1    2  502    0 -0.30983089127E+03 -0.27362974510E+03 -0.43955485865E+03  0.10251316958E+04  0.82874489525E+03 0.  0.
   -9000010    2    1    2    0  501  0.30983089127E+03  0.27362974510E+03 -0.74614629582E+03  0.13092763396E+04  0.99327831956E+03 0.  0.
        -13    1    3    3    0    0  0.14366212806E+03  0.20121042559E+03 -0.24731883232E+02  0.24846754238E+03  0.10566000000E+00 0.  1.
          4    1    3    3  502    0 -0.45349301934E+03 -0.47484017069E+03 -0.41482297542E+03  0.77666415343E+03  0.00000000000E+00 0.  1.
         13    1    4    4    0    0  0.60337921476E+03 -0.71421357402E+02 -0.31724773406E+03  0.68542951719E+03  0.10566000000E+00 0. -1.
         -4    1    4    4    0  501 -0.29354832349E+03  0.34505110250E+03 -0.42889856177E+03  0.62384682242E+03  0.00000000000E+00 0. -1.
<mgrwt>
<rscale>  2 0.99818170E+03</rscale>
<asrwt>0</asrwt>
<pdfrwt beam="1">  1        2 0.88362069E-01 0.99818170E+03</pdfrwt>
<pdfrwt beam="2">  1       -2 0.27077762E+00 0.99818170E+03</pdfrwt>
<totfact> 0.21640237E+00</totfact>
</mgrwt>
</event>
<event>
 8    1  0.1408247E-005  0.1172110E+04  0.7818608E-02  0.8627866E-01
          2   -1    0    0  502    0  0.00000000000E+00  0.00000000000E+00  0.26474371227E+04  0.26474371227E+04  0.00000000000E+00 0. -1.
         -2   -1    0    0    0  501 -0.00000000000E+00 -0.00000000000E+00 -0.62325035110E+03  0.62325035110E+03  0.00000000000E+00 0.  1.
    9000010    2    1    2  502    0 -0.59515126885E+03  0.11685166189E+03  0.34926533629E+03  0.12312265537E+04  0.10129527174E+04 0.  0.
   -9000010    2    1    2    0  501  0.59515126885E+03 -0.11685166189E+03  0.16749214353E+04  0.20394609201E+04  0.99306580163E+03 0.  0.
        -13    1    3    3    0    0 -0.73023238344E+03 -0.21655044901E+03  0.41217761917E+03  0.86603916291E+03  0.10566000000E+00 0.  1.
          4    1    3    3  502    0  0.13508111459E+03  0.33340211090E+03 -0.62912282876E+02  0.36518739081E+03  0.00000000000E+00 0.  1.
         13    1    4    4    0    0  0.84484439546E+03 -0.90938203078E+01  0.14823681350E+04  0.17062414978E+04  0.10566000000E+00 0. -1.
         -4    1    4    4    0  501 -0.24969312662E+03 -0.10775784158E+03  0.19255330034E+03  0.33321942227E+03  0.00000000000E+00 0. -1.
<mgrwt>
<rscale>  2 0.11721096E+04</rscale>
<asrwt>0</asrwt>
<pdfrwt beam="1">  1        2 0.40729801E+00 0.11721096E+04</pdfrwt>
<pdfrwt beam="2">  1       -2 0.95884671E-01 0.11721096E+04</pdfrwt>
<totfact> 0.40626350E+00</totfact>
</mgrwt>
</event>
<event>
 8    1  0.1408247E-005  0.1358223E+04  0.7818608E-02  0.8496080E-01
          2   -1    0    0  502    0  0.00000000000E+00  0.00000000000E+00  0.31510925599E+04  0.31510925599E+04  0.00000000000E+00 0. -1.
         -2   -1    0    0    0  501 -0.00000000000E+00 -0.00000000000E+00 -0.69501003716E+03  0.69501003716E+03  0.00000000000E+00 0.  1.
    9000010    2    1    2  502    0  0.82512701794E+03  0.40697388220E+03  0.19875307158E+04  0.24043093150E+04  0.99194888936E+03 0.  0.
   -9000010    2    1    2    0  501 -0.82512701794E+03 -0.40697388220E+03  0.46855180692E+03  0.14417932821E+04  0.10063621297E+04 0.  0.
        -13    1    3    3    0    0  0.53524103426E+03  0.53696755369E+03  0.19402403534E+04  0.20831105968E+04  0.10566000000E+00 0.  1.
          4    1    3    3  502    0  0.28988598369E+03 -0.12999367149E+03  0.47290362452E+02  0.32119871816E+03  0.00000000000E+00 0.  1.
         13    1    4    4    0    0  0.15270407004E+03  0.15653303645E+01  0.34196618590E+03  0.37451550933E+03  0.10566000000E+00 0. -1.
         -4    1    4    4    0  501 -0.97783108798E+03 -0.40853921257E+03  0.12658562102E+03  0.10672777728E+04  0.00000000000E+00 0. -1.
<mgrwt>
<rscale>  2 0.13582230E+04</rscale>
<asrwt>0</asrwt>
<pdfrwt beam="1">  1        2 0.48478346E+00 0.13582230E+04</pdfrwt>
<pdfrwt beam="2">  1       -2 0.10692462E+00 0.13582230E+04</pdfrwt>
<totfact> 0.15086971E+00</totfact>
</mgrwt>
</event>
<event>
 8    1  0.1408247E-005  0.1345535E+04  0.7818608E-02  0.8504353E-01
          1   -1    0    0  502    0  0.00000000000E+00  0.00000000000E+00  0.16621766541E+04  0.16621766541E+04  0.00000000000E+00 0.  1.
         -1   -1    0    0    0  501 -0.00000000000E+00 -0.00000000000E+00 -0.11003299596E+04  0.11003299596E+04  0.00000000000E+00 0. -1.
    9000010    2    1    2  502    0  0.65151378906E+03  0.60492707721E+03  0.14167520217E+03  0.13508932220E+04  0.10071909691E+04 0.  0.
   -9000010    2    1    2    0  501 -0.65151378906E+03 -0.60492707721E+03  0.42017149235E+03  0.14116133917E+04  0.10127691240E+04 0.  0.
        -13    1    3    3    0    0  0.43234518468E+03  0.85142388259E+03 -0.72439504758E+02  0.95764945547E+03  0.10566000000E+00 0.  1.
          4    1    3    3  502    0  0.21916860438E+03 -0.24649680538E+03  0.21411470692E+03  0.39324376655E+03  0.00000000000E+00 0.  1.
         13    1    4    4    0    0  0.45627292427E+02 -0.24154190662E+03 -0.27024710144E+03  0.36531883263E+03  0.10566000000E+00 0. -1.
         -4    1    4    4    0  501 -0.69714108148E+03 -0.36338517058E+03  0.69041859379E+03  0.10462945591E+04  0.00000000000E+00 0. -1.
<mgrwt>
<rscale>  2 0.13455355E+04</rscale>
<asrwt>0</asrwt>
<pdfrwt beam="1">  1        1 0.25571948E+00 0.13455355E+04</pdfrwt>
<pdfrwt beam="2">  1       -1 0.16928153E+00 0.13455355E+04</pdfrwt>
<totfact> 0.16274184E+00</totfact>
</mgrwt>
</event>
<event>
 8    1  0.1408247E-005  0.1175836E+04  0.7818608E-02  0.8624984E-01
          2   -1    0    0  502    0  0.00000000000E+00  0.00000000000E+00  0.14956041056E+04  0.14956041056E+04  0.00000000000E+00 0. -1.
         -2   -1    0    0    0  501 -0.00000000000E+00 -0.00000000000E+00 -0.92452631933E+03  0.92452631933E+03  0.00000000000E+00 0.  1.
    9000010    2    1    2  502    0 -0.34829157537E+03 -0.48857562027E+03  0.27501562408E+03  0.12110964036E+04  0.10154347577E+04 0.  0.
   -9000010    2    1    2    0  501  0.34829157537E+03  0.48857562027E+03  0.29606216220E+03  0.12090340213E+04  0.10070239831E+04 0.  0.
        -13    1    3    3    0    0 -0.24662731038E+03 -0.54774219946E+03 -0.26634466502E+03  0.65710428323E+03  0.10566000000E+00 0.  1.
          4    1    3    3  502    0 -0.10166426499E+03  0.59166579189E+02  0.54136028910E+03  0.55399212042E+03  0.00000000000E+00 0.  1.
         13    1    4    4    0    0  0.62366545665E+03  0.59821759528E+03  0.29335634187E+03  0.91262305888E+03  0.10566000000E+00 0. -1.
         -4    1    4    4    0  501 -0.27537388128E+03 -0.10964197502E+03  0.27058203297E+01  0.29641096241E+03  0.00000000000E+00 0. -1.
<mgrwt>
<rscale>  2 0.11758357E+04</rscale>
<asrwt>0</asrwt>
<pdfrwt beam="1">  1        2 0.23009294E+00 0.11758357E+04</pdfrwt>
<pdfrwt beam="2">  1       -2 0.14223482E+00 0.11758357E+04</pdfrwt>
<totfact> 0.62177054E+00</totfact>
</mgrwt>
</event>
<event>
 8    1  0.1408247E-005  0.1055117E+04  0.7818608E-02  0.8724460E-01
          2   -1    0    0  502    0  0.00000000000E+00  0.00000000000E+00  0.17636882352E+04  0.17636882352E+04  0.00000000000E+00 0.  1.
         -2   -1    0    0    0  501 -0.00000000000E+00 -0.00000000000E+00 -0.65930614788E+03  0.65930614788E+03  0.00000000000E+00 0. -1.
    9000010    2    1    2  502    0 -0.28638796070E+03  0.22665716002E+03  0.30551283349E+03  0.11047455055E+04  0.99686157926E+03 0.  0.
   -9000010    2    1    2    0  501  0.28638796070E+03 -0.22665716002E+03  0.79886925381E+03  0.13182488776E+04  0.98295294208E+03 0.  0.
        -13    1    3    3    0    0 -0.63948332830E+03  0.88017371695E+02  0.50138743142E+02  0.64745647701E+03  0.10566000000E+00 0.  1.
          4    1    3    3  502    0  0.35309536760E+03  0.13863978833E+03  0.25537409035E+03  0.45728902846E+03  0.00000000000E+00 0.  1.
         13    1    4    4    0    0  0.26708585990E+03 -0.60107314948E+03  0.39522261777E+03  0.76734914892E+03  0.10566000000E+00 0. -1.
         -4    1    4    4    0  501  0.19302100806E+02  0.37441598946E+03  0.40364663604E+03  0.55089972867E+03  0.00000000000E+00 0. -1.
<mgrwt>
<rscale>  2 0.10551166E+04</rscale>
<asrwt>0</asrwt>
<pdfrwt beam="1">  1        2 0.27133665E+00 0.10551166E+04</pdfrwt>
<pdfrwt beam="2">  1       -2 0.10143172E+00 0.10551166E+04</pdfrwt>
<totfact> 0.11028383E+01</totfact>
</mgrwt>
</event>
<event>
 8    1  0.1408247E-005  0.1584864E+04  0.7818608E-02  0.8362267E-01
         -1   -1    0    0    0  501 -0.00000000000E+00  0.00000000000E+00  0.96172250116E+03  0.96172250116E+03  0.00000000000E+00 0. -1.
          1   -1    0    0  502    0  0.00000000000E+00 -0.00000000000E+00 -0.28529772970E+04  0.28529772970E+04  0.00000000000E+00 0.  1.
    9000010    2    1    2  502    0  0.19789165812E+02 -0.12293041755E+04 -0.39180019345E+03  0.16339455754E+04  0.10023424488E+04 0.  0.
   -9000010    2    1    2    0  501 -0.19789165812E+02  0.12293041755E+04 -0.14994546024E+04  0.21807542227E+04  0.99786998581E+03 0.  0.
        -13    1    3    3    0    0 -0.53082533015E+02 -0.13978036425E+04 -0.38232583809E+03  0.14501192489E+04  0.10566000000E+00 0.  1.
          4    1    3    3  502    0  0.72871698827E+02  0.16849946706E+03 -0.94743553588E+01  0.18382632646E+03  0.00000000000E+00 0.  1.
         13    1    4    4    0    0 -0.24071911675E+03 -0.43795581307E+02 -0.71358149138E+02  0.25486416524E+03  0.10566000000E+00 0. -1.
         -4    1    4    4    0  501  0.22092995093E+03  0.12730997568E+04 -0.14280964532E+04  0.19258900575E+04  0.00000000000E+00 0. -1.
<mgrwt>
<rscale>  2 0.15848640E+04</rscale>
<asrwt>0</asrwt>
<pdfrwt beam="2">  1        1 0.43891959E+00 0.15848640E+04</pdfrwt>
<pdfrwt beam="1">  1       -1 0.14795731E+00 0.15848640E+04</pdfrwt>
<totfact> 0.23707078E-01</totfact>
</mgrwt>
</event>
<event>
 8    1  0.1408247E-005  0.1084598E+04  0.7818608E-02  0.8698929E-01
          1   -1    0    0  502    0  0.00000000000E+00  0.00000000000E+00  0.22883012115E+04  0.22883012115E+04  0.00000000000E+00 0. -1.
         -1   -1    0    0    0  501 -0.00000000000E+00 -0.00000000000E+00 -0.52688279912E+03  0.52688279912E+03  0.00000000000E+00 0.  1.
    9000010    2    1    2  502    0 -0.31772817367E+03  0.12036594974E+03  0.10725309327E+04  0.15041849460E+04  0.99840402439E+03 0.  0.
   -9000010    2    1    2    0  501  0.31772817367E+03 -0.12036594974E+03  0.68888747975E+03  0.13109990647E+04  0.10624092590E+04 0.  0.
        -13    1    3    3    0    0 -0.67135598127E+03 -0.99028071315E+01  0.60605423691E+03  0.90449912571E+03  0.10566000000E+00 0.  1.
          4    1    3    3  502    0  0.35362780760E+03  0.13026875687E+03  0.46647669576E+03  0.59968582025E+03  0.00000000000E+00 0.  1.
         13    1    4    4    0    0 -0.13646426024E+03  0.40109698668E+03  0.24941281703E+03  0.49163813065E+03  0.10566000000E+00 0. -1.
         -4    1    4    4    0  501  0.45419243391E+03 -0.52146293642E+03  0.43947466272E+03  0.81936093405E+03  0.00000000000E+00 0. -1.
<mgrwt>
<rscale>  2 0.10845985E+04</rscale>
<asrwt>0</asrwt>
<pdfrwt beam="1">  1        1 0.35204634E+00 0.10845985E+04</pdfrwt>
<pdfrwt beam="2">  1       -1 0.81058893E-01 0.10845985E+04</pdfrwt>
<totfact> 0.34967318E+00</totfact>
</mgrwt>
</event>
<event>
 8    1  0.1408247E-005  0.1312339E+04  0.7818608E-02  0.8526453E-01
         -1   -1    0    0    0  501 -0.00000000000E+00  0.00000000000E+00  0.21643654364E+04  0.21643654364E+04  0.00000000000E+00 0. -1.
          1   -1    0    0  502    0  0.00000000000E+00 -0.00000000000E+00 -0.11338166586E+04  0.11338166586E+04  0.00000000000E+00 0.  1.
    9000010    2    1    2  502    0  0.73552894069E+03  0.41742588297E+03 -0.38675687008E+03  0.13628008849E+04  0.99619184142E+03 0.  0.
   -9000010    2    1    2    0  501 -0.73552894069E+03 -0.41742588297E+03  0.14173056479E+04  0.19353812101E+04  0.10107907491E+04 0.  0.
        -13    1    3    3    0    0  0.17235385591E+03  0.44254452601E+03 -0.59547302832E+03  0.76166898832E+03  0.10566000000E+00 0.  1.
          4    1    3    3  502    0  0.56317508478E+03 -0.25118643043E+02  0.20871615825E+03  0.60113189656E+03  0.00000000000E+00 0.  1.
         13    1    4    4    0    0 -0.21979609326E+03 -0.15152824864E+03 -0.11964318509E+03  0.29255022757E+03  0.10566000000E+00 0. -1.
         -4    1    4    4    0  501 -0.51573284742E+03 -0.26589763433E+03  0.15369488330E+04  0.16428309825E+04  0.00000000000E+00 0. -1.
<mgrwt>
<rscale>  2 0.13123387E+04</rscale>
<asrwt>0</asrwt>
<pdfrwt beam="2">  1        1 0.17443333E+00 0.13123387E+04</pdfrwt>
<pdfrwt beam="1">  1       -1 0.33297930E+00 0.13123387E+04</pdfrwt>
<totfact> 0.15518559E-01</totfact>
</mgrwt>
</event>
<event>
 8    1  0.1408247E-005  0.1219663E+04  0.7818608E-02  0.8591901E-01
          2   -1    0    0  502    0  0.00000000000E+00  0.00000000000E+00  0.20731835221E+04  0.20731835221E+04  0.00000000000E+00 0.  1.
         -2   -1    0    0    0  501 -0.00000000000E+00 -0.00000000000E+00 -0.20898253899E+04  0.20898253899E+04  0.00000000000E+00 0. -1.
    9000010    2    1    2  502    0 -0.56231630492E+03 -0.40360618933E+03 -0.16950385093E+04  0.20863745273E+04  0.10003527063E+04 0.  0.
   -9000010    2    1    2    0  501  0.56231630492E+03  0.40360618933E+03  0.16783966414E+04  0.20766343847E+04  0.10081158163E+04 0.  0.
        -13    1    3    3    0    0  0.10967740619E+03 -0.41385839128E+03 -0.11298174641E+04  0.12082199364E+04  0.10566000000E+00 0.  1.
          4    1    3    3  502    0 -0.67199371111E+03  0.10252201958E+02 -0.56522104525E+03  0.87815459084E+03  0.00000000000E+00 0.  1.
         13    1    4    4    0    0  0.34339975113E+03 -0.50687378361E+02  0.15032330716E+04  0.15427904194E+04  0.10566000000E+00 0. -1.
         -4    1    4    4    0  501  0.21891655379E+03  0.45429356769E+03  0.17516356987E+03  0.53384396538E+03  0.00000000000E+00 0. -1.
<mgrwt>
<rscale>  2 0.12196633E+04</rscale>
<asrwt>0</asrwt>
<pdfrwt beam="1">  1        2 0.31895131E+00 0.12196633E+04</pdfrwt>
<pdfrwt beam="2">  1       -2 0.32151160E+00 0.12196633E+04</pdfrwt>
<totfact> 0.11776186E-01</totfact>
</mgrwt>
</event>
<event>
 8    1  0.1408247E-005  0.1101099E+04  0.7818608E-02  0.8685007E-01
         -2   -1    0    0    0  501 -0.00000000000E+00  0.00000000000E+00  0.20032470232E+04  0.20032470232E+04  0.00000000000E+00 0. -1.
          2   -1    0    0  502    0  0.00000000000E+00 -0.00000000000E+00 -0.66626773039E+03  0.66626773039E+03  0.00000000000E+00 0.  1.
    9000010    2    1    2  502    0 -0.31252991355E+03 -0.28609581901E+03  0.25889548421E+03  0.11209613124E+04  0.10049883719E+04 0.  0.
   -9000010    2    1    2    0  501  0.31252991355E+03  0.28609581901E+03  0.10780838086E+04  0.15485534412E+04  0.10277291946E+04 0.  0.
        -13    1    3    3    0    0  0.36007810433E+03 -0.12385251846E+03 -0.39895684053E+01  0.38080390671E+03  0.10566000000E+00 0.  1.
          4    1    3    3  502    0 -0.67260801788E+03 -0.16224330055E+03  0.26288505261E+03  0.74015740567E+03  0.00000000000E+00 0.  1.
         13    1    4    4    0    0  0.18447689030E+03 -0.83154519318E-01 -0.17654608775E+03  0.25534342019E+03  0.10566000000E+00 0. -1.
         -4    1    4    4    0  501  0.12805302325E+03  0.28617897353E+03  0.12546298963E+04  0.12932100210E+04  0.00000000000E+00 0. -1.
<mgrwt>
<rscale>  2 0.11010994E+04</rscale>
<asrwt>0</asrwt>
<pdfrwt beam="2">  1        2 0.10250273E+00 0.11010994E+04</pdfrwt>
<pdfrwt beam="1">  1       -2 0.30819185E+00 0.11010994E+04</pdfrwt>
<totfact> 0.97998083E-01</totfact>
</mgrwt>
</event>
<event>
 8    1  0.1408247E-005  0.1360250E+04  0.7818608E-02  0.8494767E-01
          2   -1    0    0  502    0  0.00000000000E+00  0.00000000000E+00  0.16165556792E+04  0.16165556792E+04  0.00000000000E+00 0. -1.
         -2   -1    0    0    0  501 -0.00000000000E+00 -0.00000000000E+00 -0.13139468517E+04  0.13139468517E+04  0.00000000000E+00 0.  1.
    9000010    2    1    2  502    0 -0.57395339375E+01  0.95038831227E+03  0.67538892128E+03  0.15034828988E+04  0.94923113398E+03 0.  0.
   -9000010    2    1    2    0  501  0.57395339375E+01 -0.95038831227E+03 -0.37278009384E+03  0.14270196321E+04  0.99707028116E+03 0.  0.
        -13    1    3    3    0    0 -0.21250686013E+03  0.29377957665E+03 -0.18056483806E+03  0.40505465948E+03  0.10566000000E+00 0.  1.
          4    1    3    3  502    0  0.20676732619E+03  0.65660873562E+03  0.85595375933E+03  0.10984282393E+04  0.00000000000E+00 0.  1.
         13    1    4    4    0    0 -0.17814716430E+03  0.12473686686E+03 -0.24693227216E+03  0.32904597900E+03  0.10566000000E+00 0. -1.
         -4    1    4    4    0  501  0.18388669824E+03 -0.10751251791E+04 -0.12584782169E+03  0.10979736531E+04  0.00000000000E+00 0. -1.
<mgrwt>
<rscale>  2 0.13602499E+04</rscale>
<asrwt>0</asrwt>
<pdfrwt beam="1">  1        2 0.24870087E+00 0.13602499E+04</pdfrwt>
<pdfrwt beam="2">  1       -2 0.20214567E+00 0.13602499E+04</pdfrwt>
<totfact> 0.16196157E+00</totfact>
</mgrwt>
</event>
<event>
 8    1  0.1408247E-005  0.1049756E+04  0.7818608E-02  0.8729195E-01
          2   -1    0    0  502    0  0.00000000000E+00  0.00000000000E+00  0.14634006524E+04  0.14634006524E+04  0.00000000000E+00 0.  1.
         -2   -1    0    0    0  501 -0.00000000000E+00 -0.00000000000E+00 -0.75756039014E+03  0.75756039014E+03  0.00000000000E+00 0. -1.
    9000010    2    1    2  502    0 -0.44875842095E+03 -0.28968310988E+03  0.39991526915E+03  0.12003367219E+04  0.99778534707E+03 0.  0.
   -9000010    2    1    2    0  501  0.44875842095E+03  0.28968310988E+03  0.30592499310E+03  0.10206243207E+04  0.81411515034E+03 0.  0.
        -13    1    3    3    0    0 -0.73477584544E+03 -0.30525318174E+03  0.12895475624E+03  0.80604242340E+03  0.10566000000E+00 0.  1.
          4    1    3    3  502    0  0.28601742449E+03  0.15570071861E+02  0.27096051291E+03  0.39429429847E+03  0.00000000000E+00 0.  1.
         13    1    4    4    0    0  0.55566870494E+03  0.47673763180E+03  0.33141962887E+03  0.80366999496E+03  0.10566000000E+00 0. -1.
         -4    1    4    4    0  501 -0.10691028400E+03 -0.18705452192E+03 -0.25494635761E+02  0.21695432571E+03  0.00000000000E+00 0. -1.
<mgrwt>
<rscale>  2 0.10497562E+04</rscale>
<asrwt>0</asrwt>
<pdfrwt beam="1">  1        2 0.22513856E+00 0.10497562E+04</pdfrwt>
<pdfrwt beam="2">  1       -2 0.11654775E+00 0.10497562E+04</pdfrwt>
<totfact> 0.11363124E+01</totfact>
</mgrwt>
</event>
<event>
 8    1  0.1408247E-005  0.1585578E+04  0.7818608E-02  0.8361883E-01
          2   -1    0    0  502    0  0.00000000000E+00  0.00000000000E+00  0.20117416789E+04  0.20117416789E+04  0.00000000000E+00 0.  1.
         -2   -1    0    0    0  501 -0.00000000000E+00 -0.00000000000E+00 -0.12945570037E+04  0.12945570037E+04  0.00000000000E+00 0. -1.
    9000010    2    1    2  502    0 -0.88079139663E+03 -0.84190799804E+03  0.52100181689E+02  0.15919775568E+04  0.10232670965E+04 0.  0.
   -9000010    2    1    2    0  501  0.88079139663E+03  0.84190799804E+03  0.66508449349E+03  0.17143211258E+04  0.10059607235E+04 0.  0.
        -13    1    3    3    0    0 -0.55828608879E+03 -0.10458527833E+04  0.15789647313E+03  0.11960028046E+04  0.10566000000E+00 0.  1.
          4    1    3    3  502    0 -0.32250530785E+03  0.20394478529E+03 -0.10579629144E+03  0.39597475212E+03  0.00000000000E+00 0.  1.
         13    1    4    4    0    0  0.10569430504E+02  0.55362110733E+03 -0.43841058427E+02  0.55545485227E+03  0.10566000000E+00 0. -1.
         -4    1    4    4    0  501  0.87022196613E+03  0.28828689071E+03  0.70892555192E+03  0.11588662735E+04  0.00000000000E+00 0. -1.
<mgrwt>
<rscale>  2 0.15855780E+04</rscale>
<asrwt>0</asrwt>
<pdfrwt beam="1">  1        2 0.30949872E+00 0.15855780E+04</pdfrwt>
<pdfrwt beam="2">  1       -2 0.19916262E+00 0.15855780E+04</pdfrwt>
<totfact> 0.10183669E+00</totfact>
</mgrwt>
</event>
<event>
 8    1  0.1408247E-005  0.1077013E+04  0.7818608E-02  0.8705417E-01
         -2   -1    0    0    0  501 -0.00000000000E+00  0.00000000000E+00  0.59474394189E+03  0.59474394189E+03  0.00000000000E+00 0.  1.
          2   -1    0    0  502    0  0.00000000000E+00 -0.00000000000E+00 -0.19771249811E+04  0.19771249811E+04  0.00000000000E+00 0. -1.
    9000010    2    1    2  502    0  0.28330400535E+03 -0.34113179132E+03 -0.53655459647E+03  0.11957834333E+04  0.97230402957E+03 0.  0.
   -9000010    2    1    2    0  501 -0.28330400535E+03  0.34113179132E+03 -0.84582644272E+03  0.13760854896E+04  0.99073550714E+03 0.  0.
        -13    1    3    3    0    0  0.60004873423E+03 -0.35917243266E+03 -0.53167426158E+03  0.87848782088E+03  0.10566000000E+00 0.  1.
          4    1    3    3  502    0 -0.31674472888E+03  0.18040641343E+02 -0.48803348883E+01  0.31729561245E+03  0.00000000000E+00 0.  1.
         13    1    4    4    0    0  0.36514733589E+03  0.49154011694E+02 -0.22242082571E+03  0.43037161692E+03  0.10566000000E+00 0. -1.
         -4    1    4    4    0  501 -0.64845134124E+03  0.29197777962E+03 -0.62340561700E+03  0.94571387273E+03  0.00000000000E+00 0. -1.
<mgrwt>
<rscale>  2 0.10770130E+04</rscale>
<asrwt>0</asrwt>
<pdfrwt beam="2">  1        2 0.30417308E+00 0.10770130E+04</pdfrwt>
<pdfrwt beam="1">  1       -2 0.91499067E-01 0.10770130E+04</pdfrwt>
<totfact> 0.10755955E+01</totfact>
</mgrwt>
</event>
<event>
 8    1  0.1408247E-005  0.1479721E+04  0.7818608E-02  0.8421266E-01
          2   -1    0    0  502    0  0.00000000000E+00  0.00000000000E+00  0.32300629757E+04  0.32300629757E+04  0.00000000000E+00 0.  1.
         -2   -1    0    0    0  501 -0.00000000000E+00 -0.00000000000E+00 -0.68016023245E+03  0.68016023245E+03  0.00000000000E+00 0. -1.
    9000010    2    1    2  502    0  0.67734990139E+03  0.79350599728E+03  0.12025821195E+04  0.19349717812E+04  0.10997533284E+04 0.  0.
   -9000010    2    1    2    0  501 -0.67734990139E+03 -0.79350599728E+03  0.13473206237E+04  0.19752514269E+04  0.99894478317E+03 0.  0.
        -13    1    3    3    0    0  0.69704652661E+03  0.58295353915E+03  0.13844698565E+04  0.16560390949E+04  0.10566000000E+00 0.  1.
          4    1    3    3  502    0 -0.19696625217E+02  0.21055245813E+03 -0.18188773695E+03  0.27893268636E+03  0.00000000000E+00 0.  1.
         13    1    4    4    0    0 -0.32135753461E+03  0.67401917743E+02  0.86703376056E+03  0.92712525404E+03  0.10566000000E+00 0. -1.
         -4    1    4    4    0  501 -0.35599236678E+03 -0.86090791502E+03  0.48028686317E+03  0.10481261729E+04  0.00000000000E+00 0. -1.
<mgrwt>
<rscale>  2 0.14797212E+04</rscale>
<asrwt>0</asrwt>
<pdfrwt beam="1">  1        2 0.49693276E+00 0.14797212E+04</pdfrwt>
<pdfrwt beam="2">  1       -2 0.10464004E+00 0.14797212E+04</pdfrwt>
<totfact> 0.13948304E+00</totfact>
</mgrwt>
</event>
<event>
 8    1  0.1408247E-005  0.1380147E+04  0.7818608E-02  0.8482000E-01
          2   -1    0    0  502    0  0.00000000000E+00  0.00000000000E+00  0.36901118512E+04  0.36901118512E+04  0.00000000000E+00 0. -1.
         -2   -1    0    0    0  501 -0.00000000000E+00 -0.00000000000E+00 -0.51639984083E+03  0.51639984083E+03  0.00000000000E+00 0.  1.
    9000010    2    1    2  502    0 -0.94450763933E+03 -0.20700714841E+02  0.16336859686E+04  0.21415760880E+04  0.10123710270E+04 0.  0.
   -9000010    2    1    2    0  501  0.94450763933E+03  0.20700714841E+02  0.15400260418E+04  0.20649356041E+04  0.99987781209E+03 0.  0.
        -13    1    3    3    0    0 -0.73569635776E+03 -0.14303996251E+03  0.33569951952E+03  0.82122088397E+03  0.10566000000E+00 0.  1.
          4    1    3    3  502    0 -0.20881128157E+03  0.12233924767E+03  0.12979864491E+04  0.13203552040E+04  0.00000000000E+00 0.  1.
         13    1    4    4    0    0  0.10868289071E+04 -0.20247986565E+03  0.11666827714E+04  0.16072784045E+04  0.10566000000E+00 0. -1.
         -4    1    4    4    0  501 -0.14232126776E+03  0.22318058049E+03  0.37334327038E+03  0.45765719955E+03  0.00000000000E+00 0. -1.
<mgrwt>
<rscale>  2 0.13801475E+04</rscale>
<asrwt>0</asrwt>
<pdfrwt beam="1">  1        2 0.56770950E+00 0.13801475E+04</pdfrwt>
<pdfrwt beam="2">  1       -2 0.79446132E-01 0.13801475E+04</pdfrwt>
<totfact> 0.12340216E+00</totfact>
</mgrwt>
</event>
<event>
 8    1  0.1408247E-005  0.1361519E+04  0.7818608E-02  0.8493945E-01
          2   -1    0    0  502    0  0.00000000000E+00  0.00000000000E+00  0.15028481213E+04  0.15028481213E+04  0.00000000000E+00 0. -1.
         -2   -1    0    0    0  501 -0.00000000000E+00 -0.00000000000E+00 -0.12341451803E+04  0.12341451803E+04  0.00000000000E+00 0.  1.
    9000010    2    1    2  502    0  0.89257414156E+03 -0.28909203992E+03  0.10522302788E+03  0.13755637109E+04  0.10004203274E+04 0.  0.
   -9000010    2    1    2    0  501 -0.89257414156E+03  0.28909203992E+03  0.16347991305E+03  0.13614295907E+04  0.97288336541E+03 0.  0.
        -13    1    3    3    0    0 -0.15413336218E+02 -0.38669471236E+03  0.23561485275E+03  0.45308359217E+03  0.10566000000E+00 0.  1.
          4    1    3    3  502    0  0.90798747778E+03  0.97602672438E+02 -0.13039182487E+03  0.92248011873E+03  0.00000000000E+00 0.  1.
         13    1    4    4    0    0 -0.62700902952E+03  0.54829909346E+03 -0.18403693477E+03  0.85301923983E+03  0.10566000000E+00 0. -1.
         -4    1    4    4    0  501 -0.26556511204E+03 -0.25920705355E+03  0.34751684782E+03  0.50841035086E+03  0.00000000000E+00 0. -1.
<mgrwt>
<rscale>  2 0.13615194E+04</rscale>
<asrwt>0</asrwt>
<pdfrwt beam="1">  1        2 0.23120740E+00 0.13615194E+04</pdfrwt>
<pdfrwt beam="2">  1       -2 0.18986849E+00 0.13615194E+04</pdfrwt>
<totfact> 0.23640976E+00</totfact>
</mgrwt>
</event>
<event>
 8    1  0.1408247E-005  0.1270493E+04  0.7818608E-02  0.8555289E-01
         -2   -1    0    0    0  501 -0.00000000000E+00  0.00000000000E+00  0.92074683195E+03  0.92074683195E+03  0.00000000000E+00 0.  1.
          2   -1    0    0  502    0  0.00000000000E+00 -0.00000000000E+00 -0.22927229051E+04  0.22927229051E+04  0.00000000000E+00 0. -1.
    9000010    2    1    2  502    0  0.45639957598E+03 -0.65327265831E+03 -0.14665784299E+04  0.19421007336E+04  0.99289336247E+03 0.  0.
   -9000010    2    1    2    0  501 -0.45639957598E+03  0.65327265831E+03  0.94602356761E+02  0.12713690035E+04  0.98608508661E+03 0.  0.
        -13    1    3    3    0    0  0.57265291015E+03 -0.80609780760E+03 -0.87576332761E+03  0.13208657949E+04  0.10566000000E+00 0.  1.
          4    1    3    3  502    0 -0.11625333418E+03  0.15282514929E+03 -0.59081510227E+03  0.62123493868E+03  0.00000000000E+00 0.  1.
         13    1    4    4    0    0  0.23995703010E+03  0.55584486116E+02  0.23804607840E+03  0.34254190692E+03  0.10566000000E+00 0. -1.
         -4    1    4    4    0  501 -0.69635660607E+03  0.59768817220E+03 -0.14344372164E+03  0.92882709655E+03  0.00000000000E+00 0. -1.
<mgrwt>
<rscale>  2 0.12704929E+04</rscale>
<asrwt>0</asrwt>
<pdfrwt beam="2">  1        2 0.35272659E+00 0.12704929E+04</pdfrwt>
<pdfrwt beam="1">  1       -2 0.14165336E+00 0.12704929E+04</pdfrwt>
<totfact> 0.22860022E+00</totfact>
</mgrwt>
</event>
<event>
 8    1  0.1408247E-005  0.1025042E+04  0.7818608E-02  0.8751412E-01
          1   -1    0    0  502    0  0.00000000000E+00  0.00000000000E+00  0.65241876224E+03  0.65241876224E+03  0.00000000000E+00 0. -1.
         -1   -1    0    0    0  501 -0.00000000000E+00 -0.00000000000E+00 -0.23563154117E+04  0.23563154117E+04  0.00000000000E+00 0.  1.
    9000010    2    1    2  502    0 -0.29232489139E+03  0.81798334163E+02 -0.16210669367E+00  0.10153518703E+04  0.96891412658E+03 0.  0.
   -9000010    2    1    2    0  501  0.29232489139E+03 -0.81798334163E+02 -0.17037345427E+04  0.19933823036E+04  0.98930117078E+03 0.  0.
        -13    1    3    3    0    0 -0.27541636288E+03 -0.39480334904E+03  0.16772756068E+03  0.50976112360E+03  0.10566000000E+00 0.  1.
          4    1    3    3  502    0 -0.16908528509E+02  0.47660168320E+03 -0.16788966737E+03  0.50559074673E+03  0.00000000000E+00 0.  1.
         13    1    4    4    0    0  0.31963928427E+03  0.15607673271E+03 -0.17171140758E+04  0.17535706370E+04  0.10566000000E+00 0. -1.
         -4    1    4    4    0  501 -0.27314392881E+02 -0.23787506687E+03  0.13379533098E+02  0.23981166653E+03  0.00000000000E+00 0. -1.
<mgrwt>
<rscale>  2 0.10250419E+04</rscale>
<asrwt>0</asrwt>
<pdfrwt beam="1">  1        1 0.10037212E+00 0.10250419E+04</pdfrwt>
<pdfrwt beam="2">  1       -1 0.36251006E+00 0.10250419E+04</pdfrwt>
<totfact> 0.40826025E-01</totfact>
</mgrwt>
</event>
<event>
 8    1  0.1408247E-005  0.1210093E+04  0.7818608E-02  0.8599001E-01
         -4   -1    0    0    0  501 -0.00000000000E+00  0.00000000000E+00  0.15925076346E+04  0.15925076346E+04  0.00000000000E+00 0. -1.
          4   -1    0    0  502    0  0.00000000000E+00 -0.00000000000E+00 -0.10415439663E+04  0.10415439663E+04  0.00000000000E+00 0.  1.
    9000010    2    1    2  502    0 -0.15774370490E+03 -0.65005570169E+03 -0.17262413969E+03  0.12347544030E+04  0.10234079589E+04 0.  0.
   -9000010    2    1    2    0  501  0.15774370490E+03  0.65005570169E+03  0.72358780800E+03  0.13992971980E+04  0.99347764985E+03 0.  0.
        -13    1    3    3    0    0 -0.45883062489E+03  0.29832064066E+02  0.39564468532E+02  0.46149848615E+03  0.10566000000E+00 0.  1.
          4    1    3    3  502    0  0.30108692000E+03 -0.67988776576E+03 -0.21218860822E+03  0.77325591681E+03  0.00000000000E+00 0.  1.
         13    1    4    4    0    0  0.24151768939E+03  0.30812549863E+03  0.91738965208E+03  0.99743466056E+03  0.10566000000E+00 0. -1.
         -4    1    4    4    0  501 -0.83773984488E+02  0.34193020306E+03 -0.19380184408E+03  0.40186253745E+03  0.00000000000E+00 0. -1.
<mgrwt>
<rscale>  2 0.12100931E+04</rscale>
<asrwt>0</asrwt>
<pdfrwt beam="2">  1        4 0.16023753E+00 0.12100931E+04</pdfrwt>
<pdfrwt beam="1">  1       -4 0.24500117E+00 0.12100931E+04</pdfrwt>
<totfact> 0.18842891E-01</totfact>
</mgrwt>
</event>
<event>
 8    1  0.1408247E-005  0.1403247E+04  0.7818608E-02  0.8467453E-01
          1   -1    0    0  502    0  0.00000000000E+00  0.00000000000E+00  0.20388639430E+04  0.20388639430E+04  0.00000000000E+00 0.  1.
         -1   -1    0    0    0  501 -0.00000000000E+00 -0.00000000000E+00 -0.11323876247E+04  0.11323876247E+04  0.00000000000E+00 0. -1.
    9000010    2    1    2  502    0  0.45448807955E+03 -0.88602866926E+03  0.10536368311E+04  0.17343852708E+04  0.95201653264E+03 0.  0.
   -9000010    2    1    2    0  501 -0.45448807955E+03  0.88602866926E+03 -0.14716051280E+03  0.14368662970E+04  0.10253401005E+04 0.  0.
        -13    1    3    3    0    0 -0.26883489526E+03 -0.44121495084E+03  0.51087879035E+03  0.72659478621E+03  0.10566000000E+00 0.  1.
          4    1    3    3  502    0  0.72332297481E+03 -0.44481371842E+03  0.54275804074E+03  0.10077904846E+04  0.00000000000E+00 0.  1.
         13    1    4    4    0    0  0.28766387360E+03  0.47257361128E+03 -0.19336782298E+03  0.58606095961E+03  0.10566000000E+00 0. -1.
         -4    1    4    4    0  501 -0.74215195316E+03  0.41345505798E+03  0.46207310180E+02  0.85080533734E+03  0.00000000000E+00 0. -1.
<mgrwt>
<rscale>  2 0.14032466E+04</rscale>
<asrwt>0</asrwt>
<pdfrwt beam="1">  1        1 0.31367138E+00 0.14032466E+04</pdfrwt>
<pdfrwt beam="2">  1       -1 0.17421348E+00 0.14032466E+04</pdfrwt>
<totfact> 0.75988386E-01</totfact>
</mgrwt>
</event>
<event>
 8    1  0.1408247E-005  0.1375105E+04  0.7818608E-02  0.8485214E-01
         -1   -1    0    0    0  501 -0.00000000000E+00  0.00000000000E+00  0.17008944186E+04  0.17008944186E+04  0.00000000000E+00 0. -1.
          1   -1    0    0  502    0  0.00000000000E+00 -0.00000000000E+00 -0.14077198917E+04  0.14077198917E+04  0.00000000000E+00 0.  1.
    9000010    2    1    2  502    0 -0.44416360737E+02 -0.96283171883E+03 -0.56408161229E+03  0.15052507377E+04  0.10092442649E+04 0.  0.
   -9000010    2    1    2    0  501  0.44416360737E+02  0.96283171883E+03  0.85725613916E+03  0.16033635726E+04  0.95229665854E+03 0.  0.
        -13    1    3    3    0    0 -0.14287066924E+03 -0.50366667882E+03  0.23855822330E+03  0.57532789655E+03  0.10566000000E+00 0.  1.
          4    1    3    3  502    0  0.98454308505E+02 -0.45916504002E+03 -0.80263983559E+03  0.92992284116E+03  0.00000000000E+00 0.  1.
         13    1    4    4    0    0 -0.26414903908E+03  0.92184316858E+03  0.86580471565E+03  0.12919703399E+04  0.10566000000E+00 0. -1.
         -4    1    4    4    0  501  0.30856539982E+03  0.40988550255E+02 -0.85485764931E+01  0.31139323271E+03  0.00000000000E+00 0. -1.
<mgrwt>
<rscale>  2 0.13751053E+04</rscale>
<asrwt>0</asrwt>
<pdfrwt beam="2">  1        1 0.21657229E+00 0.13751053E+04</pdfrwt>
<pdfrwt beam="1">  1       -1 0.26167606E+00 0.13751053E+04</pdfrwt>
<totfact> 0.35204230E-01</totfact>
</mgrwt>
</event>
<event>
 8    1  0.1408247E-005  0.1152287E+04  0.7818608E-02  0.8643384E-01
          2   -1    0    0  502    0  0.00000000000E+00  0.00000000000E+00  0.29916433133E+04  0.29916433133E+04  0.00000000000E+00 0.  1.
         -2   -1    0    0    0  501 -0.00000000000E+00 -0.00000000000E+00 -0.51442703953E+03  0.51442703953E+03  0.00000000000E+00 0. -1.
    9000010    2    1    2  502    0  0.27385289773E+03 -0.48709968780E+03  0.57449997972E+03  0.12730808703E+04  0.98915274871E+03 0.  0.
   -9000010    2    1    2    0  501 -0.27385289773E+03  0.48709968780E+03  0.19027162941E+04  0.22329894825E+04  0.10264751423E+04 0.  0.
        -13    1    3    3    0    0 -0.10365708776E+03  0.18718887213E+03 -0.11013586022E+03  0.24065407656E+03  0.10566000000E+00 0.  1.
          4    1    3    3  502    0  0.37750998549E+03 -0.67428855993E+03  0.68463583994E+03  0.10324267938E+04  0.00000000000E+00 0.  1.
         13    1    4    4    0    0 -0.37806643800E+03  0.40388484000E+03  0.19953434953E+04  0.20706165437E+04  0.10566000000E+00 0. -1.
         -4    1    4    4    0  501  0.10421354027E+03  0.83214847796E+02 -0.92627201201E+02  0.16237293886E+03  0.00000000000E+00 0. -1.
<mgrwt>
<rscale>  2 0.11522873E+04</rscale>
<asrwt>0</asrwt>
<pdfrwt beam="1">  1        2 0.46025281E+00 0.11522873E+04</pdfrwt>
<pdfrwt beam="2">  1       -2 0.79142623E-01 0.11522873E+04</pdfrwt>
<totfact> 0.39267190E+00</totfact>
</mgrwt>
</event>
<event>
 8    1  0.1408247E-005  0.1187225E+04  0.7818608E-02  0.8616245E-01
          2   -1    0    0  502    0  0.00000000000E+00  0.00000000000E+00  0.38792704852E+04  0.38792704852E+04  0.00000000000E+00 0. -1.
         -2   -1    0    0    0  501 -0.00000000000E+00 -0.00000000000E+00 -0.43639489751E+03  0.43639489751E+03  0.00000000000E+00 0.  1.
    9000010    2    1    2  502    0 -0.97943288230E+02  0.65519517090E+03  0.26202704965E+04  0.28823142862E+04  0.10015211279E+04 0.  0.
   -9000010    2    1    2    0  501  0.97943288230E+02 -0.65519517090E+03  0.82260509123E+03  0.14333510966E+04  0.96899052127E+03 0.  0.
        -13    1    3    3    0    0  0.20739094925E+03  0.71569489977E+03  0.10877065881E+04  0.13184596423E+04  0.10566000000E+00 0.  1.
          4    1    3    3  502    0 -0.30533423748E+03 -0.60499728870E+02  0.15325639084E+04  0.15638546439E+04  0.00000000000E+00 0.  1.
         13    1    4    4    0    0 -0.13479759907E+03 -0.83575766607E+03  0.74753368187E+03  0.11293661434E+04  0.10566000000E+00 0. -1.
         -4    1    4    4    0  501  0.23274088730E+03  0.18056249517E+03  0.75071409365E+02  0.30398495322E+03  0.00000000000E+00 0. -1.
<mgrwt>
<rscale>  2 0.11872248E+04</rscale>
<asrwt>0</asrwt>
<pdfrwt beam="1">  1        2 0.59681082E+00 0.11872248E+04</pdfrwt>
<pdfrwt beam="2">  1       -2 0.67137679E-01 0.11872248E+04</pdfrwt>
<totfact> 0.12649060E+00</totfact>
</mgrwt>
</event>
<event>
 8    1  0.1408247E-005  0.1162120E+04  0.7818608E-02  0.8635646E-01
         -1   -1    0    0    0  501 -0.00000000000E+00  0.00000000000E+00  0.13397863122E+04  0.13397863122E+04  0.00000000000E+00 0. -1.
          1   -1    0    0  502    0  0.00000000000E+00 -0.00000000000E+00 -0.10186061794E+04  0.10186061794E+04  0.00000000000E+00 0.  1.
    9000010    2    1    2  502    0  0.78405316530E+02  0.60425004816E+03  0.48277180539E+02  0.11932704573E+04  0.10248405650E+04 0.  0.
   -9000010    2    1    2    0  501 -0.78405316530E+02 -0.60425004816E+03  0.27290295231E+03  0.11651220343E+04  0.95486534086E+03 0.  0.
        -13    1    3    3    0    0 -0.45980092979E+03  0.41296897825E+03 -0.17720923449E+02  0.61828336087E+03  0.10566000000E+00 0.  1.
          4    1    3    3  502    0  0.53820624632E+03  0.19128106991E+03  0.65998103988E+02  0.57498709639E+03  0.00000000000E+00 0.  1.
         13    1    4    4    0    0 -0.47611423740E+02  0.19667190788E+03  0.30148639391E+03  0.36309880735E+03  0.10566000000E+00 0. -1.
         -4    1    4    4    0  501 -0.30793892790E+02 -0.80092195605E+03 -0.28583441600E+02  0.80202322700E+03  0.00000000000E+00 0. -1.
<mgrwt>
<rscale>  2 0.11621202E+04</rscale>
<asrwt>0</asrwt>
<pdfrwt beam="2">  1        1 0.15670864E+00 0.11621202E+04</pdfrwt>
<pdfrwt beam="1">  1       -1 0.20612097E+00 0.11621202E+04</pdfrwt>
<totfact> 0.24317375E+00</totfact>
</mgrwt>
</event>
<event>
 8    1  0.1408247E-005  0.1654301E+04  0.7818608E-02  0.8325842E-01
         -2   -1    0    0    0  501 -0.00000000000E+00  0.00000000000E+00  0.12818790479E+04  0.12818790479E+04  0.00000000000E+00 0. -1.
          2   -1    0    0  502    0  0.00000000000E+00 -0.00000000000E+00 -0.33342093114E+04  0.33342093114E+04  0.00000000000E+00 0.  1.
    9000010    2    1    2  502    0  0.10509425703E+04 -0.59441321778E+03 -0.24265691081E+04  0.29619531711E+04  0.11946219451E+04 0.  0.
   -9000010    2    1    2    0  501 -0.10509425703E+04  0.59441321778E+03  0.37423884460E+03  0.16541351882E+04  0.10669119685E+04 0.  0.
        -13    1    3    3    0    0  0.84053565972E+03 -0.95395103154E+03 -0.16780492353E+04  0.21053199313E+04  0.10566000000E+00 0.  1.
          4    1    3    3  502    0  0.21040691054E+03  0.35953781376E+03 -0.74851987289E+03  0.85663323986E+03  0.00000000000E+00 0.  1.
         13    1    4    4    0    0  0.57268225378E+02 -0.20670603740E+03 -0.54021161899E+02  0.22119071552E+03  0.10566000000E+00 0. -1.
         -4    1    4    4    0  501 -0.11082107956E+04  0.80111925518E+03  0.42826000650E+03  0.14329444727E+04  0.00000000000E+00 0. -1.
<mgrwt>
<rscale>  2 0.16543008E+04</rscale>
<asrwt>0</asrwt>
<pdfrwt beam="2">  1        2 0.51295527E+00 0.16543008E+04</pdfrwt>
<pdfrwt beam="1">  1       -2 0.19721216E+00 0.16543008E+04</pdfrwt>
<totfact> 0.17221309E-01</totfact>
</mgrwt>
</event>
<event>
 8    1  0.1408247E-005  0.1570390E+04  0.7818608E-02  0.8370103E-01
         -2   -1    0    0    0  501 -0.00000000000E+00  0.00000000000E+00  0.15820658156E+04  0.15820658156E+04  0.00000000000E+00 0. -1.
          2   -1    0    0  502    0  0.00000000000E+00 -0.00000000000E+00 -0.15859812489E+04  0.15859812489E+04  0.00000000000E+00 0.  1.
    9000010    2    1    2  502    0  0.34384734734E+03  0.11570418913E+04  0.20519458339E+03  0.15742740671E+04  0.98957419366E+03 0.  0.
   -9000010    2    1    2    0  501 -0.34384734734E+03 -0.11570418913E+04 -0.20911001671E+03  0.15937729975E+04  0.10195138213E+04 0.  0.
        -13    1    3    3    0    0  0.56729045739E+03  0.77104639612E+03  0.45846303376E+03  0.10613761692E+04  0.10566000000E+00 0.  1.
          4    1    3    3  502    0 -0.22344311005E+03  0.38599549521E+03 -0.25326845037E+03  0.51289789793E+03  0.00000000000E+00 0.  1.
         13    1    4    4    0    0 -0.57339516420E+03 -0.12091592803E+04 -0.22846874227E+03  0.13575883606E+04  0.10566000000E+00 0. -1.
         -4    1    4    4    0  501  0.22954781686E+03  0.52117388928E+02  0.19358725562E+02  0.23618463690E+03  0.00000000000E+00 0. -1.
<mgrwt>
<rscale>  2 0.15703905E+04</rscale>
<asrwt>0</asrwt>
<pdfrwt beam="2">  1        2 0.24399711E+00 0.15703905E+04</pdfrwt>
<pdfrwt beam="1">  1       -2 0.24339474E+00 0.15703905E+04</pdfrwt>
<totfact> 0.76446417E-01</totfact>
</mgrwt>
</event>
<event>
 8    1  0.1408247E-005  0.1809493E+04  0.7818608E-02  0.8250702E-01
          2   -1    0    0  502    0  0.00000000000E+00  0.00000000000E+00  0.13487111963E+04  0.13487111963E+04  0.00000000000E+00 0.  1.
         -2   -1    0    0    0  501 -0.00000000000E+00 -0.00000000000E+00 -0.34566896188E+04  0.34566896188E+04  0.00000000000E+00 0. -1.
    9000010    2    1    2  502    0  0.13483103450E+04  0.67534642884E+03 -0.23671700827E+04  0.29829536149E+04  0.10101903203E+04 0.  0.
   -9000010    2    1    2    0  501 -0.13483103450E+04 -0.67534642884E+03  0.25919166020E+03  0.18224472001E+04  0.98999994715E+03 0.  0.
        -13    1    3    3    0    0  0.76370720835E+03  0.88826187252E+03 -0.17555541992E+04  0.21105043027E+04  0.10566000000E+00 0.  1.
          4    1    3    3  502    0  0.58460313661E+03 -0.21291544368E+03 -0.61161588348E+03  0.87244931223E+03  0.00000000000E+00 0.  1.
         13    1    4    4    0    0 -0.19218122113E+03 -0.28182358344E+03 -0.32276328076E+03  0.46961079684E+03  0.10566000000E+00 0. -1.
         -4    1    4    4    0  501 -0.11561291238E+04 -0.39352284540E+03  0.58195494096E+03  0.13528364033E+04  0.00000000000E+00 0. -1.
<mgrwt>
<rscale>  2 0.18094926E+04</rscale>
<asrwt>0</asrwt>
<pdfrwt beam="1">  1        2 0.20749403E+00 0.18094926E+04</pdfrwt>
<pdfrwt beam="2">  1       -2 0.53179840E+00 0.18094926E+04</pdfrwt>
<totfact> 0.70787433E-02</totfact>
</mgrwt>
</event>
<event>
 8    1  0.1408247E-005  0.1086092E+04  0.7818608E-02  0.8697659E-01
          1   -1    0    0  502    0  0.00000000000E+00  0.00000000000E+00  0.18073254972E+04  0.18073254972E+04  0.00000000000E+00 0.  1.
         -1   -1    0    0    0  501 -0.00000000000E+00 -0.00000000000E+00 -0.65269311388E+03  0.65269311388E+03  0.00000000000E+00 0. -1.
    9000010    2    1    2  502    0 -0.36735941751E+03 -0.27883621015E+03  0.57996526314E+03  0.12277399087E+04  0.97891930370E+03 0.  0.
   -9000010    2    1    2    0  501  0.36735941751E+03  0.27883621015E+03  0.57466712015E+03  0.12322787024E+04  0.98770740995E+03 0.  0.
        -13    1    3    3    0    0 -0.60430670227E+03  0.10135218759E+03  0.45330543117E+03  0.76219727199E+03  0.10566000000E+00 0.  1.
          4    1    3    3  502    0  0.23694728476E+03 -0.38018839774E+03  0.12665983197E+03  0.46554263668E+03  0.00000000000E+00 0.  1.
         13    1    4    4    0    0 -0.77609256424E+02  0.18969655886E+03  0.72562847423E+03  0.75401901494E+03  0.10566000000E+00 0. -1.
         -4    1    4    4    0  501  0.44496867393E+03  0.89139651289E+02 -0.15096135407E+03  0.47825968745E+03  0.00000000000E+00 0. -1.
<mgrwt>
<rscale>  2 0.10860918E+04</rscale>
<asrwt>0</asrwt>
<pdfrwt beam="1">  1        1 0.27805007E+00 0.10860918E+04</pdfrwt>
<pdfrwt beam="2">  1       -1 0.10041433E+00 0.10860918E+04</pdfrwt>
<totfact> 0.53086059E+00</totfact>
</mgrwt>
</event>
<event>
 8    1  0.1408247E-005  0.1224840E+04  0.7818608E-02  0.8588089E-01
          1   -1    0    0  502    0  0.00000000000E+00  0.00000000000E+00  0.15104888457E+04  0.15104888457E+04  0.00000000000E+00 0.  1.
         -1   -1    0    0    0  501 -0.00000000000E+00 -0.00000000000E+00 -0.10119429922E+04  0.10119429922E+04  0.00000000000E+00 0. -1.
    9000010    2    1    2  502    0 -0.58310447546E+03 -0.50293290875E+03  0.42188491779E+03  0.13510994769E+04  0.10269033901E+04 0.  0.
   -9000010    2    1    2    0  501  0.58310447546E+03  0.50293290875E+03  0.76660935730E+02  0.11713323610E+04  0.87931237960E+03 0.  0.
        -13    1    3    3    0    0 -0.12189181658E+02  0.23277712863E+03 -0.13171030717E+03  0.26773379305E+03  0.10566000000E+00 0.  1.
          4    1    3    3  502    0 -0.57091529380E+03 -0.73571003739E+03  0.55359522496E+03  0.10833656838E+04  0.00000000000E+00 0.  1.
         13    1    4    4    0    0  0.36141225504E+03  0.46214316544E+03 -0.35402640449E+03  0.68522246730E+03  0.10566000000E+00 0. -1.
         -4    1    4    4    0  501  0.22169222042E+03  0.40789743317E+02  0.43068734022E+03  0.48610989373E+03  0.00000000000E+00 0. -1.
<mgrwt>
<rscale>  2 0.12248397E+04</rscale>
<asrwt>0</asrwt>
<pdfrwt beam="1">  1        1 0.23238290E+00 0.12248397E+04</pdfrwt>
<pdfrwt beam="2">  1       -1 0.15568354E+00 0.12248397E+04</pdfrwt>
<totfact> 0.28112704E+00</totfact>
</mgrwt>
</event>
<event>
 8    1  0.1408247E-005  0.1084974E+04  0.7818608E-02  0.8698610E-01
         -2   -1    0    0    0  501 -0.00000000000E+00  0.00000000000E+00  0.78832043125E+03  0.78832043125E+03  0.00000000000E+00 0.  1.
          2   -1    0    0  502    0  0.00000000000E+00 -0.00000000000E+00 -0.20408299258E+04  0.20408299258E+04  0.00000000000E+00 0. -1.
    9000010    2    1    2  502    0 -0.35199316295E+03 -0.22009906070E+03  0.10622220661E+03  0.10907489868E+04  0.10030490575E+04 0.  0.
   -9000010    2    1    2    0  501  0.35199316295E+03  0.22009906070E+03 -0.13587317012E+04  0.17384013702E+04  0.10017707847E+04 0.  0.
        -13    1    3    3    0    0 -0.59711001687E+03 -0.43142903154E+03 -0.35326200599E+02  0.73750886986E+03  0.10566000000E+00 0.  1.
          4    1    3    3  502    0  0.24511685392E+03  0.21132997084E+03  0.14154840721E+03  0.35324011697E+03  0.00000000000E+00 0.  1.
         13    1    4    4    0    0  0.39045370381E+03 -0.13539142303E+03 -0.13147159027E+04  0.13781374562E+04  0.10566000000E+00 0. -1.
         -4    1    4    4    0  501 -0.38460540858E+02  0.35549048373E+03 -0.44015798449E+02  0.36026391401E+03  0.00000000000E+00 0. -1.
<mgrwt>
<rscale>  2 0.10849738E+04</rscale>
<asrwt>0</asrwt>
<pdfrwt beam="2">  1        2 0.31397383E+00 0.10849738E+04</pdfrwt>
<pdfrwt beam="1">  1       -2 0.12128007E+00 0.10849738E+04</pdfrwt>
<totfact> 0.49538629E+00</totfact>
</mgrwt>
</event>
<event>
 8    1  0.1408247E-005  0.1204345E+04  0.7818608E-02  0.8603297E-01
         -1   -1    0    0    0  501 -0.00000000000E+00  0.00000000000E+00  0.10832653543E+04  0.10832653543E+04  0.00000000000E+00 0. -1.
          1   -1    0    0  502    0  0.00000000000E+00 -0.00000000000E+00 -0.13442964929E+04  0.13442964929E+04  0.00000000000E+00 0.  1.
    9000010    2    1    2  502    0 -0.60213733397E+03  0.10919476261E+03 -0.54629082369E+02  0.12099447369E+04  0.10423478616E+04 0.  0.
   -9000010    2    1    2    0  501  0.60213733397E+03 -0.10919476261E+03 -0.20640205625E+03  0.12176171103E+04  0.10322290218E+04 0.  0.
        -13    1    3    3    0    0 -0.14593541911E+02 -0.23141899308E+03 -0.38906956126E+03  0.45292698803E+03  0.10566000000E+00 0.  1.
          4    1    3    3  502    0 -0.58754379205E+03  0.34061375569E+03  0.33444047889E+03  0.75701774885E+03  0.00000000000E+00 0.  1.
         13    1    4    4    0    0 -0.17738577028E+02 -0.17643275054E+03 -0.49848368474E+03  0.52908332774E+03  0.10566000000E+00 0. -1.
         -4    1    4    4    0  501  0.61987591099E+03  0.67237987930E+02  0.29208162849E+03  0.68853378258E+03  0.00000000000E+00 0. -1.
<mgrwt>
<rscale>  2 0.12043454E+04</rscale>
<asrwt>0</asrwt>
<pdfrwt beam="2">  1        1 0.20681484E+00 0.12043454E+04</pdfrwt>
<pdfrwt beam="1">  1       -1 0.16665621E+00 0.12043454E+04</pdfrwt>
<totfact> 0.30134962E+00</totfact>
</mgrwt>
</event>
<event>
 8    1  0.1408247E-005  0.1222093E+04  0.7818608E-02  0.8590109E-01
         -1   -1    0    0    0  501 -0.00000000000E+00  0.00000000000E+00  0.38036393555E+03  0.38036393555E+03  0.00000000000E+00 0. -1.
          1   -1    0    0  502    0  0.00000000000E+00 -0.00000000000E+00 -0.39267210887E+04  0.39267210887E+04  0.00000000000E+00 0.  1.
    9000010    2    1    2  502    0 -0.23831194544E+03 -0.64972700775E+03 -0.17920100532E+04  0.21712076487E+04  0.10118818385E+04 0.  0.
   -9000010    2    1    2    0  501  0.23831194544E+03  0.64972700775E+03 -0.17543470999E+04  0.21358773755E+04  0.10026468213E+04 0.  0.
        -13    1    3    3    0    0 -0.35900742474E+03 -0.74051830464E+03 -0.73479049095E+03  0.11032546249E+04  0.10566000000E+00 0.  1.
          4    1    3    3  502    0  0.12069547930E+03  0.90791296898E+02 -0.10572195622E+04  0.10679530238E+04  0.00000000000E+00 0.  1.
         13    1    4    4    0    0 -0.38898622290E+03  0.21134105408E+03 -0.78049544132E+03  0.89730065632E+03  0.10566000000E+00 0. -1.
         -4    1    4    4    0  501  0.62729816834E+03  0.43838595366E+03 -0.97385165861E+03  0.12385767192E+04  0.00000000000E+00 0. -1.
<mgrwt>
<rscale>  2 0.12220931E+04</rscale>
<asrwt>0</asrwt>
<pdfrwt beam="2">  1        1 0.60411096E+00 0.12220931E+04</pdfrwt>
<pdfrwt beam="1">  1       -1 0.58517526E-01 0.12220931E+04</pdfrwt>
<totfact> 0.17915293E-01</totfact>
</mgrwt>
</event>
<event>
 8    1  0.1408247E-005  0.1164374E+04  0.7818608E-02  0.8633883E-01
         -2   -1    0    0    0  501 -0.00000000000E+00  0.00000000000E+00  0.43872754087E+03  0.43872754087E+03  0.00000000000E+00 0. -1.
          2   -1    0    0  502    0  0.00000000000E+00 -0.00000000000E+00 -0.32572264267E+04  0.32572264267E+04  0.00000000000E+00 0.  1.
    9000010    2    1    2  502    0  0.21381158127E+03 -0.51531630980E+03 -0.18206368907E+04  0.21578880444E+04  0.10151334065E+04 0.  0.
   -9000010    2    1    2    0  501 -0.21381158127E+03  0.51531630980E+03 -0.99786199517E+03  0.15380659232E+04  0.10289081257E+04 0.  0.
        -13    1    3    3    0    0 -0.14031827720E+03  0.10430194482E+03 -0.11982721432E+04  0.12109600550E+04  0.10566000000E+00 0.  1.
          4    1    3    3  502    0  0.35412985847E+03 -0.61961825463E+03 -0.62236474749E+03  0.94692798936E+03  0.00000000000E+00 0.  1.
         13    1    4    4    0    0 -0.13642312530E+03  0.30965859464E+02  0.19977142308E+03  0.24388273045E+03  0.10566000000E+00 0. -1.
         -4    1    4    4    0  501 -0.77388455976E+02  0.48435045034E+03 -0.11976334182E+04  0.12941831927E+04  0.00000000000E+00 0. -1.
<mgrwt>
<rscale>  2 0.11643741E+04</rscale>
<asrwt>0</asrwt>
<pdfrwt beam="2">  1        2 0.50111175E+00 0.11643741E+04</pdfrwt>
<pdfrwt beam="1">  1       -2 0.67496546E-01 0.11643741E+04</pdfrwt>
<totfact> 0.37303625E+00</totfact>
</mgrwt>
</event>
<event>
 8    1  0.1408247E-005  0.1074104E+04  0.7818608E-02  0.8707919E-01
         -1   -1    0    0    0  501 -0.00000000000E+00  0.00000000000E+00  0.10791864270E+04  0.10791864270E+04  0.00000000000E+00 0.  1.
          1   -1    0    0  502    0  0.00000000000E+00 -0.00000000000E+00 -0.10722981612E+04  0.10722981612E+04  0.00000000000E+00 0. -1.
    9000010    2    1    2  502    0  0.68067343287E+02 -0.37486650621E+03  0.62164659880E+02  0.10682681825E+04  0.99607951699E+03 0.  0.
   -9000010    2    1    2    0  501 -0.68067343287E+02  0.37486650621E+03 -0.55276394072E+02  0.10832164056E+04  0.10124940696E+04 0.  0.
        -13    1    3    3    0    0 -0.30520940340E+03 -0.14948944972E+03  0.39399934910E+03  0.52032237483E+03  0.10566000000E+00 0.  1.
          4    1    3    3  502    0  0.37327674668E+03 -0.22537705649E+03 -0.33183468922E+03  0.54794580770E+03  0.00000000000E+00 0.  1.
         13    1    4    4    0    0  0.46150921589E+03  0.26510418808E+03  0.41289359471E+02  0.53383125541E+03  0.10566000000E+00 0. -1.
         -4    1    4    4    0  501 -0.52957655918E+03  0.10976231814E+03 -0.96565753542E+02  0.54938515021E+03  0.00000000000E+00 0. -1.
<mgrwt>
<rscale>  2 0.10741041E+04</rscale>
<asrwt>0</asrwt>
<pdfrwt beam="2">  1        1 0.16496895E+00 0.10741041E+04</pdfrwt>
<pdfrwt beam="1">  1       -1 0.16602868E+00 0.10741041E+04</pdfrwt>
<totfact> 0.50198751E+00</totfact>
</mgrwt>
</event>
<event>
 8    1  0.1408247E-005  0.1163630E+04  0.7818608E-02  0.8634465E-01
          1   -1    0    0  502    0  0.00000000000E+00  0.00000000000E+00  0.25102171294E+04  0.25102171294E+04  0.00000000000E+00 0.  1.
         -1   -1    0    0    0  501 -0.00000000000E+00 -0.00000000000E+00 -0.55306479090E+03  0.55306479090E+03  0.00000000000E+00 0. -1.
    9000010    2    1    2  502    0 -0.58526718725E+03 -0.11834154370E+03  0.74070633987E+03  0.13822219220E+04  0.10026710120E+04 0.  0.
   -9000010    2    1    2    0  501  0.58526718725E+03  0.11834154370E+03  0.12164459986E+04  0.16810599983E+04  0.99482634103E+03 0.  0.
        -13    1    3    3    0    0 -0.24307399522E+02 -0.37533232365E+03 -0.49815738214E+02  0.37940324430E+03  0.10566000000E+00 0.  1.
          4    1    3    3  502    0 -0.56095978773E+03  0.25699077995E+03  0.79052207809E+03  0.10028186777E+04  0.00000000000E+00 0.  1.
         13    1    4    4    0    0  0.19013846806E+03 -0.43519303470E+03  0.57982463514E+03  0.74949465186E+03  0.10566000000E+00 0. -1.
         -4    1    4    4    0  501  0.39512871919E+03  0.55353457840E+03  0.63662136349E+03  0.93156534642E+03  0.00000000000E+00 0. -1.
<mgrwt>
<rscale>  2 0.11636297E+04</rscale>
<asrwt>0</asrwt>
<pdfrwt beam="1">  1        1 0.38618724E+00 0.11636297E+04</pdfrwt>
<pdfrwt beam="2">  1       -1 0.85086892E-01 0.11636297E+04</pdfrwt>
<totfact> 0.20103942E+00</totfact>
</mgrwt>
</event>
<event>
 8    1  0.1408247E-005  0.1144973E+04  0.7818608E-02  0.8649192E-01
         -2   -1    0    0    0  501 -0.00000000000E+00  0.00000000000E+00  0.38714482644E+03  0.38714482644E+03  0.00000000000E+00 0. -1.
          2   -1    0    0  502    0  0.00000000000E+00 -0.00000000000E+00 -0.33942941104E+04  0.33942941104E+04  0.00000000000E+00 0.  1.
    9000010    2    1    2  502    0  0.55282165794E+03 -0.12008858188E+03 -0.16212215112E+04  0.20053558978E+04  0.10358861112E+04 0.  0.
   -9000010    2    1    2    0  501 -0.55282165794E+03  0.12008858188E+03 -0.13859277727E+04  0.17760830390E+04  0.95584628331E+03 0.  0.
        -13    1    3    3    0    0  0.69277919627E+02 -0.20614346484E+03  0.82240789407E+02  0.23250401470E+03  0.10566000000E+00 0.  1.
          4    1    3    3  502    0  0.48354373831E+03  0.86054882956E+02 -0.17034623006E+04  0.17728518831E+04  0.00000000000E+00 0.  1.
         13    1    4    4    0    0 -0.59391282232E+03 -0.26906311490E+03 -0.11418274020E+04  0.13148753658E+04  0.10566000000E+00 0. -1.
         -4    1    4    4    0  501  0.41091164379E+02  0.38915169679E+03 -0.24410037071E+03  0.46120767327E+03  0.00000000000E+00 0. -1.
<mgrwt>
<rscale>  2 0.11449730E+04</rscale>
<asrwt>0</asrwt>
<pdfrwt beam="2">  1        2 0.52219907E+00 0.11449730E+04</pdfrwt>
<pdfrwt beam="1">  1       -2 0.59560745E-01 0.11449730E+04</pdfrwt>
<totfact> 0.38952894E+00</totfact>
</mgrwt>
</event>
<event>
 8    1  0.1408247E-005  0.1225989E+04  0.7818608E-02  0.8587245E-01
          2   -1    0    0  502    0  0.00000000000E+00  0.00000000000E+00  0.31855389858E+04  0.31855389858E+04  0.00000000000E+00 0. -1.
         -2   -1    0    0    0  501 -0.00000000000E+00 -0.00000000000E+00 -0.49438383530E+03  0.49438383530E+03  0.00000000000E+00 0.  1.
    9000010    2    1    2  502    0  0.70059026151E+03 -0.15829053559E+03  0.17322147693E+04  0.21187608989E+04  0.98625409075E+03 0.  0.
   -9000010    2    1    2    0  501 -0.70059026151E+03  0.15829053559E+03  0.95894038118E+03  0.15611619222E+04  0.10008882477E+04 0.  0.
        -13    1    3    3    0    0  0.28599106227E+03  0.35746039002E+03  0.11484828368E+04  0.12363582231E+04  0.10566000000E+00 0.  1.
          4    1    3    3  502    0  0.41459919924E+03 -0.51575092561E+03  0.58373193246E+03  0.88240267580E+03  0.00000000000E+00 0.  1.
         13    1    4    4    0    0 -0.29366749398E+03  0.35728375895E+03 -0.40106963373E+02  0.46422070301E+03  0.10566000000E+00 0. -1.
         -4    1    4    4    0  501 -0.40692276753E+03 -0.19899322336E+03  0.99904734455E+03  0.10969412192E+04  0.00000000000E+00 0. -1.
<mgrwt>
<rscale>  2 0.12259892E+04</rscale>
<asrwt>0</asrwt>
<pdfrwt beam="1">  1        2 0.49008291E+00 0.12259892E+04</pdfrwt>
<pdfrwt beam="2">  1       -2 0.76059053E-01 0.12259892E+04</pdfrwt>
<totfact> 0.32021025E+00</totfact>
</mgrwt>
</event>
<event>
 8    1  0.1408247E-005  0.1181010E+04  0.7818608E-02  0.8621001E-01
         -2   -1    0    0    0  501 -0.00000000000E+00  0.00000000000E+00  0.32532218343E+04  0.32532218343E+04  0.00000000000E+00 0.  1.
          2   -1    0    0  502    0  0.00000000000E+00 -0.00000000000E+00 -0.49332966577E+03  0.49332966577E+03  0.00000000000E+00 0. -1.
    9000010    2    1    2  502    0  0.52475950689E+03  0.35363794640E+03  0.70481608993E+03  0.13776072951E+04  0.10003018553E+04 0.  0.
   -9000010    2    1    2    0  501 -0.52475950689E+03 -0.35363794640E+03  0.20550760786E+04  0.23689442050E+04  0.99404558252E+03 0.  0.
        -13    1    3    3    0    0  0.16059812708E+03 -0.20007940375E+03 -0.14905920626E+03  0.29671903269E+03  0.10566000000E+00 0.  1.
          4    1    3    3  502    0  0.36416137981E+03  0.55371735016E+03  0.85387529619E+03  0.10808882624E+04  0.00000000000E+00 0.  1.
         13    1    4    4    0    0 -0.25753921400E+03  0.15336038920E+03  0.16249938216E+04  0.16524075729E+04  0.10566000000E+00 0. -1.
         -4    1    4    4    0  501 -0.26722029289E+03 -0.50699833561E+03  0.43008225705E+03  0.71653663205E+03  0.00000000000E+00 0. -1.
<mgrwt>
<rscale>  2 0.11810096E+04</rscale>
<asrwt>0</asrwt>
<pdfrwt beam="2">  1        2 0.75896874E-01 0.11810096E+04</pdfrwt>
<pdfrwt beam="1">  1       -2 0.50049565E+00 0.11810096E+04</pdfrwt>
<totfact> 0.23115678E-01</totfact>
</mgrwt>
</event>
<event>
 8    1  0.1408247E-005  0.1057543E+04  0.7818608E-02  0.8722326E-01
          2   -1    0    0  502    0  0.00000000000E+00  0.00000000000E+00  0.40848618715E+04  0.40848618715E+04  0.00000000000E+00 0. -1.
         -2   -1    0    0    0  501 -0.00000000000E+00 -0.00000000000E+00 -0.27381968288E+03  0.27381968288E+03  0.00000000000E+00 0.  1.
    9000010    2    1    2  502    0  0.21710137390E+03 -0.25674791934E+03  0.19339347025E+04  0.22062840233E+04  0.10072404169E+04 0.  0.
   -9000010    2    1    2    0  501 -0.21710137390E+03  0.25674791934E+03  0.18771074861E+04  0.21523975310E+04  0.99811327838E+03 0.  0.
        -13    1    3    3    0    0  0.42761245809E+03 -0.96508670404E+02  0.25604760840E+03  0.50766792957E+03  0.10566000000E+00 0.  1.
          4    1    3    3  502    0 -0.21051108419E+03 -0.16023924894E+03  0.16778870941E+04  0.16986160938E+04  0.00000000000E+00 0.  1.
         13    1    4    4    0    0  0.38369011788E+03  0.12069229868E+03  0.48499033569E+03  0.63007965718E+03  0.10566000000E+00 0. -1.
         -4    1    4    4    0  501 -0.60079149178E+03  0.13605562067E+03  0.13921171504E+04  0.15223178738E+04  0.00000000000E+00 0. -1.
<mgrwt>
<rscale>  2 0.10575428E+04</rscale>
<asrwt>0</asrwt>
<pdfrwt beam="1">  1        2 0.62844024E+00 0.10575428E+04</pdfrwt>
<pdfrwt beam="2">  1       -2 0.42126108E-01 0.10575428E+04</pdfrwt>
<totfact> 0.21249599E+00</totfact>
</mgrwt>
</event>
<event>
 8    1  0.1408247E-005  0.1337300E+04  0.7818608E-02  0.8509774E-01
          2   -1    0    0  502    0  0.00000000000E+00  0.00000000000E+00  0.19482695524E+04  0.19482695524E+04  0.00000000000E+00 0.  1.
         -2   -1    0    0    0  501 -0.00000000000E+00 -0.00000000000E+00 -0.92009624352E+03  0.92009624352E+03  0.00000000000E+00 0. -1.
    9000010    2    1    2  502    0  0.81123247464E+03 -0.50246035161E+03  0.58050351106E+03  0.15014176617E+04  0.10033474650E+04 0.  0.
   -9000010    2    1    2    0  501 -0.81123247464E+03  0.50246035161E+03  0.44766979780E+03  0.13669481342E+04  0.87038751194E+03 0.  0.
        -13    1    3    3    0    0  0.59601813601E+02  0.20364858740E+03  0.40233380363E+03  0.45486000488E+03  0.10566000000E+00 0.  1.
          4    1    3    3  502    0  0.75163066104E+03 -0.70610893901E+03  0.17816970743E+03  0.10465576568E+04  0.00000000000E+00 0.  1.
         13    1    4    4    0    0 -0.64814421353E+03  0.73994300128E+03  0.44299748150E+03  0.10788203495E+04  0.10566000000E+00 0. -1.
         -4    1    4    4    0  501 -0.16308826111E+03 -0.23748264966E+03  0.46723162988E+01  0.28812778475E+03  0.00000000000E+00 0. -1.
<mgrwt>
<rscale>  2 0.13373002E+04</rscale>
<asrwt>0</asrwt>
<pdfrwt beam="1">  1        2 0.29973378E+00 0.13373002E+04</pdfrwt>
<pdfrwt beam="2">  1       -2 0.14155327E+00 0.13373002E+04</pdfrwt>
<totfact> 0.35129933E+00</totfact>
</mgrwt>
</event>
<event>
 8    1  0.1408247E-005  0.1327173E+04  0.7818608E-02  0.8516495E-01
          1   -1    0    0  502    0  0.00000000000E+00  0.00000000000E+00  0.14641412736E+04  0.14641412736E+04  0.00000000000E+00 0.  1.
         -1   -1    0    0    0  501 -0.00000000000E+00 -0.00000000000E+00 -0.12308304053E+04  0.12308304053E+04  0.00000000000E+00 0. -1.
    9000010    2    1    2  502    0  0.80278070144E+03  0.32088476523E+03 -0.84448807166E+02  0.13422491089E+04  0.10232678936E+04 0.  0.
   -9000010    2    1    2    0  501 -0.80278070144E+03 -0.32088476523E+03  0.31775967538E+03  0.13527225700E+04  0.99068827233E+03 0.  0.
        -13    1    3    3    0    0 -0.62792611476E+02  0.14587578048E+03 -0.37932469066E+03  0.41122972593E+03  0.10566000000E+00 0.  1.
          4    1    3    3  502    0  0.86557331292E+03  0.17500898476E+03  0.29487588349E+03  0.93101938296E+03  0.00000000000E+00 0.  1.
         13    1    4    4    0    0  0.15151983595E+03  0.16721039368E+03  0.14177606445E+03  0.26649210130E+03  0.10566000000E+00 0. -1.
         -4    1    4    4    0  501 -0.95430053739E+03 -0.48809515891E+03  0.17598361093E+03  0.10862304687E+04  0.00000000000E+00 0. -1.
<mgrwt>
<rscale>  2 0.13271732E+04</rscale>
<asrwt>0</asrwt>
<pdfrwt beam="1">  1        1 0.22525250E+00 0.13271732E+04</pdfrwt>
<pdfrwt beam="2">  1       -1 0.18935852E+00 0.13271732E+04</pdfrwt>
<totfact> 0.15291807E+00</totfact>
</mgrwt>
</event>
<event>
 8    1  0.1408247E-005  0.2473419E+04  0.7818608E-02  0.7998994E-01
         -2   -1    0    0    0  501 -0.00000000000E+00  0.00000000000E+00  0.44921376336E+04  0.44921376336E+04  0.00000000000E+00 0. -1.
          2   -1    0    0  502    0  0.00000000000E+00 -0.00000000000E+00 -0.13619086007E+04  0.13619086007E+04  0.00000000000E+00 0.  1.
    9000010    2    1    2  502    0  0.22425180978E+03  0.22517022309E+04  0.15761208924E+04  0.29337000303E+04  0.10009930016E+04 0.  0.
   -9000010    2    1    2    0  501 -0.22425180978E+03 -0.22517022309E+04  0.15541081405E+04  0.29203462041E+04  0.99635236169E+03 0.  0.
        -13    1    3    3    0    0  0.35874318666E+03  0.18336053915E+04  0.16447456246E+04  0.24891752824E+04  0.10566000000E+00 0.  1.
          4    1    3    3  502    0 -0.13449137688E+03  0.41809683937E+03 -0.68624732230E+02  0.44452474782E+03  0.00000000000E+00 0.  1.
         13    1    4    4    0    0  0.16170002632E+03 -0.41046955971E+03  0.75914519430E+03  0.87802824280E+03  0.10566000000E+00 0. -1.
         -4    1    4    4    0  501 -0.38595183610E+03 -0.18412326712E+04  0.79496294618E+03  0.20423179613E+04  0.00000000000E+00 0. -1.
<mgrwt>
<rscale>  2 0.24734192E+04</rscale>
<asrwt>0</asrwt>
<pdfrwt beam="2">  1        2 0.20952440E+00 0.24734192E+04</pdfrwt>
<pdfrwt beam="1">  1       -2 0.69109809E+00 0.24734192E+04</pdfrwt>
<totfact> 0.28504847E-02</totfact>
</mgrwt>
</event>
<event>
 8    1  0.1408247E-005  0.1360775E+04  0.7818608E-02  0.8494427E-01
          2   -1    0    0  502    0  0.00000000000E+00  0.00000000000E+00  0.33727784608E+04  0.33727784608E+04  0.00000000000E+00 0. -1.
         -2   -1    0    0    0  501 -0.00000000000E+00 -0.00000000000E+00 -0.64237112003E+03  0.64237112003E+03  0.00000000000E+00 0.  1.
    9000010    2    1    2  502    0 -0.11336613240E+03 -0.91447376625E+03  0.21277998343E+04  0.25240108353E+04  0.99698766921E+03 0.  0.
   -9000010    2    1    2    0  501  0.11336613240E+03  0.91447376625E+03  0.60260750647E+03  0.14911387456E+04  0.10056066838E+04 0.  0.
        -13    1    3    3    0    0 -0.37422926095E+03 -0.48799156029E+03  0.18554429117E+04  0.19546999034E+04  0.10566000000E+00 0.  1.
          4    1    3    3  502    0  0.26086312856E+03 -0.42648220596E+03  0.27235692261E+03  0.56931093186E+03  0.00000000000E+00 0.  1.
         13    1    4    4    0    0  0.46674471202E+03  0.23761050505E+03  0.87316672343E+01  0.52381831916E+03  0.10566000000E+00 0. -1.
         -4    1    4    4    0  501 -0.35337857962E+03  0.67686326121E+03  0.59387583924E+03  0.96732042640E+03  0.00000000000E+00 0. -1.
<mgrwt>
<rscale>  2 0.13607750E+04</rscale>
<asrwt>0</asrwt>
<pdfrwt beam="1">  1        2 0.51888898E+00 0.13607750E+04</pdfrwt>
<pdfrwt beam="2">  1       -2 0.98826328E-01 0.13607750E+04</pdfrwt>
<totfact> 0.13004294E+00</totfact>
</mgrwt>
</event>
<event>
 8    1  0.1408247E-005  0.1171715E+04  0.7818608E-02  0.8628171E-01
          1   -1    0    0  502    0  0.00000000000E+00  0.00000000000E+00  0.21826678495E+04  0.21826678495E+04  0.00000000000E+00 0. -1.
         -1   -1    0    0    0  501 -0.00000000000E+00 -0.00000000000E+00 -0.10476719851E+04  0.10476719851E+04  0.00000000000E+00 0.  1.
    9000010    2    1    2  502    0  0.56333594048E+03  0.20971792044E+03 -0.45522143666E+03  0.12515475399E+04  0.99890725305E+03 0.  0.
   -9000010    2    1    2    0  501 -0.56333594048E+03 -0.20971792044E+03  0.15902173010E+04  0.19787922947E+04  0.10126691923E+04 0.  0.
        -13    1    3    3    0    0  0.32946471493E+03 -0.45744688165E+02 -0.73470905259E+03  0.80649673155E+03  0.10566000000E+00 0.  1.
          4    1    3    3  502    0  0.23387122555E+03  0.25546260860E+03  0.27948761593E+03  0.44505080833E+03  0.00000000000E+00 0.  1.
         13    1    4    4    0    0  0.19641018749E+03 -0.31755086162E+03  0.30588978954E+03  0.48268425080E+03  0.10566000000E+00 0. -1.
         -4    1    4    4    0  501 -0.75974612797E+03  0.10783294118E+03  0.12843275115E+04  0.14961080439E+04  0.00000000000E+00 0. -1.
<mgrwt>
<rscale>  2 0.11717152E+04</rscale>
<asrwt>0</asrwt>
<pdfrwt beam="1">  1        1 0.33579505E+00 0.11717152E+04</pdfrwt>
<pdfrwt beam="2">  1       -1 0.16118031E+00 0.11717152E+04</pdfrwt>
<totfact> 0.78728942E-01</totfact>
</mgrwt>
</event>
<event>
 8    1  0.1408247E-005  0.1112907E+04  0.7818608E-02  0.8675199E-01
         -2   -1    0    0    0  501 -0.00000000000E+00  0.00000000000E+00  0.61929917743E+03  0.61929917743E+03  0.00000000000E+00 0.  1.
          2   -1    0    0  502    0  0.00000000000E+00 -0.00000000000E+00 -0.20815521353E+04  0.20815521353E+04  0.00000000000E+00 0. -1.
    9000010    2    1    2  502    0  0.21706355821E+03 -0.41364780707E+03 -0.99431957151E+03  0.14875891152E+04  0.10030099047E+04 0.  0.
   -9000010    2    1    2    0  501 -0.21706355821E+03  0.41364780707E+03 -0.46793338637E+03  0.12132621975E+04  0.10172622126E+04 0.  0.
        -13    1    3    3    0    0  0.58569857378E+03 -0.30738931991E+03 -0.37865455812E+03  0.76217471677E+03  0.10566000000E+00 0.  1.
          4    1    3    3  502    0 -0.36863501557E+03 -0.10625848717E+03 -0.61566501338E+03  0.72541439847E+03  0.00000000000E+00 0.  1.
         13    1    4    4    0    0  0.35538289336E+03 -0.46709398028E+02 -0.33926346249E+02  0.36004135442E+03  0.10566000000E+00 0. -1.
         -4    1    4    4    0  501 -0.57244645157E+03  0.46035720510E+03 -0.43400704012E+03  0.85322084309E+03  0.00000000000E+00 0. -1.
<mgrwt>
<rscale>  2 0.11129075E+04</rscale>
<asrwt>0</asrwt>
<pdfrwt beam="2">  1        2 0.32023880E+00 0.11129075E+04</pdfrwt>
<pdfrwt beam="1">  1       -2 0.95276794E-01 0.11129075E+04</pdfrwt>
<totfact> 0.85534648E+00</totfact>
</mgrwt>
</event>
<event>
 8    1  0.1408247E-005  0.1408287E+04  0.7818608E-02  0.8464317E-01
         -2   -1    0    0    0  501 -0.00000000000E+00  0.00000000000E+00  0.33075974952E+04  0.33075974952E+04  0.00000000000E+00 0. -1.
          2   -1    0    0  502    0  0.00000000000E+00 -0.00000000000E+00 -0.67552484528E+03  0.67552484528E+03  0.00000000000E+00 0.  1.
    9000010    2    1    2  502    0  0.75488488614E+03 -0.65709802048E+03  0.19638208568E+04  0.24033714664E+04  0.95810910034E+03 0.  0.
   -9000010    2    1    2    0  501 -0.75488488614E+03  0.65709802048E+03  0.66825179313E+03  0.15797508741E+04  0.10234370353E+04 0.  0.
        -13    1    3    3    0    0  0.92417595106E+03 -0.62856272312E+03  0.12844586128E+04  0.17026527023E+04  0.10566000000E+00 0.  1.
          4    1    3    3  502    0 -0.16929106491E+03 -0.28535297360E+02  0.67936224400E+03  0.70071876414E+03  0.00000000000E+00 0.  1.
         13    1    4    4    0    0  0.17773669866E+03  0.23790407585E+03  0.44203493420E+03  0.53252565907E+03  0.10566000000E+00 0. -1.
         -4    1    4    4    0  501 -0.93262158480E+03  0.41919394463E+03  0.22621685893E+03  0.10472252150E+04  0.00000000000E+00 0. -1.
<mgrwt>
<rscale>  2 0.14082867E+04</rscale>
<asrwt>0</asrwt>
<pdfrwt beam="2">  1        2 0.10392690E+00 0.14082867E+04</pdfrwt>
<pdfrwt beam="1">  1       -2 0.50886114E+00 0.14082867E+04</pdfrwt>
<totfact> 0.16759207E-01</totfact>
</mgrwt>
</event>
<event>
 8    1  0.1408247E-005  0.1266054E+04  0.7818608E-02  0.8558416E-01
         -2   -1    0    0    0  501 -0.00000000000E+00  0.00000000000E+00  0.79725804397E+03  0.79725804397E+03  0.00000000000E+00 0.  1.
          2   -1    0    0  502    0  0.00000000000E+00 -0.00000000000E+00 -0.28267121476E+04  0.28267121476E+04  0.00000000000E+00 0. -1.
    9000010    2    1    2  502    0  0.67830848049E+03 -0.34496980316E+03 -0.47795057949E+02  0.12786001466E+04  0.10263661177E+04 0.  0.
   -9000010    2    1    2    0  501 -0.67830848049E+03  0.34496980316E+03 -0.19816590457E+04  0.23453700449E+04  0.99733721204E+03 0.  0.
        -13    1    3    3    0    0 -0.17357425676E+02  0.32072575202E+02 -0.40769627649E+03  0.40932407129E+03  0.10566000000E+00 0.  1.
          4    1    3    3  502    0  0.69566590616E+03 -0.37704237836E+03  0.35990121854E+03  0.86927607536E+03  0.00000000000E+00 0.  1.
         13    1    4    4    0    0 -0.49950617412E+03  0.13371229468E+03 -0.21974054975E+03  0.56184634563E+03  0.10566000000E+00 0. -1.
         -4    1    4    4    0  501 -0.17880230637E+03  0.21125750848E+03 -0.17619184959E+04  0.17835236993E+04  0.00000000000E+00 0. -1.
<mgrwt>
<rscale>  2 0.12660537E+04</rscale>
<asrwt>0</asrwt>
<pdfrwt beam="2">  1        2 0.43487879E+00 0.12660537E+04</pdfrwt>
<pdfrwt beam="1">  1       -2 0.12265508E+00 0.12660537E+04</pdfrwt>
<totfact> 0.17018439E+00</totfact>
</mgrwt>
</event>
<event>
 8    1  0.1408247E-005  0.1225869E+04  0.7818608E-02  0.8587333E-01
         -1   -1    0    0    0  501 -0.00000000000E+00  0.00000000000E+00  0.32793087654E+04  0.32793087654E+04  0.00000000000E+00 0.  1.
          1   -1    0    0  502    0  0.00000000000E+00 -0.00000000000E+00 -0.49516152476E+03  0.49516152476E+03  0.00000000000E+00 0. -1.
    9000010    2    1    2  502    0  0.69408205514E+03  0.24845313334E+03  0.19248463795E+04  0.22914804406E+04  0.10011843817E+04 0.  0.
   -9000010    2    1    2    0  501 -0.69408205514E+03 -0.24845313334E+03  0.85930086117E+03  0.14829898496E+04  0.95780063961E+03 0.  0.
        -13    1    3    3    0    0  0.66988528674E+03  0.25043105163E+03  0.51469546977E+03  0.88112056313E+03  0.10566000000E+00 0.  1.
          4    1    3    3  502    0  0.24196768406E+02 -0.19779182862E+01  0.14101509097E+04  0.14103598775E+04  0.00000000000E+00 0.  1.
         13    1    4    4    0    0 -0.72338449525E+03 -0.43387054082E+03  0.30369030286E+03  0.89652472658E+03  0.10566000000E+00 0. -1.
         -4    1    4    4    0  501  0.29302440104E+02  0.18541740748E+03  0.55561055832E+03  0.58646512301E+03  0.00000000000E+00 0. -1.
<mgrwt>
<rscale>  2 0.12258688E+04</rscale>
<asrwt>0</asrwt>
<pdfrwt beam="2">  1        1 0.76178698E-01 0.12258688E+04</pdfrwt>
<pdfrwt beam="1">  1       -1 0.50450903E+00 0.12258688E+04</pdfrwt>
<totfact> 0.56654731E-01</totfact>
</mgrwt>
</event>
<event>
 8    1  0.1408247E-005  0.1179516E+04  0.7818608E-02  0.8622149E-01
          1   -1    0    0  502    0  0.00000000000E+00  0.00000000000E+00  0.16261245949E+04  0.16261245949E+04  0.00000000000E+00 0.  1.
         -1   -1    0    0    0  501 -0.00000000000E+00 -0.00000000000E+00 -0.87962603671E+03  0.87962603671E+03  0.00000000000E+00 0. -1.
    9000010    2    1    2  502    0 -0.16961408593E+02  0.54954285337E+03  0.15964932165E+03  0.11633659681E+04  0.10127425304E+04 0.  0.
   -9000010    2    1    2    0  501  0.16961408593E+02 -0.54954285337E+03  0.58684923658E+03  0.13423846635E+04  0.10748579075E+04 0.  0.
        -13    1    3    3    0    0 -0.44791780125E+03  0.49217660601E+03  0.26453820047E+03  0.71613451171E+03  0.10566000000E+00 0.  1.
          4    1    3    3  502    0  0.43095639266E+03  0.57366247362E+02 -0.10488887881E+03  0.44723145642E+03  0.00000000000E+00 0.  1.
         13    1    4    4    0    0 -0.98849768177E+02 -0.56484576163E+03  0.86664579178E+03  0.10391809037E+04  0.10566000000E+00 0. -1.
         -4    1    4    4    0  501  0.11581117677E+03  0.15302908252E+02 -0.27979655519E+03  0.30320375981E+03  0.00000000000E+00 0. -1.
<mgrwt>
<rscale>  2 0.11795162E+04</rscale>
<asrwt>0</asrwt>
<pdfrwt beam="1">  1        1 0.25017301E+00 0.11795162E+04</pdfrwt>
<pdfrwt beam="2">  1       -1 0.13532708E+00 0.11795162E+04</pdfrwt>
<totfact> 0.34825283E+00</totfact>
</mgrwt>
</event>
<event>
 8    1  0.1408247E-005  0.1025300E+04  0.7818608E-02  0.8751177E-01
          1   -1    0    0  502    0  0.00000000000E+00  0.00000000000E+00  0.92521946229E+03  0.92521946229E+03  0.00000000000E+00 0.  1.
         -1   -1    0    0    0  501 -0.00000000000E+00 -0.00000000000E+00 -0.15188831977E+04  0.15188831977E+04  0.00000000000E+00 0. -1.
    9000010    2    1    2  502    0 -0.16729353395E+02  0.24925665283E+03  0.31415912912E+03  0.10825087261E+04  0.10053459272E+04 0.  0.
   -9000010    2    1    2    0  501  0.16729353395E+02 -0.24925665283E+03 -0.90782286458E+03  0.13615939339E+04  0.98355830394E+03 0.  0.
        -13    1    3    3    0    0  0.19686911789E+03 -0.28931535071E+03 -0.10732958673E+03  0.36603343165E+03  0.10566000000E+00 0.  1.
          4    1    3    3  502    0 -0.21359847129E+03  0.53857200354E+03  0.42148871586E+03  0.71647529443E+03  0.00000000000E+00 0.  1.
         13    1    4    4    0    0  0.34107626032E+03 -0.26601399718E+03 -0.94047601962E+03  0.10351770944E+04  0.10566000000E+00 0. -1.
         -4    1    4    4    0  501 -0.32434690693E+03  0.16757344353E+02  0.32653155044E+02  0.32641683958E+03  0.00000000000E+00 0. -1.
<mgrwt>
<rscale>  2 0.10252996E+04</rscale>
<asrwt>0</asrwt>
<pdfrwt beam="1">  1        1 0.14234146E+00 0.10252996E+04</pdfrwt>
<pdfrwt beam="2">  1       -1 0.23367433E+00 0.10252996E+04</pdfrwt>
<totfact> 0.16455519E+00</totfact>
</mgrwt>
</event>
<event>
 8    1  0.1408247E-005  0.1092806E+04  0.7818608E-02  0.8691972E-01
         -1   -1    0    0    0  501 -0.00000000000E+00  0.00000000000E+00  0.32806429124E+03  0.32806429124E+03  0.00000000000E+00 0. -1.
          1   -1    0    0  502    0  0.00000000000E+00 -0.00000000000E+00 -0.36441278653E+04  0.36441278653E+04  0.00000000000E+00 0.  1.
    9000010    2    1    2  502    0  0.40163164316E+03  0.18804016512E+03 -0.17171289755E+04  0.20333882229E+04  0.99472039586E+03 0.  0.
   -9000010    2    1    2    0  501 -0.40163164316E+03 -0.18804016512E+03 -0.15989345986E+04  0.19388039337E+04  0.10028468289E+04 0.  0.
        -13    1    3    3    0    0  0.36489125068E+03 -0.20594508920E+03 -0.15468814847E+04  0.16026232693E+04  0.10566000000E+00 0.  1.
          4    1    3    3  502    0  0.36740392485E+02  0.39398525433E+03 -0.17024749080E+03  0.43076495353E+03  0.00000000000E+00 0.  1.
         13    1    4    4    0    0 -0.55884898941E+03  0.14216872592E+02 -0.15867428739E+04  0.16823398204E+04  0.10566000000E+00 0. -1.
         -4    1    4    4    0  501  0.15721734625E+03 -0.20225703772E+03 -0.12191724784E+02  0.25646411332E+03  0.00000000000E+00 0. -1.
<mgrwt>
<rscale>  2 0.10928059E+04</rscale>
<asrwt>0</asrwt>
<pdfrwt beam="2">  1        1 0.56063502E+00 0.10928059E+04</pdfrwt>
<pdfrwt beam="1">  1       -1 0.50471432E-01 0.10928059E+04</pdfrwt>
<totfact> 0.34296861E-01</totfact>
</mgrwt>
</event>
<event>
 8    1  0.1408247E-005  0.1106992E+04  0.7818608E-02  0.8680097E-01
          1   -1    0    0  502    0  0.00000000000E+00  0.00000000000E+00  0.15753733174E+04  0.15753733174E+04  0.00000000000E+00 0.  1.
         -1   -1    0    0    0  501 -0.00000000000E+00 -0.00000000000E+00 -0.78098861145E+03  0.78098861145E+03  0.00000000000E+00 0. -1.
    9000010    2    1    2  502    0 -0.45514363709E+03  0.23447516749E+03  0.31986498714E+03  0.11425809898E+04  0.97007390120E+03 0.  0.
   -9000010    2    1    2    0  501  0.45514363709E+03 -0.23447516749E+03  0.47451971882E+03  0.12137809390E+04  0.99295562329E+03 0.  0.
        -13    1    3    3    0    0 -0.47444316741E+03  0.51901495494E+02 -0.25358553938E+03  0.54045880628E+03  0.10566000000E+00 0.  1.
          4    1    3    3  502    0  0.19299530315E+02  0.18257367200E+03  0.57345052652E+03  0.60212218357E+03  0.00000000000E+00 0.  1.
         13    1    4    4    0    0  0.18180512647E+02 -0.13818144563E+03 -0.29350856842E+03  0.32491834953E+03  0.10566000000E+00 0. -1.
         -4    1    4    4    0  501  0.43696312444E+03 -0.96293721861E+02  0.76802828725E+03  0.88886258950E+03  0.00000000000E+00 0. -1.
<mgrwt>
<rscale>  2 0.11069917E+04</rscale>
<asrwt>0</asrwt>
<pdfrwt beam="1">  1        1 0.24236513E+00 0.11069917E+04</pdfrwt>
<pdfrwt beam="2">  1       -1 0.12015209E+00 0.11069917E+04</pdfrwt>
<totfact> 0.52141186E+00</totfact>
</mgrwt>
</event>
<event>
 8    1  0.1408247E-005  0.1605006E+04  0.7818608E-02  0.8351505E-01
          1   -1    0    0  502    0  0.00000000000E+00  0.00000000000E+00  0.77742863038E+03  0.77742863038E+03  0.00000000000E+00 0.  1.
         -1   -1    0    0    0  501 -0.00000000000E+00 -0.00000000000E+00 -0.38462809663E+04  0.38462809663E+04  0.00000000000E+00 0. -1.
    9000010    2    1    2  502    0 -0.11726258105E+04 -0.46390009290E+03 -0.67171453781E+03  0.17372905606E+04  0.98829321775E+03 0.  0.
   -9000010    2    1    2    0  501  0.11726258105E+04  0.46390009290E+03 -0.23971377981E+04  0.28864190360E+04  0.99744204888E+03 0.  0.
        -13    1    3    3    0    0 -0.12272923725E+04 -0.39479126549E+03 -0.84598415328E+03  0.15420103468E+04  0.10566000000E+00 0.  1.
          4    1    3    3  502    0  0.54666562064E+02 -0.69108827403E+02  0.17426961547E+03  0.19528021382E+03  0.00000000000E+00 0.  1.
         13    1    4    4    0    0  0.76993062487E+03 -0.15626425237E+03 -0.77432397671E+03  0.11030817358E+04  0.10566000000E+00 0. -1.
         -4    1    4    4    0  501  0.40269518559E+03  0.62016434526E+03 -0.16228138214E+04  0.17833373003E+04  0.00000000000E+00 0. -1.
<mgrwt>
<rscale>  2 0.16050064E+04</rscale>
<asrwt>0</asrwt>
<pdfrwt beam="1">  1        1 0.11960441E+00 0.16050064E+04</pdfrwt>
<pdfrwt beam="2">  1       -1 0.59173553E+00 0.16050064E+04</pdfrwt>
<totfact> 0.85087660E-02</totfact>
</mgrwt>
</event>
<event>
 8    1  0.1408247E-005  0.1468970E+04  0.7818608E-02  0.8427584E-01
          2   -1    0    0  502    0  0.00000000000E+00  0.00000000000E+00  0.23275784607E+04  0.23275784607E+04  0.00000000000E+00 0. -1.
         -2   -1    0    0    0  501 -0.00000000000E+00 -0.00000000000E+00 -0.95084801920E+03  0.95084801920E+03  0.00000000000E+00 0.  1.
    9000010    2    1    2  502    0 -0.43657924165E+03  0.98758829312E+03  0.43248310291E+03  0.15378800688E+04  0.10060325048E+04 0.  0.
   -9000010    2    1    2    0  501  0.43657924165E+03 -0.98758829312E+03  0.94424733857E+03  0.17405464111E+04  0.98588371617E+03 0.  0.
        -13    1    3    3    0    0 -0.39585990938E+02 -0.18858956553E+03  0.19471111376E+03  0.27394434451E+03  0.10566000000E+00 0.  1.
          4    1    3    3  502    0 -0.39699325071E+03  0.11761778586E+04  0.23777198915E+03  0.12639357243E+04  0.00000000000E+00 0.  1.
         13    1    4    4    0    0  0.28598079613E+03 -0.11442563955E+04  0.57511931231E+03  0.13122004226E+04  0.10566000000E+00 0. -1.
         -4    1    4    4    0  501  0.15059844552E+03  0.15666810240E+03  0.36912802626E+03  0.42834598851E+03  0.00000000000E+00 0. -1.
<mgrwt>
<rscale>  2 0.14689700E+04</rscale>
<asrwt>0</asrwt>
<pdfrwt beam="1">  1        2 0.35808899E+00 0.14689700E+04</pdfrwt>
<pdfrwt beam="2">  1       -2 0.14628431E+00 0.14689700E+04</pdfrwt>
<totfact> 0.19459688E+00</totfact>
</mgrwt>
</event>
<event>
 8    1  0.1408247E-005  0.1229804E+04  0.7818608E-02  0.8584451E-01
          2   -1    0    0  502    0  0.00000000000E+00  0.00000000000E+00  0.22783546400E+04  0.22783546400E+04  0.00000000000E+00 0.  1.
         -2   -1    0    0    0  501 -0.00000000000E+00 -0.00000000000E+00 -0.71453528061E+03  0.71453528061E+03  0.00000000000E+00 0. -1.
    9000010    2    1    2  502    0 -0.63946150613E+02  0.73400322049E+03  0.11821080164E+04  0.17076925542E+04  0.98791935868E+03 0.  0.
   -9000010    2    1    2    0  501  0.63946150613E+02 -0.73400322049E+03  0.38171134295E+03  0.12851973664E+04  0.98141677355E+03 0.  0.
        -13    1    3    3    0    0 -0.21583270235E+03  0.42629159786E+03  0.12670749754E+04  0.13541740237E+04  0.10566000000E+00 0.  1.
          4    1    3    3  502    0  0.15188655173E+03  0.30771162262E+03 -0.84966959020E+02  0.35351853052E+03  0.00000000000E+00 0.  1.
         13    1    4    4    0    0 -0.35046797313E+02 -0.23988212996E+03  0.66449560347E+03  0.70733735408E+03  0.10566000000E+00 0. -1.
         -4    1    4    4    0  501  0.98992947926E+02 -0.49412109052E+03 -0.28278426052E+03  0.57786001232E+03  0.00000000000E+00 0. -1.
<mgrwt>
<rscale>  2 0.12298041E+04</rscale>
<asrwt>0</asrwt>
<pdfrwt beam="1">  1        2 0.35051610E+00 0.12298041E+04</pdfrwt>
<pdfrwt beam="2">  1       -2 0.10992851E+00 0.12298041E+04</pdfrwt>
<totfact> 0.46529683E+00</totfact>
</mgrwt>
</event>
<event>
 8    1  0.1408247E-005  0.1156814E+04  0.7818608E-02  0.8639811E-01
         -2   -1    0    0    0  501 -0.00000000000E+00  0.00000000000E+00  0.33786086274E+03  0.33786086274E+03  0.00000000000E+00 0.  1.
          2   -1    0    0  502    0  0.00000000000E+00 -0.00000000000E+00 -0.39631323464E+04  0.39631323464E+04  0.00000000000E+00 0. -1.
    9000010    2    1    2  502    0 -0.30176682174E+03  0.51061288660E+03 -0.18472732465E+04  0.21748575622E+04  0.98275034161E+03 0.  0.
   -9000010    2    1    2    0  501  0.30176682174E+03 -0.51061288660E+03 -0.17779982372E+04  0.21261356470E+04  0.10036863670E+04 0.  0.
        -13    1    3    3    0    0  0.19035028510E+03 -0.18178771886E+03 -0.69604738286E+03  0.74415185017E+03  0.10566000000E+00 0.  1.
          4    1    3    3  502    0 -0.49211710685E+03  0.69240060546E+03 -0.11512258636E+04  0.14307057120E+04  0.00000000000E+00 0.  1.
         13    1    4    4    0    0  0.15392517149E+03  0.29683655189E+03 -0.39146417183E+03  0.51482920075E+03  0.10566000000E+00 0. -1.
         -4    1    4    4    0  501  0.14784165025E+03 -0.80744943848E+03 -0.13865340654E+04  0.16113064463E+04  0.00000000000E+00 0. -1.
<mgrwt>
<rscale>  2 0.11568144E+04</rscale>
<asrwt>0</asrwt>
<pdfrwt beam="2">  1        2 0.60971270E+00 0.11568144E+04</pdfrwt>
<pdfrwt beam="1">  1       -2 0.51978592E-01 0.11568144E+04</pdfrwt>
<totfact> 0.18047663E+00</totfact>
</mgrwt>
</event>
<event>
 8    1  0.1408247E-005  0.1439382E+04  0.7818608E-02  0.8445263E-01
         -2   -1    0    0    0  501 -0.00000000000E+00  0.00000000000E+00  0.65380537550E+03  0.65380537550E+03  0.00000000000E+00 0.  1.
          2   -1    0    0  502    0  0.00000000000E+00 -0.00000000000E+00 -0.33672550648E+04  0.33672550648E+04  0.00000000000E+00 0. -1.
    9000010    2    1    2  502    0  0.84539809006E+03  0.59066394054E+03 -0.86918465873E+03  0.16819167091E+04  0.10048781140E+04 0.  0.
   -9000010    2    1    2    0  501 -0.84539809006E+03 -0.59066394054E+03 -0.18442650305E+04  0.23391437311E+04  0.10033434461E+04 0.  0.
        -13    1    3    3    0    0  0.91378197743E+03  0.21745064436E+03 -0.90046974361E+03  0.13012025420E+04  0.10566000000E+00 0.  1.
          4    1    3    3  502    0 -0.68383887364E+02  0.37321329617E+03  0.31285084882E+02  0.38071416710E+03  0.00000000000E+00 0.  1.
         13    1    4    4    0    0 -0.28306721913E+03 -0.40925494113E+03 -0.16402113380E+04  0.17140332266E+04  0.10566000000E+00 0. -1.
         -4    1    4    4    0  501 -0.56233087093E+03 -0.18140899941E+03 -0.20405369253E+03  0.62511050455E+03  0.00000000000E+00 0. -1.
<mgrwt>
<rscale>  2 0.14393819E+04</rscale>
<asrwt>0</asrwt>
<pdfrwt beam="2">  1        2 0.51803924E+00 0.14393819E+04</pdfrwt>
<pdfrwt beam="1">  1       -2 0.10058544E+00 0.14393819E+04</pdfrwt>
<totfact> 0.12452464E+00</totfact>
</mgrwt>
</event>
<event>
 8    1  0.1408247E-005  0.1912203E+04  0.7818608E-02  0.8205105E-01
          2   -1    0    0  502    0  0.00000000000E+00  0.00000000000E+00  0.17812612629E+04  0.17812612629E+04  0.00000000000E+00 0. -1.
         -2   -1    0    0    0  501 -0.00000000000E+00 -0.00000000000E+00 -0.20879066412E+04  0.20879066412E+04  0.00000000000E+00 0.  1.
    9000010    2    1    2  502    0  0.13247634497E+04  0.94047135278E+03  0.97760968882E+02  0.19130571432E+04  0.10053585743E+04 0.  0.
   -9000010    2    1    2    0  501 -0.13247634497E+04 -0.94047135278E+03 -0.40440634717E+03  0.19561107610E+04  0.10116028136E+04 0.  0.
        -13    1    3    3    0    0 -0.10163368206E+03  0.35357529424E+03  0.30948409305E+02  0.36919196799E+03  0.10566000000E+00 0.  1.
          4    1    3    3  502    0  0.14263971317E+04  0.58689605855E+03  0.66812559577E+02  0.15438651752E+04  0.00000000000E+00 0.  1.
         13    1    4    4    0    0 -0.34639863466E+03 -0.25888598827E+03  0.34029713095E+03  0.55028730452E+03  0.10566000000E+00 0. -1.
         -4    1    4    4    0  501 -0.97836481502E+03 -0.68158536451E+03 -0.74470347812E+03  0.14058234565E+04  0.00000000000E+00 0. -1.
<mgrwt>
<rscale>  2 0.19122035E+04</rscale>
<asrwt>0</asrwt>
<pdfrwt beam="1">  1        2 0.27404019E+00 0.19122035E+04</pdfrwt>
<pdfrwt beam="2">  1       -2 0.32121641E+00 0.19122035E+04</pdfrwt>
<totfact> 0.15892899E-01</totfact>
</mgrwt>
</event>
<event>
 8    1  0.1408247E-005  0.1418481E+04  0.7818608E-02  0.8458015E-01
         -1   -1    0    0    0  501 -0.00000000000E+00  0.00000000000E+00  0.23419035370E+04  0.23419035370E+04  0.00000000000E+00 0. -1.
          1   -1    0    0  502    0  0.00000000000E+00 -0.00000000000E+00 -0.12244857969E+04  0.12244857969E+04  0.00000000000E+00 0.  1.
    9000010    2    1    2  502    0 -0.98871316076E+03 -0.28803789215E+02  0.15308103826E+04  0.20824139272E+04  0.10073152259E+04 0.  0.
   -9000010    2    1    2    0  501  0.98871316076E+03  0.28803789215E+02 -0.41339264254E+03  0.14839754066E+04  0.10261121567E+04 0.  0.
        -13    1    3    3    0    0 -0.56126660246E+02  0.22524405383E+03 -0.42425833557E+02  0.23597679609E+03  0.10566000000E+00 0.  1.
          4    1    3    3  502    0 -0.93258650051E+03 -0.25404784304E+03  0.15732362162E+04  0.18464371312E+04  0.00000000000E+00 0.  1.
         13    1    4    4    0    0  0.10128139440E+04  0.14318534945E+03  0.32113454791E+02  0.10233891804E+04  0.10566000000E+00 0. -1.
         -4    1    4    4    0  501 -0.24100783195E+02 -0.11438156024E+03 -0.44550609733E+03  0.46058622627E+03  0.00000000000E+00 0. -1.
<mgrwt>
<rscale>  2 0.14184808E+04</rscale>
<asrwt>0</asrwt>
<pdfrwt beam="2">  1        1 0.18838243E+00 0.14184808E+04</pdfrwt>
<pdfrwt beam="1">  1       -1 0.36029285E+00 0.14184808E+04</pdfrwt>
<totfact> 0.12904364E-01</totfact>
</mgrwt>
</event>
<event>
 8    1  0.1408247E-005  0.1244598E+04  0.7818608E-02  0.8573715E-01
         -1   -1    0    0    0  501 -0.00000000000E+00  0.00000000000E+00  0.49359977473E+03  0.49359977473E+03  0.00000000000E+00 0.  1.
          1   -1    0    0  502    0  0.00000000000E+00 -0.00000000000E+00 -0.33580089580E+04  0.33580089580E+04  0.00000000000E+00 0. -1.
    9000010    2    1    2  502    0  0.54481040456E+03  0.30353322093E+03 -0.18404032368E+04  0.21853808077E+04  0.99992720115E+03 0.  0.
   -9000010    2    1    2    0  501 -0.54481040456E+03 -0.30353322093E+03 -0.10240059465E+04  0.16662279251E+04  0.11570551096E+04 0.  0.
        -13    1    3    3    0    0  0.71489299870E+03  0.42014813449E+03 -0.17905232230E+04  0.19732130847E+04  0.10566000000E+00 0.  1.
          4    1    3    3  502    0 -0.17008259414E+03 -0.11661491356E+03 -0.49880013775E+02  0.21216772296E+03  0.00000000000E+00 0.  1.
         13    1    4    4    0    0 -0.63526004015E+03  0.25138869267E+03 -0.29140613597E+03  0.74274433062E+03  0.10566000000E+00 0. -1.
         -4    1    4    4    0  501  0.90449635594E+02 -0.55492191360E+03 -0.73259981057E+03  0.92348359445E+03  0.00000000000E+00 0. -1.
<mgrwt>
<rscale>  2 0.12445981E+04</rscale>
<asrwt>0</asrwt>
<pdfrwt beam="2">  1        1 0.51661675E+00 0.12445981E+04</pdfrwt>
<pdfrwt beam="1">  1       -1 0.75938429E-01 0.12445981E+04</pdfrwt>
<totfact> 0.31071948E-01</totfact>
</mgrwt>
</event>
<event>
 8    1  0.1408247E-005  0.1129473E+04  0.7818608E-02  0.8661652E-01
         -2   -1    0    0    0  501 -0.00000000000E+00  0.00000000000E+00  0.77095581632E+03  0.77095581632E+03  0.00000000000E+00 0.  1.
          2   -1    0    0  502    0  0.00000000000E+00 -0.00000000000E+00 -0.17167377630E+04  0.17167377630E+04  0.00000000000E+00 0. -1.
    9000010    2    1    2  502    0  0.24333552131E+03  0.42878459096E+03 -0.22944731794E+03  0.11332343083E+04  0.99423615118E+03 0.  0.
   -9000010    2    1    2    0  501 -0.24333552131E+03 -0.42878459096E+03 -0.71633462872E+03  0.13544592710E+04  0.10384393171E+04 0.  0.
        -13    1    3    3    0    0 -0.16424019844E+03  0.44379655700E+03  0.22382864490E+03  0.52347827102E+03  0.10566000000E+00 0.  1.
          4    1    3    3  502    0  0.40757571975E+03 -0.15011966040E+02 -0.45327596284E+03  0.60975603723E+03  0.00000000000E+00 0.  1.
         13    1    4    4    0    0 -0.64759509026E+03 -0.20580003226E+03 -0.34557424746E+03  0.76233498272E+03  0.10566000000E+00 0. -1.
         -4    1    4    4    0  501  0.40425956895E+03 -0.22298455870E+03 -0.37076038126E+03  0.59212428832E+03  0.00000000000E+00 0. -1.
<mgrwt>
<rscale>  2 0.11294727E+04</rscale>
<asrwt>0</asrwt>
<pdfrwt beam="2">  1        2 0.26411350E+00 0.11294727E+04</pdfrwt>
<pdfrwt beam="1">  1       -2 0.11860859E+00 0.11294727E+04</pdfrwt>
<totfact> 0.78362546E+00</totfact>
</mgrwt>
</event>
<event>
 8    1  0.1408247E-005  0.1055970E+04  0.7818608E-02  0.8723708E-01
          4   -1    0    0  502    0  0.00000000000E+00  0.00000000000E+00  0.21462723692E+04  0.21462723692E+04  0.00000000000E+00 0.  1.
         -4   -1    0    0    0  501 -0.00000000000E+00 -0.00000000000E+00 -0.65228210749E+03  0.65228210749E+03  0.00000000000E+00 0. -1.
    9000010    2    1    2  502    0  0.11503118720E+03 -0.39339380624E+03  0.13902802266E+04  0.17597414451E+04  0.99790780363E+03 0.  0.
   -9000010    2    1    2    0  501 -0.11503118720E+03  0.39339380624E+03  0.10371003515E+03  0.10388130316E+04  0.94888665410E+03 0.  0.
        -13    1    3    3    0    0 -0.21349805439E+03 -0.58900390095E+03  0.53868983574E+03  0.82625284560E+03  0.10566000000E+00 0.  1.
          4    1    3    3  502    0  0.32852924159E+03  0.19561009471E+03  0.85159039082E+03  0.93348859954E+03  0.00000000000E+00 0.  1.
         13    1    4    4    0    0 -0.41092016622E+03  0.52219661779E+03  0.21349266276E+03  0.69794256129E+03  0.10566000000E+00 0. -1.
         -4    1    4    4    0  501  0.29588897903E+03 -0.12880281155E+03 -0.10978262761E+03  0.34087047026E+03  0.00000000000E+00 0. -1.
<mgrwt>
<rscale>  2 0.10559703E+04</rscale>
<asrwt>0</asrwt>
<pdfrwt beam="1">  1        4 0.33019575E+00 0.10559703E+04</pdfrwt>
<pdfrwt beam="2">  1       -4 0.10035109E+00 0.10559703E+04</pdfrwt>
<totfact> 0.24575427E-01</totfact>
</mgrwt>
</event>
<event>
 8    1  0.1408247E-005  0.1506357E+04  0.7818608E-02  0.8405850E-01
          2   -1    0    0  502    0  0.00000000000E+00  0.00000000000E+00  0.13619257546E+04  0.13619257546E+04  0.00000000000E+00 0. -1.
         -2   -1    0    0    0  501 -0.00000000000E+00 -0.00000000000E+00 -0.25848247470E+04  0.25848247470E+04  0.00000000000E+00 0.  1.
    9000010    2    1    2  502    0  0.10806996469E+04 -0.19493449626E+03 -0.17815684155E+04  0.23183536285E+04  0.99742986873E+03 0.  0.
   -9000010    2    1    2    0  501 -0.10806996469E+04  0.19493449626E+03  0.55866942309E+03  0.16283968732E+04  0.10647317351E+04 0.  0.
        -13    1    3    3    0    0 -0.11215280974E+03 -0.25464898483E+03 -0.23441026022E+03  0.36383037183E+03  0.10566000000E+00 0.  1.
          4    1    3    3  502    0  0.11928524566E+04  0.59714488572E+02 -0.15471581553E+04  0.19545232566E+04  0.00000000000E+00 0.  1.
         13    1    4    4    0    0 -0.76138072329E+03  0.19369274312E+03  0.87705250167E+03  0.11774712678E+04  0.10566000000E+00 0. -1.
         -4    1    4    4    0  501 -0.31931892356E+03  0.12417531401E+01 -0.31838307858E+03  0.45092560542E+03  0.00000000000E+00 0. -1.
<mgrwt>
<rscale>  2 0.15063566E+04</rscale>
<asrwt>0</asrwt>
<pdfrwt beam="1">  1        2 0.20952704E+00 0.15063566E+04</pdfrwt>
<pdfrwt beam="2">  1       -2 0.39766535E+00 0.15063566E+04</pdfrwt>
<totfact> 0.85563415E-02</totfact>
</mgrwt>
</event>
<event>
 8    1  0.1408247E-005  0.2057254E+04  0.7818608E-02  0.8145471E-01
         -2   -1    0    0    0  501 -0.00000000000E+00  0.00000000000E+00  0.18378437659E+04  0.18378437659E+04  0.00000000000E+00 0. -1.
          2   -1    0    0  502    0  0.00000000000E+00 -0.00000000000E+00 -0.23242480991E+04  0.23242480991E+04  0.00000000000E+00 0.  1.
    9000010    2    1    2  502    0  0.10885879110E+03 -0.17878449550E+04 -0.44184735724E+02  0.20625427283E+04  0.10217095458E+04 0.  0.
   -9000010    2    1    2    0  501 -0.10885879110E+03  0.17878449550E+04 -0.44221959752E+03  0.20995491366E+04  0.10021519771E+04 0.  0.
        -13    1    3    3    0    0 -0.29560134336E+03 -0.14260344246E+03  0.14300911992E+03  0.35800490994E+03  0.10566000000E+00 0.  1.
          4    1    3    3  502    0  0.40446013445E+03 -0.16452415125E+04 -0.18719385564E+03  0.17045378184E+04  0.00000000000E+00 0.  1.
         13    1    4    4    0    0 -0.37628167090E+03  0.86102888373E+03  0.17297636685E+03  0.95544726130E+03  0.10566000000E+00 0. -1.
         -4    1    4    4    0  501  0.26742287981E+03  0.92681607122E+03 -0.61519596437E+03  0.11441018753E+04  0.00000000000E+00 0. -1.
<mgrwt>
<rscale>  2 0.20572538E+04</rscale>
<asrwt>0</asrwt>
<pdfrwt beam="2">  1        2 0.35757663E+00 0.20572538E+04</pdfrwt>
<pdfrwt beam="1">  1       -2 0.28274520E+00 0.20572538E+04</pdfrwt>
<totfact> 0.14357964E-01</totfact>
</mgrwt>
</event>
<event>
 8    1  0.1408247E-005  0.1427183E+04  0.7818608E-02  0.8452679E-01
         -1   -1    0    0    0  501 -0.00000000000E+00  0.00000000000E+00  0.83025468612E+03  0.83025468612E+03  0.00000000000E+00 0. -1.
          1   -1    0    0  502    0  0.00000000000E+00 -0.00000000000E+00 -0.24654759094E+04  0.24654759094E+04  0.00000000000E+00 0.  1.
    9000010    2    1    2  502    0  0.84895436733E+03  0.40713815680E+03 -0.94596324796E+03  0.17591427414E+04  0.11459719549E+04 0.  0.
   -9000010    2    1    2    0  501 -0.84895436733E+03 -0.40713815680E+03 -0.68925797535E+03  0.15365878542E+04  0.99977031388E+03 0.  0.
        -13    1    3    3    0    0 -0.12460884313E+02 -0.31254814875E+03 -0.37395988515E+02  0.31502395155E+03  0.10566000000E+00 0.  1.
          4    1    3    3  502    0  0.86141525164E+03  0.71968630555E+03 -0.90856725945E+03  0.14441187898E+04  0.00000000000E+00 0.  1.
         13    1    4    4    0    0  0.24157439783E+02  0.56756839014E+02  0.19847026115E+03  0.20783497395E+03  0.10566000000E+00 0. -1.
         -4    1    4    4    0  501 -0.87311180711E+03 -0.46389499582E+03 -0.88772823649E+03  0.13287528802E+04  0.00000000000E+00 0. -1.
<mgrwt>
<rscale>  2 0.14271827E+04</rscale>
<asrwt>0</asrwt>
<pdfrwt beam="2">  1        1 0.37930398E+00 0.14271827E+04</pdfrwt>
<pdfrwt beam="1">  1       -1 0.12773149E+00 0.14271827E+04</pdfrwt>
<totfact> 0.85320863E-01</totfact>
</mgrwt>
</event>
<event>
 8    1  0.1408247E-005  0.1018705E+04  0.7818608E-02  0.8757213E-01
         -2   -1    0    0    0  501 -0.00000000000E+00  0.00000000000E+00  0.16936074129E+04  0.16936074129E+04  0.00000000000E+00 0.  1.
          2   -1    0    0  502    0  0.00000000000E+00 -0.00000000000E+00 -0.64580782304E+03  0.64580782304E+03  0.00000000000E+00 0. -1.
    9000010    2    1    2  502    0  0.12950971858E+03 -0.26370508531E+03  0.77381541310E+03  0.12585000331E+04  0.94800785891E+03 0.  0.
   -9000010    2    1    2    0  501 -0.12950971858E+03  0.26370508531E+03  0.27398417676E+03  0.10809152028E+04  0.10034925049E+04 0.  0.
        -13    1    3    3    0    0 -0.14227715515E+03  0.53769575031E+02  0.82368819271E+03  0.83761339892E+03  0.10566000000E+00 0.  1.
          4    1    3    3  502    0  0.27178687374E+03 -0.31747466034E+03 -0.49872779607E+02  0.42088663419E+03  0.00000000000E+00 0.  1.
         13    1    4    4    0    0 -0.11470419169E+03 -0.28628005934E+03 -0.18911830430E+03  0.36177212186E+03  0.10566000000E+00 0. -1.
         -4    1    4    4    0  501 -0.14805526891E+02  0.54998514465E+03  0.46310248106E+03  0.71914308098E+03  0.00000000000E+00 0. -1.
<mgrwt>
<rscale>  2 0.10187050E+04</rscale>
<asrwt>0</asrwt>
<pdfrwt beam="2">  1        2 0.99355050E-01 0.10187050E+04</pdfrwt>
<pdfrwt beam="1">  1       -2 0.26055499E+00 0.10187050E+04</pdfrwt>
<totfact> 0.22547244E+00</totfact>
</mgrwt>
</event>
<event>
 8    1  0.1408247E-005  0.1378175E+04  0.7818608E-02  0.8483255E-01
         -1   -1    0    0    0  501 -0.00000000000E+00  0.00000000000E+00  0.11352557345E+04  0.11352557345E+04  0.00000000000E+00 0. -1.
          1   -1    0    0  502    0  0.00000000000E+00 -0.00000000000E+00 -0.16843378786E+04  0.16843378786E+04  0.00000000000E+00 0.  1.
    9000010    2    1    2  502    0  0.40881040480E+03 -0.86564012767E+03 -0.15785410087E+03  0.13784112022E+04  0.97910201083E+03 0.  0.
   -9000010    2    1    2    0  501 -0.40881040480E+03  0.86564012767E+03 -0.39122804330E+03  0.14411824109E+04  0.10037373072E+04 0.  0.
        -13    1    3    3    0    0  0.29364607308E+03 -0.10050549883E+04  0.11256005494E+03  0.10531065107E+04  0.10566000000E+00 0.  1.
          4    1    3    3  502    0  0.11516433172E+03  0.13941486065E+03 -0.27041415581E+03  0.32530469153E+03  0.00000000000E+00 0.  1.
         13    1    4    4    0    0 -0.42195678445E+03  0.48365827159E+03 -0.70008176821E+03  0.94978278831E+03  0.10566000000E+00 0. -1.
         -4    1    4    4    0  501  0.13146379648E+02  0.38198185608E+03  0.30885372491E+03  0.49139962257E+03  0.00000000000E+00 0. -1.
<mgrwt>
<rscale>  2 0.13781750E+04</rscale>
<asrwt>0</asrwt>
<pdfrwt beam="2">  1        1 0.25912890E+00 0.13781750E+04</pdfrwt>
<pdfrwt beam="1">  1       -1 0.17465473E+00 0.13781750E+04</pdfrwt>
<totfact> 0.14005475E+00</totfact>
</mgrwt>
</event>
<event>
 8    1  0.1408247E-005  0.1450396E+04  0.7818608E-02  0.8438632E-01
          4   -1    0    0  502    0  0.00000000000E+00  0.00000000000E+00  0.96168999810E+03  0.96168999810E+03  0.00000000000E+00 0.  1.
         -4   -1    0    0    0  501 -0.00000000000E+00 -0.00000000000E+00 -0.23865939453E+04  0.23865939453E+04  0.00000000000E+00 0. -1.
    9000010    2    1    2  502    0  0.99023650725E+03 -0.36643946578E+03 -0.22833219752E+03  0.14671151868E+04  0.99269590342E+03 0.  0.
   -9000010    2    1    2    0  501 -0.99023650725E+03  0.36643946578E+03 -0.11965717497E+04  0.18811687565E+04  0.99607515586E+03 0.  0.
        -13    1    3    3    0    0  0.42283017564E+03 -0.30880904788E+03 -0.59229888815E+03  0.79054814500E+03  0.10566000000E+00 0.  1.
          4    1    3    3  502    0  0.56740633161E+03 -0.57630417894E+02  0.36396669063E+03  0.67656704184E+03  0.00000000000E+00 0.  1.
         13    1    4    4    0    0 -0.10916031517E+04  0.38298619667E+03 -0.12966998047E+04  0.17377302041E+04  0.10566000000E+00 0. -1.
         -4    1    4    4    0  501  0.10136664446E+03 -0.16546730889E+02  0.10012805504E+03  0.14343855241E+03  0.00000000000E+00 0. -1.
<mgrwt>
<rscale>  2 0.14503961E+04</rscale>
<asrwt>0</asrwt>
<pdfrwt beam="1">  1        4 0.14795231E+00 0.14503961E+04</pdfrwt>
<pdfrwt beam="2">  1       -4 0.36716830E+00 0.14503961E+04</pdfrwt>
<totfact> 0.94157982E-02</totfact>
</mgrwt>
</event>
<event>
 8    1  0.1408247E-005  0.1336494E+04  0.7818608E-02  0.8510307E-01
          1   -1    0    0  502    0  0.00000000000E+00  0.00000000000E+00  0.16480533171E+04  0.16480533171E+04  0.00000000000E+00 0. -1.
         -1   -1    0    0    0  501 -0.00000000000E+00 -0.00000000000E+00 -0.10845320816E+04  0.10845320816E+04  0.00000000000E+00 0.  1.
    9000010    2    1    2  502    0 -0.68706392639E+03 -0.55054133776E+03  0.31580696063E+03  0.13708300782E+04  0.10021419378E+04 0.  0.
   -9000010    2    1    2    0  501  0.68706392639E+03  0.55054133776E+03  0.24771427480E+03  0.13617553205E+04  0.10088917620E+04 0.  0.
        -13    1    3    3    0    0 -0.80176343625E+03 -0.10874620852E+03 -0.11462531954E+02  0.80918585404E+03  0.10566000000E+00 0.  1.
          4    1    3    3  502    0  0.11469950986E+03 -0.44179512925E+03  0.32726949259E+03  0.56164422419E+03  0.00000000000E+00 0.  1.
         13    1    4    4    0    0  0.32934780176E+02 -0.14170197507E+03 -0.24840828575E+03  0.28787295302E+03  0.10566000000E+00 0. -1.
         -4    1    4    4    0  501  0.65412914622E+03  0.69224331283E+03  0.49612256055E+03  0.10738823675E+04  0.00000000000E+00 0. -1.
<mgrwt>
<rscale>  2 0.13364936E+04</rscale>
<asrwt>0</asrwt>
<pdfrwt beam="1">  1        1 0.25354666E+00 0.13364936E+04</pdfrwt>
<pdfrwt beam="2">  1       -1 0.16685109E+00 0.13364936E+04</pdfrwt>
<totfact> 0.17528757E+00</totfact>
</mgrwt>
</event>
<event>
 8    1  0.1408247E-005  0.1081505E+04  0.7818608E-02  0.8701568E-01
         -1   -1    0    0    0  501 -0.00000000000E+00  0.00000000000E+00  0.11998832027E+04  0.11998832027E+04  0.00000000000E+00 0.  1.
          1   -1    0    0  502    0  0.00000000000E+00 -0.00000000000E+00 -0.16633986334E+04  0.16633986334E+04  0.00000000000E+00 0. -1.
    9000010    2    1    2  502    0  0.32620831071E+03 -0.24128587489E+03 -0.11499110193E+04  0.15644877386E+04  0.98015090509E+03 0.  0.
   -9000010    2    1    2    0  501 -0.32620831071E+03  0.24128587489E+03  0.68639558859E+03  0.12987940974E+04  0.10252299586E+04 0.  0.
        -13    1    3    3    0    0 -0.20845458109E+03  0.18350466372E+03 -0.69363812086E+02  0.28624923332E+03  0.10566000000E+00 0.  1.
          4    1    3    3  502    0  0.53466289180E+03 -0.42479053861E+03 -0.10805472072E+04  0.12782385053E+04  0.00000000000E+00 0.  1.
         13    1    4    4    0    0 -0.43848363107E+03 -0.11307148675E+03  0.79204487200E+03  0.91235308202E+03  0.10566000000E+00 0. -1.
         -4    1    4    4    0  501  0.11227532036E+03  0.35435736164E+03 -0.10564928342E+03  0.38644101542E+03  0.00000000000E+00 0. -1.
<mgrwt>
<rscale>  2 0.10815054E+04</rscale>
<asrwt>0</asrwt>
<pdfrwt beam="2">  1        1 0.25590748E+00 0.10815054E+04</pdfrwt>
<pdfrwt beam="1">  1       -1 0.18459742E+00 0.10815054E+04</pdfrwt>
<totfact> 0.12385062E+00</totfact>
</mgrwt>
</event>
<event>
 8    1  0.1408247E-005  0.1738855E+04  0.7818608E-02  0.8283901E-01
         -4   -1    0    0    0  501 -0.00000000000E+00  0.00000000000E+00  0.16815925534E+04  0.16815925534E+04  0.00000000000E+00 0. -1.
          4   -1    0    0  502    0  0.00000000000E+00 -0.00000000000E+00 -0.18199355293E+04  0.18199355293E+04  0.00000000000E+00 0.  1.
    9000010    2    1    2  502    0 -0.81565267509E+03  0.11611656947E+04 -0.26077767165E+03  0.17526706398E+04  0.99511522987E+03 0.  0.
   -9000010    2    1    2    0  501  0.81565267509E+03 -0.11611656947E+04  0.12243469577E+03  0.17488574429E+04  0.10148482862E+04 0.  0.
        -13    1    3    3    0    0 -0.97211465927E+03  0.58767270761E+03 -0.21807098583E+03  0.11566853885E+04  0.10566000000E+00 0.  1.
          4    1    3    3  502    0  0.15646198418E+03  0.57349298707E+03 -0.42706685825E+02  0.59598525127E+03  0.00000000000E+00 0.  1.
         13    1    4    4    0    0  0.99531844072E+03 -0.90853103105E+03 -0.12332528902E+03  0.13532540674E+04  0.10566000000E+00 0. -1.
         -4    1    4    4    0  501 -0.17966576563E+03 -0.25263466363E+03  0.24575998480E+03  0.39560337554E+03  0.00000000000E+00 0. -1.
<mgrwt>
<rscale>  2 0.17388547E+04</rscale>
<asrwt>0</asrwt>
<pdfrwt beam="2">  1        4 0.27999008E+00 0.17388547E+04</pdfrwt>
<pdfrwt beam="1">  1       -4 0.25870655E+00 0.17388547E+04</pdfrwt>
<totfact> 0.78629315E-02</totfact>
</mgrwt>
</event>
<event>
 8    1  0.1408247E-005  0.1359333E+04  0.7818608E-02  0.8495361E-01
         -2   -1    0    0    0  501 -0.00000000000E+00  0.00000000000E+00  0.95928318372E+03  0.95928318372E+03  0.00000000000E+00 0. -1.
          2   -1    0    0  502    0  0.00000000000E+00 -0.00000000000E+00 -0.20844478853E+04  0.20844478853E+04  0.00000000000E+00 0.  1.
    9000010    2    1    2  502    0  0.23441680174E+02 -0.90639468137E+03 -0.14184664255E+03  0.13629410182E+04  0.10076640900E+04 0.  0.
   -9000010    2    1    2    0  501 -0.23441680174E+02  0.90639468137E+03 -0.98331805907E+03  0.16807900508E+04  0.10178604811E+04 0.  0.
        -13    1    3    3    0    0  0.38701245552E+03 -0.34107187201E+03 -0.38975074846E+03  0.64654026920E+03  0.10566000000E+00 0.  1.
          4    1    3    3  502    0 -0.36357077535E+03 -0.56532280936E+03  0.24790410591E+03  0.71640074902E+03  0.00000000000E+00 0.  1.
         13    1    4    4    0    0 -0.16280613759E+02  0.83434828829E+03 -0.15434395218E+03  0.84866023313E+03  0.10566000000E+00 0. -1.
         -4    1    4    4    0  501 -0.71610664151E+01  0.72046393079E+02 -0.82897410689E+03  0.83212981771E+03  0.00000000000E+00 0. -1.
<mgrwt>
<rscale>  2 0.13593327E+04</rscale>
<asrwt>0</asrwt>
<pdfrwt beam="2">  1        2 0.32068428E+00 0.13593327E+04</pdfrwt>
<pdfrwt beam="1">  1       -2 0.14758203E+00 0.13593327E+04</pdfrwt>
<totfact> 0.26086790E+00</totfact>
</mgrwt>
</event>
<event>
 8    1  0.1408247E-005  0.1096396E+04  0.7818608E-02  0.8688949E-01
          1   -1    0    0  502    0  0.00000000000E+00  0.00000000000E+00  0.19137582143E+04  0.19137582143E+04  0.00000000000E+00 0. -1.
         -1   -1    0    0    0  501 -0.00000000000E+00 -0.00000000000E+00 -0.62813746995E+03  0.62813746995E+03  0.00000000000E+00 0.  1.
    9000010    2    1    2  502    0 -0.16983824766E+03  0.41859075023E+03  0.64832363821E+03  0.12745343127E+04  0.10000254636E+04 0.  0.
   -9000010    2    1    2    0  501  0.16983824766E+03 -0.41859075023E+03  0.63729710611E+03  0.12673613716E+04  0.99799498902E+03 0.  0.
        -13    1    3    3    0    0 -0.32486150717E+03  0.41825705075E+03  0.86131073784E+03  0.10111034357E+04  0.10566000000E+00 0.  1.
          4    1    3    3  502    0  0.15502325951E+03  0.33369948698E+00 -0.21298709963E+03  0.26343087700E+03  0.00000000000E+00 0.  1.
         13    1    4    4    0    0  0.12982294320E+03 -0.57929348734E+03  0.82541489801E+03  0.10167323670E+04  0.10566000000E+00 0. -1.
         -4    1    4    4    0  501  0.40015304459E+02  0.16070273710E+03 -0.18811779190E+03  0.25062900457E+03  0.00000000000E+00 0. -1.
<mgrwt>
<rscale>  2 0.10963959E+04</rscale>
<asrwt>0</asrwt>
<pdfrwt beam="1">  1        1 0.29442434E+00 0.10963959E+04</pdfrwt>
<pdfrwt beam="2">  1       -1 0.96636535E-01 0.10963959E+04</pdfrwt>
<totfact> 0.47894665E+00</totfact>
</mgrwt>
</event>
<event>
 8    1  0.1408247E-005  0.1239034E+04  0.7818608E-02  0.8577734E-01
          2   -1    0    0  502    0  0.00000000000E+00  0.00000000000E+00  0.33484544875E+03  0.33484544875E+03  0.00000000000E+00 0.  1.
         -2   -1    0    0    0  501 -0.00000000000E+00 -0.00000000000E+00 -0.45914567383E+04  0.45914567383E+04  0.00000000000E+00 0. -1.
    9000010    2    1    2  502    0 -0.70761532860E+02 -0.70909057873E+03 -0.20288006658E+04  0.23753804984E+04  0.10092490908E+04 0.  0.
   -9000010    2    1    2    0  501  0.70761532860E+02  0.70909057873E+03 -0.22278106237E+04  0.25509216886E+04  0.10179610223E+04 0.  0.
        -13    1    3    3    0    0 -0.86268794925E+02  0.25598450874E+03 -0.42868975308E+03  0.50670039397E+03  0.10566000000E+00 0.  1.
          4    1    3    3  502    0  0.15507262065E+02 -0.96507508748E+03 -0.16001109127E+04  0.18686801044E+04  0.00000000000E+00 0.  1.
         13    1    4    4    0    0 -0.23412151631E+03  0.85131387464E+03 -0.13740408602E+04  0.16332594694E+04  0.10566000000E+00 0. -1.
         -4    1    4    4    0  501  0.30488304917E+03 -0.14222329591E+03 -0.85376976350E+03  0.91766221925E+03  0.00000000000E+00 0. -1.
<mgrwt>
<rscale>  2 0.12390341E+04</rscale>
<asrwt>0</asrwt>
<pdfrwt beam="1">  1        2 0.51514690E-01 0.12390341E+04</pdfrwt>
<pdfrwt beam="2">  1       -2 0.70637788E+00 0.12390341E+04</pdfrwt>
<totfact> 0.13937091E-01</totfact>
</mgrwt>
</event>
<event>
 8    1  0.1408247E-005  0.1346071E+04  0.7818608E-02  0.8504002E-01
         -2   -1    0    0    0  501 -0.00000000000E+00  0.00000000000E+00  0.10100958728E+04  0.10100958728E+04  0.00000000000E+00 0. -1.
          2   -1    0    0  502    0  0.00000000000E+00 -0.00000000000E+00 -0.21311331611E+04  0.21311331611E+04  0.00000000000E+00 0.  1.
    9000010    2    1    2  502    0 -0.80413257422E+03 -0.42201307217E+03  0.66098115514E+02  0.13426719364E+04  0.98674958217E+03 0.  0.
   -9000010    2    1    2    0  501  0.80413257422E+03  0.42201307217E+03 -0.11871354039E+04  0.17985570975E+04  0.10003963893E+04 0.  0.
        -13    1    3    3    0    0  0.21390685613E+03  0.80837166447E+01  0.10157927882E+03  0.23693849544E+03  0.10566000000E+00 0.  1.
          4    1    3    3  502    0 -0.10180394303E+04 -0.43009678881E+03 -0.35481163307E+02  0.11057334410E+04  0.00000000000E+00 0.  1.
         13    1    4    4    0    0  0.53222507736E+03 -0.26464983064E+03 -0.67730166974E+03  0.90113296956E+03  0.10566000000E+00 0. -1.
         -4    1    4    4    0  501  0.27190749686E+03  0.68666290281E+03 -0.50983373414E+03  0.89742412794E+03  0.00000000000E+00 0. -1.
<mgrwt>
<rscale>  2 0.13460711E+04</rscale>
<asrwt>0</asrwt>
<pdfrwt beam="2">  1        2 0.32786663E+00 0.13460711E+04</pdfrwt>
<pdfrwt beam="1">  1       -2 0.15539937E+00 0.13460711E+04</pdfrwt>
<totfact> 0.20996225E+00</totfact>
</mgrwt>
</event>
<event>
 8    1  0.1408247E-005  0.1186299E+04  0.7818608E-02  0.8616952E-01
          1   -1    0    0  502    0  0.00000000000E+00  0.00000000000E+00  0.11843079916E+04  0.11843079916E+04  0.00000000000E+00 0.  1.
         -1   -1    0    0    0  501 -0.00000000000E+00 -0.00000000000E+00 -0.11943956101E+04  0.11943956101E+04  0.00000000000E+00 0. -1.
    9000010    2    1    2  502    0  0.64941530596E+03  0.38399740335E+02  0.79635106708E+02  0.11961982905E+04  0.10006666879E+04 0.  0.
   -9000010    2    1    2    0  501 -0.64941530596E+03 -0.38399740335E+02 -0.89722725197E+02  0.11825053112E+04  0.98338896883E+03 0.  0.
        -13    1    3    3    0    0  0.33290053913E+03  0.32453367774E+03  0.43818902743E+03  0.63886971431E+03  0.10566000000E+00 0.  1.
          4    1    3    3  502    0  0.31651476683E+03 -0.28613393741E+03 -0.35855392072E+03  0.55732857618E+03  0.00000000000E+00 0.  1.
         13    1    4    4    0    0 -0.15345535707E+03 -0.46580412025E+03  0.10069785099E+03  0.50066165562E+03  0.10566000000E+00 0. -1.
         -4    1    4    4    0  501 -0.49595994888E+03  0.42740437991E+03 -0.19042057619E+03  0.68184365561E+03  0.00000000000E+00 0. -1.
<mgrwt>
<rscale>  2 0.11862985E+04</rscale>
<asrwt>0</asrwt>
<pdfrwt beam="1">  1        1 0.18220123E+00 0.11862985E+04</pdfrwt>
<pdfrwt beam="2">  1       -1 0.18375317E+00 0.11862985E+04</pdfrwt>
<totfact> 0.28365047E+00</totfact>
</mgrwt>
</event>
<event>
 8    1  0.1408247E-005  0.1107653E+04  0.7818608E-02  0.8679548E-01
         -2   -1    0    0    0  501 -0.00000000000E+00  0.00000000000E+00  0.39124707731E+03  0.39124707731E+03  0.00000000000E+00 0. -1.
          2   -1    0    0  502    0  0.00000000000E+00 -0.00000000000E+00 -0.31363948409E+04  0.31363948409E+04  0.00000000000E+00 0.  1.
    9000010    2    1    2  502    0 -0.41077936910E+03 -0.41424208412E+01 -0.13785538025E+04  0.17766409353E+04  0.10427298676E+04 0.  0.
   -9000010    2    1    2    0  501  0.41077936910E+03  0.41424208412E+01 -0.13665939612E+04  0.17510009830E+04  0.10147258438E+04 0.  0.
        -13    1    3    3    0    0 -0.36252758288E+03  0.46646970718E+03 -0.10358366485E+04  0.11924671105E+04  0.10566000000E+00 0.  1.
          4    1    3    3  502    0 -0.48251786215E+02 -0.47061212802E+03 -0.34271715396E+03  0.58417382475E+03  0.00000000000E+00 0.  1.
         13    1    4    4    0    0 -0.15020157577E+03  0.10696921488E+03 -0.11106901258E+04  0.11258931979E+04  0.10566000000E+00 0. -1.
         -4    1    4    4    0  501  0.56098094487E+03 -0.10282679403E+03 -0.25590383537E+03  0.62510778513E+03  0.00000000000E+00 0. -1.
<mgrwt>
<rscale>  2 0.11076533E+04</rscale>
<asrwt>0</asrwt>
<pdfrwt beam="2">  1        2 0.48252229E+00 0.11076533E+04</pdfrwt>
<pdfrwt beam="1">  1       -2 0.60191857E-01 0.11076533E+04</pdfrwt>
<totfact> 0.56855898E+00</totfact>
</mgrwt>
</event>
<event>
 8    1  0.1408247E-005  0.1331208E+04  0.7818608E-02  0.8513810E-01
         -1   -1    0    0    0  501 -0.00000000000E+00  0.00000000000E+00  0.12710315519E+04  0.12710315519E+04  0.00000000000E+00 0.  1.
          1   -1    0    0  502    0  0.00000000000E+00 -0.00000000000E+00 -0.14991724038E+04  0.14991724038E+04  0.00000000000E+00 0. -1.
    9000010    2    1    2  502    0  0.31982391384E+03  0.85294636716E+03  0.23916027416E+03  0.14246566083E+04  0.10689452622E+04 0.  0.
   -9000010    2    1    2    0  501 -0.31982391384E+03 -0.85294636716E+03 -0.46730112606E+03  0.13455473475E+04  0.87311080670E+03 0.  0.
        -13    1    3    3    0    0 -0.24615084585E+03  0.34090702596E+02 -0.21680152800E+03  0.32978072809E+03  0.10566000000E+00 0.  1.
          4    1    3    3  502    0  0.56597475968E+03  0.81885566456E+03  0.45596180216E+03  0.10948758802E+04  0.00000000000E+00 0.  1.
         13    1    4    4    0    0 -0.44871731041E+03 -0.88571349722E+03 -0.59801101075E+03  0.11590741150E+04  0.10566000000E+00 0. -1.
         -4    1    4    4    0  501  0.12889339657E+03  0.32767130063E+02  0.13070988469E+03  0.18647323252E+03  0.00000000000E+00 0. -1.
<mgrwt>
<rscale>  2 0.13312079E+04</rscale>
<asrwt>0</asrwt>
<pdfrwt beam="2">  1        1 0.23064191E+00 0.13312079E+04</pdfrwt>
<pdfrwt beam="1">  1       -1 0.19554332E+00 0.13312079E+04</pdfrwt>
<totfact> 0.12687328E+00</totfact>
</mgrwt>
</event>
<event>
 8    1  0.1408247E-005  0.1318885E+04  0.7818608E-02  0.8522042E-01
          1   -1    0    0  502    0  0.00000000000E+00  0.00000000000E+00  0.16870018717E+04  0.16870018717E+04  0.00000000000E+00 0. -1.
         -1   -1    0    0    0  501 -0.00000000000E+00 -0.00000000000E+00 -0.11555312488E+04  0.11555312488E+04  0.00000000000E+00 0.  1.
    9000010    2    1    2  502    0 -0.10654784401E+03 -0.85459356118E+03 -0.19861518429E+03  0.13443187690E+04  0.10129473645E+04 0.  0.
   -9000010    2    1    2    0  501  0.10654784401E+03  0.85459356118E+03  0.73008580715E+03  0.14982143516E+04  0.98485448648E+03 0.  0.
        -13    1    3    3    0    0  0.11599259635E+03  0.17861474243E+03  0.11477546328E+03  0.24193165720E+03  0.10566000000E+00 0.  1.
          4    1    3    3  502    0 -0.22254044036E+03 -0.10332083036E+04 -0.31339064757E+03  0.11023871118E+04  0.00000000000E+00 0.  1.
         13    1    4    4    0    0  0.15092462702E+03 -0.52268773534E+02 -0.16047875420E+03  0.22641490552E+03  0.10566000000E+00 0. -1.
         -4    1    4    4    0  501 -0.44376783011E+02  0.90686233471E+03  0.89056456136E+03  0.12717994460E+04  0.00000000000E+00 0. -1.
<mgrwt>
<rscale>  2 0.13188846E+04</rscale>
<asrwt>0</asrwt>
<pdfrwt beam="1">  1        1 0.25953875E+00 0.13188846E+04</pdfrwt>
<pdfrwt beam="2">  1       -1 0.17777404E+00 0.13188846E+04</pdfrwt>
<totfact> 0.13190816E+00</totfact>
</mgrwt>
</event>
<event>
 8    1  0.1408247E-005  0.1624214E+04  0.7818608E-02  0.8341394E-01
          1   -1    0    0  502    0  0.00000000000E+00  0.00000000000E+00  0.12109616013E+04  0.12109616013E+04  0.00000000000E+00 0. -1.
         -1   -1    0    0    0  501 -0.00000000000E+00 -0.00000000000E+00 -0.22560305559E+04  0.22560305559E+04  0.00000000000E+00 0.  1.
    9000010    2    1    2  502    0 -0.55608332879E+03 -0.11455829701E+04 -0.20095685003E+03  0.16359404786E+04  0.10071388107E+04 0.  0.
   -9000010    2    1    2    0  501  0.55608332879E+03  0.11455829701E+04 -0.84411210459E+03  0.18310516786E+04  0.10092749847E+04 0.  0.
        -13    1    3    3    0    0 -0.21399303179E+03 -0.43321987766E+03  0.41266997069E+03  0.63542819888E+03  0.10566000000E+00 0.  1.
          4    1    3    3  502    0 -0.34209029700E+03 -0.71236309247E+03 -0.61362682072E+03  0.10005122797E+04  0.00000000000E+00 0.  1.
         13    1    4    4    0    0  0.90454655495E+02 -0.15703088076E+03  0.44875914107E+02  0.18669386986E+03  0.10566000000E+00 0. -1.
         -4    1    4    4    0  501  0.46562867329E+03  0.13026138509E+04 -0.88898801870E+03  0.16443578088E+04  0.00000000000E+00 0. -1.
<mgrwt>
<rscale>  2 0.16242138E+04</rscale>
<asrwt>0</asrwt>
<pdfrwt beam="1">  1        1 0.18630179E+00 0.16242138E+04</pdfrwt>
<pdfrwt beam="2">  1       -1 0.34708162E+00 0.16242138E+04</pdfrwt>
<totfact> 0.12832204E-01</totfact>
</mgrwt>
</event>
<event>
 8    1  0.1408247E-005  0.1038857E+04  0.7818608E-02  0.8738915E-01
          1   -1    0    0  502    0  0.00000000000E+00  0.00000000000E+00  0.11635227836E+04  0.11635227836E+04  0.00000000000E+00 0. -1.
         -1   -1    0    0    0  501 -0.00000000000E+00 -0.00000000000E+00 -0.10635567257E+04  0.10635567257E+04  0.00000000000E+00 0.  1.
    9000010    2    1    2  502    0 -0.24807219910E+03  0.70452339992E+02  0.44844883687E+03  0.11396102230E+04  0.10154318061E+04 0.  0.
   -9000010    2    1    2    0  501  0.24807219910E+03 -0.70452339992E+02 -0.34848277902E+03  0.10874692863E+04  0.99731933363E+03 0.  0.
        -13    1    3    3    0    0  0.10975334435E+03 -0.24964290031E+03 -0.19610974462E+03  0.33589643846E+03  0.10566000000E+00 0.  1.
          4    1    3    3  502    0 -0.35782554346E+03  0.32009524031E+03  0.64455858149E+03  0.80371378450E+03  0.00000000000E+00 0.  1.
         13    1    4    4    0    0 -0.23643975143E+02  0.44520754488E+03 -0.17936375568E+03  0.48056234101E+03  0.10566000000E+00 0. -1.
         -4    1    4    4    0  501  0.27171617425E+03 -0.51565988487E+03 -0.16911902334E+03  0.60690694531E+03  0.00000000000E+00 0. -1.
<mgrwt>
<rscale>  2 0.10388567E+04</rscale>
<asrwt>0</asrwt>
<pdfrwt beam="1">  1        1 0.17900351E+00 0.10388567E+04</pdfrwt>
<pdfrwt beam="2">  1       -1 0.16362411E+00 0.10388567E+04</pdfrwt>
<totfact> 0.44905719E+00</totfact>
</mgrwt>
</event>
<event>
 8    1  0.1408247E-005  0.1191644E+04  0.7818608E-02  0.8612882E-01
          2   -1    0    0  502    0  0.00000000000E+00  0.00000000000E+00  0.30637329165E+04  0.30637329165E+04  0.00000000000E+00 0. -1.
         -2   -1    0    0    0  501 -0.00000000000E+00 -0.00000000000E+00 -0.51092631625E+03  0.51092631625E+03  0.00000000000E+00 0.  1.
    9000010    2    1    2  502    0  0.39266334818E+03 -0.50912789421E+03  0.73952366474E+03  0.14091307477E+04  0.10125998695E+04 0.  0.
   -9000010    2    1    2    0  501 -0.39266334818E+03  0.50912789421E+03  0.18132829355E+04  0.21655284851E+04  0.99404371024E+03 0.  0.
        -13    1    3    3    0    0  0.20528067425E+03  0.10017753853E+03  0.73707565832E+03  0.77165810544E+03  0.10566000000E+00 0.  1.
          4    1    3    3  502    0  0.18738267394E+03 -0.60930543273E+03  0.24480064230E+01  0.63747264223E+03  0.00000000000E+00 0.  1.
         13    1    4    4    0    0 -0.62873905362E+03  0.52069945663E+02  0.12656295046E+04  0.14141577461E+04  0.10566000000E+00 0. -1.
         -4    1    4    4    0  501  0.23607570543E+03  0.45705794855E+03  0.54765343094E+03  0.75137073901E+03  0.00000000000E+00 0. -1.
<mgrwt>
<rscale>  2 0.11916436E+04</rscale>
<asrwt>0</asrwt>
<pdfrwt beam="1">  1        2 0.47134352E+00 0.11916436E+04</pdfrwt>
<pdfrwt beam="2">  1       -2 0.78604050E-01 0.11916436E+04</pdfrwt>
<totfact> 0.35769301E+00</totfact>
</mgrwt>
</event>
<event>
 8    1  0.1408247E-005  0.1146857E+04  0.7818608E-02  0.8647692E-01
          2   -1    0    0  502    0  0.00000000000E+00  0.00000000000E+00  0.16284062804E+04  0.16284062804E+04  0.00000000000E+00 0. -1.
         -2   -1    0    0    0  501 -0.00000000000E+00 -0.00000000000E+00 -0.81166621952E+03  0.81166621952E+03  0.00000000000E+00 0.  1.
    9000010    2    1    2  502    0  0.57259554444E+03  0.19735925254E+03  0.33517466434E+03  0.12174844728E+04  0.10015538198E+04 0.  0.
   -9000010    2    1    2    0  501 -0.57259554444E+03 -0.19735925254E+03  0.48156539657E+03  0.12225880271E+04  0.94657272345E+03 0.  0.
        -13    1    3    3    0    0  0.51181608461E+03 -0.20152880708E+03  0.53490606330E+03  0.76726401732E+03  0.10566000000E+00 0.  1.
          4    1    3    3  502    0  0.60779459830E+02  0.39888805961E+03 -0.19973139896E+03  0.45022045552E+03  0.00000000000E+00 0.  1.
         13    1    4    4    0    0 -0.68191635614E+03  0.94761621206E+02  0.57498316517E+03  0.89699238181E+03  0.10566000000E+00 0. -1.
         -4    1    4    4    0  501  0.10932081170E+03 -0.29212087375E+03 -0.93417768600E+02  0.32559564530E+03  0.00000000000E+00 0. -1.
<mgrwt>
<rscale>  2 0.11468572E+04</rscale>
<asrwt>0</asrwt>
<pdfrwt beam="1">  1        2 0.25052404E+00 0.11468572E+04</pdfrwt>
<pdfrwt beam="2">  1       -2 0.12487173E+00 0.11468572E+04</pdfrwt>
<totfact> 0.76208000E+00</totfact>
</mgrwt>
</event>
<event>
 8    1  0.1408247E-005  0.1096860E+04  0.7818608E-02  0.8688560E-01
          2   -1    0    0  502    0  0.00000000000E+00  0.00000000000E+00  0.23252071771E+04  0.23252071771E+04  0.00000000000E+00 0.  1.
         -2   -1    0    0    0  501 -0.00000000000E+00 -0.00000000000E+00 -0.53947884918E+03  0.53947884918E+03  0.00000000000E+00 0. -1.
    9000010    2    1    2  502    0 -0.32819841977E+03  0.18351740697E+03  0.65288535600E+03  0.13233085836E+04  0.10878848643E+04 0.  0.
   -9000010    2    1    2    0  501  0.32819841977E+03 -0.18351740697E+03  0.11328429719E+04  0.15413774427E+04  0.97525298275E+03 0.  0.
        -13    1    3    3    0    0 -0.82690590841E+02 -0.36027123012E+03  0.62486626104E+03  0.72601029498E+03  0.10566000000E+00 0.  1.
          4    1    3    3  502    0 -0.24550782893E+03  0.54378863709E+03  0.28019094956E+02  0.59729828861E+03  0.00000000000E+00 0.  1.
         13    1    4    4    0    0  0.67829876722E+03 -0.11293167682E+03  0.76693749391E+03  0.10300659746E+04  0.10566000000E+00 0. -1.
         -4    1    4    4    0  501 -0.35010034745E+03 -0.70585730149E+02  0.36590547801E+03  0.51131146811E+03  0.00000000000E+00 0. -1.
<mgrwt>
<rscale>  2 0.10968598E+04</rscale>
<asrwt>0</asrwt>
<pdfrwt beam="1">  1        2 0.35772418E+00 0.10968598E+04</pdfrwt>
<pdfrwt beam="2">  1       -2 0.82996747E-01 0.10968598E+04</pdfrwt>
<totfact> 0.86499759E+00</totfact>
</mgrwt>
</event>
<event>
 8    1  0.1408247E-005  0.1367301E+04  0.7818608E-02  0.8490217E-01
          2   -1    0    0  502    0  0.00000000000E+00  0.00000000000E+00  0.17114570460E+04  0.17114570460E+04  0.00000000000E+00 0.  1.
         -2   -1    0    0    0  501 -0.00000000000E+00 -0.00000000000E+00 -0.11005311529E+04  0.11005311529E+04  0.00000000000E+00 0. -1.
    9000010    2    1    2  502    0  0.33580375469E+03  0.87392818469E+03  0.21213096992E+03  0.14413759214E+04  0.10751978259E+04 0.  0.
   -9000010    2    1    2    0  501 -0.33580375469E+03 -0.87392818469E+03  0.39879492311E+03  0.13706122775E+04  0.91816446831E+03 0.  0.
        -13    1    3    3    0    0  0.35416655448E+03  0.52218481517E+03 -0.39146101035E+03  0.74253125408E+03  0.10566000000E+00 0.  1.
          4    1    3    3  502    0 -0.18362799784E+02  0.35174336952E+03  0.60359198027E+03  0.69884466734E+03  0.00000000000E+00 0.  1.
         13    1    4    4    0    0  0.85716494264E+01  0.18358114529E+03  0.13374669264E+03  0.22729650028E+03  0.10566000000E+00 0. -1.
         -4    1    4    4    0  501 -0.34437540412E+03 -0.10575093300E+04  0.26504823047E+03  0.11433157772E+04  0.00000000000E+00 0. -1.
<mgrwt>
<rscale>  2 0.13673013E+04</rscale>
<asrwt>0</asrwt>
<pdfrwt beam="1">  1        2 0.26330108E+00 0.13673013E+04</pdfrwt>
<pdfrwt beam="2">  1       -2 0.16931248E+00 0.13673013E+04</pdfrwt>
<totfact> 0.26974934E+00</totfact>
</mgrwt>
</event>
<event>
 8    1  0.1408247E-005  0.1024882E+04  0.7818608E-02  0.8751558E-01
         -2   -1    0    0    0  501 -0.00000000000E+00  0.00000000000E+00  0.12851969921E+04  0.12851969921E+04  0.00000000000E+00 0. -1.
          2   -1    0    0  502    0  0.00000000000E+00 -0.00000000000E+00 -0.86379407985E+03  0.86379407985E+03  0.00000000000E+00 0.  1.
    9000010    2    1    2  502    0  0.93504785050E+02  0.17744574526E+03  0.45903782691E+03  0.11186819698E+04  0.10002517112E+04 0.  0.
   -9000010    2    1    2    0  501 -0.93504785050E+02 -0.17744574526E+03 -0.37634914695E+02  0.10303091021E+04  0.10098961936E+04 0.  0.
        -13    1    3    3    0    0  0.19753042555E+03 -0.24609641246E+03  0.58503529089E+03  0.66471649294E+03  0.10566000000E+00 0.  1.
          4    1    3    3  502    0 -0.10402564050E+03  0.42354215773E+03 -0.12599746397E+03  0.45396547686E+03  0.00000000000E+00 0.  1.
         13    1    4    4    0    0  0.19154647145E+03 -0.30414729680E+03 -0.40953915080E+03  0.54490178571E+03  0.10566000000E+00 0. -1.
         -4    1    4    4    0  501 -0.28505125650E+03  0.12670155153E+03  0.37190423610E+03  0.48540731641E+03  0.00000000000E+00 0. -1.
<mgrwt>
<rscale>  2 0.10248816E+04</rscale>
<asrwt>0</asrwt>
<pdfrwt beam="2">  1        2 0.13289140E+00 0.10248816E+04</pdfrwt>
<pdfrwt beam="1">  1       -2 0.19772261E+00 0.10248816E+04</pdfrwt>
<totfact> 0.49627893E+00</totfact>
</mgrwt>
</event>
<event>
 8    1  0.1408247E-005  0.1489357E+04  0.7818608E-02  0.8415650E-01
          2   -1    0    0  502    0  0.00000000000E+00  0.00000000000E+00  0.32378039885E+04  0.32378039885E+04  0.00000000000E+00 0. -1.
         -2   -1    0    0    0  501 -0.00000000000E+00 -0.00000000000E+00 -0.86762238071E+03  0.86762238071E+03  0.00000000000E+00 0.  1.
    9000010    2    1    2  502    0 -0.48097548037E+03  0.99200920122E+03  0.21278372584E+04  0.25983988741E+04  0.10042736890E+04 0.  0.
   -9000010    2    1    2    0  501  0.48097548037E+03 -0.99200920122E+03  0.24234434940E+03  0.15070274952E+04  0.99848956903E+03 0.  0.
        -13    1    3    3    0    0 -0.79062561045E+03  0.67516510663E+03  0.16147757423E+04  0.19205305221E+04  0.10566000000E+00 0.  1.
          4    1    3    3  502    0  0.30965013008E+03  0.31684409459E+03  0.51306151614E+03  0.67786835202E+03  0.00000000000E+00 0.  1.
         13    1    4    4    0    0 -0.11573083721E+03 -0.87085262314E+03  0.14728106327E+03  0.89076912872E+03  0.10566000000E+00 0. -1.
         -4    1    4    4    0  501  0.59670631757E+03 -0.12115657808E+03  0.95063286130E+02  0.61625836644E+03  0.00000000000E+00 0. -1.
<mgrwt>
<rscale>  2 0.14893575E+04</rscale>
<asrwt>0</asrwt>
<pdfrwt beam="1">  1        2 0.49812368E+00 0.14893575E+04</pdfrwt>
<pdfrwt beam="2">  1       -2 0.13348037E+00 0.14893575E+04</pdfrwt>
<totfact> 0.72509730E-01</totfact>
</mgrwt>
</event>
<event>
 8    1  0.1408247E-005  0.1123881E+04  0.7818608E-02  0.8666197E-01
          2   -1    0    0  502    0  0.00000000000E+00  0.00000000000E+00  0.34324274476E+04  0.34324274476E+04  0.00000000000E+00 0.  1.
         -2   -1    0    0    0  501 -0.00000000000E+00 -0.00000000000E+00 -0.36939098736E+03  0.36939098736E+03  0.00000000000E+00 0. -1.
    9000010    2    1    2  502    0  0.49998798809E+03  0.59293082944E+01  0.16694854238E+04  0.20231174170E+04  0.10275209769E+04 0.  0.
   -9000010    2    1    2    0  501 -0.49998798809E+03 -0.59293082944E+01  0.13935510364E+04  0.17787010179E+04  0.98578378718E+03 0.  0.
        -13    1    3    3    0    0  0.40910169404E+03 -0.94106446058E+02  0.79314655254E+02  0.42721311421E+03  0.10566000000E+00 0.  1.
          4    1    3    3  502    0  0.90886294048E+02  0.10003575435E+03  0.15901707685E+04  0.15959043028E+04  0.00000000000E+00 0.  1.
         13    1    4    4    0    0  0.11278630758E+03  0.10571352922E+03  0.10618104908E+04  0.10730040219E+04  0.10566000000E+00 0. -1.
         -4    1    4    4    0  501 -0.61277429567E+03 -0.11164283751E+03  0.33174054562E+03  0.70569699603E+03  0.00000000000E+00 0. -1.
<mgrwt>
<rscale>  2 0.11238813E+04</rscale>
<asrwt>0</asrwt>
<pdfrwt beam="1">  1        2 0.52806574E+00 0.11238813E+04</pdfrwt>
<pdfrwt beam="2">  1       -2 0.56829385E-01 0.11238813E+04</pdfrwt>
<totfact> 0.40345422E+00</totfact>
</mgrwt>
</event>
<event>
 8    1  0.1408247E-005  0.1093069E+04  0.7818608E-02  0.8691750E-01
          3   -1    0    0  502    0  0.00000000000E+00  0.00000000000E+00  0.74901744817E+03  0.74901744817E+03  0.00000000000E+00 0.  1.
         -3   -1    0    0    0  501 -0.00000000000E+00 -0.00000000000E+00 -0.17395815179E+04  0.17395815179E+04  0.00000000000E+00 0. -1.
    9000010    2    1    2  502    0 -0.34066388984E+03 -0.14959452402E+03 -0.15101990633E+03  0.11339334899E+04  0.10604563829E+04 0.  0.
   -9000010    2    1    2    0  501  0.34066388984E+03  0.14959452402E+03 -0.83954416340E+03  0.13546654762E+04  0.99591854214E+03 0.  0.
        -13    1    3    3    0    0 -0.51920519341E+03  0.25409344372E+03  0.15300809932E+03  0.59795401213E+03  0.10566000000E+00 0.  1.
          4    1    3    3  502    0  0.17854130357E+03 -0.40368796774E+03 -0.30402800565E+03  0.53597947777E+03  0.00000000000E+00 0.  1.
         13    1    4    4    0    0  0.56885123516E+02 -0.37984273049E+03 -0.90660422835E+02  0.39463367902E+03  0.10566000000E+00 0. -1.
         -4    1    4    4    0  501  0.28377876632E+03  0.52943725450E+03 -0.74888374056E+03  0.96003179715E+03  0.00000000000E+00 0. -1.
<mgrwt>
<rscale>  2 0.10930690E+04</rscale>
<asrwt>0</asrwt>
<pdfrwt beam="1">  1        3 0.11523346E+00 0.10930690E+04</pdfrwt>
<pdfrwt beam="2">  1       -3 0.26762792E+00 0.10930690E+04</pdfrwt>
<totfact> 0.30848673E-02</totfact>
</mgrwt>
</event>
<event>
 8    1  0.1408247E-005  0.1181799E+04  0.7818608E-02  0.8620395E-01
         -2   -1    0    0    0  501 -0.00000000000E+00  0.00000000000E+00  0.36650433892E+03  0.36650433892E+03  0.00000000000E+00 0. -1.
          2   -1    0    0  502    0  0.00000000000E+00 -0.00000000000E+00 -0.38139683128E+04  0.38139683128E+04  0.00000000000E+00 0.  1.
    9000010    2    1    2  502    0 -0.62948292752E+03  0.98369554884E+02 -0.16925879449E+04  0.20458543444E+04  0.95642078723E+03 0.  0.
   -9000010    2    1    2    0  501  0.62948292752E+03 -0.98369554884E+02 -0.17548760290E+04  0.21346183073E+04  0.10349300050E+04 0.  0.
        -13    1    3    3    0    0 -0.30270004488E+03 -0.34070742608E+03 -0.28984324875E+03  0.54010923652E+03  0.10566000000E+00 0.  1.
          4    1    3    3  502    0 -0.32678288263E+03  0.43907698096E+03 -0.14027446961E+04  0.15057451079E+04  0.00000000000E+00 0.  1.
         13    1    4    4    0    0  0.56694208742E+03 -0.51844144919E+03 -0.92537608416E+03  0.12027159993E+04  0.10566000000E+00 0. -1.
         -4    1    4    4    0  501  0.62540840096E+02  0.42007189430E+03 -0.82949994486E+03  0.93190230796E+03  0.00000000000E+00 0. -1.
<mgrwt>
<rscale>  2 0.11817994E+04</rscale>
<asrwt>0</asrwt>
<pdfrwt beam="2">  1        2 0.58676438E+00 0.11817994E+04</pdfrwt>
<pdfrwt beam="1">  1       -2 0.56385280E-01 0.11817994E+04</pdfrwt>
<totfact> 0.20412441E+00</totfact>
</mgrwt>
</event>
<event>
 8    1  0.1408247E-005  0.1016526E+04  0.7818608E-02  0.8759217E-01
          2   -1    0    0  502    0  0.00000000000E+00  0.00000000000E+00  0.26963964948E+04  0.26963964948E+04  0.00000000000E+00 0. -1.
         -2   -1    0    0    0  501 -0.00000000000E+00 -0.00000000000E+00 -0.41877317563E+03  0.41877317563E+03  0.00000000000E+00 0.  1.
    9000010    2    1    2  502    0 -0.83477729236E+02  0.12986047890E+03  0.15938340479E+04  0.18910433565E+04  0.10059352508E+04 0.  0.
   -9000010    2    1    2    0  501  0.83477729236E+02 -0.12986047890E+03  0.68378927134E+03  0.12241263140E+04  0.10035363420E+04 0.  0.
        -13    1    3    3    0    0  0.39074426072E+03 -0.15825662993E+03  0.43258920040E+03  0.60403614600E+03  0.10566000000E+00 0.  1.
          4    1    3    3  502    0 -0.47422198996E+03  0.28811710883E+03  0.11612448475E+04  0.12870072105E+04  0.00000000000E+00 0.  1.
         13    1    4    4    0    0  0.38054470105E+03  0.30127294180E+03  0.39770984956E+03  0.62749724346E+03  0.10566000000E+00 0. -1.
         -4    1    4    4    0  501 -0.29706697182E+03 -0.43113342070E+03  0.28607942178E+03  0.59662907049E+03  0.00000000000E+00 0. -1.
<mgrwt>
<rscale>  2 0.10165259E+04</rscale>
<asrwt>0</asrwt>
<pdfrwt beam="1">  1        2 0.41483022E+00 0.10165259E+04</pdfrwt>
<pdfrwt beam="2">  1       -2 0.64426644E-01 0.10165259E+04</pdfrwt>
<totfact> 0.92603049E+00</totfact>
</mgrwt>
</event>
<event>
 8    1  0.1408247E-005  0.1392587E+04  0.7818608E-02  0.8474130E-01
          2   -1    0    0  502    0  0.00000000000E+00  0.00000000000E+00  0.35865023211E+04  0.35865023211E+04  0.00000000000E+00 0.  1.
         -2   -1    0    0    0  501 -0.00000000000E+00 -0.00000000000E+00 -0.65179540416E+03  0.65179540416E+03  0.00000000000E+00 0. -1.
    9000010    2    1    2  502    0  0.96998953623E+03 -0.13281433868E+03  0.59646688035E+03  0.15190529630E+04  0.99660915915E+03 0.  0.
   -9000010    2    1    2    0  501 -0.96998953623E+03  0.13281433868E+03  0.23382400366E+04  0.27192447622E+04  0.98407634837E+03 0.  0.
        -13    1    3    3    0    0  0.98755123760E+02 -0.21278756859E+03 -0.22055408145E+03  0.32198639385E+03  0.10566000000E+00 0.  1.
          4    1    3    3  502    0  0.87123441247E+03  0.79973229909E+02  0.81702096180E+03  0.11970665692E+04  0.00000000000E+00 0.  1.
         13    1    4    4    0    0  0.16605697314E+03  0.64285052389E+02  0.71454111787E+03  0.73639426028E+03  0.10566000000E+00 0. -1.
         -4    1    4    4    0  501 -0.11360465094E+04  0.68529286292E+02  0.16236989187E+04  0.19828505020E+04  0.00000000000E+00 0. -1.
<mgrwt>
<rscale>  2 0.13925867E+04</rscale>
<asrwt>0</asrwt>
<pdfrwt beam="1">  1        2 0.55176958E+00 0.13925867E+04</pdfrwt>
<pdfrwt beam="2">  1       -2 0.10027622E+00 0.13925867E+04</pdfrwt>
<totfact> 0.87256246E-01</totfact>
</mgrwt>
</event>
<event>
 8    1  0.1408247E-005  0.1791920E+04  0.7818608E-02  0.8258813E-01
         -2   -1    0    0    0  501 -0.00000000000E+00  0.00000000000E+00  0.67779893928E+03  0.67779893928E+03  0.00000000000E+00 0.  1.
          2   -1    0    0  502    0  0.00000000000E+00 -0.00000000000E+00 -0.47423056765E+04  0.47423056765E+04  0.00000000000E+00 0. -1.
    9000010    2    1    2  502    0 -0.13997816766E+04 -0.47709127046E+03 -0.21142769783E+04  0.27685157949E+04  0.10037468521E+04 0.  0.
   -9000010    2    1    2    0  501  0.13997816766E+04  0.47709127046E+03 -0.19502297589E+04  0.26515888209E+04  0.10200599687E+04 0.  0.
        -13    1    3    3    0    0 -0.75927459049E+03 -0.46766031478E+03 -0.47899433452E+03  0.10122448604E+04  0.10566000000E+00 0.  1.
          4    1    3    3  502    0 -0.64050708615E+03 -0.94309556741E+01 -0.16352826438E+04  0.17562709345E+04  0.00000000000E+00 0.  1.
         13    1    4    4    0    0  0.54328569182E+03  0.16328842593E+03 -0.82827662464E+02  0.57330871771E+03  0.10566000000E+00 0. -1.
         -4    1    4    4    0  501  0.85649598482E+03  0.31380284453E+03 -0.18674020965E+04  0.20782801032E+04  0.00000000000E+00 0. -1.
<mgrwt>
<rscale>  2 0.17919200E+04</rscale>
<asrwt>0</asrwt>
<pdfrwt beam="2">  1        2 0.72958552E+00 0.17919200E+04</pdfrwt>
<pdfrwt beam="1">  1       -2 0.10427676E+00 0.17919200E+04</pdfrwt>
<totfact> 0.73718798E-02</totfact>
</mgrwt>
</event>
<event>
 8    1  0.1408247E-005  0.1511519E+04  0.7818608E-02  0.8402900E-01
          1   -1    0    0  502    0  0.00000000000E+00  0.00000000000E+00  0.26139450175E+04  0.26139450175E+04  0.00000000000E+00 0. -1.
         -1   -1    0    0    0  501 -0.00000000000E+00 -0.00000000000E+00 -0.87406982052E+03  0.87406982052E+03  0.00000000000E+00 0.  1.
    9000010    2    1    2  502    0  0.11317669668E+04 -0.71004595405E+02  0.88127970732E+03  0.17519615507E+04  0.10033828946E+04 0.  0.
   -9000010    2    1    2    0  501 -0.11317669668E+04  0.71004595405E+02  0.85859548967E+03  0.17360532873E+04  0.99536761140E+03 0.  0.
        -13    1    3    3    0    0  0.69614283733E+03 -0.21490561984E+03 -0.32708207705E+02  0.72929357149E+03  0.10566000000E+00 0.  1.
          4    1    3    3  502    0  0.43562412943E+03  0.14390102443E+03  0.91398791503E+03  0.10226679793E+04  0.00000000000E+00 0.  1.
         13    1    4    4    0    0 -0.19385545983E+03  0.31970087305E+03  0.64031714419E+03  0.74148138469E+03  0.10566000000E+00 0. -1.
         -4    1    4    4    0  501 -0.93791150692E+03 -0.24869627764E+03  0.21827834548E+03  0.99457190260E+03  0.00000000000E+00 0. -1.
<mgrwt>
<rscale>  2 0.15115194E+04</rscale>
<asrwt>0</asrwt>
<pdfrwt beam="1">  1        1 0.40214538E+00 0.15115194E+04</pdfrwt>
<pdfrwt beam="2">  1       -1 0.13447228E+00 0.15115194E+04</pdfrwt>
<totfact> 0.53912728E-01</totfact>
</mgrwt>
</event>
<event>
 8    1  0.1408247E-005  0.1073245E+04  0.7818608E-02  0.8708660E-01
         -4   -1    0    0    0  501 -0.00000000000E+00  0.00000000000E+00  0.54845121946E+03  0.54845121946E+03  0.00000000000E+00 0. -1.
          4   -1    0    0  502    0  0.00000000000E+00 -0.00000000000E+00 -0.21482203521E+04  0.21482203521E+04  0.00000000000E+00 0.  1.
    9000010    2    1    2  502    0  0.33496377233E+03  0.20155648278E+03 -0.59532516312E+03  0.12236778652E+04  0.99506267308E+03 0.  0.
   -9000010    2    1    2    0  501 -0.33496377233E+03 -0.20155648278E+03 -0.10044439695E+04  0.14729937063E+04  0.10039805907E+04 0.  0.
        -13    1    3    3    0    0 -0.35629090813E+00 -0.34742287856E+03 -0.34258082031E+00  0.34742324622E+03  0.10566000000E+00 0.  1.
          4    1    3    3  502    0  0.33532006324E+03  0.54897936134E+03 -0.59498258230E+03  0.87625461895E+03  0.00000000000E+00 0.  1.
         13    1    4    4    0    0 -0.67717059138E+03 -0.19723787681E+03 -0.50465344819E+03  0.86725884476E+03  0.10566000000E+00 0. -1.
         -4    1    4    4    0  501  0.34220681905E+03 -0.43186059745E+01 -0.49979052129E+03  0.60573486158E+03  0.00000000000E+00 0. -1.
<mgrwt>
<rscale>  2 0.10732449E+04</rscale>
<asrwt>0</asrwt>
<pdfrwt beam="2">  1        4 0.33049544E+00 0.10732449E+04</pdfrwt>
<pdfrwt beam="1">  1       -4 0.84377111E-01 0.10732449E+04</pdfrwt>
<totfact> 0.34578861E-01</totfact>
</mgrwt>
</event>
<event>
 8    1  0.1408247E-005  0.1509082E+04  0.7818608E-02  0.8404291E-01
         -2   -1    0    0    0  501 -0.00000000000E+00  0.00000000000E+00  0.20239847481E+04  0.20239847481E+04  0.00000000000E+00 0. -1.
          2   -1    0    0  502    0  0.00000000000E+00 -0.00000000000E+00 -0.16143213503E+04  0.16143213503E+04  0.00000000000E+00 0.  1.
    9000010    2    1    2  502    0  0.94447189066E+03 -0.58934798699E+03 -0.79725964353E+03  0.16996355287E+04  0.10068663214E+04 0.  0.
   -9000010    2    1    2    0  501 -0.94447189066E+03  0.58934798699E+03  0.12069230414E+04  0.19386705697E+04  0.10307386419E+04 0.  0.
        -13    1    3    3    0    0  0.97967747685E+03 -0.80818040367E+03 -0.74322369949E+03  0.14714975373E+04  0.10566000000E+00 0.  1.
          4    1    3    3  502    0 -0.35205586184E+02  0.21883241668E+03 -0.54035944041E+02  0.22813799143E+03  0.00000000000E+00 0.  1.
         13    1    4    4    0    0 -0.10691443292E+04  0.20743302136E+03  0.71180661358E+03  0.13010636885E+04  0.10566000000E+00 0. -1.
         -4    1    4    4    0  501  0.12467243859E+03  0.38191496563E+03  0.49511642778E+03  0.63760688121E+03  0.00000000000E+00 0. -1.
<mgrwt>
<rscale>  2 0.15090823E+04</rscale>
<asrwt>0</asrwt>
<pdfrwt beam="2">  1        2 0.24835713E+00 0.15090823E+04</pdfrwt>
<pdfrwt beam="1">  1       -2 0.31138227E+00 0.15090823E+04</pdfrwt>
<totfact> 0.23713023E-01</totfact>
</mgrwt>
</event>
<event>
 8    1  0.1408247E-005  0.1064060E+04  0.7818608E-02  0.8716624E-01
          2   -1    0    0  502    0  0.00000000000E+00  0.00000000000E+00  0.21935356586E+04  0.21935356586E+04  0.00000000000E+00 0. -1.
         -2   -1    0    0    0  501 -0.00000000000E+00 -0.00000000000E+00 -0.59831392319E+03  0.59831392319E+03  0.00000000000E+00 0.  1.
    9000010    2    1    2  502    0 -0.33415366809E+03 -0.21488789459E+02  0.27195252490E+03  0.10853130355E+04  0.99590449703E+03 0.  0.
   -9000010    2    1    2    0  501  0.33415366809E+03  0.21488789459E+02  0.13232692105E+04  0.17065365463E+04  0.10242583358E+04 0.  0.
        -13    1    3    3    0    0 -0.55085184391E+03  0.24036047961E+02  0.51643541208E+03  0.75546080742E+03  0.10566000000E+00 0.  1.
          4    1    3    3  502    0  0.21669817582E+03 -0.45524837420E+02 -0.24448288718E+03  0.32985222805E+03  0.00000000000E+00 0.  1.
         13    1    4    4    0    0 -0.48670078794E+02  0.24533721139E+03  0.12276614818E+04  0.12528814186E+04  0.10566000000E+00 0. -1.
         -4    1    4    4    0  501  0.38282374688E+03 -0.22384842193E+03  0.95607728733E+02  0.45365512779E+03  0.00000000000E+00 0. -1.
<mgrwt>
<rscale>  2 0.10640600E+04</rscale>
<asrwt>0</asrwt>
<pdfrwt beam="1">  1        2 0.33746702E+00 0.10640600E+04</pdfrwt>
<pdfrwt beam="2">  1       -2 0.92048297E-01 0.10640600E+04</pdfrwt>
<totfact> 0.80984937E+00</totfact>
</mgrwt>
</event>
<event>
 8    1  0.1408247E-005  0.1251977E+04  0.7818608E-02  0.8568417E-01
          1   -1    0    0  502    0  0.00000000000E+00  0.00000000000E+00  0.24885482804E+04  0.24885482804E+04  0.00000000000E+00 0. -1.
         -1   -1    0    0    0  501 -0.00000000000E+00 -0.00000000000E+00 -0.69358731833E+03  0.69358731833E+03  0.00000000000E+00 0.  1.
    9000010    2    1    2  502    0 -0.75607805013E+03  0.54618051747E+02  0.42052403466E+03  0.13283193304E+04  0.10064564721E+04 0.  0.
   -9000010    2    1    2    0  501  0.75607805013E+03 -0.54618051747E+02  0.13744369274E+04  0.18538162683E+04  0.98636744666E+03 0.  0.
        -13    1    3    3    0    0  0.19808205506E+03 -0.14533156639E+03 -0.42059870292E+02  0.24925249964E+03  0.10566000000E+00 0.  1.
          4    1    3    3  502    0 -0.95416010518E+03  0.19994961814E+03  0.46258390495E+03  0.10790668308E+04  0.00000000000E+00 0.  1.
         13    1    4    4    0    0  0.69095922458E+03  0.30326159782E+03  0.49588404787E+03  0.90293590406E+03  0.10566000000E+00 0. -1.
         -4    1    4    4    0  501  0.65118825543E+02 -0.35787964957E+03  0.87855287948E+03  0.95088036422E+03  0.00000000000E+00 0. -1.
<mgrwt>
<rscale>  2 0.12519772E+04</rscale>
<asrwt>0</asrwt>
<pdfrwt beam="1">  1        1 0.38285358E+00 0.12519772E+04</pdfrwt>
<pdfrwt beam="2">  1       -1 0.10670574E+00 0.12519772E+04</pdfrwt>
<totfact> 0.12856383E+00</totfact>
</mgrwt>
</event>
<event>
 8    1  0.1408247E-005  0.1185059E+04  0.7818608E-02  0.8617899E-01
         -4   -1    0    0    0  501 -0.00000000000E+00  0.00000000000E+00  0.91739195630E+03  0.91739195630E+03  0.00000000000E+00 0. -1.
          4   -1    0    0  502    0  0.00000000000E+00 -0.00000000000E+00 -0.15634671118E+04  0.15634671118E+04  0.00000000000E+00 0.  1.
    9000010    2    1    2  502    0  0.19576866917E+03  0.61264246146E+03 -0.50062601742E+03  0.12811333787E+04  0.98844330504E+03 0.  0.
   -9000010    2    1    2    0  501 -0.19576866917E+03 -0.61264246146E+03 -0.14544913813E+03  0.11997256895E+04  0.10022625009E+04 0.  0.
        -13    1    3    3    0    0  0.20678227709E+03 -0.24153248575E+03 -0.74802669019E+02  0.32663787633E+03  0.10566000000E+00 0.  1.
          4    1    3    3  502    0 -0.11013607925E+02  0.85417494721E+03 -0.42582334840E+03  0.95449550237E+03  0.00000000000E+00 0.  1.
         13    1    4    4    0    0 -0.12211907958E+03 -0.76945516157E+03 -0.41238585305E+03  0.88149669213E+03  0.10566000000E+00 0. -1.
         -4    1    4    4    0  501 -0.73649589588E+02  0.15681270012E+03  0.26693671492E+03  0.31822899732E+03  0.00000000000E+00 0. -1.
<mgrwt>
<rscale>  2 0.11850586E+04</rscale>
<asrwt>0</asrwt>
<pdfrwt beam="2">  1        4 0.24053340E+00 0.11850586E+04</pdfrwt>
<pdfrwt beam="1">  1       -4 0.14113722E+00 0.11850586E+04</pdfrwt>
<totfact> 0.23281189E-01</totfact>
</mgrwt>
</event>
<event>
 8    1  0.1408247E-005  0.1305436E+04  0.7818608E-02  0.8531133E-01
          1   -1    0    0  502    0  0.00000000000E+00  0.00000000000E+00  0.18712418483E+04  0.18712418483E+04  0.00000000000E+00 0. -1.
         -1   -1    0    0    0  501 -0.00000000000E+00 -0.00000000000E+00 -0.12100631607E+04  0.12100631607E+04  0.00000000000E+00 0.  1.
    9000010    2    1    2  502    0 -0.48950500076E+03  0.61162936619E+03 -0.44268316210E+03  0.13355779901E+04  0.98696228813E+03 0.  0.
   -9000010    2    1    2    0  501  0.48950500076E+03 -0.61162936619E+03  0.11038618496E+04  0.17457270190E+04  0.11024274191E+04 0.  0.
        -13    1    3    3    0    0 -0.56208193353E+03  0.56264829034E+03 -0.70266480964E+03  0.10612478714E+04  0.10566000000E+00 0.  1.
          4    1    3    3  502    0  0.72576932772E+02  0.48981075849E+02  0.25998164755E+03  0.27433011869E+03  0.00000000000E+00 0.  1.
         13    1    4    4    0    0 -0.35411333797E+03 -0.20207846699E+03  0.41792573815E+03  0.58386119646E+03  0.10566000000E+00 0. -1.
         -4    1    4    4    0  501  0.84361833873E+03 -0.40955089919E+03  0.68593611147E+03  0.11618658225E+04  0.00000000000E+00 0. -1.
<mgrwt>
<rscale>  2 0.13054356E+04</rscale>
<asrwt>0</asrwt>
<pdfrwt beam="1">  1        1 0.28788336E+00 0.13054356E+04</pdfrwt>
<pdfrwt beam="2">  1       -1 0.18616356E+00 0.13054356E+04</pdfrwt>
<totfact> 0.81173559E-01</totfact>
</mgrwt>
</event>
<event>
 8    1  0.1408247E-005  0.1236300E+04  0.7818608E-02  0.8579718E-01
          1   -1    0    0  502    0  0.00000000000E+00  0.00000000000E+00  0.28834589894E+04  0.28834589894E+04  0.00000000000E+00 0.  1.
         -1   -1    0    0    0  501 -0.00000000000E+00 -0.00000000000E+00 -0.54591616559E+03  0.54591616559E+03  0.00000000000E+00 0. -1.
    9000010    2    1    2  502    0  0.21488837610E+03  0.69460050294E+03  0.87761377956E+03  0.15169864894E+04  0.10011968788E+04 0.  0.
   -9000010    2    1    2    0  501 -0.21488837610E+03 -0.69460050294E+03  0.14599290442E+04  0.19123886655E+04  0.99859437264E+03 0.  0.
        -13    1    3    3    0    0  0.54252197555E+03  0.42669570786E+03  0.84706182504E+03  0.10926632911E+04  0.10566000000E+00 0.  1.
          4    1    3    3  502    0 -0.32763359946E+03  0.26790479509E+03  0.30551954516E+02  0.42432319834E+03  0.00000000000E+00 0.  1.
         13    1    4    4    0    0  0.26177648122E+03 -0.69726937777E+03  0.74757646859E+03  0.10552639949E+04  0.10566000000E+00 0. -1.
         -4    1    4    4    0  501 -0.47666485731E+03  0.26688748236E+01  0.71235257562E+03  0.85712467067E+03  0.00000000000E+00 0. -1.
<mgrwt>
<rscale>  2 0.12363000E+04</rscale>
<asrwt>0</asrwt>
<pdfrwt beam="1">  1        1 0.44360907E+00 0.12363000E+04</pdfrwt>
<pdfrwt beam="2">  1       -1 0.83987104E-01 0.12363000E+04</pdfrwt>
<totfact> 0.89296539E-01</totfact>
</mgrwt>
</event>
<event>
 8    1  0.1408247E-005  0.1302387E+04  0.7818608E-02  0.8533209E-01
          1   -1    0    0  502    0  0.00000000000E+00  0.00000000000E+00  0.90322975384E+03  0.90322975384E+03  0.00000000000E+00 0.  1.
         -1   -1    0    0    0  501 -0.00000000000E+00 -0.00000000000E+00 -0.29615600909E+04  0.29615600909E+04  0.00000000000E+00 0. -1.
    9000010    2    1    2  502    0  0.79791651492E+03  0.29177986286E+03 -0.22092262060E+04  0.25764910623E+04  0.10177521859E+04 0.  0.
   -9000010    2    1    2    0  501 -0.79791651492E+03 -0.29177986286E+03  0.15089586889E+03  0.12882987824E+04  0.95662842129E+03 0.  0.
        -13    1    3    3    0    0  0.23777995057E+02 -0.29416017192E+03 -0.89592929446E+03  0.94328410971E+03  0.10566000000E+00 0.  1.
          4    1    3    3  502    0  0.77413851986E+03  0.58594003478E+03 -0.13132969115E+04  0.16332069526E+04  0.00000000000E+00 0.  1.
         13    1    4    4    0    0  0.79342210397E+02  0.66454031933E+02  0.31056611654E+03  0.32735706593E+03  0.10566000000E+00 0. -1.
         -4    1    4    4    0  501 -0.87725872532E+03 -0.35823389479E+03 -0.15967024765E+03  0.96094171650E+03  0.00000000000E+00 0. -1.
<mgrwt>
<rscale>  2 0.13023871E+04</rscale>
<asrwt>0</asrwt>
<pdfrwt beam="1">  1        1 0.13895843E+00 0.13023871E+04</pdfrwt>
<pdfrwt beam="2">  1       -1 0.45562462E+00 0.13023871E+04</pdfrwt>
<totfact> 0.26392513E-01</totfact>
</mgrwt>
</event>
<event>
 8    1  0.1408247E-005  0.1518233E+04  0.7818608E-02  0.8399082E-01
          2   -1    0    0  502    0  0.00000000000E+00  0.00000000000E+00  0.62736826069E+03  0.62736826069E+03  0.00000000000E+00 0.  1.
         -2   -1    0    0    0  501 -0.00000000000E+00 -0.00000000000E+00 -0.43227548303E+04  0.43227548303E+04  0.00000000000E+00 0. -1.
    9000010    2    1    2  502    0 -0.47776435764E+03 -0.10347427507E+04 -0.89475549896E+03  0.17670889485E+04  0.10114665627E+04 0.  0.
   -9000010    2    1    2    0  501  0.47776435764E+03  0.10347427507E+04 -0.28006310706E+04  0.31830341425E+04  0.99459570523E+03 0.  0.
        -13    1    3    3    0    0  0.66244508707E+02 -0.75379538458E+03 -0.87178649725E+03  0.11543862112E+04  0.10566000000E+00 0.  1.
          4    1    3    3  502    0 -0.54400886635E+03 -0.28094736612E+03 -0.22969001710E+02  0.61270273725E+03  0.00000000000E+00 0.  1.
         13    1    4    4    0    0 -0.57717877296E+02  0.47327466038E+03 -0.29649401726E+03  0.56145255450E+03  0.10566000000E+00 0. -1.
         -4    1    4    4    0  501  0.53548223494E+03  0.56146809032E+03 -0.25041370534E+04  0.26215815880E+04  0.00000000000E+00 0. -1.
<mgrwt>
<rscale>  2 0.15182331E+04</rscale>
<asrwt>0</asrwt>
<pdfrwt beam="1">  1        2 0.96518189E-01 0.15182331E+04</pdfrwt>
<pdfrwt beam="2">  1       -2 0.66503924E+00 0.15182331E+04</pdfrwt>
<totfact> 0.17024028E-01</totfact>
</mgrwt>
</event>
<event>
 8    1  0.1408247E-005  0.1228950E+04  0.7818608E-02  0.8585076E-01
          2   -1    0    0  502    0  0.00000000000E+00  0.00000000000E+00  0.18068014895E+04  0.18068014895E+04  0.00000000000E+00 0.  1.
         -2   -1    0    0    0  501 -0.00000000000E+00 -0.00000000000E+00 -0.84788491562E+03  0.84788491562E+03  0.00000000000E+00 0. -1.
    9000010    2    1    2  502    0 -0.60702456943E+03  0.36226975979E+03  0.33200181402E+03  0.12945339746E+04  0.10324121270E+04 0.  0.
   -9000010    2    1    2    0  501  0.60702456943E+03 -0.36226975979E+03  0.62691475986E+03  0.13601524306E+04  0.97840396130E+03 0.  0.
        -13    1    3    3    0    0 -0.15309205342E+03  0.30830909838E+03  0.65148083780E+03  0.73683035371E+03  0.10566000000E+00 0.  1.
          4    1    3    3  502    0 -0.45393251601E+03  0.53960661417E+02 -0.31947902378E+03  0.55770362085E+03  0.00000000000E+00 0.  1.
         13    1    4    4    0    0  0.54948198755E+03 -0.68194960050E+03  0.39322593575E+03  0.96000643746E+03  0.10566000000E+00 0. -1.
         -4    1    4    4    0  501  0.57542581885E+02  0.31967984070E+03  0.23368882411E+03  0.40014599311E+03  0.00000000000E+00 0. -1.
<mgrwt>
<rscale>  2 0.12289495E+04</rscale>
<asrwt>0</asrwt>
<pdfrwt beam="1">  1        2 0.27796946E+00 0.12289495E+04</pdfrwt>
<pdfrwt beam="2">  1       -2 0.13044383E+00 0.12289495E+04</pdfrwt>
<totfact> 0.53586576E+00</totfact>
</mgrwt>
</event>
<event>
 8    1  0.1408247E-005  0.1129022E+04  0.7818608E-02  0.8662017E-01
          1   -1    0    0  502    0  0.00000000000E+00  0.00000000000E+00  0.18146580505E+04  0.18146580505E+04  0.00000000000E+00 0. -1.
         -1   -1    0    0    0  501 -0.00000000000E+00 -0.00000000000E+00 -0.75082935134E+03  0.75082935134E+03  0.00000000000E+00 0.  1.
    9000010    2    1    2  502    0 -0.41599781244E+03  0.34546149459E+03  0.85734941008E+03  0.14172784727E+04  0.99057177120E+03 0.  0.
   -9000010    2    1    2    0  501  0.41599781244E+03 -0.34546149459E+03  0.20647928904E+03  0.11482089291E+04  0.99164117702E+03 0.  0.
        -13    1    3    3    0    0 -0.89214462006E+02  0.66486361145E+03  0.48402750822E+03  0.82721549909E+03  0.10566000000E+00 0.  1.
          4    1    3    3  502    0 -0.32678335044E+03 -0.31940211686E+03  0.37332190186E+03  0.59006297357E+03  0.00000000000E+00 0.  1.
         13    1    4    4    0    0  0.50858249074E+03 -0.36185435628E+03 -0.25720181829E+03  0.67509074320E+03  0.10566000000E+00 0. -1.
         -4    1    4    4    0  501 -0.92584678300E+02  0.16392861692E+02  0.46368110734E+03  0.47311818595E+03  0.00000000000E+00 0. -1.
<mgrwt>
<rscale>  2 0.11290216E+04</rscale>
<asrwt>0</asrwt>
<pdfrwt beam="1">  1        1 0.27917816E+00 0.11290216E+04</pdfrwt>
<pdfrwt beam="2">  1       -1 0.11551221E+00 0.11290216E+04</pdfrwt>
<totfact> 0.37945490E+00</totfact>
</mgrwt>
</event>
