<event>
 5    1  0.4419198E-005  0.4224685E+03  0.7818608E-02  0.9834164E-01
         21   -1    0    0  501  502  0.00000000000E+00  0.00000000000E+00  0.24878583722E+03  0.24878583722E+03  0.00000000000E+00 0. -1.
         -4   -1    0    0    0  501 -0.00000000000E+00 -0.00000000000E+00 -0.16181841884E+04  0.16181841884E+04  0.00000000000E+00 0. -1.
        -13    1    1    2    0    0 -0.61627894317E+02 -0.22866581943E+03 -0.69469336908E+03  0.73395159414E+03  0.10566000000E+00 0.  1.
         13    1    1    2    0    0  0.43885615733E+03  0.85762832280E+01 -0.49272323574E+03  0.65988216953E+03  0.10566000000E+00 0. -1.
         -4    1    1    2    0  502 -0.37722826301E+03  0.22008953620E+03 -0.18198174633E+03  0.47313626193E+03  0.00000000000E+00 0. -1.
</event>
<event>
 5    1  0.4419198E-005  0.3419148E+03  0.7818608E-02  0.1000756E+00
          4   -1    0    0  502    0 -0.00000000000E+00  0.00000000000E+00  0.16495050012E+04  0.16495050012E+04  0.00000000000E+00 0.  1.
         21   -1    0    0  501  502  0.00000000000E+00 -0.00000000000E+00 -0.37264837691E+03  0.37264837691E+03  0.00000000000E+00 0.  1.
        -13    1    1    2    0    0  0.21614701186E+03 -0.22257422137E+03 -0.13632301246E+03  0.33888462586E+03  0.10566000000E+00 0.  1.
         13    1    1    2    0    0  0.88813584691E+02 -0.23446369971E+03  0.88979328769E+03  0.92444209407E+03  0.10566000000E+00 0. -1.
          4    1    1    2  501    0 -0.30496059655E+03  0.45703792108E+03  0.52338634904E+03  0.75882665815E+03  0.00000000000E+00 0.  1.
</event>
<event>
 5    1  0.4419198E-005  0.2887036E+03  0.7818608E-02  0.1012080E+00
         21   -1    0    0  501  502  0.00000000000E+00  0.00000000000E+00  0.98956103417E+02  0.98956103417E+02  0.00000000000E+00 0. -1.
         -4   -1    0    0    0  501 -0.00000000000E+00 -0.00000000000E+00 -0.22241048522E+04  0.22241048522E+04  0.00000000000E+00 0. -1.
        -13    1    1    2    0    0  0.25265842439E+03 -0.97688170912E+02 -0.90501652557E+03  0.94468734557E+03  0.10566000000E+00 0.  1.
         13    1    1    2    0    0 -0.25810586386E+03  0.27578661511E+03 -0.44818211359E+03  0.58612636192E+03  0.10566000000E+00 0. -1.
         -4    1    1    2    0  502  0.54474394677E+01 -0.17809844420E+03 -0.77195010966E+03  0.79224724817E+03  0.00000000000E+00 0. -1.
</event>
<event>
 5    1  0.4419198E-005  0.4691592E+02  0.7818608E-02  0.1353981E+00
          4   -1    0    0  502    0 -0.00000000000E+00  0.00000000000E+00  0.54718174259E+03  0.54718174259E+03  0.00000000000E+00 0.  1.
         21   -1    0    0  501  502  0.00000000000E+00 -0.00000000000E+00 -0.61795755704E+01  0.61795755704E+01  0.00000000000E+00 0.  1.
        -13    1    1    2    0    0 -0.78590738539E+01 -0.50338132138E+02  0.27435328430E+03  0.27904377499E+03  0.10566000000E+00 0.  1.
         13    1    1    2    0    0  0.17912821288E+02  0.59188722007E+01  0.78464352914E+02  0.80700483623E+02  0.10566000000E+00 0. -1.
          4    1    1    2  501    0 -0.10053747435E+02  0.44419259938E+02  0.18818452981E+03  0.19361705955E+03  0.00000000000E+00 0.  1.
</event>
<event>
 5    1  0.4419198E-005  0.1123650E+03  0.7818608E-02  0.1145575E+00
         21   -1    0    0  501  502  0.00000000000E+00  0.00000000000E+00  0.27985693297E+03  0.27985693297E+03  0.00000000000E+00 0. -1.
          4   -1    0    0  502    0 -0.00000000000E+00 -0.00000000000E+00 -0.14106372307E+03  0.14106372307E+03  0.00000000000E+00 0.  1.
        -13    1    1    2    0    0 -0.16984179295E+02  0.17734604797E+03  0.90360158072E+02  0.19976248999E+03  0.10566000000E+00 0.  1.
         13    1    1    2    0    0  0.40190668769E+02 -0.88795523047E+02 -0.28535850248E+02  0.10155905023E+03  0.10566000000E+00 0. -1.
          4    1    1    2  501    0 -0.23206489474E+02 -0.88550524921E+02  0.76968902080E+02  0.11959911582E+03  0.00000000000E+00 0.  1.
</event>
<event>
 5    1  0.4419198E-005  0.4538607E+03  0.7818608E-02  0.9585273E-01
          4   -1    0    0  502    0 -0.00000000000E+00  0.00000000000E+00  0.16417029537E+04  0.16417029537E+04  0.00000000000E+00 0.  1.
         21   -1    0    0  501  502  0.00000000000E+00 -0.00000000000E+00 -0.39758046136E+03  0.39758046136E+03  0.00000000000E+00 0.  1.
        -13    1    1    2    0    0 -0.33297636499E+03  0.46363819609E+03 -0.13328299030E+01  0.57081995770E+03  0.10566000000E+00 0.  1.
         13    1    1    2    0    0  0.41808622923E+03 -0.14935890531E+03  0.61010575744E+03  0.75454173118E+03  0.10566000000E+00 0. -1.
          4    1    1    2  501    0 -0.85109864240E+02 -0.31427929078E+03  0.63534956486E+03  0.71392172622E+03  0.00000000000E+00 0.  1.
</event>
<event>
 5    1  0.4419198E-005  0.1372327E+03  0.7818608E-02  0.1114434E+00
         21   -1    0    0  501  502  0.00000000000E+00  0.00000000000E+00  0.63281533677E+03  0.63281533677E+03  0.00000000000E+00 0. -1.
         -4   -1    0    0    0  501 -0.00000000000E+00 -0.00000000000E+00 -0.48236339543E+02  0.48236339543E+02  0.00000000000E+00 0. -1.
        -13    1    1    2    0    0 -0.97947099722E+02  0.61432366868E+02  0.17815724206E+03  0.21238546114E+03  0.10566000000E+00 0.  1.
         13    1    1    2    0    0  0.12642919919E+03 -0.11318319125E+03  0.25674186486E+03  0.30775180507E+03  0.10566000000E+00 0. -1.
         -4    1    1    2    0  502 -0.28482099464E+02  0.51750824384E+02  0.14967989032E+03  0.16091441011E+03  0.00000000000E+00 0. -1.
</event>
<event>
 5    1  0.4419198E-005  0.3038140E+03  0.7818608E-02  0.1005744E+00
         -4   -1    0    0    0  501 -0.00000000000E+00  0.00000000000E+00  0.20177339341E+03  0.20177339341E+03  0.00000000000E+00 0. -1.
         21   -1    0    0  501  502  0.00000000000E+00 -0.00000000000E+00 -0.58249975604E+03  0.58249975604E+03  0.00000000000E+00 0.  1.
        -13    1    1    2    0    0 -0.10835136517E+03  0.26255395502E+03 -0.21988701246E+03  0.35920037172E+03  0.10566000000E+00 0.  1.
         13    1    1    2    0    0  0.15459314103E+03 -0.27837519548E+03 -0.76318802743E+02  0.32743909285E+03  0.10566000000E+00 0. -1.
         -4    1    1    2    0  502 -0.46241775863E+02  0.15821240455E+02 -0.84520547427E+02  0.97633684873E+02  0.00000000000E+00 0. -1.
</event>
<event>
 5    1  0.4419198E-005  0.3828476E+03  0.7818608E-02  0.9779932E-01
         -4   -1    0    0    0  501 -0.00000000000E+00  0.00000000000E+00  0.16923333173E+04  0.16923333173E+04  0.00000000000E+00 0. -1.
         21   -1    0    0  501  502  0.00000000000E+00 -0.00000000000E+00 -0.32248944016E+03  0.32248944016E+03  0.00000000000E+00 0. -1.
        -13    1    1    2    0    0  0.93688942796E+02  0.38795623712E+03  0.42686053200E+03  0.58437794694E+03  0.10566000000E+00 0.  1.
         13    1    1    2    0    0  0.17042525328E+03 -0.36487676368E+03 -0.47117479506E+02  0.40546256013E+03  0.10566000000E+00 0. -1.
         -4    1    1    2    0  502 -0.26411419608E+03 -0.23079473449E+02  0.99010082470E+03  0.10249822504E+04  0.00000000000E+00 0. -1.
</event>
<event>
 5    1  0.4419198E-005  0.1940184E+03  0.7818608E-02  0.1079345E+00
          4   -1    0    0  502    0 -0.00000000000E+00  0.00000000000E+00  0.79537479240E+02  0.79537479240E+02  0.00000000000E+00 0.  1.
         21   -1    0    0  501  502  0.00000000000E+00 -0.00000000000E+00 -0.10585998773E+04  0.10585998773E+04  0.00000000000E+00 0. -1.
        -13    1    1    2    0    0 -0.14735833464E+03 -0.25558744161E+02 -0.12086500838E+03  0.19229167847E+03  0.10566000000E+00 0.  1.
         13    1    1    2    0    0 -0.56351083153E+02 -0.11310341377E+03 -0.46454290998E+03  0.48142284237E+03  0.10566000000E+00 0. -1.
          4    1    1    2  501    0  0.20370941780E+03  0.13866215794E+03 -0.39365447972E+03  0.46442283573E+03  0.00000000000E+00 0.  1.
</event>
<event>
 5    1  0.4419198E-005  0.3640628E+03  0.7818608E-02  0.9838991E-01
         21   -1    0    0  501  502  0.00000000000E+00  0.00000000000E+00  0.41692291273E+03  0.41692291273E+03  0.00000000000E+00 0. -1.
          4   -1    0    0  502    0 -0.00000000000E+00 -0.00000000000E+00 -0.77077985500E+03  0.77077985500E+03  0.00000000000E+00 0.  1.
        -13    1    1    2    0    0 -0.29914436737E+03  0.21140663167E+03 -0.58234519535E+03  0.68797242253E+03  0.10566000000E+00 0.  1.
         13    1    1    2    0    0  0.30275195489E+03 -0.18491871199E+03  0.10013101019E+03  0.36861891785E+03  0.10566000000E+00 0. -1.
          4    1    1    2  501    0 -0.36075875186E+01 -0.26487919684E+02  0.12835724290E+03  0.13111142735E+03  0.00000000000E+00 0.  1.
</event>
<event>
 5    1  0.4419198E-005  0.3087609E+03  0.7818608E-02  0.1003753E+00
         21   -1    0    0  501  502  0.00000000000E+00  0.00000000000E+00  0.39264256012E+03  0.39264256012E+03  0.00000000000E+00 0. -1.
         -4   -1    0    0    0  501 -0.00000000000E+00 -0.00000000000E+00 -0.14400487032E+04  0.14400487032E+04  0.00000000000E+00 0. -1.
        -13    1    1    2    0    0  0.28816584898E+03  0.69811991619E+02 -0.69639937407E+03  0.75689191438E+03  0.10566000000E+00 0.  1.
         13    1    1    2    0    0 -0.44514994148E+03 -0.78555135949E+02  0.20619787283E+03  0.49683694881E+03  0.10566000000E+00 0. -1.
         -4    1    1    2    0  502  0.15698409250E+03  0.87431443295E+01 -0.55720464180E+03  0.57896240009E+03  0.00000000000E+00 0. -1.
</event>
<event>
 5    1  0.4419198E-005  0.5169406E+03  0.7818608E-02  0.9517534E-01
          4   -1    0    0  502    0 -0.00000000000E+00  0.00000000000E+00  0.11071399863E+04  0.11071399863E+04  0.00000000000E+00 0.  1.
         21   -1    0    0  501  502  0.00000000000E+00 -0.00000000000E+00 -0.99064646315E+03  0.99064646315E+03  0.00000000000E+00 0.  1.
        -13    1    1    2    0    0  0.34023864092E+03 -0.17144144996E+03  0.20297693775E+03  0.43168756290E+03  0.10566000000E+00 0.  1.
         13    1    1    2    0    0 -0.11849495261E+03 -0.37348843047E+03  0.62821833938E+03  0.74040053659E+03  0.10566000000E+00 0. -1.
          4    1    1    2  501    0 -0.22174368831E+03  0.54492988042E+03 -0.71470175400E+03  0.92569834993E+03  0.00000000000E+00 0.  1.
</event>
<event>
 5    1  0.4419198E-005  0.4183696E+03  0.7818608E-02  0.9949458E-01
         21   -1    0    0  501  502  0.00000000000E+00  0.00000000000E+00  0.12999363009E+04  0.12999363009E+04  0.00000000000E+00 0.  1.
          4   -1    0    0  502    0 -0.00000000000E+00 -0.00000000000E+00 -0.29218109968E+03  0.29218109968E+03  0.00000000000E+00 0.  1.
        -13    1    1    2    0    0  0.23660651202E+03 -0.31645016403E+03  0.72605493036E+02  0.40173986189E+03  0.10566000000E+00 0.  1.
         13    1    1    2    0    0  0.13503904085E+03  0.96035766519E+02  0.61640636135E+01  0.16582043858E+03  0.10566000000E+00 0. -1.
          4    1    1    2  501    0 -0.37164555287E+03  0.22041439751E+03  0.92898564459E+03  0.10245571001E+04  0.00000000000E+00 0.  1.
</event>
<event>
 5    1  0.5916097E-005  0.2461874E+03  0.7818608E-02  0.1065831E+00
         21   -1    0    0  501  502  0.00000000000E+00  0.00000000000E+00  0.39061103573E+03  0.39061103573E+03  0.00000000000E+00 0. -1.
         -4   -1    0    0    0  501 -0.00000000000E+00 -0.00000000000E+00 -0.77918398271E+03  0.77918398271E+03  0.00000000000E+00 0. -1.
        -13    1    1    2    0    0  0.70114881094E+02 -0.57846391004E+02 -0.68900309419E+02  0.11405948144E+03  0.10566000000E+00 0.  1.
         13    1    1    2    0    0 -0.29895858550E+03  0.13252144864E+03 -0.60177539295E+03  0.68488816965E+03  0.10566000000E+00 0. -1.
         -4    1    1    2    0  502  0.22884370441E+03 -0.74675057638E+02  0.28210275539E+03  0.37084736736E+03  0.00000000000E+00 0. -1.
</event>
<event>
 5    1  0.4419198E-005  0.4635797E+03  0.7818608E-02  0.9723686E-01
          4   -1    0    0  502    0 -0.00000000000E+00  0.00000000000E+00  0.21654331771E+03  0.21654331771E+03  0.00000000000E+00 0.  1.
         21   -1    0    0  501  502  0.00000000000E+00 -0.00000000000E+00 -0.24344633681E+04  0.24344633681E+04  0.00000000000E+00 0.  1.
        -13    1    1    2    0    0  0.33670894033E+03 -0.28936181368E+03 -0.51274969936E+03  0.67824437710E+03  0.10566000000E+00 0.  1.
         13    1    1    2    0    0  0.15125055390E+03  0.21365901658E+03 -0.79246675711E+02  0.27350859620E+03  0.10566000000E+00 0. -1.
          4    1    1    2  501    0 -0.48795949423E+03  0.75702797094E+02 -0.16259236753E+04  0.16992537125E+04  0.00000000000E+00 0.  1.
</event>
<event>
 5    1  0.4419198E-005  0.3425529E+03  0.7818608E-02  0.9911440E-01
          4   -1    0    0  502    0 -0.00000000000E+00  0.00000000000E+00  0.21239302936E+04  0.21239302936E+04  0.00000000000E+00 0.  1.
         21   -1    0    0  501  502  0.00000000000E+00 -0.00000000000E+00 -0.19812588611E+03  0.19812588611E+03  0.00000000000E+00 0.  1.
        -13    1    1    2    0    0 -0.24187532699E+03 -0.25248592774E+03  0.71802420131E+03  0.79863106774E+03  0.10566000000E+00 0.  1.
         13    1    1    2    0    0  0.16381760694E+03  0.30137773304E+03  0.13282223350E+04  0.13718014903E+04  0.10566000000E+00 0. -1.
          4    1    1    2  501    0  0.78057720056E+02 -0.48891805300E+02 -0.12044212879E+03  0.15162362176E+03  0.00000000000E+00 0.  1.
</event>
<event>
 5    1  0.4419198E-005  0.4236309E+03  0.7818608E-02  0.9892090E-01
         21   -1    0    0  501  502  0.00000000000E+00  0.00000000000E+00  0.36512037268E+03  0.36512037268E+03  0.00000000000E+00 0. -1.
         -4   -1    0    0    0  501 -0.00000000000E+00 -0.00000000000E+00 -0.10723469772E+04  0.10723469772E+04  0.00000000000E+00 0. -1.
        -13    1    1    2    0    0 -0.86287167993E+02  0.17288270197E+03 -0.28156701902E+03  0.34148777630E+03  0.10566000000E+00 0.  1.
         13    1    1    2    0    0 -0.32318960026E+03 -0.29969613314E+03 -0.49384034124E+03  0.66192717404E+03  0.10566000000E+00 0. -1.
         -4    1    1    2    0  502  0.40947676826E+03  0.12681343117E+03  0.68180755762E+02  0.43405239951E+03  0.00000000000E+00 0. -1.
</event>
<event>
 5    1  0.4419198E-005  0.7891061E+02  0.7818608E-02  0.1234253E+00
         21   -1    0    0  501  502  0.00000000000E+00  0.00000000000E+00  0.11102616809E+03  0.11102616809E+03  0.00000000000E+00 0.  1.
          4   -1    0    0  502    0 -0.00000000000E+00 -0.00000000000E+00 -0.13201972563E+03  0.13201972563E+03  0.00000000000E+00 0.  1.
        -13    1    1    2    0    0  0.28579910045E+02 -0.96752999184E+02 -0.63644227039E+02  0.11928349806E+03  0.10566000000E+00 0.  1.
         13    1    1    2    0    0 -0.34795603663E+02  0.22651666213E+02  0.11047224373E+02  0.42963756201E+02  0.10566000000E+00 0. -1.
          4    1    1    2  501    0  0.62156936184E+01  0.74101332971E+02  0.31603445120E+02  0.80798639461E+02  0.00000000000E+00 0.  1.
</event>
<event>
 5    1  0.4419198E-005  0.4665115E+03  0.7818608E-02  0.9910080E-01
          4   -1    0    0  502    0 -0.00000000000E+00  0.00000000000E+00  0.15097608133E+04  0.15097608133E+04  0.00000000000E+00 0.  1.
         21   -1    0    0  501  502  0.00000000000E+00 -0.00000000000E+00 -0.32591117619E+03  0.32591117619E+03  0.00000000000E+00 0.  1.
        -13    1    1    2    0    0 -0.42406979424E+03  0.36292057220E+03  0.39397434770E+03  0.68320006581E+03  0.10566000000E+00 0.  1.
         13    1    1    2    0    0  0.92928758815E+02 -0.99623135125E+02  0.70872309204E+03  0.72169865985E+03  0.10566000000E+00 0. -1.
          4    1    1    2  501    0  0.33114103543E+03 -0.26329743708E+03  0.81152197406E+02  0.43077326386E+03  0.00000000000E+00 0.  1.
</event>
<event>
 5    1  0.4419198E-005  0.1133013E+03  0.7818608E-02  0.1144248E+00
         21   -1    0    0  501  502  0.00000000000E+00  0.00000000000E+00  0.15416568347E+03  0.15416568347E+03  0.00000000000E+00 0. -1.
         -4   -1    0    0    0  501 -0.00000000000E+00 -0.00000000000E+00 -0.33585279097E+03  0.33585279097E+03  0.00000000000E+00 0. -1.
        -13    1    1    2    0    0 -0.79947039815E+02  0.99576584871E+02 -0.20461296837E+02  0.12932788277E+03  0.10566000000E+00 0.  1.
         13    1    1    2    0    0  0.55384697807E+02 -0.95550412181E+02 -0.24743302470E+03  0.27096209863E+03  0.10566000000E+00 0. -1.
         -4    1    1    2    0  502  0.24562342007E+02 -0.40261726900E+01  0.86207214034E+02  0.89728493038E+02  0.00000000000E+00 0. -1.
</event>
<event>
 5    1  0.4419198E-005  0.3125159E+03  0.7818608E-02  0.1002269E+00
         21   -1    0    0  501  502  0.00000000000E+00  0.00000000000E+00  0.47153097373E+03  0.47153097373E+03  0.00000000000E+00 0. -1.
          4   -1    0    0  502    0 -0.00000000000E+00 -0.00000000000E+00 -0.10390479526E+04  0.10390479526E+04  0.00000000000E+00 0.  1.
        -13    1    1    2    0    0 -0.41644706969E+03  0.14082402461E+03  0.22892767905E+03  0.49564852583E+03  0.10566000000E+00 0.  1.
         13    1    1    2    0    0  0.28140757114E+03 -0.13328311260E+02 -0.10773532540E+03  0.30162025210E+03  0.10566000000E+00 0. -1.
          4    1    1    2  501    0  0.13503949854E+03 -0.12749571335E+03 -0.68870933251E+03  0.71331014837E+03  0.00000000000E+00 0.  1.
</event>
<event>
 5    1  0.4419198E-005  0.9749245E+02  0.7818608E-02  0.1189897E+00
          4   -1    0    0  502    0 -0.00000000000E+00  0.00000000000E+00  0.37423558341E+02  0.37423558341E+02  0.00000000000E+00 0.  1.
         21   -1    0    0  501  502  0.00000000000E+00 -0.00000000000E+00 -0.61467792422E+03  0.61467792422E+03  0.00000000000E+00 0.  1.
        -13    1    1    2    0    0  0.40502451210E+02 -0.57767931316E+02 -0.26314464154E+02  0.75299698739E+02  0.10566000000E+00 0.  1.
         13    1    1    2    0    0 -0.28729913442E+02 -0.51822781655E+02 -0.22783800014E+03  0.23541702168E+03  0.10566000000E+00 0. -1.
          4    1    1    2  501    0 -0.11772537767E+02  0.10959071297E+03 -0.32310190158E+03  0.34138476214E+03  0.00000000000E+00 0.  1.
</event>
<event>
 5    1  0.4419198E-005  0.1888913E+03  0.7818608E-02  0.1068030E+00
          4   -1    0    0  502    0 -0.00000000000E+00  0.00000000000E+00  0.13373178796E+03  0.13373178796E+03  0.00000000000E+00 0.  1.
         21   -1    0    0  501  502  0.00000000000E+00 -0.00000000000E+00 -0.56173574273E+03  0.56173574273E+03  0.00000000000E+00 0. -1.
        -13    1    1    2    0    0 -0.17516504720E+03  0.76653950293E+02  0.24916894549E+02  0.19281982433E+03  0.10566000000E+00 0.  1.
         13    1    1    2    0    0  0.16574368173E+03 -0.69859134244E+02 -0.30363073467E+03  0.35290636275E+03  0.10566000000E+00 0. -1.
          4    1    1    2  501    0  0.94213654664E+01 -0.67948160492E+01 -0.14929011465E+03  0.14974134361E+03  0.00000000000E+00 0.  1.
</event>
<event>
 5    1  0.4419198E-005  0.2632662E+03  0.7818608E-02  0.1023739E+00
         21   -1    0    0  501  502  0.00000000000E+00  0.00000000000E+00  0.51837847494E+03  0.51837847494E+03  0.00000000000E+00 0. -1.
         -4   -1    0    0    0  501 -0.00000000000E+00 -0.00000000000E+00 -0.92103161681E+03  0.92103161681E+03  0.00000000000E+00 0. -1.
        -13    1    1    2    0    0 -0.26346751826E+03  0.19101776311E+02 -0.31642765347E+03  0.41219713983E+03  0.10566000000E+00 0.  1.
         13    1    1    2    0    0  0.25655161982E+03  0.23179131185E+02  0.43428884525E+03  0.50493842993E+03  0.10566000000E+00 0. -1.
         -4    1    1    2    0  502  0.69158984478E+01 -0.42280907496E+02 -0.52051433365E+03  0.52227452200E+03  0.00000000000E+00 0. -1.
</event>
<event>
 5    1  0.4419198E-005  0.3802884E+02  0.7818608E-02  0.1350024E+00
         21   -1    0    0  501  502  0.00000000000E+00  0.00000000000E+00  0.14121555015E+03  0.14121555015E+03  0.00000000000E+00 0.  1.
          4   -1    0    0  502    0 -0.00000000000E+00 -0.00000000000E+00 -0.87290331499E+02  0.87290331499E+02  0.00000000000E+00 0.  1.
        -13    1    1    2    0    0  0.20147871124E+02 -0.33193648293E+02 -0.79527919371E+02  0.88501164520E+02  0.10566000000E+00 0.  1.
         13    1    1    2    0    0 -0.18405846122E+02  0.18798570232E+02  0.66835224535E+02  0.71827013142E+02  0.10566000000E+00 0. -1.
          4    1    1    2  501    0 -0.17420250020E+01  0.14395078061E+02  0.66617913484E+02  0.68177703983E+02  0.00000000000E+00 0.  1.
</event>
<event>
 5    1  0.4419198E-005  0.2627710E+03  0.7818608E-02  0.1025458E+00
          4   -1    0    0  502    0 -0.00000000000E+00  0.00000000000E+00  0.19186268334E+04  0.19186268334E+04  0.00000000000E+00 0.  1.
         21   -1    0    0  501  502  0.00000000000E+00 -0.00000000000E+00 -0.19908886047E+03  0.19908886047E+03  0.00000000000E+00 0.  1.
        -13    1    1    2    0    0 -0.22477411818E+03  0.14359331863E+03  0.10217399563E+04  0.10559805845E+04  0.10566000000E+00 0.  1.
         13    1    1    2    0    0 -0.13813163570E+02 -0.26855305119E+03  0.74161599276E+03  0.78886363630E+03  0.10566000000E+00 0. -1.
          4    1    1    2  501    0  0.23858728175E+03  0.12495973256E+03 -0.43817976155E+02  0.27287147306E+03  0.00000000000E+00 0.  1.
</event>
<event>
 5    1  0.4419198E-005  0.4931573E+03  0.7818608E-02  0.9506187E-01
          4   -1    0    0  502    0 -0.00000000000E+00  0.00000000000E+00  0.22690507913E+04  0.22690507913E+04  0.00000000000E+00 0.  1.
         21   -1    0    0  501  502  0.00000000000E+00 -0.00000000000E+00 -0.28699203289E+03  0.28699203289E+03  0.00000000000E+00 0. -1.
        -13    1    1    2    0    0  0.15719298094E+03  0.45763219356E+03  0.60472570560E+03  0.77448695794E+03  0.10566000000E+00 0.  1.
         13    1    1    2    0    0  0.41946990382E+03 -0.21255507174E+03  0.38401206222E+03  0.60712431497E+03  0.10566000000E+00 0. -1.
          4    1    1    2  501    0 -0.57666288476E+03 -0.24507712181E+03  0.99332099059E+03  0.11744315513E+04  0.00000000000E+00 0.  1.
</event>
<event>
 5    1  0.4419198E-005  0.4522654E+02  0.7818608E-02  0.1312547E+00
         -4   -1    0    0    0  501 -0.00000000000E+00  0.00000000000E+00  0.23216895338E+02  0.23216895338E+02  0.00000000000E+00 0. -1.
         21   -1    0    0  501  502  0.00000000000E+00 -0.00000000000E+00 -0.71768476972E+03  0.71768476972E+03  0.00000000000E+00 0. -1.
        -13    1    1    2    0    0  0.45260236404E+02 -0.26942523383E+02 -0.12714064116E+03  0.13761955662E+03  0.10566000000E+00 0.  1.
         13    1    1    2    0    0 -0.33309469431E+02  0.28507155509E+02 -0.89152208068E+01  0.44740037942E+02  0.10566000000E+00 0. -1.
         -4    1    1    2    0  502 -0.11950766973E+02 -0.15646321254E+01 -0.55841201241E+03  0.55854207049E+03  0.00000000000E+00 0. -1.
</event>
<event>
 5    1  0.4419198E-005  0.2988741E+03  0.7818608E-02  0.1043123E+00
         21   -1    0    0  501  502  0.00000000000E+00  0.00000000000E+00  0.13303734942E+03  0.13303734942E+03  0.00000000000E+00 0.  1.
          4   -1    0    0  502    0 -0.00000000000E+00 -0.00000000000E+00 -0.25448533554E+04  0.25448533554E+04  0.00000000000E+00 0.  1.
        -13    1    1    2    0    0  0.10170468274E+03  0.35269219149E+03 -0.21808612858E+04  0.22115360236E+04  0.10566000000E+00 0.  1.
         13    1    1    2    0    0  0.34010921916E+02 -0.93235436840E+02 -0.11375359308E+03  0.15096185146E+03  0.10566000000E+00 0. -1.
          4    1    1    2  501    0 -0.13571560466E+03 -0.25945675465E+03 -0.11720112706E+03  0.31539282976E+03  0.00000000000E+00 0.  1.
</event>
<event>
 5    1  0.8817678E-005  0.2881862E+03  0.7818608E-02  0.1050590E+00
         21   -1    0    0  501  502  0.00000000000E+00  0.00000000000E+00  0.17529503094E+03  0.17529503094E+03  0.00000000000E+00 0.  1.
          4   -1    0    0  502    0 -0.00000000000E+00 -0.00000000000E+00 -0.19613934737E+04  0.19613934737E+04  0.00000000000E+00 0.  1.
        -13    1    1    2    0    0 -0.26427540290E+03 -0.25346213155E+03 -0.12976395567E+04  0.13483148635E+04  0.10566000000E+00 0.  1.
         13    1    1    2    0    0  0.49283792677E+02  0.73559401742E+02 -0.50002355986E+03  0.50780256929E+03  0.10566000000E+00 0. -1.
          4    1    1    2  501    0  0.21499161022E+03  0.17990272981E+03  0.11564673885E+02  0.28057107182E+03  0.00000000000E+00 0.  1.
</event>
<event>
 5    1  0.4596884E-005  0.1550521E+03  0.7818608E-02  0.1120114E+00
          4   -1    0    0  502    0 -0.00000000000E+00  0.00000000000E+00  0.44116821972E+03  0.44116821972E+03  0.00000000000E+00 0.  1.
         21   -1    0    0  501  502  0.00000000000E+00 -0.00000000000E+00 -0.85513591665E+03  0.85513591665E+03  0.00000000000E+00 0.  1.
        -13    1    1    2    0    0 -0.20696150918E+03 -0.10988896678E+03  0.25005105972E+03  0.34268673002E+03  0.10566000000E+00 0.  1.
         13    1    1    2    0    0  0.67829574693E+02  0.46013755168E+02  0.12522397822E+03  0.14966353181E+03  0.10566000000E+00 0. -1.
          4    1    1    2  501    0  0.13913193449E+03  0.63875211608E+02 -0.78924273487E+03  0.80395387454E+03  0.00000000000E+00 0.  1.
</event>
<event>
 5    1  0.4419198E-005  0.5511568E+03  0.7818608E-02  0.9759166E-01
         21   -1    0    0  501  502  0.00000000000E+00  0.00000000000E+00  0.15065826669E+04  0.15065826669E+04  0.00000000000E+00 0. -1.
          4   -1    0    0  502    0 -0.00000000000E+00 -0.00000000000E+00 -0.63425109103E+03  0.63425109103E+03  0.00000000000E+00 0.  1.
        -13    1    1    2    0    0 -0.11118127826E+03  0.47753003835E+02 -0.26852954072E+03  0.29453310750E+03  0.10566000000E+00 0.  1.
         13    1    1    2    0    0  0.66153570246E+03 -0.77482769290E+02  0.10685551240E+03  0.67457481191E+03  0.10566000000E+00 0. -1.
          4    1    1    2  501    0 -0.55035442420E+03  0.29729765455E+02  0.10340056042E+04  0.11717258385E+04  0.00000000000E+00 0.  1.
</event>
<event>
 5    1  0.4419198E-005  0.4547051E+03  0.7818608E-02  0.9583190E-01
         21   -1    0    0  501  502  0.00000000000E+00  0.00000000000E+00  0.33279456427E+03  0.33279456427E+03  0.00000000000E+00 0.  1.
          4   -1    0    0  502    0 -0.00000000000E+00 -0.00000000000E+00 -0.30209274024E+04  0.30209274024E+04  0.00000000000E+00 0.  1.
        -13    1    1    2    0    0  0.33389603549E+03 -0.28769370204E+02  0.20855120095E+03  0.39472503564E+03  0.10566000000E+00 0.  1.
         13    1    1    2    0    0 -0.45915376777E+03  0.73725139537E+02 -0.20635090704E+04  0.21152605687E+04  0.10566000000E+00 0. -1.
          4    1    1    2  501    0  0.12525773229E+03 -0.44955769333E+02 -0.83317496867E+03  0.84373636232E+03  0.00000000000E+00 0.  1.
</event>
<event>
 5    1  0.4419198E-005  0.2279767E+03  0.7818608E-02  0.1042483E+00
         21   -1    0    0  501  502  0.00000000000E+00  0.00000000000E+00  0.50478003480E+03  0.50478003480E+03  0.00000000000E+00 0. -1.
         -4   -1    0    0    0  501 -0.00000000000E+00 -0.00000000000E+00 -0.35315992732E+03  0.35315992732E+03  0.00000000000E+00 0. -1.
        -13    1    1    2    0    0  0.19031750979E+02  0.23906482142E+03  0.93347721217E+02  0.25734802235E+03  0.10566000000E+00 0.  1.
         13    1    1    2    0    0 -0.10246559881E+02 -0.22461990599E+03 -0.22424983087E+03  0.31756431154E+03  0.10566000000E+00 0. -1.
         -4    1    1    2    0  502 -0.87851910984E+01 -0.14444915432E+02  0.28252221713E+03  0.28302762823E+03  0.00000000000E+00 0. -1.
</event>
<event>
 5    1  0.4419198E-005  0.2356585E+03  0.7818608E-02  0.1064737E+00
          4   -1    0    0  502    0 -0.00000000000E+00  0.00000000000E+00  0.11059872455E+04  0.11059872455E+04  0.00000000000E+00 0.  1.
         21   -1    0    0  501  502  0.00000000000E+00 -0.00000000000E+00 -0.64518156389E+03  0.64518156389E+03  0.00000000000E+00 0.  1.
        -13    1    1    2    0    0  0.32138228674E+02 -0.15721484886E+03 -0.51677625697E+03  0.54111651737E+03  0.10566000000E+00 0.  1.
         13    1    1    2    0    0  0.31986401231E+03  0.14156484592E+03  0.59288771038E+03  0.68838175473E+03  0.10566000000E+00 0. -1.
          4    1    1    2  501    0 -0.35200224098E+03  0.15650002941E+02  0.38469422817E+03  0.52167053725E+03  0.00000000000E+00 0.  1.
</event>
<event>
 5    1  0.4419198E-005  0.4177673E+03  0.7818608E-02  0.9690004E-01
          4   -1    0    0  502    0 -0.00000000000E+00  0.00000000000E+00  0.85230985563E+03  0.85230985563E+03  0.00000000000E+00 0.  1.
         21   -1    0    0  501  502  0.00000000000E+00 -0.00000000000E+00 -0.71518539807E+03  0.71518539807E+03  0.00000000000E+00 0. -1.
        -13    1    1    2    0    0  0.42606532350E+03  0.17259736988E+03  0.45086275014E+03  0.64389342489E+03  0.10566000000E+00 0.  1.
         13    1    1    2    0    0 -0.33760022349E+03  0.25949683090E+03 -0.12427422606E+03  0.44357255391E+03  0.10566000000E+00 0. -1.
          4    1    1    2  501    0 -0.88465100010E+02 -0.43209420078E+03 -0.18946406652E+03  0.48002927491E+03  0.00000000000E+00 0.  1.
</event>
<event>
 5    1  0.4419198E-005  0.3597738E+03  0.7818608E-02  0.1002712E+00
         21   -1    0    0  501  502  0.00000000000E+00  0.00000000000E+00  0.14952069211E+04  0.14952069211E+04  0.00000000000E+00 0.  1.
          4   -1    0    0  502    0 -0.00000000000E+00 -0.00000000000E+00 -0.26528027035E+03  0.26528027035E+03  0.00000000000E+00 0.  1.
        -13    1    1    2    0    0  0.70868127778E+02  0.21012476929E+03 -0.77358176790E+02  0.23485955140E+03  0.10566000000E+00 0.  1.
         13    1    1    2    0    0  0.18401069795E+03  0.83066461225E+02  0.47639644346E+02  0.20743558234E+03  0.10566000000E+00 0. -1.
          4    1    1    2  501    0 -0.25487882573E+03 -0.29319123052E+03  0.12596451832E+04  0.13181920577E+04  0.00000000000E+00 0.  1.
</event>
<event>
 5    1  0.4419198E-005  0.2058904E+03  0.7818608E-02  0.1056171E+00
          4   -1    0    0  502    0 -0.00000000000E+00  0.00000000000E+00  0.29156744666E+03  0.29156744666E+03  0.00000000000E+00 0.  1.
         21   -1    0    0  501  502  0.00000000000E+00 -0.00000000000E+00 -0.34936371381E+03  0.34936371381E+03  0.00000000000E+00 0. -1.
        -13    1    1    2    0    0 -0.16587400813E+03 -0.11661704089E+03  0.17314793067E+03  0.26663446487E+03  0.10566000000E+00 0.  1.
         13    1    1    2    0    0  0.17488741463E+03  0.12840562471E+03 -0.93834716811E+02  0.23638650024E+03  0.10566000000E+00 0. -1.
          4    1    1    2  501    0 -0.90134065089E+01 -0.11788583816E+02 -0.13710948100E+03  0.13791019536E+03  0.00000000000E+00 0.  1.
</event>
<event>
 5    1  0.4419198E-005  0.3153272E+03  0.7818608E-02  0.1001172E+00
         21   -1    0    0  501  502  0.00000000000E+00  0.00000000000E+00  0.39644726573E+03  0.39644726573E+03  0.00000000000E+00 0. -1.
          4   -1    0    0  502    0 -0.00000000000E+00 -0.00000000000E+00 -0.34142578332E+03  0.34142578332E+03  0.00000000000E+00 0.  1.
        -13    1    1    2    0    0 -0.32505178660E+03  0.91206172869E+01 -0.23532178234E+02  0.32603009709E+03  0.10566000000E+00 0.  1.
         13    1    1    2    0    0  0.29468600348E+03 -0.97818965946E+02  0.62545374797E+02  0.31673384065E+03  0.10566000000E+00 0. -1.
          4    1    1    2  501    0  0.30365783121E+02  0.88698348659E+02  0.16008285843E+02  0.95109111314E+02  0.00000000000E+00 0.  1.
</event>
<event>
 5    1  0.4419198E-005  0.4186390E+02  0.7818608E-02  0.1328993E+00
          4   -1    0    0  502    0 -0.00000000000E+00  0.00000000000E+00  0.14144452760E+03  0.14144452760E+03  0.00000000000E+00 0.  1.
         21   -1    0    0  501  502  0.00000000000E+00 -0.00000000000E+00 -0.77521365730E+02  0.77521365730E+02  0.00000000000E+00 0.  1.
        -13    1    1    2    0    0 -0.19743557562E+02 -0.40506006579E+02  0.12757009619E+03  0.13529480862E+03  0.10566000000E+00 0.  1.
         13    1    1    2    0    0  0.42051780740E+01  0.25122801417E+02 -0.13200147415E+02  0.28689610131E+02  0.10566000000E+00 0. -1.
          4    1    1    2  501    0  0.15538379488E+02  0.15383205162E+02 -0.50446786902E+02  0.54981474580E+02  0.00000000000E+00 0.  1.
</event>
<event>
 5    1  0.4419198E-005  0.3521995E+03  0.7818608E-02  0.1009416E+00
         -4   -1    0    0    0  501 -0.00000000000E+00  0.00000000000E+00  0.61759589043E+03  0.61759589043E+03  0.00000000000E+00 0. -1.
         21   -1    0    0  501  502  0.00000000000E+00 -0.00000000000E+00 -0.56605770376E+03  0.56605770376E+03  0.00000000000E+00 0. -1.
        -13    1    1    2    0    0  0.17268341483E+03  0.13479002774E+02  0.35612334616E+02  0.17683182636E+03  0.10566000000E+00 0.  1.
         13    1    1    2    0    0  0.21806588897E+03  0.25234205078E+03 -0.29157290283E+03  0.44299436943E+03  0.10566000000E+00 0. -1.
         -4    1    1    2    0  502 -0.39074930379E+03 -0.26582105356E+03  0.30749875488E+03  0.56382739840E+03  0.00000000000E+00 0. -1.
</event>
<event>
 5    1  0.4419198E-005  0.3183530E+02  0.7818608E-02  0.1390750E+00
         21   -1    0    0  501  502  0.00000000000E+00  0.00000000000E+00  0.49171955520E+03  0.49171955520E+03  0.00000000000E+00 0.  1.
          4   -1    0    0  502    0 -0.00000000000E+00 -0.00000000000E+00 -0.71467478535E+01  0.71467478535E+01  0.00000000000E+00 0.  1.
        -13    1    1    2    0    0  0.13642228197E+02  0.30196289441E+02  0.11710827661E+03  0.12170573487E+03  0.10566000000E+00 0.  1.
         13    1    1    2    0    0 -0.34859254370E+02 -0.95934121808E+01  0.75592382503E+02  0.83793917613E+02  0.10566000000E+00 0. -1.
          4    1    1    2  501    0  0.21217026172E+02 -0.20602877260E+02  0.29187214823E+03  0.29336665056E+03  0.00000000000E+00 0.  1.
</event>
<event>
 5    1  0.4419198E-005  0.3682314E+03  0.7818608E-02  0.9931139E-01
         21   -1    0    0  501  502  0.00000000000E+00  0.00000000000E+00  0.21027175044E+03  0.21027175044E+03  0.00000000000E+00 0. -1.
         -4   -1    0    0    0  501 -0.00000000000E+00 -0.00000000000E+00 -0.15135867977E+04  0.15135867977E+04  0.00000000000E+00 0. -1.
        -13    1    1    2    0    0  0.25815531422E+03 -0.72371925199E+01 -0.16234498777E+03  0.30504499575E+03  0.10566000000E+00 0.  1.
         13    1    1    2    0    0 -0.51761781534E+03  0.15311704101E+03 -0.81329112830E+03  0.97612268775E+03  0.10566000000E+00 0. -1.
         -4    1    1    2    0  502  0.25946250112E+03 -0.14587984849E+03 -0.32767893117E+03  0.44269086462E+03  0.00000000000E+00 0. -1.
</event>
<event>
 5    1  0.4419198E-005  0.4150095E+03  0.7818608E-02  0.9686670E-01
          4   -1    0    0  502    0 -0.00000000000E+00  0.00000000000E+00  0.10971775977E+04  0.10971775977E+04  0.00000000000E+00 0.  1.
         21   -1    0    0  501  502  0.00000000000E+00 -0.00000000000E+00 -0.58711120542E+03  0.58711120542E+03  0.00000000000E+00 0.  1.
        -13    1    1    2    0    0 -0.33359034141E+03  0.59478476603E+03  0.90031057915E+02  0.68786411182E+03  0.10566000000E+00 0.  1.
         13    1    1    2    0    0  0.69853715219E+02 -0.36069823802E+03  0.51369777185E+03  0.63156010989E+03  0.10566000000E+00 0. -1.
          4    1    1    2  501    0  0.26373662619E+03 -0.23408652801E+03 -0.93662437465E+02  0.36486458143E+03  0.00000000000E+00 0.  1.
</event>
<event>
 5    1  0.4419198E-005  0.1582416E+03  0.7818608E-02  0.1093256E+00
         21   -1    0    0  501  502  0.00000000000E+00  0.00000000000E+00  0.54493973290E+03  0.54493973290E+03  0.00000000000E+00 0. -1.
         -4   -1    0    0    0  501 -0.00000000000E+00 -0.00000000000E+00 -0.36244053968E+03  0.36244053968E+03  0.00000000000E+00 0. -1.
        -13    1    1    2    0    0  0.89293578833E+02 -0.12829008112E+03 -0.26663793332E+03  0.30907521218E+03  0.10566000000E+00 0.  1.
         13    1    1    2    0    0 -0.69604652570E+02  0.15446530417E+03  0.23077216402E+02  0.17098803155E+03  0.10566000000E+00 0. -1.
         -4    1    1    2    0  502 -0.19688926264E+02 -0.26175223048E+02  0.42605991013E+03  0.42731702884E+03  0.00000000000E+00 0. -1.
</event>
<event>
 5    1  0.4419198E-005  0.2029129E+03  0.7818608E-02  0.1092800E+00
         -4   -1    0    0    0  501 -0.00000000000E+00  0.00000000000E+00  0.35058245736E+03  0.35058245736E+03  0.00000000000E+00 0. -1.
         21   -1    0    0  501  502  0.00000000000E+00 -0.00000000000E+00 -0.62016775280E+03  0.62016775280E+03  0.00000000000E+00 0. -1.
        -13    1    1    2    0    0  0.12240243937E+02 -0.75004037345E+02  0.27371797791E+03  0.28407212426E+03  0.10566000000E+00 0.  1.
         13    1    1    2    0    0 -0.16033439646E+03  0.17765820984E+03 -0.29439981061E+03  0.37939533189E+03  0.10566000000E+00 0. -1.
         -4    1    1    2    0  502  0.14809415253E+03 -0.10265417249E+03 -0.24890346274E+03  0.30728275400E+03  0.00000000000E+00 0. -1.
</event>
<event>
 5    1  0.4419198E-005  0.2349045E+03  0.7818608E-02  0.1068450E+00
         21   -1    0    0  501  502  0.00000000000E+00  0.00000000000E+00  0.88105095614E+03  0.88105095614E+03  0.00000000000E+00 0. -1.
         -4   -1    0    0    0  501 -0.00000000000E+00 -0.00000000000E+00 -0.58586529864E+03  0.58586529864E+03  0.00000000000E+00 0. -1.
        -13    1    1    2    0    0 -0.85912981838E+02  0.45111568051E+02 -0.26160141120E+03  0.27901864369E+03  0.10566000000E+00 0.  1.
         13    1    1    2    0    0  0.13722070231E+03 -0.27086014778E+03 -0.22154339923E+03  0.37586730332E+03  0.10566000000E+00 0. -1.
         -4    1    1    2    0  502 -0.51307720467E+02  0.22574857973E+03  0.77833046793E+03  0.81203030777E+03  0.00000000000E+00 0. -1.
</event>
<event>
 5    1  0.4419198E-005  0.1872119E+03  0.7818608E-02  0.1069275E+00
         -4   -1    0    0    0  501 -0.00000000000E+00  0.00000000000E+00  0.60207123643E+03  0.60207123643E+03  0.00000000000E+00 0. -1.
         21   -1    0    0  501  502  0.00000000000E+00 -0.00000000000E+00 -0.88770391293E+02  0.88770391293E+02  0.00000000000E+00 0.  1.
        -13    1    1    2    0    0  0.15888684897E+03 -0.96218417624E+02  0.21664083740E+03  0.28537042289E+03  0.10566000000E+00 0.  1.
         13    1    1    2    0    0 -0.18116432481E+03  0.59061742525E+02  0.30663188054E+03  0.36101512897E+03  0.10566000000E+00 0. -1.
         -4    1    1    2    0  502  0.22277475844E+02  0.37156675099E+02 -0.99718728047E+01  0.44456075869E+02  0.00000000000E+00 0. -1.
</event>
<event>
 5    1  0.4419198E-005  0.8536756E+02  0.7818608E-02  0.1191337E+00
         21   -1    0    0  501  502  0.00000000000E+00  0.00000000000E+00  0.14574709438E+03  0.14574709438E+03  0.00000000000E+00 0.  1.
         -4   -1    0    0    0  501 -0.00000000000E+00 -0.00000000000E+00 -0.20756408665E+03  0.20756408665E+03  0.00000000000E+00 0. -1.
        -13    1    1    2    0    0 -0.69553040451E+02 -0.25960519607E+02  0.37739711096E+02  0.83281876611E+02  0.10566000000E+00 0.  1.
         13    1    1    2    0    0  0.82986029644E+02  0.27035090726E+02 -0.17384735157E+03  0.19452632227E+03  0.10566000000E+00 0. -1.
         -4    1    1    2    0  502 -0.13432989193E+02 -0.10745711191E+01  0.74290648209E+02  0.75502982147E+02  0.00000000000E+00 0. -1.
</event>
<event>
 5    1  0.4419198E-005  0.1776544E+03  0.7818608E-02  0.1076638E+00
          4   -1    0    0  502    0 -0.00000000000E+00  0.00000000000E+00  0.14039837815E+03  0.14039837815E+03  0.00000000000E+00 0.  1.
         21   -1    0    0  501  502  0.00000000000E+00 -0.00000000000E+00 -0.53706724810E+03  0.53706724810E+03  0.00000000000E+00 0. -1.
        -13    1    1    2    0    0 -0.49696624476E+02 -0.17191351379E+03  0.44505301663E+02  0.18440375199E+03  0.10566000000E+00 0.  1.
         13    1    1    2    0    0  0.68895576966E+02  0.15897660327E+03 -0.27326632288E+03  0.32356553478E+03  0.10566000000E+00 0. -1.
          4    1    1    2  501    0 -0.19198952490E+02  0.12936910525E+02 -0.16790784873E+03  0.16949633948E+03  0.00000000000E+00 0.  1.
</event>
<event>
 5    1  0.4419198E-005  0.4622966E+02  0.7818608E-02  0.1307950E+00
         21   -1    0    0  501  502  0.00000000000E+00  0.00000000000E+00  0.94273529520E+02  0.94273529520E+02  0.00000000000E+00 0.  1.
          4   -1    0    0  502    0 -0.00000000000E+00 -0.00000000000E+00 -0.12446427340E+03  0.12446427340E+03  0.00000000000E+00 0.  1.
        -13    1    1    2    0    0 -0.14334213560E+02 -0.52206923412E+02 -0.98546098527E+02  0.11243832634E+03  0.10566000000E+00 0.  1.
         13    1    1    2    0    0  0.22012234004E+02  0.22464646902E+02  0.10135164357E+00  0.31451871844E+02  0.10566000000E+00 0. -1.
          4    1    1    2  501    0 -0.76780204442E+01  0.29742276510E+02  0.68254003001E+02  0.74847604742E+02  0.00000000000E+00 0.  1.
</event>
<event>
 5    1  0.4419198E-005  0.4217636E+03  0.7818608E-02  0.9727639E-01
          4   -1    0    0  502    0 -0.00000000000E+00  0.00000000000E+00  0.14705095302E+04  0.14705095302E+04  0.00000000000E+00 0.  1.
         21   -1    0    0  501  502  0.00000000000E+00 -0.00000000000E+00 -0.34285149937E+03  0.34285149937E+03  0.00000000000E+00 0.  1.
        -13    1    1    2    0    0  0.20990671339E+03  0.10399673370E+03  0.78536912700E+03  0.81956136181E+03  0.10566000000E+00 0.  1.
         13    1    1    2    0    0  0.26707285183E+03 -0.21503985385E+03  0.36851650408E+03  0.50336316102E+03  0.10566000000E+00 0. -1.
          4    1    1    2  501    0 -0.47697956522E+03  0.11104312015E+03 -0.26227600217E+02  0.49043650678E+03  0.00000000000E+00 0.  1.
</event>
<event>
 5    1  0.4419198E-005  0.1014297E+03  0.7818608E-02  0.1162212E+00
         21   -1    0    0  501  502  0.00000000000E+00  0.00000000000E+00  0.66905839287E+02  0.66905839287E+02  0.00000000000E+00 0. -1.
         -4   -1    0    0    0  501 -0.00000000000E+00 -0.00000000000E+00 -0.63068215879E+03  0.63068215879E+03  0.00000000000E+00 0. -1.
        -13    1    1    2    0    0  0.11293090707E+03 -0.63387151336E+02 -0.17041980968E+03  0.21404262057E+03  0.10566000000E+00 0.  1.
         13    1    1    2    0    0 -0.63946986408E+02  0.71259246872E+02 -0.41752285195E+03  0.42836017602E+03  0.10566000000E+00 0. -1.
         -4    1    1    2    0  502 -0.48983920659E+02 -0.78720955365E+01  0.24166342128E+02  0.55185201486E+02  0.00000000000E+00 0. -1.
</event>
<event>
 5    1  0.4419198E-005  0.2018295E+03  0.7818608E-02  0.1058889E+00
         -4   -1    0    0    0  501 -0.00000000000E+00  0.00000000000E+00  0.39702173517E+03  0.39702173517E+03  0.00000000000E+00 0. -1.
         21   -1    0    0  501  502  0.00000000000E+00 -0.00000000000E+00 -0.18973316145E+03  0.18973316145E+03  0.00000000000E+00 0.  1.
        -13    1    1    2    0    0 -0.26690774331E+02 -0.21876057631E+03  0.59584089281E+02  0.22829555852E+03  0.10566000000E+00 0.  1.
         13    1    1    2    0    0  0.78528514732E+02  0.17939398290E+03  0.19626294453E+03  0.27725093920E+03  0.10566000000E+00 0. -1.
         -4    1    1    2    0  502 -0.51837740400E+02  0.39366593405E+02 -0.48558460083E+02  0.81208398899E+02  0.00000000000E+00 0. -1.
</event>
<event>
 5    1  0.4419198E-005  0.4214516E+03  0.7818608E-02  0.9669060E-01
         -4   -1    0    0    0  501 -0.00000000000E+00  0.00000000000E+00  0.25114106281E+04  0.25114106281E+04  0.00000000000E+00 0. -1.
         21   -1    0    0  501  502  0.00000000000E+00 -0.00000000000E+00 -0.26098761338E+03  0.26098761338E+03  0.00000000000E+00 0. -1.
        -13    1    1    2    0    0 -0.35379243736E+03 -0.19721926468E+03  0.12404901615E+04  0.13049445885E+04  0.10566000000E+00 0.  1.
         13    1    1    2    0    0  0.48412770776E+03  0.23071031229E+03  0.97413772719E+02  0.54506544552E+03  0.10566000000E+00 0. -1.
         -4    1    1    2    0  502 -0.13033527041E+03 -0.33491047606E+02  0.91251908047E+03  0.92238820743E+03  0.00000000000E+00 0. -1.
</event>
<event>
 5    1  0.4419198E-005  0.6507789E+03  0.7818608E-02  0.9197612E-01
         -4   -1    0    0    0  501 -0.00000000000E+00  0.00000000000E+00  0.37662962858E+04  0.37662962858E+04  0.00000000000E+00 0. -1.
         21   -1    0    0  501  502  0.00000000000E+00 -0.00000000000E+00 -0.20729134590E+03  0.20729134590E+03  0.00000000000E+00 0. -1.
        -13    1    1    2    0    0  0.86533016842E+02  0.51519375248E+03  0.54514250215E+03  0.75504498171E+03  0.10566000000E+00 0.  1.
         13    1    1    2    0    0  0.18654239800E+03 -0.70787290528E+03  0.25047742490E+04  0.26095547831E+04  0.10566000000E+00 0. -1.
         -4    1    1    2    0  502 -0.27307541484E+03  0.19267915281E+03  0.50908818871E+03  0.60898786687E+03  0.00000000000E+00 0. -1.
</event>
<event>
 5    1  0.4419198E-005  0.7358310E+02  0.7818608E-02  0.1217628E+00
         -4   -1    0    0    0  501 -0.00000000000E+00  0.00000000000E+00  0.49260697990E+02  0.49260697990E+02  0.00000000000E+00 0. -1.
         21   -1    0    0  501  502  0.00000000000E+00 -0.00000000000E+00 -0.30152182836E+03  0.30152182836E+03  0.00000000000E+00 0.  1.
        -13    1    1    2    0    0 -0.40886690040E+02  0.72767655609E+02 -0.14245829229E+03  0.16510974935E+03  0.10566000000E+00 0.  1.
         13    1    1    2    0    0  0.45436783390E+02 -0.55333173619E+02  0.27850875336E+01  0.71652140681E+02  0.10566000000E+00 0. -1.
         -4    1    1    2    0  502 -0.45500933496E+01 -0.17434481990E+02 -0.11258792562E+03  0.11402063632E+03  0.00000000000E+00 0. -1.
</event>
<event>
 5    1  0.4419198E-005  0.4997093E+03  0.7818608E-02  0.1003783E+00
          4   -1    0    0  502    0 -0.00000000000E+00  0.00000000000E+00  0.52378623891E+03  0.52378623891E+03  0.00000000000E+00 0.  1.
         21   -1    0    0  501  502  0.00000000000E+00 -0.00000000000E+00 -0.59966814226E+03  0.59966814226E+03  0.00000000000E+00 0.  1.
        -13    1    1    2    0    0 -0.10313460055E+03  0.51571076281E+03 -0.18934467949E+03  0.55896847453E+03  0.10566000000E+00 0.  1.
         13    1    1    2    0    0 -0.22891239108E+02 -0.69069985475E+02  0.65554850450E+02  0.97939375651E+02  0.10566000000E+00 0. -1.
          4    1    1    2  501    0  0.12602583966E+03 -0.44664077733E+03  0.47907925690E+02  0.46654653099E+03  0.00000000000E+00 0.  1.
</event>
<event>
 5    1  0.4419198E-005  0.3526106E+03  0.7818608E-02  0.1008312E+00
          4   -1    0    0  502    0 -0.00000000000E+00  0.00000000000E+00  0.37930576273E+04  0.37930576273E+04  0.00000000000E+00 0.  1.
         21   -1    0    0  501  502  0.00000000000E+00 -0.00000000000E+00 -0.98278829540E+02  0.98278829540E+02  0.00000000000E+00 0.  1.
        -13    1    1    2    0    0 -0.54016014675E+02 -0.40759542183E+03  0.22980254467E+04  0.23345176638E+04  0.10566000000E+00 0.  1.
         13    1    1    2    0    0 -0.13610754486E+03  0.11603283719E+03  0.10513417363E+04  0.10664465953E+04  0.10566000000E+00 0. -1.
          4    1    1    2  501    0  0.19012355954E+03  0.29156258464E+03  0.34541161473E+03  0.49037219766E+03  0.00000000000E+00 0.  1.
</event>
<event>
 5    1  0.4419198E-005  0.6659931E+02  0.7818608E-02  0.1235943E+00
          4   -1    0    0  502    0 -0.00000000000E+00  0.00000000000E+00  0.49657575146E+02  0.49657575146E+02  0.00000000000E+00 0.  1.
         21   -1    0    0  501  502  0.00000000000E+00 -0.00000000000E+00 -0.13383722244E+03  0.13383722244E+03  0.00000000000E+00 0. -1.
        -13    1    1    2    0    0 -0.94927970695E+01 -0.65810534939E+02 -0.10385916301E+01  0.66499846178E+02  0.10566000000E+00 0.  1.
         13    1    1    2    0    0  0.23458888911E+02  0.63708029289E+02 -0.64851647947E+02  0.93887059120E+02  0.10566000000E+00 0. -1.
          4    1    1    2  501    0 -0.13966091841E+02  0.21025056500E+01 -0.18289407719E+02  0.23107892289E+02  0.00000000000E+00 0.  1.
</event>
<event>
 5    1  0.4419198E-005  0.1445895E+03  0.7818608E-02  0.1106573E+00
         21   -1    0    0  501  502  0.00000000000E+00  0.00000000000E+00  0.38538134102E+03  0.38538134102E+03  0.00000000000E+00 0.  1.
         -4   -1    0    0    0  501 -0.00000000000E+00 -0.00000000000E+00 -0.68827608526E+02  0.68827608526E+02  0.00000000000E+00 0. -1.
        -13    1    1    2    0    0  0.76803300074E+02  0.11927381345E+03  0.13397754287E+03  0.19512811851E+03  0.10566000000E+00 0.  1.
         13    1    1    2    0    0 -0.92418109022E+02 -0.11479670773E+03  0.10788406116E+03  0.18264274636E+03  0.10566000000E+00 0. -1.
         -4    1    1    2    0  502  0.15614808948E+02 -0.44771057215E+01  0.74692128467E+02  0.76438084677E+02  0.00000000000E+00 0. -1.
</event>
<event>
 5    1  0.4419198E-005  0.4253622E+03  0.7818608E-02  0.9682699E-01
         21   -1    0    0  501  502  0.00000000000E+00  0.00000000000E+00  0.90676741706E+03  0.90676741706E+03  0.00000000000E+00 0.  1.
          4   -1    0    0  502    0 -0.00000000000E+00 -0.00000000000E+00 -0.76728761086E+03  0.76728761086E+03  0.00000000000E+00 0.  1.
        -13    1    1    2    0    0  0.28508318669E+03  0.90799713664E+01 -0.15389803605E+03  0.32409795722E+03  0.10566000000E+00 0.  1.
         13    1    1    2    0    0  0.30749331173E+02  0.38961147052E+03 -0.35355839061E+03  0.52701628634E+03  0.10566000000E+00 0. -1.
          4    1    1    2  501    0 -0.31583251786E+03 -0.39869144189E+03  0.64693623286E+03  0.82294078436E+03  0.00000000000E+00 0.  1.
</event>
<event>
 5    1  0.4419198E-005  0.4854549E+03  0.7818608E-02  0.9815930E-01
         21   -1    0    0  501  502  0.00000000000E+00  0.00000000000E+00  0.46240203161E+03  0.46240203161E+03  0.00000000000E+00 0. -1.
         -4   -1    0    0    0  501 -0.00000000000E+00 -0.00000000000E+00 -0.80017153805E+03  0.80017153805E+03  0.00000000000E+00 0. -1.
        -13    1    1    2    0    0 -0.15998974933E+03  0.44484325265E+02 -0.17375568340E+03  0.24034688216E+03  0.10566000000E+00 0.  1.
         13    1    1    2    0    0 -0.35696391339E+03 -0.26186139280E+03 -0.19664581701E+02  0.44314933312E+03  0.10566000000E+00 0. -1.
         -4    1    1    2    0  502  0.51695366272E+03  0.21737706754E+03 -0.14434924134E+03  0.57907735439E+03  0.00000000000E+00 0. -1.
</event>
<event>
 5    1  0.4419198E-005  0.4855720E+03  0.7818608E-02  0.1001467E+00
         -4   -1    0    0    0  501 -0.00000000000E+00  0.00000000000E+00  0.87008192637E+03  0.87008192637E+03  0.00000000000E+00 0. -1.
         21   -1    0    0  501  502  0.00000000000E+00 -0.00000000000E+00 -0.59254336719E+03  0.59254336719E+03  0.00000000000E+00 0. -1.
        -13    1    1    2    0    0 -0.74089511743E+02  0.42725513664E+02  0.43804193758E+03  0.44631320338E+03  0.10566000000E+00 0.  1.
         13    1    1    2    0    0 -0.39533396470E+03 -0.22923695274E+03  0.67807898532E+02  0.46199182505E+03  0.10566000000E+00 0. -1.
         -4    1    1    2    0  502  0.46942347644E+03  0.18651143908E+03 -0.22831127694E+03  0.55432026512E+03  0.00000000000E+00 0. -1.
</event>
<event>
 5    1  0.4419198E-005  0.4716882E+03  0.7818608E-02  0.9543720E-01
         21   -1    0    0  501  502  0.00000000000E+00  0.00000000000E+00  0.28878846306E+03  0.28878846306E+03  0.00000000000E+00 0. -1.
         -4   -1    0    0    0  501 -0.00000000000E+00 -0.00000000000E+00 -0.28908085199E+04  0.28908085199E+04  0.00000000000E+00 0. -1.
        -13    1    1    2    0    0 -0.50257291797E+02  0.46655341405E+03 -0.16908310279E+04  0.17547385731E+04  0.10566000000E+00 0.  1.
         13    1    1    2    0    0 -0.18629693407E+03  0.11384887701E+03 -0.74515512401E+03  0.77648199235E+03  0.10566000000E+00 0. -1.
         -4    1    1    2    0  502  0.23655422587E+03 -0.58040229105E+03 -0.16603390484E+03  0.64837641752E+03  0.00000000000E+00 0. -1.
</event>
<event>
 5    1  0.4419198E-005  0.1946980E+02  0.7818608E-02  0.1520856E+00
         21   -1    0    0  501  502  0.00000000000E+00  0.00000000000E+00  0.46407222447E+02  0.46407222447E+02  0.00000000000E+00 0. -1.
         -4   -1    0    0    0  501 -0.00000000000E+00 -0.00000000000E+00 -0.13304585878E+03  0.13304585878E+03  0.00000000000E+00 0. -1.
        -13    1    1    2    0    0  0.14620846411E+02  0.28325867909E+02 -0.73908424220E+02  0.80489690503E+02  0.10566000000E+00 0.  1.
         13    1    1    2    0    0 -0.12958123500E+02 -0.84365193043E+01 -0.52357802596E+02  0.54593392268E+02  0.10566000000E+00 0. -1.
         -4    1    1    2    0  502 -0.16627229116E+01 -0.19889348605E+02  0.39627590484E+02  0.44369998456E+02  0.00000000000E+00 0. -1.
</event>
<event>
 5    1  0.4419198E-005  0.4860309E+03  0.7818608E-02  0.9688549E-01
         21   -1    0    0  501  502  0.00000000000E+00  0.00000000000E+00  0.28506314077E+03  0.28506314077E+03  0.00000000000E+00 0. -1.
         -4   -1    0    0    0  501 -0.00000000000E+00 -0.00000000000E+00 -0.14591530312E+04  0.14591530312E+04  0.00000000000E+00 0. -1.
        -13    1    1    2    0    0  0.83742544165E+02 -0.24263481455E+03 -0.27872654576E+03  0.37891023397E+03  0.10566000000E+00 0.  1.
         13    1    1    2    0    0  0.21329166572E+03 -0.25871053675E+03 -0.65325697488E+03  0.73428139217E+03  0.10566000000E+00 0. -1.
         -4    1    1    2    0  502 -0.29703420989E+03  0.50134535130E+03 -0.24210636974E+03  0.63102454578E+03  0.00000000000E+00 0. -1.
</event>
<event>
 5    1  0.4419198E-005  0.5371386E+03  0.7818608E-02  0.9400087E-01
         -4   -1    0    0    0  501 -0.00000000000E+00  0.00000000000E+00  0.30669700862E+04  0.30669700862E+04  0.00000000000E+00 0. -1.
         21   -1    0    0  501  502  0.00000000000E+00 -0.00000000000E+00 -0.40627235294E+03  0.40627235294E+03  0.00000000000E+00 0. -1.
        -13    1    1    2    0    0  0.40548264084E+03  0.31708927661E+03  0.21885523748E+04  0.22482711780E+04  0.10566000000E+00 0.  1.
         13    1    1    2    0    0 -0.70517651902E+03 -0.34710110948E+03  0.18202245423E+03  0.80677462044E+03  0.10566000000E+00 0. -1.
         -4    1    1    2    0  502  0.29969387817E+03  0.30011832874E+02  0.29012290414E+03  0.41819664063E+03  0.00000000000E+00 0. -1.
</event>
<event>
 5    1  0.4419198E-005  0.2544278E+03  0.7818608E-02  0.1035693E+00
         21   -1    0    0  501  502  0.00000000000E+00  0.00000000000E+00  0.15647154893E+04  0.15647154893E+04  0.00000000000E+00 0.  1.
          4   -1    0    0  502    0 -0.00000000000E+00 -0.00000000000E+00 -0.31876232052E+03  0.31876232052E+03  0.00000000000E+00 0.  1.
        -13    1    1    2    0    0  0.66833345098E+02 -0.13339133764E+03 -0.12230075256E+03  0.19291819566E+03  0.10566000000E+00 0.  1.
         13    1    1    2    0    0 -0.16652644682E+03 -0.11352310346E+03 -0.80880124601E+02  0.21716389716E+03  0.10566000000E+00 0. -1.
          4    1    1    2  501    0  0.99693101719E+02  0.24691444110E+03  0.14491340460E+04  0.14733957170E+04  0.00000000000E+00 0.  1.
</event>
<event>
 5    1  0.4419198E-005  0.2934197E+03  0.7818608E-02  0.1028040E+00
          4   -1    0    0  502    0 -0.00000000000E+00  0.00000000000E+00  0.11336424552E+04  0.11336424552E+04  0.00000000000E+00 0.  1.
         21   -1    0    0  501  502  0.00000000000E+00 -0.00000000000E+00 -0.37459323183E+03  0.37459323183E+03  0.00000000000E+00 0.  1.
        -13    1    1    2    0    0  0.24514655431E+03  0.13187887991E+03 -0.21602949468E+03  0.35236007973E+03  0.10566000000E+00 0.  1.
         13    1    1    2    0    0  0.15487555382E+03  0.60601745834E+02  0.36770215876E+03  0.40356399429E+03  0.10566000000E+00 0. -1.
          4    1    1    2  501    0 -0.40002210813E+03 -0.19248062574E+03  0.60737655924E+03  0.75231161296E+03  0.00000000000E+00 0.  1.
</event>
<event>
 5    1  0.4419198E-005  0.4116965E+03  0.7818608E-02  0.9810127E-01
         21   -1    0    0  501  502  0.00000000000E+00  0.00000000000E+00  0.12905650833E+04  0.12905650833E+04  0.00000000000E+00 0.  1.
          4   -1    0    0  502    0 -0.00000000000E+00 -0.00000000000E+00 -0.43789208116E+03  0.43789208116E+03  0.00000000000E+00 0.  1.
        -13    1    1    2    0    0  0.90245565680E+02 -0.18813100164E+03 -0.93305084864E+02  0.22856812098E+03  0.10566000000E+00 0.  1.
         13    1    1    2    0    0  0.21087890328E+03 -0.18066820591E+03 -0.14229406627E+03  0.31202327627E+03  0.10566000000E+00 0. -1.
          4    1    1    2  501    0 -0.30112446896E+03  0.36879920755E+03  0.10882721533E+04  0.11878657672E+04  0.00000000000E+00 0.  1.
</event>
<event>
 5    1  0.4419198E-005  0.2557600E+03  0.7818608E-02  0.1027450E+00
         21   -1    0    0  501  502  0.00000000000E+00  0.00000000000E+00  0.25341856498E+03  0.25341856498E+03  0.00000000000E+00 0.  1.
          4   -1    0    0  502    0 -0.00000000000E+00 -0.00000000000E+00 -0.84591797624E+03  0.84591797624E+03  0.00000000000E+00 0.  1.
        -13    1    1    2    0    0  0.25563568402E+03 -0.33942915774E+02 -0.63769912507E+03  0.68786765424E+03  0.10566000000E+00 0.  1.
         13    1    1    2    0    0 -0.24760020119E+03  0.23778192549E+02 -0.98246209047E+02  0.26743894785E+03  0.10566000000E+00 0. -1.
          4    1    1    2  501    0 -0.80354828316E+01  0.10164723225E+02  0.14344592285E+03  0.14402993913E+03  0.00000000000E+00 0.  1.
</event>
<event>
 5    1  0.4419198E-005  0.3266438E+03  0.7818608E-02  0.9968770E-01
          4   -1    0    0  502    0 -0.00000000000E+00  0.00000000000E+00  0.20960150450E+04  0.20960150450E+04  0.00000000000E+00 0.  1.
         21   -1    0    0  501  502  0.00000000000E+00 -0.00000000000E+00 -0.25024543250E+03  0.25024543250E+03  0.00000000000E+00 0.  1.
        -13    1    1    2    0    0 -0.41995313945E+03  0.21636182179E+03  0.50350491490E+02  0.47508763446E+03  0.10566000000E+00 0.  1.
         13    1    1    2    0    0  0.22152157847E+03 -0.21675022257E+03  0.83964527085E+03  0.89501768738E+03  0.10566000000E+00 0. -1.
          4    1    1    2  501    0  0.19843156098E+03  0.38840077597E+00  0.95577385012E+03  0.97615515561E+03  0.00000000000E+00 0.  1.
</event>
<event>
 5    1  0.4419198E-005  0.3675781E+03  0.7818608E-02  0.9827656E-01
         -4   -1    0    0    0  501 -0.00000000000E+00  0.00000000000E+00  0.16155951484E+04  0.16155951484E+04  0.00000000000E+00 0. -1.
         21   -1    0    0  501  502  0.00000000000E+00 -0.00000000000E+00 -0.49877408234E+03  0.49877408234E+03  0.00000000000E+00 0. -1.
        -13    1    1    2    0    0 -0.34056070749E+03  0.96409507391E+02  0.98444774382E+03  0.10461423230E+04  0.10566000000E+00 0.  1.
         13    1    1    2    0    0  0.43703019657E+03 -0.41483513604E+03 -0.16201844164E+03  0.62396600020E+03  0.10566000000E+00 0. -1.
         -4    1    1    2    0  502 -0.96469489075E+02  0.31842562865E+03  0.29439176391E+03  0.44426090753E+03  0.00000000000E+00 0. -1.
</event>
<event>
 5    1  0.4419198E-005  0.1869949E+03  0.7818608E-02  0.1078894E+00
         -4   -1    0    0    0  501 -0.00000000000E+00  0.00000000000E+00  0.59793992094E+03  0.59793992094E+03  0.00000000000E+00 0. -1.
         21   -1    0    0  501  502  0.00000000000E+00 -0.00000000000E+00 -0.22348099710E+03  0.22348099710E+03  0.00000000000E+00 0. -1.
        -13    1    1    2    0    0 -0.61776656974E+02 -0.12890751582E+03  0.66503449500E+02  0.15765856444E+03  0.10566000000E+00 0.  1.
         13    1    1    2    0    0 -0.11601990191E+03  0.19050614655E+03  0.39717038008E+03  0.45551896940E+03  0.10566000000E+00 0. -1.
         -4    1    1    2    0  502  0.17779655888E+03 -0.61598630734E+02 -0.89214905730E+02  0.20824338420E+03  0.00000000000E+00 0. -1.
</event>
<event>
 5    1  0.4419198E-005  0.4530386E+03  0.7818608E-02  0.9763768E-01
         21   -1    0    0  501  502  0.00000000000E+00  0.00000000000E+00  0.27656162057E+03  0.27656162057E+03  0.00000000000E+00 0. -1.
         -4   -1    0    0    0  501 -0.00000000000E+00 -0.00000000000E+00 -0.23887132209E+04  0.23887132209E+04  0.00000000000E+00 0. -1.
        -13    1    1    2    0    0  0.54029170882E+02 -0.23817909064E+03 -0.13786361713E+04  0.14001021871E+04  0.10566000000E+00 0.  1.
         13    1    1    2    0    0 -0.24720348208E+03  0.57193305715E+03 -0.57630675386E+03  0.84873227175E+03  0.10566000000E+00 0. -1.
         -4    1    1    2    0  502  0.19317431120E+03 -0.33375396650E+03 -0.15720867516E+03  0.41644038254E+03  0.00000000000E+00 0. -1.
</event>
<event>
 5    1  0.4419198E-005  0.4201086E+03  0.7818608E-02  0.9804213E-01
          4   -1    0    0  502    0 -0.00000000000E+00  0.00000000000E+00  0.25692419598E+03  0.25692419598E+03  0.00000000000E+00 0.  1.
         21   -1    0    0  501  502  0.00000000000E+00 -0.00000000000E+00 -0.17221774600E+04  0.17221774600E+04  0.00000000000E+00 0.  1.
        -13    1    1    2    0    0  0.36145010970E+03  0.33029598828E+02 -0.75564290453E+03  0.83829192202E+03  0.10566000000E+00 0.  1.
         13    1    1    2    0    0  0.25413922422E+03  0.80756208264E+02 -0.19344203061E+03  0.32943609522E+03  0.10566000000E+00 0. -1.
          4    1    1    2  501    0 -0.61558933392E+03 -0.11378580709E+03 -0.51616832892E+03  0.81137363878E+03  0.00000000000E+00 0.  1.
</event>
<event>
 5    1  0.9611157E-005  0.4779982E+03  0.7818608E-02  0.1046788E+00
         -4   -1    0    0    0  501 -0.00000000000E+00  0.00000000000E+00  0.28009223135E+03  0.28009223135E+03  0.00000000000E+00 0. -1.
         21   -1    0    0  501  502  0.00000000000E+00 -0.00000000000E+00 -0.96132668775E+03  0.96132668775E+03  0.00000000000E+00 0. -1.
        -13    1    1    2    0    0  0.21586834259E+02  0.25107747155E+01  0.12908740892E+02  0.25277305206E+02  0.10566000000E+00 0.  1.
         13    1    1    2    0    0  0.18375571373E+03 -0.43888133986E+03 -0.51635647154E+03  0.70214457890E+03  0.10566000000E+00 0. -1.
         -4    1    1    2    0  502 -0.20534254799E+03  0.43637056514E+03 -0.17778672575E+03  0.51399703500E+03  0.00000000000E+00 0. -1.
</event>
<event>
 5    1  0.4419198E-005  0.9649381E+02  0.7818608E-02  0.1170491E+00
          4   -1    0    0  502    0 -0.00000000000E+00  0.00000000000E+00  0.18158461334E+03  0.18158461334E+03  0.00000000000E+00 0.  1.
         21   -1    0    0  501  502  0.00000000000E+00 -0.00000000000E+00 -0.49322820916E+03  0.49322820916E+03  0.00000000000E+00 0. -1.
        -13    1    1    2    0    0 -0.96617544753E+02  0.11684823528E+02  0.16274432768E+03  0.18962387089E+03  0.10566000000E+00 0.  1.
         13    1    1    2    0    0  0.73147862160E+02 -0.21346022134E+02 -0.34131752686E+03  0.34971978455E+03  0.10566000000E+00 0. -1.
          4    1    1    2  501    0  0.23469682593E+02  0.96611986060E+01 -0.13307039665E+03  0.13546916706E+03  0.00000000000E+00 0.  1.
</event>
<event>
 5    1  0.4419198E-005  0.4960505E+03  0.7818608E-02  0.9608322E-01
         21   -1    0    0  501  502  0.00000000000E+00  0.00000000000E+00  0.10779331017E+03  0.10779331017E+03  0.00000000000E+00 0.  1.
          4   -1    0    0  502    0 -0.00000000000E+00 -0.00000000000E+00 -0.48041204789E+04  0.48041204789E+04  0.00000000000E+00 0.  1.
        -13    1    1    2    0    0 -0.57464394020E+03 -0.17811500106E+03 -0.16792016540E+04  0.17837204987E+04  0.10566000000E+00 0.  1.
         13    1    1    2    0    0  0.27555708618E+03 -0.16316688128E+03 -0.18197035252E+04  0.18476677379E+04  0.10566000000E+00 0. -1.
          4    1    1    2  501    0  0.29908685402E+03  0.34128188233E+03 -0.11974219895E+04  0.12805255524E+04  0.00000000000E+00 0.  1.
</event>
<event>
 5    1  0.4419198E-005  0.2553951E+03  0.7818608E-02  0.1035601E+00
         -4   -1    0    0    0  501 -0.00000000000E+00  0.00000000000E+00  0.20519710332E+04  0.20519710332E+04  0.00000000000E+00 0. -1.
         21   -1    0    0  501  502  0.00000000000E+00 -0.00000000000E+00 -0.18146855550E+03  0.18146855550E+03  0.00000000000E+00 0. -1.
        -13    1    1    2    0    0  0.48075544018E+02  0.19395292584E+03  0.35393616496E+03  0.40644780158E+03  0.10566000000E+00 0.  1.
         13    1    1    2    0    0 -0.24952002338E+03 -0.33287525922E+03  0.15264161549E+04  0.15820911698E+04  0.10566000000E+00 0. -1.
         -4    1    1    2    0  502  0.20144447937E+03  0.13892233338E+03 -0.98498422211E+01  0.24490061733E+03  0.00000000000E+00 0. -1.
</event>
<event>
 5    1  0.4419198E-005  0.5063569E+03  0.7818608E-02  0.9644055E-01
         21   -1    0    0  501  502  0.00000000000E+00  0.00000000000E+00  0.10628572939E+04  0.10628572939E+04  0.00000000000E+00 0. -1.
         -4   -1    0    0    0  501 -0.00000000000E+00 -0.00000000000E+00 -0.40954748205E+03  0.40954748205E+03  0.00000000000E+00 0. -1.
        -13    1    1    2    0    0 -0.96742476326E+02  0.24706566113E+03  0.95010575366E+02  0.28182896982E+03  0.10566000000E+00 0.  1.
         13    1    1    2    0    0  0.55836852440E+03 -0.16831082373E+03  0.31681523997E+03  0.66368354648E+03  0.10566000000E+00 0. -1.
         -4    1    1    2    0  502 -0.46162604807E+03 -0.78754837405E+02  0.24148399648E+03  0.52689225961E+03  0.00000000000E+00 0. -1.
</event>
<event>
 5    1  0.4419198E-005  0.4737183E+03  0.7818608E-02  0.9578063E-01
         21   -1    0    0  501  502  0.00000000000E+00  0.00000000000E+00  0.85068751018E+03  0.85068751018E+03  0.00000000000E+00 0.  1.
          4   -1    0    0  502    0 -0.00000000000E+00 -0.00000000000E+00 -0.66198774340E+03  0.66198774340E+03  0.00000000000E+00 0.  1.
        -13    1    1    2    0    0 -0.21371661676E+03  0.59514406353E+03 -0.61847167098E+01  0.63238398977E+03  0.10566000000E+00 0.  1.
         13    1    1    2    0    0 -0.14288653406E+03 -0.38382079551E+03  0.22020990987E+03  0.46500255941E+03  0.10566000000E+00 0. -1.
          4    1    1    2  501    0  0.35660315082E+03 -0.21132326802E+03 -0.25325426383E+02  0.41528870440E+03  0.00000000000E+00 0.  1.
</event>
<event>
 5    1  0.4419198E-005  0.2364014E+03  0.7818608E-02  0.1037691E+00
          4   -1    0    0  502    0 -0.00000000000E+00  0.00000000000E+00  0.65870457299E+03  0.65870457299E+03  0.00000000000E+00 0.  1.
         21   -1    0    0  501  502  0.00000000000E+00 -0.00000000000E+00 -0.12265987418E+03  0.12265987418E+03  0.00000000000E+00 0. -1.
        -13    1    1    2    0    0  0.14844843002E+03  0.21760442823E+03  0.17290284486E+03  0.31509368208E+03  0.10566000000E+00 0.  1.
         13    1    1    2    0    0 -0.10683958559E+03 -0.19071181932E+03  0.20183906718E+03  0.29753103247E+03  0.10566000000E+00 0. -1.
          4    1    1    2  501    0 -0.41608844427E+02 -0.26892608910E+02  0.16130278677E+03  0.16873973263E+03  0.00000000000E+00 0.  1.
</event>
<event>
 5    1  0.4419198E-005  0.8697478E+03  0.7818608E-02  0.8907661E-01
         21   -1    0    0  501  502  0.00000000000E+00  0.00000000000E+00  0.44988632914E+03  0.44988632914E+03  0.00000000000E+00 0.  1.
          4   -1    0    0  502    0 -0.00000000000E+00 -0.00000000000E+00 -0.36083045709E+04  0.36083045709E+04  0.00000000000E+00 0.  1.
        -13    1    1    2    0    0  0.75342272863E+03 -0.28484515943E+03 -0.14015337607E+04  0.16165022321E+04  0.10566000000E+00 0.  1.
         13    1    1    2    0    0 -0.86362629579E+03  0.35117234769E+03 -0.19775385230E+04  0.21862824652E+04  0.10566000000E+00 0. -1.
          4    1    1    2  501    0  0.11020356716E+03 -0.66327188262E+02  0.22065404199E+03  0.25540620267E+03  0.00000000000E+00 0.  1.
</event>
<event>
 5    1  0.4419198E-005  0.6976933E+03  0.7818608E-02  0.9126331E-01
         21   -1    0    0  501  502  0.00000000000E+00  0.00000000000E+00  0.41939297634E+03  0.41939297634E+03  0.00000000000E+00 0. -1.
          4   -1    0    0  502    0 -0.00000000000E+00 -0.00000000000E+00 -0.28625287568E+04  0.28625287568E+04  0.00000000000E+00 0.  1.
        -13    1    1    2    0    0 -0.91479824890E+03  0.11866152194E+03 -0.44495394292E+03  0.10241681578E+04  0.10566000000E+00 0.  1.
         13    1    1    2    0    0  0.64678600222E+03 -0.94238422964E+02 -0.18230140956E+04  0.19366448866E+04  0.10566000000E+00 0. -1.
          4    1    1    2  501    0  0.26801224667E+03 -0.24423098977E+02 -0.17516774190E+03  0.32110868866E+03  0.00000000000E+00 0.  1.
</event>
<event>
 5    1  0.4419198E-005  0.4218714E+03  0.7818608E-02  0.9987078E-01
         -4   -1    0    0    0  501 -0.00000000000E+00  0.00000000000E+00  0.15317799610E+04  0.15317799610E+04  0.00000000000E+00 0. -1.
         21   -1    0    0  501  502  0.00000000000E+00 -0.00000000000E+00 -0.22479567030E+03  0.22479567030E+03  0.00000000000E+00 0. -1.
        -13    1    1    2    0    0 -0.14159872086E+03  0.18102654881E+02  0.10772002781E+03  0.17883377595E+03  0.10566000000E+00 0.  1.
         13    1    1    2    0    0  0.21500874358E+02 -0.42653230675E+03  0.10381341743E+04  0.11225482935E+04  0.10566000000E+00 0. -1.
         -4    1    1    2    0  502  0.12009784651E+03  0.40842965187E+03  0.16113008859E+03  0.45519356181E+03  0.00000000000E+00 0. -1.
</event>
<event>
 5    1  0.4419198E-005  0.4373239E+03  0.7818608E-02  0.9627062E-01
         21   -1    0    0  501  502  0.00000000000E+00  0.00000000000E+00  0.54190154331E+03  0.54190154331E+03  0.00000000000E+00 0.  1.
         -4   -1    0    0    0  501 -0.00000000000E+00 -0.00000000000E+00 -0.15976877598E+04  0.15976877598E+04  0.00000000000E+00 0. -1.
        -13    1    1    2    0    0 -0.23999853243E+03  0.35010258525E+03 -0.11039561492E+04  0.11827469325E+04  0.10566000000E+00 0.  1.
         13    1    1    2    0    0  0.50550500367E+03 -0.34706975341E+03  0.20731194272E+03  0.64727967311E+03  0.10566000000E+00 0. -1.
         -4    1    1    2    0  502 -0.26550647124E+03 -0.30328318446E+01 -0.15914200999E+03  0.30956269750E+03  0.00000000000E+00 0. -1.
</event>
<event>
 5    1  0.4419198E-005  0.4655176E+03  0.7818608E-02  0.9681113E-01
         21   -1    0    0  501  502  0.00000000000E+00  0.00000000000E+00  0.42125858904E+03  0.42125858904E+03  0.00000000000E+00 0.  1.
          4   -1    0    0  502    0 -0.00000000000E+00 -0.00000000000E+00 -0.10671360178E+04  0.10671360178E+04  0.00000000000E+00 0.  1.
        -13    1    1    2    0    0  0.35972564848E+03 -0.22978578328E+03 -0.48893787581E+03  0.64904877008E+03  0.10566000000E+00 0.  1.
         13    1    1    2    0    0  0.15127597010E+03  0.25885563624E+03 -0.13006116736E+03  0.32681275673E+03  0.10566000000E+00 0. -1.
          4    1    1    2  501    0 -0.51100161858E+03 -0.29069852965E+02 -0.26878385612E+02  0.51253308006E+03  0.00000000000E+00 0.  1.
</event>
<event>
 5    1  0.4419198E-005  0.1127386E+03  0.7818608E-02  0.1145044E+00
         21   -1    0    0  501  502  0.00000000000E+00  0.00000000000E+00  0.56205028589E+03  0.56205028589E+03  0.00000000000E+00 0. -1.
          4   -1    0    0  502    0 -0.00000000000E+00 -0.00000000000E+00 -0.50597104677E+03  0.50597104677E+03  0.00000000000E+00 0.  1.
        -13    1    1    2    0    0  0.10210146172E+03  0.47941673009E+02 -0.49044037982E+03  0.50324436392E+03  0.10566000000E+00 0.  1.
         13    1    1    2    0    0 -0.10932286419E+03 -0.21835170619E+02  0.48344150419E+03  0.49612897763E+03  0.10566000000E+00 0. -1.
          4    1    1    2  501    0  0.72214024669E+01 -0.26106502390E+02  0.63078114760E+02  0.68647991101E+02  0.00000000000E+00 0.  1.
</event>
<event>
 5    1  0.4419198E-005  0.4832785E+03  0.7818608E-02  0.9900073E-01
         21   -1    0    0  501  502  0.00000000000E+00  0.00000000000E+00  0.26092277595E+03  0.26092277595E+03  0.00000000000E+00 0.  1.
          4   -1    0    0  502    0 -0.00000000000E+00 -0.00000000000E+00 -0.15259808657E+04  0.15259808657E+04  0.00000000000E+00 0.  1.
        -13    1    1    2    0    0 -0.31689785077E+03  0.30823527278E+03 -0.21043742597E+03  0.48960918355E+03  0.10566000000E+00 0.  1.
         13    1    1    2    0    0 -0.76549082942E+02  0.10097464936E+03 -0.45190550152E+03  0.46933382084E+03  0.10566000000E+00 0. -1.
          4    1    1    2  501    0  0.39344693371E+03 -0.40920992213E+03 -0.60271516226E+03  0.82796063726E+03  0.00000000000E+00 0.  1.
</event>
<event>
 5    1  0.4419198E-005  0.1268432E+03  0.7818608E-02  0.1126493E+00
         21   -1    0    0  501  502  0.00000000000E+00  0.00000000000E+00  0.60450624161E+03  0.60450624161E+03  0.00000000000E+00 0. -1.
          4   -1    0    0  502    0 -0.00000000000E+00 -0.00000000000E+00 -0.53727498182E+02  0.53727498182E+02  0.00000000000E+00 0.  1.
        -13    1    1    2    0    0 -0.33819116806E+02  0.11237314678E+03  0.72192568934E+02  0.13777966088E+03  0.10566000000E+00 0.  1.
         13    1    1    2    0    0  0.36995696540E+02 -0.15389879720E+03  0.32767508137E+03  0.36390176073E+03  0.10566000000E+00 0. -1.
          4    1    1    2  501    0 -0.31765797339E+01  0.41525650424E+02  0.15091109312E+03  0.15655231819E+03  0.00000000000E+00 0.  1.
</event>
<event>
 5    1  0.4419198E-005  0.4693698E+03  0.7818608E-02  0.9950413E-01
         21   -1    0    0  501  502  0.00000000000E+00  0.00000000000E+00  0.19609271477E+03  0.19609271477E+03  0.00000000000E+00 0. -1.
         -4   -1    0    0    0  501 -0.00000000000E+00 -0.00000000000E+00 -0.16552294197E+04  0.16552294197E+04  0.00000000000E+00 0. -1.
        -13    1    1    2    0    0  0.71240732670E+02 -0.92780934348E+02 -0.33384725848E+03  0.35374785785E+03  0.10566000000E+00 0.  1.
         13    1    1    2    0    0 -0.46759053509E+03  0.26618660610E+03 -0.76104551158E+03  0.93203352924E+03  0.10566000000E+00 0. -1.
         -4    1    1    2    0  502  0.39634980242E+03 -0.17340567175E+03 -0.36424393487E+03  0.56554074739E+03  0.00000000000E+00 0. -1.
</event>
<event>
 5    1  0.4419198E-005  0.1439647E+03  0.7818608E-02  0.1107221E+00
         -4   -1    0    0    0  501 -0.00000000000E+00  0.00000000000E+00  0.20609407109E+03  0.20609407109E+03  0.00000000000E+00 0. -1.
         21   -1    0    0  501  502  0.00000000000E+00 -0.00000000000E+00 -0.12300318383E+03  0.12300318383E+03  0.00000000000E+00 0.  1.
        -13    1    1    2    0    0 -0.11445419151E+03 -0.95600092050E+02  0.47742275885E+02  0.15658376552E+03  0.10566000000E+00 0.  1.
         13    1    1    2    0    0  0.10350016752E+03  0.93545898677E+02  0.54968700030E+02  0.14994895459E+03  0.10566000000E+00 0. -1.
         -4    1    1    2    0  502  0.10954023986E+02  0.20541933725E+01 -0.19620088663E+02  0.22564534807E+02  0.00000000000E+00 0. -1.
</event>
<event>
 5    1  0.4419198E-005  0.2246161E+03  0.7818608E-02  0.1052016E+00
         -4   -1    0    0    0  501 -0.00000000000E+00  0.00000000000E+00  0.25832418046E+03  0.25832418046E+03  0.00000000000E+00 0. -1.
         21   -1    0    0  501  502  0.00000000000E+00 -0.00000000000E+00 -0.46942064174E+03  0.46942064174E+03  0.00000000000E+00 0. -1.
        -13    1    1    2    0    0  0.16286349858E+03  0.74888331382E+02 -0.14879995372E+03  0.23296827840E+03  0.10566000000E+00 0.  1.
         13    1    1    2    0    0 -0.26891887307E+03  0.99453824123E+02 -0.32811941907E+02  0.28859150736E+03  0.10566000000E+00 0. -1.
         -4    1    1    2    0  502  0.10605537449E+03 -0.17434215551E+03 -0.29484565647E+02  0.20618503645E+03  0.00000000000E+00 0. -1.
</event>
<event>
 5    1  0.4419198E-005  0.2525760E+03  0.7818608E-02  0.1029066E+00
         -4   -1    0    0    0  501 -0.00000000000E+00  0.00000000000E+00  0.17747756315E+04  0.17747756315E+04  0.00000000000E+00 0. -1.
         21   -1    0    0  501  502  0.00000000000E+00 -0.00000000000E+00 -0.52210775423E+02  0.52210775423E+02  0.00000000000E+00 0.  1.
        -13    1    1    2    0    0 -0.10402264586E+02 -0.23621932256E+03  0.46456551525E+03  0.52127622675E+03  0.10566000000E+00 0.  1.
         13    1    1    2    0    0 -0.13214397001E+02  0.26029475179E+03  0.12407531649E+04  0.12678313790E+04  0.10566000000E+00 0. -1.
         -4    1    1    2    0  502  0.23616661587E+02 -0.24075429232E+02  0.17246175931E+02  0.37878801215E+02  0.00000000000E+00 0. -1.
</event>
<event>
 5    1  0.4419198E-005  0.4753846E+03  0.7818608E-02  0.9533619E-01
          4   -1    0    0  502    0 -0.00000000000E+00  0.00000000000E+00  0.96434087235E+03  0.96434087235E+03  0.00000000000E+00 0.  1.
         21   -1    0    0  501  502  0.00000000000E+00 -0.00000000000E+00 -0.37757881054E+03  0.37757881054E+03  0.00000000000E+00 0. -1.
        -13    1    1    2    0    0 -0.41627377136E+03  0.23374098781E+03  0.13064727728E+03  0.49496204332E+03  0.10566000000E+00 0.  1.
         13    1    1    2    0    0  0.40664931805E+03 -0.24449687814E+03  0.56460580288E+03  0.73751075592E+03  0.10566000000E+00 0. -1.
          4    1    1    2  501    0  0.96244533107E+01  0.10755890324E+02 -0.10849101835E+03  0.10944688365E+03  0.00000000000E+00 0.  1.
</event>
<event>
 5    1  0.4419198E-005  0.4885310E+03  0.7818608E-02  0.9742126E-01
         21   -1    0    0  501  502  0.00000000000E+00  0.00000000000E+00  0.24947204762E+03  0.24947204762E+03  0.00000000000E+00 0. -1.
         -4   -1    0    0    0  501 -0.00000000000E+00 -0.00000000000E+00 -0.17855118180E+04  0.17855118180E+04  0.00000000000E+00 0. -1.
        -13    1    1    2    0    0  0.17175605791E+03  0.12057803405E+03 -0.66244947806E+03  0.69489461638E+03  0.10566000000E+00 0.  1.
         13    1    1    2    0    0  0.41806242105E+03 -0.26706208344E+02 -0.35348358045E+03  0.54812413034E+03  0.10566000000E+00 0. -1.
         -4    1    1    2    0  502 -0.58981847896E+03 -0.93871825708E+02 -0.52010671186E+03  0.79196511887E+03  0.00000000000E+00 0. -1.
</event>
<event>
 5    1  0.4419198E-005  0.4609966E+03  0.7818608E-02  0.9567818E-01
         21   -1    0    0  501  502  0.00000000000E+00  0.00000000000E+00  0.68649398554E+03  0.68649398554E+03  0.00000000000E+00 0. -1.
          4   -1    0    0  502    0 -0.00000000000E+00 -0.00000000000E+00 -0.55668887485E+03  0.55668887485E+03  0.00000000000E+00 0.  1.
        -13    1    1    2    0    0  0.45852862705E+03  0.25812261480E+03 -0.12404850581E+03  0.54061430711E+03  0.10566000000E+00 0.  1.
         13    1    1    2    0    0 -0.21319731176E+03 -0.31724038039E+03  0.23681628578E+03  0.44964043086E+03  0.10566000000E+00 0. -1.
          4    1    1    2  501    0 -0.24533131529E+03  0.59117765589E+02  0.17037330718E+02  0.25292812242E+03  0.00000000000E+00 0.  1.
</event>
<event>
 5    1  0.4419198E-005  0.1339613E+03  0.7818608E-02  0.1137711E+00
         21   -1    0    0  501  502  0.00000000000E+00  0.00000000000E+00  0.59289006882E+02  0.59289006882E+02  0.00000000000E+00 0. -1.
         -4   -1    0    0    0  501 -0.00000000000E+00 -0.00000000000E+00 -0.61434077585E+03  0.61434077585E+03  0.00000000000E+00 0. -1.
        -13    1    1    2    0    0  0.23142852676E+02 -0.77429409400E+02 -0.84895343121E+02  0.11720979276E+03  0.10566000000E+00 0.  1.
         13    1    1    2    0    0 -0.14011184768E+03  0.10196838467E+03 -0.32572162477E+03  0.36894914194E+03  0.10566000000E+00 0. -1.
         -4    1    1    2    0  502  0.11696899501E+03 -0.24538975266E+02 -0.14443480107E+03  0.18747084803E+03  0.00000000000E+00 0. -1.
</event>
<event>
 5    1  0.4419198E-005  0.1951298E+03  0.7818608E-02  0.1063527E+00
         21   -1    0    0  501  502  0.00000000000E+00  0.00000000000E+00  0.18394756125E+03  0.18394756125E+03  0.00000000000E+00 0. -1.
         -4   -1    0    0    0  501 -0.00000000000E+00 -0.00000000000E+00 -0.11615718165E+04  0.11615718165E+04  0.00000000000E+00 0. -1.
        -13    1    1    2    0    0 -0.19747931306E+03  0.30741426758E+02 -0.11633641552E+03  0.23125156680E+03  0.10566000000E+00 0.  1.
         13    1    1    2    0    0  0.19380375483E+03 -0.15484140743E+02 -0.97767923884E+03  0.99682313337E+03  0.10566000000E+00 0. -1.
         -4    1    1    2    0  502  0.36755582313E+01 -0.15257286015E+02  0.11639139911E+03  0.11744467758E+03  0.00000000000E+00 0. -1.
</event>
<event>
 5    1  0.4419198E-005  0.2681987E+03  0.7818608E-02  0.1021371E+00
         -4   -1    0    0    0  501 -0.00000000000E+00  0.00000000000E+00  0.25106902461E+03  0.25106902461E+03  0.00000000000E+00 0. -1.
         21   -1    0    0  501  502  0.00000000000E+00 -0.00000000000E+00 -0.47277342912E+03  0.47277342912E+03  0.00000000000E+00 0. -1.
        -13    1    1    2    0    0  0.13353196230E+03  0.15721103272E+03 -0.14425929968E+03  0.25170786732E+03  0.10566000000E+00 0.  1.
         13    1    1    2    0    0 -0.15578075614E+03 -0.27552983385E+03  0.20140778537E+02  0.31715925881E+03  0.10566000000E+00 0. -1.
         -4    1    1    2    0  502  0.22248793844E+02  0.11831880113E+03 -0.97585883363E+02  0.15497532758E+03  0.00000000000E+00 0. -1.
</event>
<event>
 5    1  0.4419198E-005  0.4941012E+03  0.7818608E-02  0.9627858E-01
          4   -1    0    0  502    0 -0.00000000000E+00  0.00000000000E+00  0.11848999141E+04  0.11848999141E+04  0.00000000000E+00 0.  1.
         21   -1    0    0  501  502  0.00000000000E+00 -0.00000000000E+00 -0.39599903518E+03  0.39599903518E+03  0.00000000000E+00 0.  1.
        -13    1    1    2    0    0  0.34178060929E+03 -0.40408774948E+03  0.17334254720E+03  0.55690981676E+03  0.10566000000E+00 0.  1.
         13    1    1    2    0    0  0.14044292421E+03  0.26777781904E+03  0.32849347035E+03  0.44647188776E+03  0.10566000000E+00 0. -1.
          4    1    1    2  501    0 -0.48222353350E+03  0.13630993044E+03  0.28706486141E+03  0.57751724481E+03  0.00000000000E+00 0.  1.
</event>
<event>
 5    1  0.4419198E-005  0.1782336E+03  0.7818608E-02  0.1076178E+00
         21   -1    0    0  501  502  0.00000000000E+00  0.00000000000E+00  0.12825077832E+04  0.12825077832E+04  0.00000000000E+00 0. -1.
         -4   -1    0    0    0  501 -0.00000000000E+00 -0.00000000000E+00 -0.83122393571E+02  0.83122393571E+02  0.00000000000E+00 0. -1.
        -13    1    1    2    0    0  0.11833128209E+03 -0.11599641112E+03  0.23304913966E+03  0.28595344442E+03  0.10566000000E+00 0.  1.
         13    1    1    2    0    0 -0.19552143030E+03  0.39767022369E+02  0.13410473679E+03  0.24040411263E+03  0.10566000000E+00 0. -1.
         -4    1    1    2    0  502  0.77190148209E+02  0.76229388749E+02  0.83223151314E+03  0.83927261968E+03  0.00000000000E+00 0. -1.
</event>
<event>
 5    1  0.4419198E-005  0.2129790E+03  0.7818608E-02  0.1051585E+00
          4   -1    0    0  502    0 -0.00000000000E+00  0.00000000000E+00  0.13760471896E+04  0.13760471896E+04  0.00000000000E+00 0.  1.
         21   -1    0    0  501  502  0.00000000000E+00 -0.00000000000E+00 -0.66258800533E+02  0.66258800533E+02  0.00000000000E+00 0.  1.
        -13    1    1    2    0    0  0.11077023735E+03  0.20078827179E+03  0.10183124077E+04  0.10438132718E+04  0.10566000000E+00 0.  1.
         13    1    1    2    0    0 -0.87109315457E+02 -0.15832507164E+03  0.29893910030E+03  0.34931283687E+03  0.10566000000E+00 0. -1.
          4    1    1    2  501    0 -0.23660921893E+02 -0.42463200150E+02 -0.74631189654E+01  0.49179881420E+02  0.00000000000E+00 0.  1.
</event>
<event>
 5    1  0.4419198E-005  0.5802972E+02  0.7818608E-02  0.1262158E+00
         -4   -1    0    0    0  501 -0.00000000000E+00  0.00000000000E+00  0.61375332807E+02  0.61375332807E+02  0.00000000000E+00 0. -1.
         21   -1    0    0  501  502  0.00000000000E+00 -0.00000000000E+00 -0.24650782778E+03  0.24650782778E+03  0.00000000000E+00 0.  1.
        -13    1    1    2    0    0 -0.19890513853E+02 -0.31021484680E+02 -0.14771273629E+03  0.15224003639E+03  0.10566000000E+00 0.  1.
         13    1    1    2    0    0  0.26356346606E+01  0.60863094052E+02  0.38636960366E+02  0.72139369681E+02  0.10566000000E+00 0. -1.
         -4    1    1    2    0  502  0.17254879193E+02 -0.29841609372E+02 -0.76056719042E+02  0.83503754510E+02  0.00000000000E+00 0. -1.
</event>
<event>
 5    1  0.4419198E-005  0.8625903E+02  0.7818608E-02  0.1189540E+00
         -4   -1    0    0    0  501 -0.00000000000E+00  0.00000000000E+00  0.11304493316E+03  0.11304493316E+03  0.00000000000E+00 0. -1.
         21   -1    0    0  501  502  0.00000000000E+00 -0.00000000000E+00 -0.56200052482E+03  0.56200052482E+03  0.00000000000E+00 0. -1.
        -13    1    1    2    0    0 -0.42933687392E+02 -0.55371963741E+02 -0.24516880356E+03  0.25498452754E+03  0.10566000000E+00 0.  1.
         13    1    1    2    0    0  0.19282454359E+02  0.85740762963E+02  0.88810618648E+02  0.12494250129E+03  0.10566000000E+00 0. -1.
         -4    1    1    2    0  502  0.23651233032E+02 -0.30368799222E+02 -0.29259740674E+03  0.29511842915E+03  0.00000000000E+00 0. -1.
</event>
<event>
 5    1  0.1147258E-004  0.4624469E+03  0.7818608E-02  0.1021955E+00
         21   -1    0    0  501  502  0.00000000000E+00  0.00000000000E+00  0.10405842941E+04  0.10405842941E+04  0.00000000000E+00 0. -1.
         -4   -1    0    0    0  501 -0.00000000000E+00 -0.00000000000E+00 -0.27450547303E+03  0.27450547303E+03  0.00000000000E+00 0. -1.
        -13    1    1    2    0    0  0.50016055227E+02 -0.11697038522E+02 -0.17556874174E+01  0.51395720571E+02  0.10566000000E+00 0.  1.
         13    1    1    2    0    0  0.42649076923E+03  0.42863815437E+02  0.95692250346E+02  0.43919096172E+03  0.10566000000E+00 0. -1.
         -4    1    1    2    0  502 -0.47650682446E+03 -0.31166776915E+02  0.67214225815E+03  0.82450308485E+03  0.00000000000E+00 0. -1.
</event>
<event>
 5    1  0.4419198E-005  0.1577190E+03  0.7818608E-02  0.1093739E+00
         21   -1    0    0  501  502  0.00000000000E+00  0.00000000000E+00  0.10089420821E+03  0.10089420821E+03  0.00000000000E+00 0.  1.
          4   -1    0    0  502    0 -0.00000000000E+00 -0.00000000000E+00 -0.35280293270E+03  0.35280293270E+03  0.00000000000E+00 0.  1.
        -13    1    1    2    0    0 -0.72073829436E+02 -0.13631163945E+03 -0.10543493141E+03  0.18679410019E+03  0.10566000000E+00 0.  1.
         13    1    1    2    0    0  0.28884067161E+02  0.16216013790E+03 -0.13996694813E+03  0.21615031204E+03  0.10566000000E+00 0. -1.
          4    1    1    2  501    0  0.43189762274E+02 -0.25848498450E+02 -0.65068449501E+01  0.50752728682E+02  0.00000000000E+00 0.  1.
</event>
<event>
 5    1  0.4419198E-005  0.3122477E+03  0.7818608E-02  0.1002374E+00
         21   -1    0    0  501  502  0.00000000000E+00  0.00000000000E+00  0.15622618528E+03  0.15622618528E+03  0.00000000000E+00 0.  1.
         -4   -1    0    0    0  501 -0.00000000000E+00 -0.00000000000E+00 -0.73197372970E+03  0.73197372970E+03  0.00000000000E+00 0. -1.
        -13    1    1    2    0    0  0.29170158307E+03  0.87042297255E+02 -0.17354162108E+03  0.35040388195E+03  0.10566000000E+00 0.  1.
         13    1    1    2    0    0 -0.30773630689E+03 -0.76817306975E+02 -0.40902372982E+03  0.51759342726E+03  0.10566000000E+00 0. -1.
         -4    1    1    2    0  502  0.16034723819E+02 -0.10224990279E+02  0.68178064806E+01  0.20202605757E+02  0.00000000000E+00 0. -1.
</event>
<event>
 5    1  0.4419198E-005  0.4213032E+03  0.7818608E-02  0.9669461E-01
          4   -1    0    0  502    0 -0.00000000000E+00  0.00000000000E+00  0.25719496745E+04  0.25719496745E+04  0.00000000000E+00 0.  1.
         21   -1    0    0  501  502  0.00000000000E+00 -0.00000000000E+00 -0.23338729473E+03  0.23338729473E+03  0.00000000000E+00 0.  1.
        -13    1    1    2    0    0  0.29072795995E+03 -0.32955194246E+03  0.16262328671E+04  0.16845653976E+04  0.10566000000E+00 0.  1.
         13    1    1    2    0    0 -0.40416779209E+03  0.13449041513E+03  0.77694857236E+03  0.88605212667E+03  0.10566000000E+00 0. -1.
          4    1    1    2  501    0  0.11343983214E+03  0.19506152733E+03 -0.64619059721E+02  0.23471944495E+03  0.00000000000E+00 0.  1.
</event>
<event>
 5    1  0.4419198E-005  0.3811180E+03  0.7818608E-02  0.9946969E-01
          4   -1    0    0  502    0 -0.00000000000E+00  0.00000000000E+00  0.20320538798E+04  0.20320538798E+04  0.00000000000E+00 0.  1.
         21   -1    0    0  501  502  0.00000000000E+00 -0.00000000000E+00 -0.19768943582E+03  0.19768943582E+03  0.00000000000E+00 0.  1.
        -13    1    1    2    0    0  0.18812896907E+03  0.25340063616E+03  0.98745997400E+03  0.10366685115E+04  0.10566000000E+00 0.  1.
         13    1    1    2    0    0 -0.15782291523E+03  0.15472334258E+03  0.73685748149E+03  0.76928950630E+03  0.10566000000E+00 0. -1.
          4    1    1    2  501    0 -0.30306053835E+02 -0.40812397874E+03  0.11004698847E+03  0.42378529775E+03  0.00000000000E+00 0.  1.
</event>
<event>
 5    1  0.4419198E-005  0.5353608E+03  0.7818608E-02  0.9403663E-01
         21   -1    0    0  501  502  0.00000000000E+00  0.00000000000E+00  0.91917096174E+03  0.91917096174E+03  0.00000000000E+00 0.  1.
          4   -1    0    0  502    0 -0.00000000000E+00 -0.00000000000E+00 -0.59971503456E+03  0.59971503456E+03  0.00000000000E+00 0.  1.
        -13    1    1    2    0    0  0.58205710127E+03  0.38420986142E+03 -0.34711145750E+02  0.69829260454E+03  0.10566000000E+00 0.  1.
         13    1    1    2    0    0 -0.24004768233E+03 -0.30274178940E+03  0.21758297214E+03  0.44341610455E+03  0.10566000000E+00 0. -1.
          4    1    1    2  501    0 -0.34200941894E+03 -0.81468072015E+02  0.13658410078E+03  0.37717728721E+03  0.00000000000E+00 0.  1.
</event>
<event>
 5    1  0.4419198E-005  0.1960184E+03  0.7818608E-02  0.1062900E+00
         21   -1    0    0  501  502  0.00000000000E+00  0.00000000000E+00  0.36227863739E+03  0.36227863739E+03  0.00000000000E+00 0.  1.
          4   -1    0    0  502    0 -0.00000000000E+00 -0.00000000000E+00 -0.17485837835E+04  0.17485837835E+04  0.00000000000E+00 0.  1.
        -13    1    1    2    0    0 -0.16204707759E+03  0.13624496031E+03 -0.70481579877E+03  0.73592612803E+03  0.10566000000E+00 0.  1.
         13    1    1    2    0    0  0.46931363850E+02 -0.19678985494E+03 -0.10055752599E+04  0.10257243365E+04  0.10566000000E+00 0. -1.
          4    1    1    2  501    0  0.11511571374E+03  0.60544894621E+02  0.32408591253E+03  0.34921195643E+03  0.00000000000E+00 0.  1.
</event>
<event>
 5    1  0.4419198E-005  0.4863033E+03  0.7818608E-02  0.9764820E-01
         21   -1    0    0  501  502  0.00000000000E+00  0.00000000000E+00  0.32978961854E+03  0.32978961854E+03  0.00000000000E+00 0. -1.
         -4   -1    0    0    0  501 -0.00000000000E+00 -0.00000000000E+00 -0.15319997251E+04  0.15319997251E+04  0.00000000000E+00 0. -1.
        -13    1    1    2    0    0  0.18751328638E+03  0.59573074569E+02 -0.70222549658E+03  0.72926733301E+03  0.10566000000E+00 0.  1.
         13    1    1    2    0    0  0.19429747997E+03 -0.41213201293E+03 -0.39349969596E+03  0.60203515570E+03  0.10566000000E+00 0. -1.
         -4    1    1    2    0  502 -0.38181076635E+03  0.35255893837E+03 -0.10648491398E+03  0.53048685491E+03  0.00000000000E+00 0. -1.
</event>
<event>
 5    1  0.4419198E-005  0.4163967E+03  0.7818608E-02  0.9810443E-01
         21   -1    0    0  501  502  0.00000000000E+00  0.00000000000E+00  0.42990245985E+03  0.42990245985E+03  0.00000000000E+00 0.  1.
          4   -1    0    0  502    0 -0.00000000000E+00 -0.00000000000E+00 -0.12583436639E+04  0.12583436639E+04  0.00000000000E+00 0.  1.
        -13    1    1    2    0    0 -0.26140403782E+03 -0.36884371902E+03  0.20541467230E+03  0.49656113300E+03  0.10566000000E+00 0.  1.
         13    1    1    2    0    0 -0.45516152500E+02  0.26421056391E+03 -0.48683260472E+03  0.55577417933E+03  0.10566000000E+00 0. -1.
          4    1    1    2  501    0  0.30692019032E+03  0.10463315510E+03 -0.54702327158E+03  0.63591081138E+03  0.00000000000E+00 0.  1.
</event>
<event>
 5    1  0.4419198E-005  0.4667048E+03  0.7818608E-02  0.9963829E-01
          4   -1    0    0  502    0 -0.00000000000E+00  0.00000000000E+00  0.56863002025E+03  0.56863002025E+03  0.00000000000E+00 0.  1.
         21   -1    0    0  501  502  0.00000000000E+00 -0.00000000000E+00 -0.55560338862E+03  0.55560338862E+03  0.00000000000E+00 0.  1.
        -13    1    1    2    0    0  0.38160629880E+03 -0.10154370671E+03  0.23955419204E+03  0.46186655404E+03  0.10566000000E+00 0.  1.
         13    1    1    2    0    0  0.11213309977E+03  0.19573929525E+02 -0.20826309703E+01  0.11384779004E+03  0.10566000000E+00 0. -1.
          4    1    1    2  501    0 -0.49373939857E+03  0.81969777184E+02 -0.22444492944E+03  0.54851906478E+03  0.00000000000E+00 0.  1.
</event>
<event>
 5    1  0.4419198E-005  0.5090100E+02  0.7818608E-02  0.1288163E+00
         21   -1    0    0  501  502  0.00000000000E+00  0.00000000000E+00  0.18012727393E+03  0.18012727393E+03  0.00000000000E+00 0. -1.
         -4   -1    0    0    0  501 -0.00000000000E+00 -0.00000000000E+00 -0.11209168257E+03  0.11209168257E+03  0.00000000000E+00 0. -1.
        -13    1    1    2    0    0  0.16094749435E+02  0.73092973776E+02  0.30684019219E+02  0.80889702523E+02  0.10566000000E+00 0.  1.
         13    1    1    2    0    0  0.11471822413E+01 -0.48178740092E+02 -0.78207791725E+02  0.91863904089E+02  0.10566000000E+00 0. -1.
         -4    1    1    2    0  502 -0.17241931677E+02 -0.24914233684E+02  0.11555936386E+03  0.11946534989E+03  0.00000000000E+00 0. -1.
</event>
<event>
 5    1  0.4419198E-005  0.4936716E+03  0.7818608E-02  0.9595119E-01
         -4   -1    0    0    0  501 -0.00000000000E+00  0.00000000000E+00  0.14501296557E+04  0.14501296557E+04  0.00000000000E+00 0. -1.
         21   -1    0    0  501  502  0.00000000000E+00 -0.00000000000E+00 -0.34953856846E+03  0.34953856846E+03  0.00000000000E+00 0. -1.
        -13    1    1    2    0    0 -0.83481912839E+02  0.33011973264E+03  0.17503702183E+03  0.38286582222E+03  0.10566000000E+00 0.  1.
         13    1    1    2    0    0 -0.37979434549E+03 -0.39808624641E+03  0.27453784386E+03  0.61488815513E+03  0.10566000000E+00 0. -1.
         -4    1    1    2    0  502  0.46327625833E+03  0.67966513770E+02  0.65101622155E+03  0.80191424682E+03  0.00000000000E+00 0. -1.
</event>
<event>
 5    1  0.4419198E-005  0.4044373E+03  0.7818608E-02  0.9820118E-01
         -4   -1    0    0    0  501 -0.00000000000E+00  0.00000000000E+00  0.15825754845E+04  0.15825754845E+04  0.00000000000E+00 0. -1.
         21   -1    0    0  501  502  0.00000000000E+00 -0.00000000000E+00 -0.41761912814E+03  0.41761912814E+03  0.00000000000E+00 0. -1.
        -13    1    1    2    0    0 -0.46872455276E+02  0.27921163365E+03  0.81911312425E+03  0.86666169000E+03  0.10566000000E+00 0.  1.
         13    1    1    2    0    0  0.44186274615E+03 -0.20249319605E+03  0.50492663229E+03  0.70085454699E+03  0.10566000000E+00 0. -1.
         -4    1    1    2    0  502 -0.39499029087E+03 -0.76718437606E+02 -0.15908340017E+03  0.43267837566E+03  0.00000000000E+00 0. -1.
</event>
<event>
 5    1  0.4419198E-005  0.4263890E+03  0.7818608E-02  0.9773390E-01
         21   -1    0    0  501  502  0.00000000000E+00  0.00000000000E+00  0.17514411657E+03  0.17514411657E+03  0.00000000000E+00 0.  1.
          4   -1    0    0  502    0 -0.00000000000E+00 -0.00000000000E+00 -0.26359637624E+04  0.26359637624E+04  0.00000000000E+00 0.  1.
        -13    1    1    2    0    0 -0.17501006195E+03  0.17449679968E+03 -0.13164294826E+04  0.13394268359E+04  0.10566000000E+00 0.  1.
         13    1    1    2    0    0  0.77371578013E+00  0.28341900710E+03 -0.85928951382E+03  0.90482341478E+03  0.10566000000E+00 0. -1.
          4    1    1    2  501    0  0.17423634617E+03 -0.45791580678E+03 -0.28510064936E+03  0.56685762824E+03  0.00000000000E+00 0.  1.
</event>
<event>
 5    1  0.4419198E-005  0.6995922E+03  0.7818608E-02  0.9207783E-01
         21   -1    0    0  501  502  0.00000000000E+00  0.00000000000E+00  0.13518793612E+04  0.13518793612E+04  0.00000000000E+00 0.  1.
          4   -1    0    0  502    0 -0.00000000000E+00 -0.00000000000E+00 -0.14768206456E+04  0.14768206456E+04  0.00000000000E+00 0.  1.
        -13    1    1    2    0    0 -0.22450863389E+03  0.36230202256E+03 -0.33880604435E+02  0.42756846090E+03  0.10566000000E+00 0.  1.
         13    1    1    2    0    0 -0.46593216863E+03 -0.81305922269E+03 -0.86129812085E+03  0.12727892793E+04  0.10566000000E+00 0. -1.
          4    1    1    2  501    0  0.69044080252E+03  0.45075720013E+03  0.77023744092E+03  0.11283422666E+04  0.00000000000E+00 0.  1.
</event>
<event>
 5    1  0.4419198E-005  0.1467743E+03  0.7818608E-02  0.1104337E+00
          4   -1    0    0  502    0 -0.00000000000E+00  0.00000000000E+00  0.32966057464E+03  0.32966057464E+03  0.00000000000E+00 0.  1.
         21   -1    0    0  501  502  0.00000000000E+00 -0.00000000000E+00 -0.97778815023E+02  0.97778815023E+02  0.00000000000E+00 0.  1.
        -13    1    1    2    0    0 -0.21503221971E+02 -0.16088489550E+03  0.19071523286E+03  0.25043691694E+03  0.10566000000E+00 0.  1.
         13    1    1    2    0    0  0.94415554866E+01  0.12516125240E+03  0.54732716581E+02  0.13693123639E+03  0.10566000000E+00 0. -1.
          4    1    1    2  501    0  0.12061666484E+02  0.35723643104E+02 -0.13566189824E+02  0.40071236334E+02  0.00000000000E+00 0.  1.
</event>
<event>
 5    1  0.4419198E-005  0.1505616E+03  0.7818608E-02  0.1168407E+00
         -4   -1    0    0    0  501 -0.00000000000E+00  0.00000000000E+00  0.17280054708E+03  0.17280054708E+03  0.00000000000E+00 0. -1.
         21   -1    0    0  501  502  0.00000000000E+00 -0.00000000000E+00 -0.42310370599E+03  0.42310370599E+03  0.00000000000E+00 0. -1.
        -13    1    1    2    0    0  0.12248434822E+02  0.23727231562E+02 -0.15904121527E+03  0.16126724712E+03  0.10566000000E+00 0.  1.
         13    1    1    2    0    0 -0.16027627980E+03 -0.54900842508E+01  0.10234345729E+03  0.19024410978E+03  0.10566000000E+00 0. -1.
         -4    1    1    2    0  502  0.14802784498E+03 -0.18237147311E+02 -0.19360540092E+03  0.24439289617E+03  0.00000000000E+00 0. -1.
</event>
<event>
 5    1  0.4419198E-005  0.4855858E+03  0.7818608E-02  0.9635980E-01
          4   -1    0    0  502    0 -0.00000000000E+00  0.00000000000E+00  0.45401389692E+03  0.45401389692E+03  0.00000000000E+00 0.  1.
         21   -1    0    0  501  502  0.00000000000E+00 -0.00000000000E+00 -0.10905990959E+04  0.10905990959E+04  0.00000000000E+00 0.  1.
        -13    1    1    2    0    0 -0.24011256613E+03  0.36054004213E+03 -0.30004606996E+03  0.52694479943E+03  0.10566000000E+00 0.  1.
         13    1    1    2    0    0 -0.29783805716E+03 -0.84337171457E+02  0.29252290922E+02  0.31092760326E+03  0.10566000000E+00 0. -1.
          4    1    1    2  501    0  0.53795062328E+03 -0.27620287067E+03 -0.36579141998E+03  0.70674059016E+03  0.00000000000E+00 0.  1.
</event>
<event>
 5    1  0.4419198E-005  0.5359107E+03  0.7818608E-02  0.9402555E-01
          4   -1    0    0  502    0 -0.00000000000E+00  0.00000000000E+00  0.20723577865E+04  0.20723577865E+04  0.00000000000E+00 0.  1.
         21   -1    0    0  501  502  0.00000000000E+00 -0.00000000000E+00 -0.51331109706E+03  0.51331109706E+03  0.00000000000E+00 0. -1.
        -13    1    1    2    0    0 -0.45364104581E+03  0.45892362975E+03  0.49481473602E+03  0.81316832853E+03  0.10566000000E+00 0.  1.
         13    1    1    2    0    0  0.39391592955E+03 -0.31667675331E+03  0.13534307238E+04  0.14447244239E+04  0.10566000000E+00 0. -1.
          4    1    1    2  501    0  0.59725116257E+02 -0.14224687644E+03 -0.28919877038E+03  0.32777613116E+03  0.00000000000E+00 0.  1.
</event>
<event>
 5    1  0.4419198E-005  0.2873420E+03  0.7818608E-02  0.1012814E+00
          4   -1    0    0  502    0 -0.00000000000E+00  0.00000000000E+00  0.12486369342E+04  0.12486369342E+04  0.00000000000E+00 0.  1.
         21   -1    0    0  501  502  0.00000000000E+00 -0.00000000000E+00 -0.40219523872E+03  0.40219523872E+03  0.00000000000E+00 0. -1.
        -13    1    1    2    0    0 -0.14470552155E+03 -0.32083545741E+03  0.98782391413E+03  0.10486520754E+04  0.10566000000E+00 0.  1.
         13    1    1    2    0    0  0.27950823666E+03  0.60753661945E+02 -0.25563215943E+02  0.28717477426E+03  0.10566000000E+00 0. -1.
          4    1    1    2  501    0 -0.13480271511E+03  0.26008179547E+03 -0.11581900267E+03  0.31500532331E+03  0.00000000000E+00 0.  1.
</event>
<event>
 5    1  0.4419198E-005  0.7445922E+03  0.7818608E-02  0.9060685E-01
         -4   -1    0    0    0  501 -0.00000000000E+00  0.00000000000E+00  0.11558313949E+04  0.11558313949E+04  0.00000000000E+00 0. -1.
         21   -1    0    0  501  502  0.00000000000E+00 -0.00000000000E+00 -0.71918922127E+03  0.71918922127E+03  0.00000000000E+00 0. -1.
        -13    1    1    2    0    0  0.51624925797E+03 -0.36710759336E+03  0.70554288078E+02  0.63738465637E+03  0.10566000000E+00 0.  1.
         13    1    1    2    0    0 -0.65520292012E+03  0.52029529271E+03  0.51529445807E+03  0.98261205357E+03  0.10566000000E+00 0. -1.
         -4    1    1    2    0  502  0.13895366215E+03 -0.15318769935E+03 -0.14920657253E+03  0.25502390622E+03  0.00000000000E+00 0. -1.
</event>
<event>
 5    1  0.4419198E-005  0.4841856E+03  0.7818608E-02  0.9703342E-01
         -4   -1    0    0    0  501 -0.00000000000E+00  0.00000000000E+00  0.77536707950E+03  0.77536707950E+03  0.00000000000E+00 0. -1.
         21   -1    0    0  501  502  0.00000000000E+00 -0.00000000000E+00 -0.68406915187E+03  0.68406915187E+03  0.00000000000E+00 0. -1.
        -13    1    1    2    0    0 -0.15978026598E+03 -0.18780683987E+03 -0.27088115828E+03  0.36630281950E+03  0.10566000000E+00 0.  1.
         13    1    1    2    0    0 -0.16874929062E+03  0.52042658550E+03  0.29272555056E+03  0.62049046173E+03  0.10566000000E+00 0. -1.
         -4    1    1    2    0  502  0.32852955660E+03 -0.33261974563E+03  0.69453535346E+02  0.47264295014E+03  0.00000000000E+00 0. -1.
</event>
<event>
 5    1  0.4419198E-005  0.4465460E+03  0.7818608E-02  0.9948467E-01
         -4   -1    0    0    0  501 -0.00000000000E+00  0.00000000000E+00  0.72151441231E+03  0.72151441231E+03  0.00000000000E+00 0. -1.
         21   -1    0    0  501  502  0.00000000000E+00 -0.00000000000E+00 -0.52328735190E+03  0.52328735190E+03  0.00000000000E+00 0. -1.
        -13    1    1    2    0    0  0.46185934820E+02 -0.12868663656E+03  0.16561905567E+03  0.21476283144E+03  0.10566000000E+00 0.  1.
         13    1    1    2    0    0  0.40916574892E+03  0.14813704057E+03  0.27405865150E+03  0.51426583447E+03  0.10566000000E+00 0. -1.
         -4    1    1    2    0  502 -0.45535168374E+03 -0.19450404013E+02 -0.24145064676E+03  0.51577309829E+03  0.00000000000E+00 0. -1.
</event>
<event>
 5    1  0.4419198E-005  0.3250214E+03  0.7818608E-02  0.9974812E-01
         -4   -1    0    0    0  501 -0.00000000000E+00  0.00000000000E+00  0.45530981885E+03  0.45530981885E+03  0.00000000000E+00 0. -1.
         21   -1    0    0  501  502  0.00000000000E+00 -0.00000000000E+00 -0.10043176313E+04  0.10043176313E+04  0.00000000000E+00 0.  1.
        -13    1    1    2    0    0 -0.10806794889E+03  0.31882532187E+03 -0.32452328390E+03  0.46759345633E+03  0.10566000000E+00 0.  1.
         13    1    1    2    0    0  0.99623809305E+02 -0.30728459142E+03  0.31568809212E+03  0.45167212242E+03  0.10566000000E+00 0. -1.
         -4    1    1    2    0  502  0.84441395816E+01 -0.11540730450E+02 -0.54017262066E+03  0.54036187140E+03  0.00000000000E+00 0. -1.
</event>
<event>
 5    1  0.4419198E-005  0.1544253E+03  0.7818608E-02  0.1096828E+00
         21   -1    0    0  501  502  0.00000000000E+00  0.00000000000E+00  0.72111478779E+03  0.72111478779E+03  0.00000000000E+00 0. -1.
          4   -1    0    0  502    0 -0.00000000000E+00 -0.00000000000E+00 -0.14634001186E+03  0.14634001186E+03  0.00000000000E+00 0.  1.
        -13    1    1    2    0    0  0.82419233243E+02  0.13095323485E+03 -0.92775263767E+02  0.18041324912E+03  0.10566000000E+00 0.  1.
         13    1    1    2    0    0 -0.71806812012E+02 -0.13225299339E+03  0.59644416687E+03  0.61513634901E+03  0.10566000000E+00 0. -1.
          4    1    1    2  501    0 -0.10612421231E+02  0.12997585442E+01  0.71105872824E+02  0.71905201527E+02  0.00000000000E+00 0.  1.
</event>
<event>
 5    1  0.4419198E-005  0.1166182E+04  0.7818608E-02  0.8632472E-01
         -4   -1    0    0    0  501 -0.00000000000E+00  0.00000000000E+00  0.25865827432E+04  0.25865827432E+04  0.00000000000E+00 0. -1.
         21   -1    0    0  501  502  0.00000000000E+00 -0.00000000000E+00 -0.65525349421E+03  0.65525349421E+03  0.00000000000E+00 0.  1.
        -13    1    1    2    0    0  0.10594721897E+04 -0.30123492704E+03  0.10317505769E+04  0.15092160435E+04  0.10566000000E+00 0.  1.
         13    1    1    2    0    0 -0.12493428488E+04  0.23033133958E+03  0.71123839765E+03  0.14559430447E+04  0.10566000000E+00 0. -1.
         -4    1    1    2    0  502  0.18987065918E+03  0.70903587458E+02  0.18834027446E+03  0.27667714924E+03  0.00000000000E+00 0. -1.
</event>
<event>
 5    1  0.4419198E-005  0.1609586E+03  0.7818608E-02  0.1090780E+00
         21   -1    0    0  501  502  0.00000000000E+00  0.00000000000E+00  0.19062421123E+03  0.19062421123E+03  0.00000000000E+00 0.  1.
         -4   -1    0    0    0  501 -0.00000000000E+00 -0.00000000000E+00 -0.82003623518E+03  0.82003623518E+03  0.00000000000E+00 0. -1.
        -13    1    1    2    0    0 -0.91976313921E+02 -0.83126628831E+02  0.74518291292E+02  0.14464669248E+03  0.10566000000E+00 0.  1.
         13    1    1    2    0    0  0.14194209639E+03  0.82322343158E+02 -0.76767533165E+03  0.78501589341E+03  0.10566000000E+00 0. -1.
         -4    1    1    2    0  502 -0.49965782469E+02  0.80428567350E+00  0.63745016406E+02  0.80997860526E+02  0.00000000000E+00 0. -1.
</event>
<event>
 5    1  0.4419198E-005  0.6289378E+03  0.7818608E-02  0.9232976E-01
          4   -1    0    0  502    0 -0.00000000000E+00  0.00000000000E+00  0.89312904243E+03  0.89312904243E+03  0.00000000000E+00 0.  1.
         21   -1    0    0  501  502  0.00000000000E+00 -0.00000000000E+00 -0.98852921955E+03  0.98852921955E+03  0.00000000000E+00 0.  1.
        -13    1    1    2    0    0 -0.65487338117E+03  0.92270244686E+02  0.18231232359E+03  0.68601074183E+03  0.10566000000E+00 0.  1.
         13    1    1    2    0    0  0.50110060829E+03 -0.40278029994E+03  0.13482890462E+03  0.65689621276E+03  0.10566000000E+00 0. -1.
          4    1    1    2  501    0  0.15377277287E+03  0.31051005526E+03 -0.41254140533E+03  0.53875130738E+03  0.00000000000E+00 0.  1.
</event>
<event>
 5    1  0.4419198E-005  0.1155686E+03  0.7818608E-02  0.1141091E+00
         21   -1    0    0  501  502  0.00000000000E+00  0.00000000000E+00  0.28949586874E+02  0.28949586874E+02  0.00000000000E+00 0. -1.
          4   -1    0    0  502    0 -0.00000000000E+00 -0.00000000000E+00 -0.62902528838E+03  0.62902528838E+03  0.00000000000E+00 0.  1.
        -13    1    1    2    0    0 -0.65018374415E+02  0.82207143313E+02 -0.26681609704E+03  0.28666399186E+03  0.10566000000E+00 0.  1.
         13    1    1    2    0    0  0.79433928663E+02 -0.10214838973E+03 -0.31538272068E+03  0.34089633940E+03  0.10566000000E+00 0. -1.
          4    1    1    2  501    0 -0.14415554248E+02  0.19941246418E+02 -0.17876883791E+02  0.30414544005E+02  0.00000000000E+00 0.  1.
</event>
<event>
 5    1  0.4419198E-005  0.1626610E+03  0.7818608E-02  0.1118217E+00
         21   -1    0    0  501  502  0.00000000000E+00  0.00000000000E+00  0.34349675680E+03  0.34349675680E+03  0.00000000000E+00 0.  1.
          4   -1    0    0  502    0 -0.00000000000E+00 -0.00000000000E+00 -0.37168455137E+03  0.37168455137E+03  0.00000000000E+00 0.  1.
        -13    1    1    2    0    0 -0.23767882866E+01 -0.16593724592E+03  0.15557954494E+03  0.22747708604E+03  0.10566000000E+00 0.  1.
         13    1    1    2    0    0 -0.72904425311E+02  0.15840848853E+02 -0.28299222414E+03  0.29266123387E+03  0.10566000000E+00 0. -1.
          4    1    1    2  501    0  0.75281213598E+02  0.15009639707E+03  0.99224884638E+02  0.19504298825E+03  0.00000000000E+00 0.  1.
</event>
<event>
 5    1  0.4419198E-005  0.4588310E+03  0.7818608E-02  0.9812165E-01
         21   -1    0    0  501  502  0.00000000000E+00  0.00000000000E+00  0.80987251519E+03  0.80987251519E+03  0.00000000000E+00 0.  1.
          4   -1    0    0  502    0 -0.00000000000E+00 -0.00000000000E+00 -0.66574302771E+03  0.66574302771E+03  0.00000000000E+00 0.  1.
        -13    1    1    2    0    0 -0.29230703054E+03 -0.39400186321E+03  0.79384109663E+02  0.49697355699E+03  0.10566000000E+00 0.  1.
         13    1    1    2    0    0 -0.10523539092E+03  0.16914800691E+03 -0.32301916638E+03  0.37950879931E+03  0.10566000000E+00 0. -1.
          4    1    1    2  501    0  0.39754242145E+03  0.22485385630E+03  0.38776454420E+03  0.59913318660E+03  0.00000000000E+00 0.  1.
</event>
<event>
 5    1  0.4419198E-005  0.3441585E+03  0.7818608E-02  0.1014014E+00
         -4   -1    0    0    0  501 -0.00000000000E+00  0.00000000000E+00  0.26445260983E+04  0.26445260983E+04  0.00000000000E+00 0. -1.
         21   -1    0    0  501  502  0.00000000000E+00 -0.00000000000E+00 -0.43788156296E+03  0.43788156296E+03  0.00000000000E+00 0. -1.
        -13    1    1    2    0    0  0.50933603244E+03  0.44059203570E+03  0.15958255733E+04  0.17321096407E+04  0.10566000000E+00 0.  1.
         13    1    1    2    0    0 -0.15472898936E+03 -0.81862586739E+02  0.79444396427E+03  0.81350093226E+03  0.10566000000E+00 0. -1.
         -4    1    1    2    0  502 -0.35460704308E+03 -0.35872944896E+03 -0.18362500223E+03  0.53679708829E+03  0.00000000000E+00 0. -1.
</event>
<event>
 5    1  0.4419198E-005  0.5133618E+03  0.7818608E-02  0.9861741E-01
         21   -1    0    0  501  502  0.00000000000E+00  0.00000000000E+00  0.39128570005E+03  0.39128570005E+03  0.00000000000E+00 0. -1.
         -4   -1    0    0    0  501 -0.00000000000E+00 -0.00000000000E+00 -0.97890504653E+03  0.97890504653E+03  0.00000000000E+00 0. -1.
        -13    1    1    2    0    0 -0.10035571241E+03 -0.66228176767E+02 -0.23846419165E+03  0.26706295564E+03  0.10566000000E+00 0.  1.
         13    1    1    2    0    0 -0.27714472628E+03 -0.35056811653E+03 -0.30084699932E+03  0.53871711668E+03  0.10566000000E+00 0. -1.
         -4    1    1    2    0  502  0.37750043869E+03  0.41679629330E+03 -0.48308155505E+02  0.56441067425E+03  0.00000000000E+00 0. -1.
</event>
<event>
 5    1  0.4419198E-005  0.6651181E+02  0.7818608E-02  0.1237404E+00
          4   -1    0    0  502    0 -0.00000000000E+00  0.00000000000E+00  0.32794544564E+03  0.32794544564E+03  0.00000000000E+00 0.  1.
         21   -1    0    0  501  502  0.00000000000E+00 -0.00000000000E+00 -0.41188113531E+03  0.41188113531E+03  0.00000000000E+00 0.  1.
        -13    1    1    2    0    0  0.23763039934E+02 -0.10966574990E+03  0.29091847387E+03  0.31180896134E+03  0.10566000000E+00 0.  1.
         13    1    1    2    0    0  0.21327549292E+02  0.61191241537E+02 -0.21142127286E+02  0.68163282710E+02  0.10566000000E+00 0. -1.
          4    1    1    2  501    0 -0.45090589226E+02  0.48474508364E+02 -0.35371203626E+03  0.35985433691E+03  0.00000000000E+00 0.  1.
</event>
<event>
 5    1  0.4419198E-005  0.1637590E+03  0.7818608E-02  0.1088282E+00
         21   -1    0    0  501  502  0.00000000000E+00  0.00000000000E+00  0.72883241950E+02  0.72883241950E+02  0.00000000000E+00 0. -1.
          4   -1    0    0  502    0 -0.00000000000E+00 -0.00000000000E+00 -0.10502100219E+04  0.10502100219E+04  0.00000000000E+00 0.  1.
        -13    1    1    2    0    0 -0.83624724242E+02  0.14277885162E+03 -0.63749499881E+03  0.65861884247E+03  0.10566000000E+00 0.  1.
         13    1    1    2    0    0  0.58064066230E+02 -0.15169633411E+03 -0.38158262002E+03  0.41471498723E+03  0.10566000000E+00 0. -1.
          4    1    1    2  501    0  0.25560658012E+02  0.89174824883E+01  0.41750838927E+02  0.49759434111E+02  0.00000000000E+00 0.  1.
</event>
<event>
 5    1  0.4419198E-005  0.2988219E+03  0.7818608E-02  0.1014623E+00
         -4   -1    0    0    0  501 -0.00000000000E+00  0.00000000000E+00  0.18309133238E+04  0.18309133238E+04  0.00000000000E+00 0. -1.
         21   -1    0    0  501  502  0.00000000000E+00 -0.00000000000E+00 -0.25732588679E+03  0.25732588679E+03  0.00000000000E+00 0. -1.
        -13    1    1    2    0    0  0.33330954861E+03  0.77185718926E+01  0.37614135804E+03  0.50263024575E+03  0.10566000000E+00 0.  1.
         13    1    1    2    0    0  0.15047917514E+03  0.20011316369E+03 -0.27895095363E+02  0.25192738625E+03  0.10566000000E+00 0. -1.
         -4    1    1    2    0  502 -0.48378872375E+03 -0.20783173558E+03  0.12253411744E+04  0.13336815786E+04  0.00000000000E+00 0. -1.
</event>
<event>
 5    1  0.4419198E-005  0.6233041E+03  0.7818608E-02  0.9242343E-01
         21   -1    0    0  501  502  0.00000000000E+00  0.00000000000E+00  0.37882126172E+03  0.37882126172E+03  0.00000000000E+00 0.  1.
         -4   -1    0    0    0  501 -0.00000000000E+00 -0.00000000000E+00 -0.19863508789E+04  0.19863508789E+04  0.00000000000E+00 0. -1.
        -13    1    1    2    0    0  0.55420561560E+02 -0.57153904967E+03 -0.63793272651E+03  0.85830443239E+03  0.10566000000E+00 0.  1.
         13    1    1    2    0    0  0.28000248473E+03  0.66570753176E+03 -0.89594596436E+03  0.11507767340E+04  0.10566000000E+00 0. -1.
         -4    1    1    2    0  502 -0.33542304629E+03 -0.94168482093E+02 -0.73650926340E+02  0.35609097427E+03  0.00000000000E+00 0. -1.
</event>
<event>
 5    1  0.5837557E-005  0.4599471E+03  0.7818608E-02  0.1003212E+00
          4   -1    0    0  502    0 -0.00000000000E+00  0.00000000000E+00  0.18876523855E+04  0.18876523855E+04  0.00000000000E+00 0.  1.
         21   -1    0    0  501  502  0.00000000000E+00 -0.00000000000E+00 -0.17279217763E+03  0.17279217763E+03  0.00000000000E+00 0.  1.
        -13    1    1    2    0    0  0.42472357864E+03  0.36513044289E+02  0.99137370774E+03  0.10791409362E+04  0.10566000000E+00 0.  1.
         13    1    1    2    0    0  0.35872007901E+02  0.88034312988E+02  0.38432073437E+03  0.39590311851E+03  0.10566000000E+00 0. -1.
          4    1    1    2  501    0 -0.46059558655E+03 -0.12454735728E+03  0.33916576571E+03  0.58540050835E+03  0.00000000000E+00 0.  1.
</event>
<event>
 5    1  0.4419198E-005  0.4591139E+03  0.7818608E-02  0.9572391E-01
          4   -1    0    0  502    0 -0.00000000000E+00  0.00000000000E+00  0.64729221932E+03  0.64729221932E+03  0.00000000000E+00 0.  1.
         21   -1    0    0  501  502  0.00000000000E+00 -0.00000000000E+00 -0.96163887920E+03  0.96163887920E+03  0.00000000000E+00 0.  1.
        -13    1    1    2    0    0  0.26197558251E+03  0.37204980137E+03  0.34532330032E+03  0.57122714698E+03  0.10566000000E+00 0.  1.
         13    1    1    2    0    0 -0.21394439293E+03 -0.42243499289E+03 -0.11326192642E+03  0.48687965826E+03  0.10566000000E+00 0. -1.
          4    1    1    2  501    0 -0.48031189586E+02  0.50385191517E+02 -0.54640803378E+03  0.55082429329E+03  0.00000000000E+00 0.  1.
</event>
<event>
 5    1  0.4419198E-005  0.1558734E+03  0.7818608E-02  0.1114746E+00
         21   -1    0    0  501  502  0.00000000000E+00  0.00000000000E+00  0.12350521003E+03  0.12350521003E+03  0.00000000000E+00 0.  1.
          4   -1    0    0  502    0 -0.00000000000E+00 -0.00000000000E+00 -0.53587670561E+03  0.53587670561E+03  0.00000000000E+00 0.  1.
        -13    1    1    2    0    0 -0.16852760587E+03  0.12134858597E+03 -0.30000160986E+03  0.36486711326E+03  0.10566000000E+00 0.  1.
         13    1    1    2    0    0  0.92746562858E+02  0.50580837071E+01 -0.11409475245E+03  0.14712284946E+03  0.10566000000E+00 0. -1.
          4    1    1    2  501    0  0.75781043015E+02 -0.12640666968E+03  0.17248667194E+01  0.14739195292E+03  0.00000000000E+00 0.  1.
</event>
<event>
 5    1  0.4419198E-005  0.5931174E+03  0.7818608E-02  0.9294372E-01
         21   -1    0    0  501  502  0.00000000000E+00  0.00000000000E+00  0.14606568060E+04  0.14606568060E+04  0.00000000000E+00 0. -1.
          4   -1    0    0  502    0 -0.00000000000E+00 -0.00000000000E+00 -0.32592603684E+03  0.32592603684E+03  0.00000000000E+00 0.  1.
        -13    1    1    2    0    0 -0.49594052209E+03 -0.31760932126E+03  0.33638869600E+03  0.67822566183E+03  0.10566000000E+00 0.  1.
         13    1    1    2    0    0  0.51312457721E+03  0.30716575013E+03  0.42308806263E+03  0.73256477509E+03  0.10566000000E+00 0. -1.
          4    1    1    2  501    0 -0.17184055125E+02  0.10443571135E+02  0.37525401054E+03  0.37579240593E+03  0.00000000000E+00 0.  1.
</event>
<event>
 5    1  0.4419198E-005  0.1927424E+03  0.7818608E-02  0.1065228E+00
         -4   -1    0    0    0  501 -0.00000000000E+00  0.00000000000E+00  0.34494766906E+03  0.34494766906E+03  0.00000000000E+00 0. -1.
         21   -1    0    0  501  502  0.00000000000E+00 -0.00000000000E+00 -0.19012330405E+03  0.19012330405E+03  0.00000000000E+00 0. -1.
        -13    1    1    2    0    0  0.13416756865E+03  0.13847962795E+03  0.10936567333E+03  0.22167184192E+03  0.10566000000E+00 0.  1.
         13    1    1    2    0    0 -0.10854950848E+03 -0.16095705078E+03  0.12222303316E+03  0.22940934808E+03  0.10566000000E+00 0. -1.
         -4    1    1    2    0  502 -0.25618060167E+02  0.22477422830E+02 -0.76764341476E+02  0.83989783105E+02  0.00000000000E+00 0. -1.
</event>
<event>
 5    1  0.4419198E-005  0.4915455E+03  0.7818608E-02  0.9625306E-01
         -4   -1    0    0    0  501 -0.00000000000E+00  0.00000000000E+00  0.18271659327E+04  0.18271659327E+04  0.00000000000E+00 0. -1.
         21   -1    0    0  501  502  0.00000000000E+00 -0.00000000000E+00 -0.30836332642E+03  0.30836332642E+03  0.00000000000E+00 0. -1.
        -13    1    1    2    0    0 -0.20834572679E+03 -0.22941094302E+03  0.76726342608E+03  0.82748444023E+03  0.10566000000E+00 0.  1.
         13    1    1    2    0    0  0.58156750172E+03 -0.55207730601E+02  0.53100721089E+03  0.78945381230E+03  0.10566000000E+00 0. -1.
         -4    1    1    2    0  502 -0.37322177493E+03  0.28461867362E+03  0.22053196933E+03  0.51859100663E+03  0.00000000000E+00 0. -1.
</event>
<event>
 5    1  0.4419198E-005  0.1522626E+02  0.7818608E-02  0.1589723E+00
         21   -1    0    0  501  502  0.00000000000E+00  0.00000000000E+00  0.11885381730E+02  0.11885381730E+02  0.00000000000E+00 0.  1.
         -4   -1    0    0    0  501 -0.00000000000E+00 -0.00000000000E+00 -0.68089070645E+02  0.68089070645E+02  0.00000000000E+00 0. -1.
        -13    1    1    2    0    0  0.35546583842E+01 -0.15539420047E+02 -0.22937482612E+01  0.16105328830E+02  0.10566000000E+00 0.  1.
         13    1    1    2    0    0 -0.12216974298E+02  0.97279852521E+01 -0.50554207323E+02  0.52911503477E+02  0.10566000000E+00 0. -1.
         -4    1    1    2    0  502  0.86623159139E+01  0.58114347944E+01 -0.33557333301E+01  0.10957620068E+02  0.00000000000E+00 0. -1.
</event>
<event>
 5    1  0.5648361E-005  0.2453663E+03  0.7818608E-02  0.1074211E+00
         -4   -1    0    0    0  501 -0.00000000000E+00  0.00000000000E+00  0.53065529778E+03  0.53065529778E+03  0.00000000000E+00 0. -1.
         21   -1    0    0  501  502  0.00000000000E+00 -0.00000000000E+00 -0.64282739458E+03  0.64282739458E+03  0.00000000000E+00 0. -1.
        -13    1    1    2    0    0  0.12634250991E+01  0.72219639559E+02  0.13783491907E+03  0.15561410174E+03  0.10566000000E+00 0.  1.
         13    1    1    2    0    0 -0.21741767703E+03  0.48545933845E+02  0.32373576811E+03  0.39297838706E+03  0.10566000000E+00 0. -1.
         -4    1    1    2    0  502  0.21615425193E+03 -0.12076557340E+03 -0.57374278397E+03  0.62489020356E+03  0.00000000000E+00 0. -1.
</event>
<event>
 5    1  0.5355343E-005  0.4886805E+03  0.7818608E-02  0.9531669E-01
         -4   -1    0    0    0  501 -0.00000000000E+00  0.00000000000E+00  0.70049491319E+03  0.70049491319E+03  0.00000000000E+00 0. -1.
         21   -1    0    0  501  502  0.00000000000E+00 -0.00000000000E+00 -0.98692434675E+03  0.98692434675E+03  0.00000000000E+00 0. -1.
        -13    1    1    2    0    0  0.33163083493E+03  0.29026634808E+03  0.21037662757E+03  0.48835632493E+03  0.10566000000E+00 0.  1.
         13    1    1    2    0    0  0.23797808416E+03  0.20373448541E+03 -0.35807859656E+02  0.31531495852E+03  0.10566000000E+00 0. -1.
         -4    1    1    2    0  502 -0.56960891909E+03 -0.49400083349E+03 -0.46099820148E+03  0.88374797650E+03  0.00000000000E+00 0. -1.
</event>
<event>
 5    1  0.4419198E-005  0.4973983E+03  0.7818608E-02  0.9771042E-01
          4   -1    0    0  502    0 -0.00000000000E+00  0.00000000000E+00  0.31263533297E+04  0.31263533297E+04  0.00000000000E+00 0.  1.
         21   -1    0    0  501  502  0.00000000000E+00 -0.00000000000E+00 -0.15483771068E+03  0.15483771068E+03  0.00000000000E+00 0. -1.
        -13    1    1    2    0    0  0.42417075899E+03 -0.16433969662E+03  0.14621648238E+04  0.15312917266E+04  0.10566000000E+00 0.  1.
         13    1    1    2    0    0  0.73120152507E+01 -0.17983638004E+03  0.45782035261E+02  0.18571643726E+03  0.10566000000E+00 0. -1.
          4    1    1    2  501    0 -0.43148277424E+03  0.34417607666E+03  0.14635687599E+04  0.15641828765E+04  0.00000000000E+00 0.  1.
</event>
<event>
 5    1  0.4419198E-005  0.8146514E+02  0.7818608E-02  0.1199497E+00
         21   -1    0    0  501  502  0.00000000000E+00  0.00000000000E+00  0.28993495746E+03  0.28993495746E+03  0.00000000000E+00 0.  1.
         -4   -1    0    0    0  501 -0.00000000000E+00 -0.00000000000E+00 -0.62795904417E+02  0.62795904417E+02  0.00000000000E+00 0. -1.
        -13    1    1    2    0    0 -0.56218239628E+02 -0.59082746460E+02  0.18018713725E+02  0.83522132423E+02  0.10566000000E+00 0.  1.
         13    1    1    2    0    0  0.42598883330E+02  0.70519570063E+02  0.27700869457E+02  0.86919640793E+02  0.10566000000E+00 0. -1.
         -4    1    1    2    0  502  0.13619356299E+02 -0.11436823603E+02  0.18141946986E+03  0.18228908866E+03  0.00000000000E+00 0. -1.
</event>
<event>
 5    1  0.4419198E-005  0.3815359E+03  0.7818608E-02  0.9987411E-01
         -4   -1    0    0    0  501 -0.00000000000E+00  0.00000000000E+00  0.72208014741E+03  0.72208014741E+03  0.00000000000E+00 0. -1.
         21   -1    0    0  501  502  0.00000000000E+00 -0.00000000000E+00 -0.54356258424E+03  0.54356258424E+03  0.00000000000E+00 0. -1.
        -13    1    1    2    0    0 -0.10905326594E+03  0.15895755430E+03  0.15574000807E+03  0.24782066129E+03  0.10566000000E+00 0.  1.
         13    1    1    2    0    0  0.46654636139E+03 -0.19058327341E+03  0.27975953487E+03  0.57641382699E+03  0.10566000000E+00 0. -1.
         -4    1    1    2    0  502 -0.35749309544E+03  0.31625719110E+02 -0.25698197977E+03  0.44140824338E+03  0.00000000000E+00 0. -1.
</event>
<event>
 5    1  0.4419198E-005  0.3734704E+02  0.7818608E-02  0.1354060E+00
          4   -1    0    0  502    0 -0.00000000000E+00  0.00000000000E+00  0.13206097936E+03  0.13206097936E+03  0.00000000000E+00 0.  1.
         21   -1    0    0  501  502  0.00000000000E+00 -0.00000000000E+00 -0.58204814479E+02  0.58204814479E+02  0.00000000000E+00 0. -1.
        -13    1    1    2    0    0  0.29469027100E+02 -0.24810023280E+02  0.98044787074E+02  0.10534112326E+03  0.10566000000E+00 0.  1.
         13    1    1    2    0    0 -0.30189351452E+02 -0.22403384647E+01 -0.42552371862E+02  0.52221945316E+02  0.10566000000E+00 0. -1.
          4    1    1    2  501    0  0.72032435198E+00  0.27050361745E+02  0.18363749667E+02  0.32702725262E+02  0.00000000000E+00 0.  1.
</event>
<event>
 5    1  0.9160947E-005  0.4881850E+03  0.7818608E-02  0.1016951E+00
          4   -1    0    0  502    0 -0.00000000000E+00  0.00000000000E+00  0.22815415603E+04  0.22815415603E+04  0.00000000000E+00 0.  1.
         21   -1    0    0  501  502  0.00000000000E+00 -0.00000000000E+00 -0.12871171917E+03  0.12871171917E+03  0.00000000000E+00 0.  1.
        -13    1    1    2    0    0 -0.81201820080E+02  0.46390652974E+03  0.11635750153E+04  0.12552728115E+04  0.10566000000E+00 0.  1.
         13    1    1    2    0    0  0.38048498514E+02  0.34153884569E+02  0.29535334178E+03  0.29974619887E+03  0.10566000000E+00 0. -1.
          4    1    1    2  501    0  0.43153321566E+02 -0.49806041431E+03  0.69390148403E+03  0.85523426908E+03  0.00000000000E+00 0.  1.
</event>
<event>
 5    1  0.4419198E-005  0.7677617E+03  0.7818608E-02  0.9030079E-01
         21   -1    0    0  501  502  0.00000000000E+00  0.00000000000E+00  0.60631256692E+03  0.60631256692E+03  0.00000000000E+00 0.  1.
          4   -1    0    0  502    0 -0.00000000000E+00 -0.00000000000E+00 -0.16725578266E+04  0.16725578266E+04  0.00000000000E+00 0.  1.
        -13    1    1    2    0    0  0.70297229133E+03 -0.25905747203E+03 -0.41279710414E+03  0.85538428589E+03  0.10566000000E+00 0.  1.
         13    1    1    2    0    0 -0.73738656857E+03  0.25471080299E+03 -0.89050862786E+03  0.11839012510E+04  0.10566000000E+00 0. -1.
          4    1    1    2  501    0  0.34414277237E+02  0.43466690452E+01  0.23706047230E+03  0.23958485665E+03  0.00000000000E+00 0.  1.
</event>
<event>
 5    1  0.4419198E-005  0.3120907E+03  0.7818608E-02  0.1002436E+00
         21   -1    0    0  501  502  0.00000000000E+00  0.00000000000E+00  0.26582047070E+04  0.26582047070E+04  0.00000000000E+00 0. -1.
          4   -1    0    0  502    0 -0.00000000000E+00 -0.00000000000E+00 -0.46241896308E+02  0.46241896308E+02  0.00000000000E+00 0.  1.
        -13    1    1    2    0    0 -0.29847327053E+03  0.73332968428E+02  0.12303519101E+04  0.12681600259E+04  0.10566000000E+00 0.  1.
         13    1    1    2    0    0  0.30851960137E+03 -0.66524416690E+02  0.88613466420E+03  0.94066173342E+03  0.10566000000E+00 0. -1.
          4    1    1    2  501    0 -0.10046330838E+02 -0.68085517374E+01  0.49547623645E+03  0.49562484404E+03  0.00000000000E+00 0.  1.
</event>
<event>
 5    1  0.4419198E-005  0.4941706E+03  0.7818608E-02  0.9502655E-01
         21   -1    0    0  501  502  0.00000000000E+00  0.00000000000E+00  0.35578665220E+03  0.35578665220E+03  0.00000000000E+00 0. -1.
          4   -1    0    0  502    0 -0.00000000000E+00 -0.00000000000E+00 -0.19945481501E+04  0.19945481501E+04  0.00000000000E+00 0.  1.
        -13    1    1    2    0    0  0.13702863113E+03 -0.21025549911E+03 -0.94074296175E+03  0.97364344187E+03  0.10566000000E+00 0.  1.
         13    1    1    2    0    0 -0.38531553950E+02 -0.47182347269E+03 -0.15121167235E+03  0.49695779605E+03  0.10566000000E+00 0. -1.
          4    1    1    2  501    0 -0.98497077178E+02  0.68207897180E+03 -0.54680686376E+03  0.87973356435E+03  0.00000000000E+00 0.  1.
</event>
<event>
 5    1  0.4419198E-005  0.4596216E+03  0.7818608E-02  0.9762900E-01
          4   -1    0    0  502    0 -0.00000000000E+00  0.00000000000E+00  0.22354498897E+03  0.22354498897E+03  0.00000000000E+00 0.  1.
         21   -1    0    0  501  502  0.00000000000E+00 -0.00000000000E+00 -0.22349469520E+04  0.22349469520E+04  0.00000000000E+00 0.  1.
        -13    1    1    2    0    0  0.46128969193E+03 -0.25304021552E+03 -0.18042473029E+04  0.18793950813E+04  0.10566000000E+00 0.  1.
         13    1    1    2    0    0 -0.17715310240E+03  0.15377505940E+03 -0.51170150974E+02  0.24010078321E+03  0.10566000000E+00 0. -1.
          4    1    1    2  501    0 -0.28413658953E+03  0.99265156122E+02 -0.15598450916E+03  0.33899607642E+03  0.00000000000E+00 0.  1.
</event>
<event>
 5    1  0.4419198E-005  0.5309348E+02  0.7818608E-02  0.1279682E+00
         -4   -1    0    0    0  501 -0.00000000000E+00  0.00000000000E+00  0.17883685061E+03  0.17883685061E+03  0.00000000000E+00 0. -1.
         21   -1    0    0  501  502  0.00000000000E+00 -0.00000000000E+00 -0.59927356275E+02  0.59927356275E+02  0.00000000000E+00 0.  1.
        -13    1    1    2    0    0 -0.23801722226E+01  0.60378399747E+02 -0.26231025707E+02  0.65873319709E+02  0.10566000000E+00 0.  1.
         13    1    1    2    0    0  0.81967731332E+01 -0.51784019413E+02  0.15177392311E+03  0.16057430260E+03  0.10566000000E+00 0. -1.
         -4    1    1    2    0  502 -0.58166009106E+01 -0.85943803338E+01 -0.66334030629E+01  0.12316584578E+02  0.00000000000E+00 0. -1.
</event>
<event>
 5    1  0.4419198E-005  0.3440970E+03  0.7818608E-02  0.9906053E-01
         21   -1    0    0  501  502  0.00000000000E+00  0.00000000000E+00  0.10309958986E+04  0.10309958986E+04  0.00000000000E+00 0.  1.
         -4   -1    0    0    0  501 -0.00000000000E+00 -0.00000000000E+00 -0.16665502788E+03  0.16665502788E+03  0.00000000000E+00 0. -1.
        -13    1    1    2    0    0 -0.25594290146E+02  0.32782594005E+03  0.63096841476E+03  0.71150970917E+03  0.10566000000E+00 0.  1.
         13    1    1    2    0    0  0.31122693816E+02 -0.34825949273E+03  0.11827010777E+03  0.36910855572E+03  0.10566000000E+00 0. -1.
         -4    1    1    2    0  502 -0.55284036700E+01  0.20433552681E+02  0.11510234818E+03  0.11703266159E+03  0.00000000000E+00 0. -1.
</event>
<event>
 5    1  0.4419198E-005  0.5393884E+02  0.7818608E-02  0.1276533E+00
         21   -1    0    0  501  502  0.00000000000E+00  0.00000000000E+00  0.30460090501E+03  0.30460090501E+03  0.00000000000E+00 0. -1.
         -4   -1    0    0    0  501 -0.00000000000E+00 -0.00000000000E+00 -0.49272473515E+02  0.49272473515E+02  0.00000000000E+00 0. -1.
        -13    1    1    2    0    0  0.40098068770E+02  0.29118522069E+02  0.14461145222E+03  0.15286669592E+03  0.10566000000E+00 0.  1.
         13    1    1    2    0    0 -0.55279120212E+02 -0.25507359225E+01 -0.25832599511E+02  0.61070629166E+02  0.10566000000E+00 0. -1.
         -4    1    1    2    0  502  0.15181051442E+02 -0.26567786147E+02  0.13654957879E+03  0.13993605343E+03  0.00000000000E+00 0. -1.
</event>
<event>
 5    1  0.4419198E-005  0.4647475E+03  0.7818608E-02  0.9558777E-01
          4   -1    0    0  502    0 -0.00000000000E+00  0.00000000000E+00  0.41621599033E+04  0.41621599033E+04  0.00000000000E+00 0.  1.
         21   -1    0    0  501  502  0.00000000000E+00 -0.00000000000E+00 -0.28107946738E+03  0.28107946738E+03  0.00000000000E+00 0. -1.
        -13    1    1    2    0    0  0.34536806288E+03  0.14312136340E+03  0.17118671008E+04  0.17522134018E+04  0.10566000000E+00 0.  1.
         13    1    1    2    0    0 -0.68777870653E+03 -0.40328966426E+03  0.21116472029E+04  0.22571521932E+04  0.10566000000E+00 0. -1.
          4    1    1    2  501    0  0.34241064365E+03  0.26016830086E+03  0.57566132212E+02  0.43387377569E+03  0.00000000000E+00 0.  1.
</event>
<event>
 5    1  0.4419198E-005  0.4962385E+03  0.7818608E-02  0.9555866E-01
         -4   -1    0    0    0  501 -0.00000000000E+00  0.00000000000E+00  0.84931411547E+03  0.84931411547E+03  0.00000000000E+00 0. -1.
         21   -1    0    0  501  502  0.00000000000E+00 -0.00000000000E+00 -0.62253288079E+03  0.62253288079E+03  0.00000000000E+00 0. -1.
        -13    1    1    2    0    0  0.12338514131E+03 -0.36551228468E+03  0.14466440097E+02  0.38604716344E+03  0.10566000000E+00 0.  1.
         13    1    1    2    0    0  0.40242638321E+03  0.46397203271E+01  0.19651366620E+03  0.44786845510E+03  0.10566000000E+00 0. -1.
         -4    1    1    2    0  502 -0.52581152452E+03  0.36087256435E+03  0.15801128387E+02  0.63793137772E+03  0.00000000000E+00 0. -1.
</event>
<event>
 5    1  0.4419198E-005  0.4678950E+03  0.7818608E-02  0.9872527E-01
         21   -1    0    0  501  502  0.00000000000E+00  0.00000000000E+00  0.31002661676E+03  0.31002661676E+03  0.00000000000E+00 0. -1.
         -4   -1    0    0    0  501 -0.00000000000E+00 -0.00000000000E+00 -0.12434397370E+04  0.12434397370E+04  0.00000000000E+00 0. -1.
        -13    1    1    2    0    0 -0.92273939229E+02 -0.12222108490E+03 -0.36437354480E+03  0.39524747282E+03  0.10566000000E+00 0.  1.
         13    1    1    2    0    0  0.49244832735E+03  0.11253352613E+03 -0.57098343656E+02  0.50835950038E+03  0.10566000000E+00 0. -1.
         -4    1    1    2    0  502 -0.40017438812E+03  0.96875587755E+01 -0.51194123175E+03  0.64985938054E+03  0.00000000000E+00 0. -1.
</event>
<event>
 5    1  0.4419198E-005  0.4745628E+03  0.7818608E-02  0.9535538E-01
          4   -1    0    0  502    0 -0.00000000000E+00  0.00000000000E+00  0.29424636714E+03  0.29424636714E+03  0.00000000000E+00 0.  1.
         21   -1    0    0  501  502  0.00000000000E+00 -0.00000000000E+00 -0.18681315897E+04  0.18681315897E+04  0.00000000000E+00 0.  1.
        -13    1    1    2    0    0 -0.26440709976E+03  0.64232387978E+03 -0.88530112434E+03  0.11252773760E+04  0.10566000000E+00 0.  1.
         13    1    1    2    0    0  0.29496664766E+03 -0.26988841765E+03 -0.31842553995E+03  0.51111634377E+03  0.10566000000E+00 0. -1.
          4    1    1    2  501    0 -0.30559547904E+02 -0.37243546213E+03 -0.37015855831E+03  0.52598423714E+03  0.00000000000E+00 0.  1.
</event>
<event>
 5    1  0.4419198E-005  0.1427647E+02  0.7818608E-02  0.1631664E+00
          4   -1    0    0  502    0 -0.00000000000E+00  0.00000000000E+00  0.18678767989E+02  0.18678767989E+02  0.00000000000E+00 0.  1.
         21   -1    0    0  501  502  0.00000000000E+00 -0.00000000000E+00 -0.10565941478E+03  0.10565941478E+03  0.00000000000E+00 0. -1.
        -13    1    1    2    0    0 -0.98839395855E+01  0.21499570557E+02  0.85750757156E+01  0.25168768016E+02  0.10566000000E+00 0.  1.
         13    1    1    2    0    0  0.71288516673E+01 -0.82077837220E+01 -0.62442178610E+02  0.63381583077E+02  0.10566000000E+00 0. -1.
          4    1    1    2  501    0  0.27550879183E+01 -0.13291786835E+02 -0.33113543897E+02  0.35787831676E+02  0.00000000000E+00 0.  1.
</event>
<event>
 5    1  0.4419198E-005  0.2176803E+03  0.7818608E-02  0.1048647E+00
          4   -1    0    0  502    0 -0.00000000000E+00  0.00000000000E+00  0.62747070031E+02  0.62747070031E+02  0.00000000000E+00 0.  1.
         21   -1    0    0  501  502  0.00000000000E+00 -0.00000000000E+00 -0.15639125947E+04  0.15639125947E+04  0.00000000000E+00 0.  1.
        -13    1    1    2    0    0  0.21221865835E+03 -0.16265391252E+02 -0.37038571620E+03  0.42718486845E+03  0.10566000000E+00 0.  1.
         13    1    1    2    0    0 -0.22203108441E+03  0.71680081469E+01 -0.32548090253E+03  0.39406473055E+03  0.10566000000E+00 0. -1.
          4    1    1    2  501    0  0.98124260624E+01  0.90973831051E+01 -0.80529890590E+03  0.80541006570E+03  0.00000000000E+00 0.  1.
</event>
<event>
 5    1  0.4419198E-005  0.2505226E+03  0.7818608E-02  0.1033419E+00
          4   -1    0    0  502    0 -0.00000000000E+00  0.00000000000E+00  0.15509174055E+04  0.15509174055E+04  0.00000000000E+00 0.  1.
         21   -1    0    0  501  502  0.00000000000E+00 -0.00000000000E+00 -0.32881276669E+03  0.32881276669E+03  0.00000000000E+00 0. -1.
        -13    1    1    2    0    0 -0.83058521803E+02 -0.20754485193E+03 -0.18123280722E+03  0.28778277430E+03  0.10566000000E+00 0.  1.
         13    1    1    2    0    0  0.37488558356E+01 -0.26353915697E+03  0.63066409000E+03  0.68352333300E+03  0.10566000000E+00 0. -1.
          4    1    1    2  501    0  0.79309665967E+02  0.47108400891E+03  0.77267335606E+03  0.90842406492E+03  0.00000000000E+00 0.  1.
</event>
<event>
 5    1  0.4419198E-005  0.2240774E+03  0.7818608E-02  0.1044776E+00
         21   -1    0    0  501  502  0.00000000000E+00  0.00000000000E+00  0.57531170660E+03  0.57531170660E+03  0.00000000000E+00 0.  1.
         -4   -1    0    0    0  501 -0.00000000000E+00 -0.00000000000E+00 -0.13916128181E+03  0.13916128181E+03  0.00000000000E+00 0. -1.
        -13    1    1    2    0    0 -0.16774612776E+03 -0.14325726192E+03  0.20612219536E+03  0.30190690131E+03  0.10566000000E+00 0.  1.
         13    1    1    2    0    0  0.16477069831E+03  0.15481519966E+03  0.49248263160E+02  0.23139259205E+03  0.10566000000E+00 0. -1.
         -4    1    1    2    0  502  0.29754294503E+01 -0.11557937737E+02  0.18077996627E+03  0.18117349505E+03  0.00000000000E+00 0. -1.
</event>
<event>
 5    1  0.4419198E-005  0.5069563E+03  0.7818608E-02  0.9475681E-01
         -4   -1    0    0    0  501 -0.00000000000E+00  0.00000000000E+00  0.21702415441E+04  0.21702415441E+04  0.00000000000E+00 0. -1.
         21   -1    0    0  501  502  0.00000000000E+00 -0.00000000000E+00 -0.36887480651E+03  0.36887480651E+03  0.00000000000E+00 0. -1.
        -13    1    1    2    0    0  0.60272139687E+03  0.10354288590E+03  0.54575638083E+03  0.81966105791E+03  0.10566000000E+00 0.  1.
         13    1    1    2    0    0 -0.20478055958E+03 -0.43669276684E+03  0.16175188710E+03  0.50872323943E+03  0.10566000000E+00 0. -1.
         -4    1    1    2    0  502 -0.39794083730E+03  0.33314988094E+03  0.10938584696E+04  0.12107320532E+04  0.00000000000E+00 0. -1.
</event>
<event>
 5    1  0.4419198E-005  0.5162217E+02  0.7818608E-02  0.1285322E+00
          4   -1    0    0  502    0 -0.00000000000E+00  0.00000000000E+00  0.28251612467E+02  0.28251612467E+02  0.00000000000E+00 0.  1.
         21   -1    0    0  501  502  0.00000000000E+00 -0.00000000000E+00 -0.12296408500E+03  0.12296408500E+03  0.00000000000E+00 0. -1.
        -13    1    1    2    0    0  0.59759620603E+01 -0.52657016014E+02 -0.24660443940E+02  0.58451878648E+02  0.10566000000E+00 0.  1.
         13    1    1    2    0    0  0.44167052846E+01  0.49848295106E+02 -0.57813481193E+02  0.76464171886E+02  0.10566000000E+00 0. -1.
          4    1    1    2  501    0 -0.10392667345E+02  0.28087209083E+01 -0.12238547400E+02  0.16299646933E+02  0.00000000000E+00 0.  1.
</event>
<event>
 5    1  0.4419198E-005  0.5293159E+03  0.7818608E-02  0.9415933E-01
          4   -1    0    0  502    0 -0.00000000000E+00  0.00000000000E+00  0.34596996292E+03  0.34596996292E+03  0.00000000000E+00 0.  1.
         21   -1    0    0  501  502  0.00000000000E+00 -0.00000000000E+00 -0.18227240236E+04  0.18227240236E+04  0.00000000000E+00 0.  1.
        -13    1    1    2    0    0  0.71997403137E+03 -0.20908838855E+02 -0.52084712120E+03  0.88886529925E+03  0.10566000000E+00 0.  1.
         13    1    1    2    0    0 -0.42080513385E+03  0.11200400679E+03 -0.23683185647E+03  0.49569264430E+03  0.10566000000E+00 0. -1.
          4    1    1    2  501    0 -0.29916889752E+03 -0.91095167931E+02 -0.71907508298E+03  0.78413604293E+03  0.00000000000E+00 0.  1.
</event>
<event>
 5    1  0.4419198E-005  0.2133498E+03  0.7818608E-02  0.1051350E+00
         21   -1    0    0  501  502  0.00000000000E+00  0.00000000000E+00  0.39539708320E+03  0.39539708320E+03  0.00000000000E+00 0.  1.
          4   -1    0    0  502    0 -0.00000000000E+00 -0.00000000000E+00 -0.83978090411E+03  0.83978090411E+03  0.00000000000E+00 0.  1.
        -13    1    1    2    0    0 -0.10443499232E+03  0.24308637224E+03 -0.45511770755E+03  0.52643118342E+03  0.10566000000E+00 0.  1.
         13    1    1    2    0    0 -0.15204782113E+02 -0.18651650331E+03 -0.30981933634E+03  0.36194975306E+03  0.10566000000E+00 0. -1.
          4    1    1    2  501    0  0.11963977443E+03 -0.56569868925E+02  0.32055322298E+03  0.34679705083E+03  0.00000000000E+00 0.  1.
</event>
<event>
 5    1  0.4419198E-005  0.2707460E+03  0.7818608E-02  0.1034085E+00
         21   -1    0    0  501  502  0.00000000000E+00  0.00000000000E+00  0.28395424861E+03  0.28395424861E+03  0.00000000000E+00 0. -1.
         -4   -1    0    0    0  501 -0.00000000000E+00 -0.00000000000E+00 -0.17201861540E+04  0.17201861540E+04  0.00000000000E+00 0. -1.
        -13    1    1    2    0    0  0.17568556346E+03 -0.64330232370E+00 -0.75063601875E+03  0.77092170475E+03  0.10566000000E+00 0.  1.
         13    1    1    2    0    0 -0.12426272063E+03 -0.26751119530E+03 -0.86003623215E+03  0.90921163385E+03  0.10566000000E+00 0. -1.
         -4    1    1    2    0  502 -0.51422842839E+02  0.26815449763E+03  0.17444034554E+03  0.32400706399E+03  0.00000000000E+00 0. -1.
</event>
<event>
 5    1  0.4419198E-005  0.8310614E+03  0.7818608E-02  0.8951924E-01
         21   -1    0    0  501  502  0.00000000000E+00  0.00000000000E+00  0.51893714126E+03  0.51893714126E+03  0.00000000000E+00 0.  1.
          4   -1    0    0  502    0 -0.00000000000E+00 -0.00000000000E+00 -0.22280918438E+04  0.22280918438E+04  0.00000000000E+00 0.  1.
        -13    1    1    2    0    0  0.74780053500E+03  0.47653789939E+03 -0.90132802399E+03  0.12643916433E+04  0.10566000000E+00 0.  1.
         13    1    1    2    0    0 -0.52933801355E+03 -0.59964890374E+03 -0.91026379538E+03  0.12117581148E+04  0.10566000000E+00 0. -1.
          4    1    1    2  501    0 -0.21846252145E+03  0.12311100435E+03  0.10243711687E+03  0.27087922693E+03  0.00000000000E+00 0.  1.
</event>
<event>
 5    1  0.4419198E-005  0.8669035E+03  0.7818608E-02  0.8910833E-01
         21   -1    0    0  501  502  0.00000000000E+00  0.00000000000E+00  0.65323661621E+03  0.65323661621E+03  0.00000000000E+00 0.  1.
         -4   -1    0    0    0  501 -0.00000000000E+00 -0.00000000000E+00 -0.37972525422E+04  0.37972525422E+04  0.00000000000E+00 0. -1.
        -13    1    1    2    0    0  0.76447045577E+03 -0.40400759526E+03 -0.30117381416E+04  0.31334013243E+04  0.10566000000E+00 0.  1.
         13    1    1    2    0    0 -0.62693274050E+03  0.69497158476E+03  0.67323549535E+02  0.93838299016E+03  0.10566000000E+00 0. -1.
         -4    1    1    2    0  502 -0.13753771526E+03 -0.29096398951E+03 -0.19960133399E+03  0.37870484396E+03  0.00000000000E+00 0. -1.
</event>
<event>
 5    1  0.4419198E-005  0.4470364E+03  0.7818608E-02  0.1008605E+00
          4   -1    0    0  502    0 -0.00000000000E+00  0.00000000000E+00  0.15775726868E+04  0.15775726868E+04  0.00000000000E+00 0.  1.
         21   -1    0    0  501  502  0.00000000000E+00 -0.00000000000E+00 -0.19806521927E+03  0.19806521927E+03  0.00000000000E+00 0.  1.
        -13    1    1    2    0    0  0.43508429280E+02 -0.44195546045E+03  0.22862705570E+03  0.49948769174E+03  0.10566000000E+00 0.  1.
         13    1    1    2    0    0  0.86947126279E+02  0.79831454739E-01  0.24234094919E+03  0.25746641715E+03  0.10566000000E+00 0. -1.
          4    1    1    2  501    0 -0.13045555556E+03  0.44187562899E+03  0.90853946260E+03  0.10186837971E+04  0.00000000000E+00 0.  1.
</event>
<event>
 5    1  0.4419198E-005  0.5075808E+03  0.7818608E-02  0.9711777E-01
         21   -1    0    0  501  502  0.00000000000E+00  0.00000000000E+00  0.48565634214E+03  0.48565634214E+03  0.00000000000E+00 0.  1.
          4   -1    0    0  502    0 -0.00000000000E+00 -0.00000000000E+00 -0.83830532121E+03  0.83830532121E+03  0.00000000000E+00 0.  1.
        -13    1    1    2    0    0  0.52100441841E+03 -0.26013481175E+03 -0.32908276667E+02  0.58326553998E+03  0.10566000000E+00 0.  1.
         13    1    1    2    0    0 -0.80912691173E+02  0.19144754241E+03 -0.17689944019E+03  0.27293304709E+03  0.10566000000E+00 0. -1.
          4    1    1    2  501    0 -0.44009172724E+03  0.68687269340E+02 -0.14284126220E+03  0.46776307629E+03  0.00000000000E+00 0.  1.
</event>
<event>
 5    1  0.4419198E-005  0.1831094E+03  0.7818608E-02  0.1072376E+00
         -4   -1    0    0    0  501 -0.00000000000E+00  0.00000000000E+00  0.98955782416E+03  0.98955782416E+03  0.00000000000E+00 0. -1.
         21   -1    0    0  501  502  0.00000000000E+00 -0.00000000000E+00 -0.14703957075E+03  0.14703957075E+03  0.00000000000E+00 0.  1.
        -13    1    1    2    0    0  0.71538458630E+02  0.16677038988E+03 -0.48487878283E+02  0.18783290315E+03  0.10566000000E+00 0.  1.
         13    1    1    2    0    0 -0.61276612703E+02 -0.17271553948E+03  0.90895812494E+03  0.92724881499E+03  0.10566000000E+00 0. -1.
         -4    1    1    2    0  502 -0.10261845928E+02  0.59451496006E+01 -0.17951993241E+02  0.21515676771E+02  0.00000000000E+00 0. -1.
</event>
<event>
 5    1  0.4419198E-005  0.4237548E+03  0.7818608E-02  0.9760307E-01
         21   -1    0    0  501  502  0.00000000000E+00  0.00000000000E+00  0.64573515961E+03  0.64573515961E+03  0.00000000000E+00 0.  1.
          4   -1    0    0  502    0 -0.00000000000E+00 -0.00000000000E+00 -0.64521297850E+03  0.64521297850E+03  0.00000000000E+00 0.  1.
        -13    1    1    2    0    0  0.28811518857E+03 -0.13150235569E+03 -0.23814013390E+03  0.39624987820E+03  0.10566000000E+00 0.  1.
         13    1    1    2    0    0  0.19084690133E+03  0.23407601949E+03 -0.77373711327E+02  0.31177046848E+03  0.10566000000E+00 0. -1.
          4    1    1    2  501    0 -0.47896208991E+03 -0.10257366380E+03  0.31603602634E+03  0.58292779143E+03  0.00000000000E+00 0.  1.
</event>
<event>
 5    1  0.4419198E-005  0.1373870E+03  0.7818608E-02  0.1114264E+00
          4   -1    0    0  502    0 -0.00000000000E+00  0.00000000000E+00  0.71064471928E+03  0.71064471928E+03  0.00000000000E+00 0.  1.
         21   -1    0    0  501  502  0.00000000000E+00 -0.00000000000E+00 -0.56945156633E+02  0.56945156633E+02  0.00000000000E+00 0. -1.
        -13    1    1    2    0    0 -0.89317198616E+02  0.10386211661E+03  0.56764835689E+03  0.58394312179E+03  0.10566000000E+00 0.  1.
         13    1    1    2    0    0  0.80014500810E+02 -0.11466140671E+03  0.92863662759E+02  0.16784882947E+03  0.10566000000E+00 0. -1.
          4    1    1    2  501    0  0.93026978064E+01  0.10799290106E+02 -0.68124570004E+01  0.15797924663E+02  0.00000000000E+00 0.  1.
</event>
<event>
 5    1  0.4419198E-005  0.1739428E+03  0.7818608E-02  0.1079633E+00
         21   -1    0    0  501  502  0.00000000000E+00  0.00000000000E+00  0.46588981991E+02  0.46588981991E+02  0.00000000000E+00 0. -1.
         -4   -1    0    0    0  501 -0.00000000000E+00 -0.00000000000E+00 -0.11471294303E+04  0.11471294303E+04  0.00000000000E+00 0. -1.
        -13    1    1    2    0    0 -0.80779313236E+02  0.12895804227E+03 -0.49857302367E+03  0.52127780042E+03  0.10566000000E+00 0.  1.
         13    1    1    2    0    0  0.83976957891E+02 -0.20185048783E+03 -0.51117720947E+03  0.55596573594E+03  0.10566000000E+00 0. -1.
         -4    1    1    2    0  502 -0.31976446550E+01  0.72892445565E+02 -0.90790215142E+02  0.11647487591E+03  0.00000000000E+00 0. -1.
</event>
<event>
 5    1  0.4419198E-005  0.4318963E+03  0.7818608E-02  0.9722275E-01
         21   -1    0    0  501  502  0.00000000000E+00  0.00000000000E+00  0.18268916881E+03  0.18268916881E+03  0.00000000000E+00 0.  1.
         -4   -1    0    0    0  501 -0.00000000000E+00 -0.00000000000E+00 -0.21440745813E+04  0.21440745813E+04  0.00000000000E+00 0. -1.
        -13    1    1    2    0    0  0.10774145629E+03 -0.30694407524E+03 -0.58862632316E+03  0.67253538659E+03  0.10566000000E+00 0.  1.
         13    1    1    2    0    0  0.35961390338E+03  0.27803146061E+03 -0.69478380676E+03  0.83026995724E+03  0.10566000000E+00 0. -1.
         -4    1    1    2    0  502 -0.46735535968E+03  0.28912614632E+02 -0.67797528254E+03  0.82395840626E+03  0.00000000000E+00 0. -1.
</event>
<event>
 5    1  0.4419198E-005  0.5120363E+03  0.7818608E-02  0.9667258E-01
          4   -1    0    0  502    0 -0.00000000000E+00  0.00000000000E+00  0.51198416294E+03  0.51198416294E+03  0.00000000000E+00 0.  1.
         21   -1    0    0  501  502  0.00000000000E+00 -0.00000000000E+00 -0.89894519902E+03  0.89894519902E+03  0.00000000000E+00 0.  1.
        -13    1    1    2    0    0  0.85768339156E+02  0.53130849959E+03 -0.28158111233E+02  0.53892283319E+03  0.10566000000E+00 0.  1.
         13    1    1    2    0    0  0.20946778683E+03 -0.10979727241E+03 -0.25355721422E+03  0.34673255802E+03  0.10566000000E+00 0. -1.
          4    1    1    2  501    0 -0.29523612599E+03 -0.42151122719E+03 -0.10524571063E+03  0.52527397074E+03  0.00000000000E+00 0.  1.
</event>
<event>
 5    1  0.4419198E-005  0.2701238E+03  0.7818608E-02  0.1020461E+00
         21   -1    0    0  501  502  0.00000000000E+00  0.00000000000E+00  0.34649873393E+03  0.34649873393E+03  0.00000000000E+00 0. -1.
         -4   -1    0    0    0  501 -0.00000000000E+00 -0.00000000000E+00 -0.22898036654E+04  0.22898036654E+04  0.00000000000E+00 0. -1.
        -13    1    1    2    0    0  0.71711616670E+02 -0.28298836370E+03 -0.14745302898E+04  0.15031515414E+04  0.10566000000E+00 0.  1.
         13    1    1    2    0    0  0.12357049453E+03  0.24772367786E+03 -0.74400683686E+03  0.79384058359E+03  0.10566000000E+00 0. -1.
         -4    1    1    2    0  502 -0.19528211120E+03  0.35264685842E+02  0.27523219513E+03  0.33931027432E+03  0.00000000000E+00 0. -1.
</event>
<event>
 5    1  0.4419198E-005  0.1251581E+03  0.7818608E-02  0.1128567E+00
         -4   -1    0    0    0  501 -0.00000000000E+00  0.00000000000E+00  0.28904572333E+03  0.28904572333E+03  0.00000000000E+00 0. -1.
         21   -1    0    0  501  502  0.00000000000E+00 -0.00000000000E+00 -0.10620437129E+03  0.10620437129E+03  0.00000000000E+00 0. -1.
        -13    1    1    2    0    0 -0.59586570371E+02 -0.10448083612E+03  0.99978703925E+02  0.15640510506E+03  0.10566000000E+00 0.  1.
         13    1    1    2    0    0 -0.30225889915E+01  0.14745172565E+03  0.46414441370E+02  0.15461390291E+03  0.10566000000E+00 0. -1.
         -4    1    1    2    0  502  0.62609159362E+02 -0.42970889533E+02  0.36448206745E+02  0.84231086650E+02  0.00000000000E+00 0. -1.
</event>
<event>
 5    1  0.4419198E-005  0.4913132E+03  0.7818608E-02  0.9522248E-01
         -4   -1    0    0    0  501 -0.00000000000E+00  0.00000000000E+00  0.20116920450E+04  0.20116920450E+04  0.00000000000E+00 0. -1.
         21   -1    0    0  501  502  0.00000000000E+00 -0.00000000000E+00 -0.46237330070E+03  0.46237330070E+03  0.00000000000E+00 0. -1.
        -13    1    1    2    0    0 -0.55659103205E+02  0.51110003446E+03  0.95671606458E+03  0.10861062657E+04  0.10566000000E+00 0.  1.
         13    1    1    2    0    0 -0.16659792552E+03  0.32492422779E+03  0.54497139667E+02  0.36918907349E+03  0.10566000000E+00 0. -1.
         -4    1    1    2    0  502  0.22225702872E+03 -0.83602426225E+03  0.53810554001E+03  0.10187700065E+04  0.00000000000E+00 0. -1.
</event>
<event>
 5    1  0.4419198E-005  0.5124495E+03  0.7818608E-02  0.9473131E-01
         21   -1    0    0  501  502  0.00000000000E+00  0.00000000000E+00  0.55214132672E+03  0.55214132672E+03  0.00000000000E+00 0. -1.
         -4   -1    0    0    0  501 -0.00000000000E+00 -0.00000000000E+00 -0.13496265047E+04  0.13496265047E+04  0.00000000000E+00 0. -1.
        -13    1    1    2    0    0 -0.48073328191E+03  0.23145135539E+03 -0.50610404814E+03  0.73540161610E+03  0.10566000000E+00 0.  1.
         13    1    1    2    0    0 -0.10895451805E+03 -0.43951898232E+03 -0.29608265993E+03  0.54102955141E+03  0.10566000000E+00 0. -1.
         -4    1    1    2    0  502  0.58968779996E+03  0.20806762693E+03  0.47015301354E+01  0.62533666388E+03  0.00000000000E+00 0. -1.
</event>
<event>
 5    1  0.4419198E-005  0.4814170E+03  0.7818608E-02  0.9668919E-01
         21   -1    0    0  501  502  0.00000000000E+00  0.00000000000E+00  0.28430676086E+03  0.28430676086E+03  0.00000000000E+00 0. -1.
         -4   -1    0    0    0  501 -0.00000000000E+00 -0.00000000000E+00 -0.15583232542E+04  0.15583232542E+04  0.00000000000E+00 0. -1.
        -13    1    1    2    0    0 -0.50723337254E+02  0.27832016179E+03 -0.33022015748E+03  0.43483368426E+03  0.10566000000E+00 0.  1.
         13    1    1    2    0    0  0.41147083978E+03 -0.47639514849E+03 -0.62660862810E+03  0.88819984996E+03  0.10566000000E+00 0. -1.
         -4    1    1    2    0  502 -0.36074750253E+03  0.19807498671E+03 -0.31718770775E+03  0.51959648083E+03  0.00000000000E+00 0. -1.
</event>
<event>
 5    1  0.4419198E-005  0.6603383E+02  0.7818608E-02  0.1237535E+00
         21   -1    0    0  501  502  0.00000000000E+00  0.00000000000E+00  0.39718273449E+02  0.39718273449E+02  0.00000000000E+00 0. -1.
          4   -1    0    0  502    0 -0.00000000000E+00 -0.00000000000E+00 -0.14146185434E+03  0.14146185434E+03  0.00000000000E+00 0.  1.
        -13    1    1    2    0    0 -0.50727561454E+02 -0.47120196597E+02 -0.71762416861E+02  0.99716869466E+02  0.10566000000E+00 0.  1.
         13    1    1    2    0    0  0.50691790715E+02  0.35782848000E+02 -0.32206514245E+02  0.69909517097E+02  0.10566000000E+00 0. -1.
          4    1    1    2  501    0  0.35770739384E-01  0.11337348597E+02  0.22253502140E+01  0.11553741226E+02  0.00000000000E+00 0.  1.
</event>
<event>
 5    1  0.4419198E-005  0.1310040E+03  0.7818608E-02  0.1121518E+00
         -4   -1    0    0    0  501 -0.00000000000E+00  0.00000000000E+00  0.29395754719E+03  0.29395754719E+03  0.00000000000E+00 0. -1.
         21   -1    0    0  501  502  0.00000000000E+00 -0.00000000000E+00 -0.12531931611E+03  0.12531931611E+03  0.00000000000E+00 0. -1.
        -13    1    1    2    0    0  0.12764980654E+03  0.12221224755E+02  0.78075663037E+02  0.15013211438E+03  0.10566000000E+00 0.  1.
         13    1    1    2    0    0 -0.13051402389E+03 -0.26651204508E+02  0.15423458277E+03  0.20379527674E+03  0.10566000000E+00 0. -1.
         -4    1    1    2    0  502  0.28642173508E+01  0.14429979753E+02 -0.63672014724E+02  0.65349472191E+02  0.00000000000E+00 0. -1.
</event>
<event>
 5    1  0.4419198E-005  0.9288830E+02  0.7818608E-02  0.1213450E+00
         21   -1    0    0  501  502  0.00000000000E+00  0.00000000000E+00  0.12303720766E+04  0.12303720766E+04  0.00000000000E+00 0.  1.
          4   -1    0    0  502    0 -0.00000000000E+00 -0.00000000000E+00 -0.19693333082E+02  0.19693333082E+02  0.00000000000E+00 0.  1.
        -13    1    1    2    0    0  0.56906384928E+02  0.60862108285E+02  0.10121370961E+03  0.13109828011E+03  0.10566000000E+00 0.  1.
         13    1    1    2    0    0  0.31556644342E+02 -0.24794945807E+02  0.17072640603E+03  0.17537995330E+03  0.10566000000E+00 0. -1.
          4    1    1    2  501    0 -0.88463029270E+02 -0.36067162478E+02  0.93873862792E+03  0.94358717632E+03  0.00000000000E+00 0.  1.
</event>
<event>
 5    1  0.4419198E-005  0.7768732E+02  0.7818608E-02  0.1207890E+00
         21   -1    0    0  501  502  0.00000000000E+00  0.00000000000E+00  0.10114252579E+03  0.10114252579E+03  0.00000000000E+00 0. -1.
          4   -1    0    0  502    0 -0.00000000000E+00 -0.00000000000E+00 -0.77483310168E+02  0.77483310168E+02  0.00000000000E+00 0.  1.
        -13    1    1    2    0    0 -0.82147628126E+02 -0.47466611540E+01  0.27505114518E+01  0.82330675183E+02  0.10566000000E+00 0.  1.
         13    1    1    2    0    0  0.72350835672E+02  0.15010708318E+02  0.36903588780E+01  0.73983746183E+02  0.10566000000E+00 0. -1.
          4    1    1    2  501    0  0.97967924538E+01 -0.10264047164E+02  0.17218345296E+02  0.22311414597E+02  0.00000000000E+00 0.  1.
</event>
<event>
 5    1  0.4419198E-005  0.4439640E+03  0.7818608E-02  0.9904105E-01
         21   -1    0    0  501  502  0.00000000000E+00  0.00000000000E+00  0.13025916481E+03  0.13025916481E+03  0.00000000000E+00 0. -1.
         -4   -1    0    0    0  501 -0.00000000000E+00 -0.00000000000E+00 -0.27149764988E+04  0.27149764988E+04  0.00000000000E+00 0. -1.
        -13    1    1    2    0    0  0.14195654558E+03 -0.76491029847E+02 -0.67175533091E+03  0.69083845742E+03  0.10566000000E+00 0.  1.
         13    1    1    2    0    0  0.29003957486E+03  0.26504226582E+03 -0.14158237432E+04  0.14693288402E+04  0.10566000000E+00 0. -1.
         -4    1    1    2    0  502 -0.43199612044E+03 -0.18855123597E+03 -0.49713825992E+03  0.68506836603E+03  0.00000000000E+00 0. -1.
</event>
<event>
 5    1  0.4419198E-005  0.3627015E+03  0.7818608E-02  0.9843417E-01
          4   -1    0    0  502    0 -0.00000000000E+00  0.00000000000E+00  0.46545866315E+03  0.46545866315E+03  0.00000000000E+00 0.  1.
         21   -1    0    0  501  502  0.00000000000E+00 -0.00000000000E+00 -0.11716847311E+04  0.11716847311E+04  0.00000000000E+00 0.  1.
        -13    1    1    2    0    0 -0.42911131144E+03  0.16429071746E+02  0.75916327931E+02  0.43608454686E+03  0.10566000000E+00 0.  1.
         13    1    1    2    0    0  0.26832432363E+03  0.22632434262E+03  0.16071693346E+02  0.35139573305E+03  0.10566000000E+00 0. -1.
          4    1    1    2  501    0  0.16078698781E+03 -0.24275341437E+03 -0.79821408920E+03  0.84966311432E+03  0.00000000000E+00 0.  1.
</event>
<event>
 5    1  0.4419198E-005  0.8680720E+03  0.7818608E-02  0.8909528E-01
         21   -1    0    0  501  502  0.00000000000E+00  0.00000000000E+00  0.85936798997E+03  0.85936798997E+03  0.00000000000E+00 0. -1.
          4   -1    0    0  502    0 -0.00000000000E+00 -0.00000000000E+00 -0.20478352676E+04  0.20478352676E+04  0.00000000000E+00 0.  1.
        -13    1    1    2    0    0  0.63370657766E+03  0.60437266210E+03 -0.31563359853E+03  0.93084634659E+03  0.10566000000E+00 0.  1.
         13    1    1    2    0    0 -0.54381357974E+03 -0.67530006630E+03 -0.12841201871E+04  0.15494282994E+04  0.10566000000E+00 0. -1.
          4    1    1    2  501    0 -0.89892997920E+02  0.70927404197E+02  0.41128650796E+03  0.42692861156E+03  0.00000000000E+00 0.  1.
</event>
<event>
 5    1  0.4419198E-005  0.2115514E+02  0.7818608E-02  0.1530151E+00
         -4   -1    0    0    0  501 -0.00000000000E+00  0.00000000000E+00  0.52565938987E+02  0.52565938987E+02  0.00000000000E+00 0. -1.
         21   -1    0    0  501  502  0.00000000000E+00 -0.00000000000E+00 -0.63661531329E+02  0.63661531329E+02  0.00000000000E+00 0. -1.
        -13    1    1    2    0    0 -0.95691116283E+01  0.83038822192E+01 -0.65872251168E+01  0.14280233053E+02  0.10566000000E+00 0.  1.
         13    1    1    2    0    0 -0.10265422581E+02  0.52516115962E+00  0.45913337620E+02  0.47049978007E+02  0.10566000000E+00 0. -1.
         -4    1    1    2    0  502  0.19834534209E+02 -0.88290433789E+01 -0.50421704846E+02  0.54897259256E+02  0.00000000000E+00 0. -1.
</event>
<event>
 5    1  0.4419198E-005  0.2237505E+03  0.7818608E-02  0.1044970E+00
          4   -1    0    0  502    0 -0.00000000000E+00  0.00000000000E+00  0.15571278367E+04  0.15571278367E+04  0.00000000000E+00 0.  1.
         21   -1    0    0  501  502  0.00000000000E+00 -0.00000000000E+00 -0.19033947088E+03  0.19033947088E+03  0.00000000000E+00 0. -1.
        -13    1    1    2    0    0 -0.20699885838E+03  0.83014296079E+02  0.12669140279E+04  0.12863945996E+04  0.10566000000E+00 0.  1.
         13    1    1    2    0    0  0.22221605684E+03 -0.55438574701E+02  0.23155034071E+03  0.32568233439E+03  0.10566000000E+00 0. -1.
          4    1    1    2  501    0 -0.15217198461E+02 -0.27575721378E+02 -0.13167600279E+03  0.13539037355E+03  0.00000000000E+00 0.  1.
</event>
<event>
 5    1  0.4419198E-005  0.5474886E+03  0.7818608E-02  0.9379549E-01
         21   -1    0    0  501  502  0.00000000000E+00  0.00000000000E+00  0.30606583245E+03  0.30606583245E+03  0.00000000000E+00 0. -1.
         -4   -1    0    0    0  501 -0.00000000000E+00 -0.00000000000E+00 -0.25599931155E+04  0.25599931155E+04  0.00000000000E+00 0. -1.
        -13    1    1    2    0    0 -0.50578210792E+03 -0.31780667004E+03 -0.73393195726E+03  0.94629421919E+03  0.10566000000E+00 0.  1.
         13    1    1    2    0    0  0.56568491497E+03 -0.86299372872E+02 -0.13697790509E+04  0.14845004763E+04  0.10566000000E+00 0. -1.
         -4    1    1    2    0  502 -0.59902807049E+02  0.40410604291E+03 -0.15021627489E+03  0.43526425244E+03  0.00000000000E+00 0. -1.
</event>
<event>
 5    1  0.4419198E-005  0.7094800E+03  0.7818608E-02  0.9109338E-01
         21   -1    0    0  501  502  0.00000000000E+00  0.00000000000E+00  0.19534334274E+04  0.19534334274E+04  0.00000000000E+00 0.  1.
         -4   -1    0    0    0  501 -0.00000000000E+00 -0.00000000000E+00 -0.59453473303E+03  0.59453473303E+03  0.00000000000E+00 0. -1.
        -13    1    1    2    0    0 -0.40388650911E+03  0.69339925915E+03  0.24770318112E+03  0.83981171814E+03  0.10566000000E+00 0.  1.
         13    1    1    2    0    0 -0.13733297046E+03 -0.69465285242E+03  0.39615447668E+03  0.81138234557E+03  0.10566000000E+00 0. -1.
         -4    1    1    2    0  502  0.54121947957E+03  0.12535932764E+01  0.71504103656E+03  0.89677409670E+03  0.00000000000E+00 0. -1.
</event>
<event>
 5    1  0.4419198E-005  0.4454664E+03  0.7818608E-02  0.9663581E-01
         -4   -1    0    0    0  501 -0.00000000000E+00  0.00000000000E+00  0.73605192074E+03  0.73605192074E+03  0.00000000000E+00 0. -1.
         21   -1    0    0  501  502  0.00000000000E+00 -0.00000000000E+00 -0.98627889633E+03  0.98627889633E+03  0.00000000000E+00 0. -1.
        -13    1    1    2    0    0 -0.10753560590E+03  0.34756850498E+03  0.34009213324E+03  0.49802654793E+03  0.10566000000E+00 0.  1.
         13    1    1    2    0    0 -0.13361988147E+03  0.32269638753E+03 -0.27853258114E+03  0.44672994210E+03  0.10566000000E+00 0. -1.
         -4    1    1    2    0  502  0.24115548738E+03 -0.67026489251E+03 -0.31178652769E+03  0.77757432704E+03  0.00000000000E+00 0. -1.
</event>
<event>
 5    1  0.4419198E-005  0.4849369E+03  0.7818608E-02  0.9549257E-01
          4   -1    0    0  502    0 -0.00000000000E+00  0.00000000000E+00  0.82914660817E+03  0.82914660817E+03  0.00000000000E+00 0.  1.
         21   -1    0    0  501  502  0.00000000000E+00 -0.00000000000E+00 -0.13149809366E+04  0.13149809366E+04  0.00000000000E+00 0.  1.
        -13    1    1    2    0    0 -0.68707617586E+02 -0.27833091926E+03 -0.21742516815E+02  0.28750927904E+03  0.10566000000E+00 0.  1.
         13    1    1    2    0    0 -0.37398577780E+03 -0.19832032860E+03  0.52399235571E+03  0.67362030458E+03  0.10566000000E+00 0. -1.
          4    1    1    2  501    0  0.44269339538E+03  0.47665124786E+03 -0.98808416730E+03  0.11829979611E+04  0.00000000000E+00 0.  1.
</event>
<event>
 5    1  0.4419198E-005  0.1241406E+03  0.7818608E-02  0.1129837E+00
         21   -1    0    0  501  502  0.00000000000E+00  0.00000000000E+00  0.66268036777E+03  0.66268036777E+03  0.00000000000E+00 0.  1.
         -4   -1    0    0    0  501 -0.00000000000E+00 -0.00000000000E+00 -0.63939790031E+02  0.63939790031E+02  0.00000000000E+00 0. -1.
        -13    1    1    2    0    0  0.88864735189E+02 -0.37264350631E+02  0.24056582100E+03  0.25914763820E+03  0.10566000000E+00 0.  1.
         13    1    1    2    0    0 -0.86883093620E+02  0.10721235257E+03  0.42879537640E+02  0.14450545461E+03  0.10566000000E+00 0. -1.
         -4    1    1    2    0  502 -0.19816415690E+01 -0.69948001941E+02  0.31529521909E+03  0.32296706498E+03  0.00000000000E+00 0. -1.
</event>
<event>
 5    1  0.4419198E-005  0.3421848E+03  0.7818608E-02  0.9912729E-01
         21   -1    0    0  501  502  0.00000000000E+00  0.00000000000E+00  0.40110843983E+03  0.40110843983E+03  0.00000000000E+00 0.  1.
          4   -1    0    0  502    0 -0.00000000000E+00 -0.00000000000E+00 -0.28644279924E+04  0.28644279924E+04  0.00000000000E+00 0.  1.
        -13    1    1    2    0    0 -0.29824515039E+03  0.16524185167E+03 -0.17574520103E+04  0.17902213883E+04  0.10566000000E+00 0.  1.
         13    1    1    2    0    0  0.30794111256E+03 -0.15421900228E+03 -0.10632471752E+04  0.11176340171E+04  0.10566000000E+00 0. -1.
          4    1    1    2  501    0 -0.96959621728E+01 -0.11022849391E+02  0.35737963297E+03  0.35768102683E+03  0.00000000000E+00 0.  1.
</event>
<event>
 5    1  0.4419198E-005  0.3968602E+03  0.7818608E-02  0.9738158E-01
          4   -1    0    0  502    0 -0.00000000000E+00  0.00000000000E+00  0.81619852350E+03  0.81619852350E+03  0.00000000000E+00 0.  1.
         21   -1    0    0  501  502  0.00000000000E+00 -0.00000000000E+00 -0.78253432470E+03  0.78253432470E+03  0.00000000000E+00 0.  1.
        -13    1    1    2    0    0 -0.13326587839E+01  0.62217036624E+03 -0.44463100004E+03  0.76471856128E+03  0.10566000000E+00 0.  1.
         13    1    1    2    0    0 -0.13090872649E+03 -0.34609589909E+03  0.32097906646E+03  0.48984389177E+03  0.10566000000E+00 0. -1.
          4    1    1    2  501    0  0.13224138527E+03 -0.27607446715E+03  0.15731613238E+03  0.34417039515E+03  0.00000000000E+00 0.  1.
</event>
<event>
 5    1  0.4419198E-005  0.2458534E+03  0.7818608E-02  0.1032564E+00
          4   -1    0    0  502    0 -0.00000000000E+00  0.00000000000E+00  0.13407420637E+04  0.13407420637E+04  0.00000000000E+00 0.  1.
         21   -1    0    0  501  502  0.00000000000E+00 -0.00000000000E+00 -0.29859372195E+03  0.29859372195E+03  0.00000000000E+00 0.  1.
        -13    1    1    2    0    0  0.10883848479E+03  0.22483823892E+03  0.11414194599E+04  0.11684333289E+04  0.10566000000E+00 0.  1.
         13    1    1    2    0    0 -0.28285781641E+02 -0.23251491485E+03  0.10086771587E+03  0.25502466222E+03  0.10566000000E+00 0. -1.
          4    1    1    2  501    0 -0.80552703151E+02  0.76766759238E+01 -0.20013883397E+03  0.21587779460E+03  0.00000000000E+00 0.  1.
</event>
<event>
 5    1  0.4419198E-005  0.5381540E+03  0.7818608E-02  0.9398050E-01
          4   -1    0    0  502    0 -0.00000000000E+00  0.00000000000E+00  0.38057920823E+04  0.38057920823E+04  0.00000000000E+00 0.  1.
         21   -1    0    0  501  502  0.00000000000E+00 -0.00000000000E+00 -0.17083129298E+03  0.17083129298E+03  0.00000000000E+00 0.  1.
        -13    1    1    2    0    0 -0.43668807375E+03 -0.47335222465E+03  0.10292578916E+04  0.12141378097E+04  0.10566000000E+00 0.  1.
         13    1    1    2    0    0  0.98811014424E+02  0.49271093186E+03  0.97332782112E+03  0.10953970684E+04  0.10566000000E+00 0. -1.
          4    1    1    2  501    0  0.33787705932E+03 -0.19358707207E+02  0.16323750766E+04  0.16670884972E+04  0.00000000000E+00 0.  1.
</event>
<event>
 5    1  0.4419198E-005  0.4616061E+03  0.7818608E-02  0.9822129E-01
         21   -1    0    0  501  502  0.00000000000E+00  0.00000000000E+00  0.32235404191E+03  0.32235404191E+03  0.00000000000E+00 0.  1.
          4   -1    0    0  502    0 -0.00000000000E+00 -0.00000000000E+00 -0.13589677234E+04  0.13589677234E+04  0.00000000000E+00 0.  1.
        -13    1    1    2    0    0 -0.41708153888E+03  0.38405499967E+03 -0.32425319263E+03  0.65314270794E+03  0.10566000000E+00 0.  1.
         13    1    1    2    0    0  0.71811413195E+02 -0.17495611561E+03 -0.56935825662E+03  0.59994612841E+03  0.10566000000E+00 0. -1.
          4    1    1    2  501    0  0.34527012568E+03 -0.20909888406E+03 -0.14300223222E+03  0.42823292893E+03  0.00000000000E+00 0.  1.
</event>
<event>
 5    1  0.4419198E-005  0.2378878E+03  0.7818608E-02  0.1065227E+00
         21   -1    0    0  501  502  0.00000000000E+00  0.00000000000E+00  0.20195903662E+03  0.20195903662E+03  0.00000000000E+00 0.  1.
          4   -1    0    0  502    0 -0.00000000000E+00 -0.00000000000E+00 -0.74151051762E+03  0.74151051762E+03  0.00000000000E+00 0.  1.
        -13    1    1    2    0    0  0.24739946246E+03 -0.38224047253E+02  0.48810925099E+02  0.25504919014E+03  0.10566000000E+00 0.  1.
         13    1    1    2    0    0 -0.36521251179E+02  0.95794285464E+02 -0.35131564145E+03  0.36596862981E+03  0.10566000000E+00 0. -1.
          4    1    1    2  501    0 -0.21087821128E+03 -0.57570238211E+02 -0.23704676465E+03  0.32245173430E+03  0.00000000000E+00 0.  1.
</event>
<event>
 5    1  0.4419198E-005  0.5292191E+03  0.7818608E-02  0.9416131E-01
          4   -1    0    0  502    0 -0.00000000000E+00  0.00000000000E+00  0.64716356841E+03  0.64716356841E+03  0.00000000000E+00 0.  1.
         21   -1    0    0  501  502  0.00000000000E+00 -0.00000000000E+00 -0.10865171215E+04  0.10865171215E+04  0.00000000000E+00 0. -1.
        -13    1    1    2    0    0  0.51223030080E+03  0.12294390088E+03  0.36332537600E+03  0.63992220139E+03  0.10566000000E+00 0.  1.
         13    1    1    2    0    0 -0.51547617847E+03 -0.15685139474E+03 -0.35603262112E+03  0.64581521279E+03  0.10566000000E+00 0. -1.
          4    1    1    2  501    0  0.32458776763E+01  0.33907493855E+02 -0.44664630798E+03  0.44794327575E+03  0.00000000000E+00 0.  1.
</event>
<event>
 5    1  0.4419198E-005  0.4082085E+03  0.7818608E-02  0.1001034E+00
         21   -1    0    0  501  502  0.00000000000E+00  0.00000000000E+00  0.10341561226E+04  0.10341561226E+04  0.00000000000E+00 0.  1.
          4   -1    0    0  502    0 -0.00000000000E+00 -0.00000000000E+00 -0.40460588400E+03  0.40460588400E+03  0.00000000000E+00 0.  1.
        -13    1    1    2    0    0  0.17275584852E+03 -0.40354743843E+03  0.83689825188E+03  0.94503640852E+03  0.10566000000E+00 0.  1.
         13    1    1    2    0    0 -0.43477999291E+02  0.13937840259E+03 -0.11375816679E+03  0.18508810660E+03  0.10566000000E+00 0. -1.
          4    1    1    2  501    0 -0.12927784922E+03  0.26416903584E+03 -0.93589846462E+02  0.30863749150E+03  0.00000000000E+00 0.  1.
</event>
<event>
 5    1  0.4419198E-005  0.1076793E+03  0.7818608E-02  0.1152439E+00
         -4   -1    0    0    0  501 -0.00000000000E+00  0.00000000000E+00  0.28359899258E+03  0.28359899258E+03  0.00000000000E+00 0. -1.
         21   -1    0    0  501  502  0.00000000000E+00 -0.00000000000E+00 -0.79970729645E+02  0.79970729645E+02  0.00000000000E+00 0.  1.
        -13    1    1    2    0    0 -0.95460757526E+02  0.85335487923E+02  0.39448611688E+02  0.13398173702E+03  0.10566000000E+00 0.  1.
         13    1    1    2    0    0  0.89843545195E+02 -0.48581391248E+02  0.16303908932E+03  0.19238963069E+03  0.10566000000E+00 0. -1.
         -4    1    1    2    0  502  0.56172123309E+01 -0.36754096675E+02  0.11405619277E+01  0.37198354510E+02  0.00000000000E+00 0. -1.
</event>
<event>
 5    1  0.4419198E-005  0.3574988E+03  0.7818608E-02  0.9860524E-01
         21   -1    0    0  501  502  0.00000000000E+00  0.00000000000E+00  0.11231462797E+04  0.11231462797E+04  0.00000000000E+00 0. -1.
         -4   -1    0    0    0  501 -0.00000000000E+00 -0.00000000000E+00 -0.55064738391E+03  0.55064738391E+03  0.00000000000E+00 0. -1.
        -13    1    1    2    0    0 -0.25562199386E+03  0.29406652977E+03  0.45176224981E+03  0.59657930671E+03  0.10566000000E+00 0.  1.
         13    1    1    2    0    0 -0.58373205090E+02 -0.36680477930E+03 -0.34758942613E+03  0.50869597749E+03  0.10566000000E+00 0. -1.
         -4    1    1    2    0  502  0.31399519895E+03  0.72738249530E+02  0.46832607215E+03  0.56851837945E+03  0.00000000000E+00 0. -1.
</event>
<event>
 5    1  0.4419198E-005  0.3495383E+03  0.7818608E-02  0.1000362E+00
         21   -1    0    0  501  502  0.00000000000E+00  0.00000000000E+00  0.61952335251E+03  0.61952335251E+03  0.00000000000E+00 0. -1.
         -4   -1    0    0    0  501 -0.00000000000E+00 -0.00000000000E+00 -0.65946629455E+03  0.65946629455E+03  0.00000000000E+00 0. -1.
        -13    1    1    2    0    0  0.18935080948E+03 -0.14372852832E+03 -0.91415195298E+02  0.25469269326E+03  0.10566000000E+00 0.  1.
         13    1    1    2    0    0 -0.12823557022E+03  0.47090169074E+03 -0.27321872811E+03  0.55932213291E+03  0.10566000000E+00 0. -1.
         -4    1    1    2    0  502 -0.61115239263E+02 -0.32717316242E+03  0.32469098136E+03  0.46497482088E+03  0.00000000000E+00 0. -1.
</event>
<event>
 5    1  0.4419198E-005  0.4751410E+03  0.7818608E-02  0.9534188E-01
          4   -1    0    0  502    0 -0.00000000000E+00  0.00000000000E+00  0.15755449044E+04  0.15755449044E+04  0.00000000000E+00 0.  1.
         21   -1    0    0  501  502  0.00000000000E+00 -0.00000000000E+00 -0.31899555288E+03  0.31899555288E+03  0.00000000000E+00 0.  1.
        -13    1    1    2    0    0  0.14626506034E+03  0.61093512829E+03  0.91922668059E+03  0.11133790461E+04  0.10566000000E+00 0.  1.
         13    1    1    2    0    0 -0.20148589870E+03 -0.29186094342E+03  0.28099974404E+03  0.45248231456E+03  0.10566000000E+00 0. -1.
          4    1    1    2  501    0  0.55220838360E+02 -0.31907418486E+03  0.56322926849E+02  0.32867909657E+03  0.00000000000E+00 0.  1.
</event>
<event>
 5    1  0.4419198E-005  0.4430432E+03  0.7818608E-02  0.9612390E-01
         21   -1    0    0  501  502  0.00000000000E+00  0.00000000000E+00  0.15953117064E+03  0.15953117064E+03  0.00000000000E+00 0.  1.
         -4   -1    0    0    0  501 -0.00000000000E+00 -0.00000000000E+00 -0.18604422979E+04  0.18604422979E+04  0.00000000000E+00 0. -1.
        -13    1    1    2    0    0 -0.19780733976E+03 -0.40147628276E+03 -0.14074253803E+04  0.14768741184E+04  0.10566000000E+00 0.  1.
         13    1    1    2    0    0  0.19955471686E+03  0.37922790290E+03 -0.29573719916E+03  0.52066917471E+03  0.10566000000E+00 0. -1.
         -4    1    1    2    0  502 -0.17473771010E+01  0.22248379857E+02  0.22514522200E+01  0.22430175437E+02  0.00000000000E+00 0. -1.
</event>
<event>
 5    1  0.4419198E-005  0.2005716E+03  0.7818608E-02  0.1059745E+00
          4   -1    0    0  502    0 -0.00000000000E+00  0.00000000000E+00  0.40674683138E+02  0.40674683138E+02  0.00000000000E+00 0.  1.
         21   -1    0    0  501  502  0.00000000000E+00 -0.00000000000E+00 -0.16080505574E+04  0.16080505574E+04  0.00000000000E+00 0.  1.
        -13    1    1    2    0    0 -0.11653909857E+03 -0.20960771914E+03 -0.92963518332E+03  0.96007205076E+03  0.10566000000E+00 0.  1.
         13    1    1    2    0    0  0.10750820642E+03  0.15056035841E+03 -0.36220872420E+03  0.40672055151E+03  0.10566000000E+00 0. -1.
          4    1    1    2  501    0  0.90308921516E+01  0.59047360736E+02 -0.27553196673E+03  0.28193263825E+03  0.00000000000E+00 0.  1.
</event>
<event>
 5    1  0.4419198E-005  0.5062906E+03  0.7818608E-02  0.9698367E-01
         21   -1    0    0  501  502  0.00000000000E+00  0.00000000000E+00  0.29034646346E+03  0.29034646346E+03  0.00000000000E+00 0.  1.
          4   -1    0    0  502    0 -0.00000000000E+00 -0.00000000000E+00 -0.20659538326E+04  0.20659538326E+04  0.00000000000E+00 0.  1.
        -13    1    1    2    0    0  0.54006554299E+03  0.14823213412E+03 -0.27663649244E+03  0.62463694770E+03  0.10566000000E+00 0.  1.
         13    1    1    2    0    0 -0.17184487479E+03  0.13646710963E+03 -0.10906217638E+04  0.11124791125E+04  0.10566000000E+00 0. -1.
          4    1    1    2  501    0 -0.36822066820E+03 -0.28469924376E+03 -0.40834911292E+03  0.61918423584E+03  0.00000000000E+00 0.  1.
</event>
<event>
 5    1  0.4419198E-005  0.4966062E+03  0.7818608E-02  0.9635705E-01
         21   -1    0    0  501  502  0.00000000000E+00  0.00000000000E+00  0.45780131782E+03  0.45780131782E+03  0.00000000000E+00 0. -1.
         -4   -1    0    0    0  501 -0.00000000000E+00 -0.00000000000E+00 -0.17950898079E+04  0.17950898079E+04  0.00000000000E+00 0. -1.
        -13    1    1    2    0    0  0.28135049275E+03 -0.68951177082E+02 -0.11686994205E+04  0.12040642471E+04  0.10566000000E+00 0.  1.
         13    1    1    2    0    0  0.33801357370E+03  0.14835564992E+03 -0.20699556528E+03  0.42321359865E+03  0.10566000000E+00 0. -1.
         -4    1    1    2    0  502 -0.61936406645E+03 -0.79404472837E+02  0.38406495694E+02  0.62561327993E+03  0.00000000000E+00 0. -1.
</event>
<event>
 5    1  0.4419198E-005  0.1416803E+03  0.7818608E-02  0.1196034E+00
         -4   -1    0    0    0  501 -0.00000000000E+00  0.00000000000E+00  0.36929874293E+03  0.36929874293E+03  0.00000000000E+00 0. -1.
         21   -1    0    0  501  502  0.00000000000E+00 -0.00000000000E+00 -0.15049132134E+03  0.15049132134E+03  0.00000000000E+00 0. -1.
        -13    1    1    2    0    0 -0.10922772094E+02 -0.12713676733E+02  0.39453708378E+01  0.17219803755E+02  0.10566000000E+00 0.  1.
         13    1    1    2    0    0  0.11678911970E+03  0.10412076546E+03  0.30033974539E+03  0.33865145224E+03  0.10566000000E+00 0. -1.
         -4    1    1    2    0  502 -0.10586634761E+03 -0.91407088726E+02 -0.85477694640E+02  0.16391880827E+03  0.00000000000E+00 0. -1.
</event>
<event>
 5    1  0.4419198E-005  0.4549980E+03  0.7818608E-02  0.9691973E-01
         21   -1    0    0  501  502  0.00000000000E+00  0.00000000000E+00  0.24779846987E+03  0.24779846987E+03  0.00000000000E+00 0. -1.
         -4   -1    0    0    0  501 -0.00000000000E+00 -0.00000000000E+00 -0.20307610505E+04  0.20307610505E+04  0.00000000000E+00 0. -1.
        -13    1    1    2    0    0 -0.23873080928E+03 -0.19641853466E+03 -0.78145911837E+03  0.84038741358E+03  0.10566000000E+00 0.  1.
         13    1    1    2    0    0  0.14765622394E+03 -0.31892224932E+03 -0.80640653562E+03  0.87966202227E+03  0.10566000000E+00 0. -1.
         -4    1    1    2    0  502  0.91074585347E+02  0.51534078398E+03 -0.19509692667E+03  0.55851008453E+03  0.00000000000E+00 0. -1.
</event>
<event>
 5    1  0.4419198E-005  0.5281569E+03  0.7818608E-02  0.9418305E-01
         -4   -1    0    0    0  501 -0.00000000000E+00  0.00000000000E+00  0.11680769245E+04  0.11680769245E+04  0.00000000000E+00 0. -1.
         21   -1    0    0  501  502  0.00000000000E+00 -0.00000000000E+00 -0.53383534265E+03  0.53383534265E+03  0.00000000000E+00 0. -1.
        -13    1    1    2    0    0 -0.29484259733E+03  0.35921878999E+03  0.25056370904E+03  0.52797015042E+03  0.10566000000E+00 0.  1.
         13    1    1    2    0    0  0.63440537991E+03 -0.19523444995E+03  0.43466735774E+03  0.79342447628E+03  0.10566000000E+00 0. -1.
         -4    1    1    2    0  502 -0.33956278258E+03 -0.16398434004E+03 -0.50989484962E+02  0.38051764041E+03  0.00000000000E+00 0. -1.
</event>
<event>
 5    1  0.4419198E-005  0.4569353E+03  0.7818608E-02  0.9832097E-01
         21   -1    0    0  501  502  0.00000000000E+00  0.00000000000E+00  0.40607086017E+03  0.40607086017E+03  0.00000000000E+00 0. -1.
         -4   -1    0    0    0  501 -0.00000000000E+00 -0.00000000000E+00 -0.89502307640E+03  0.89502307640E+03  0.00000000000E+00 0. -1.
        -13    1    1    2    0    0  0.52184166875E+02  0.18112321475E+03 -0.95947683908E+02  0.21150597014E+03  0.10566000000E+00 0.  1.
         13    1    1    2    0    0  0.25436714259E+03 -0.47937884648E+03 -0.37849563077E+03  0.66163862898E+03  0.10566000000E+00 0. -1.
         -4    1    1    2    0  502 -0.30655130947E+03  0.29825563173E+03 -0.14508901553E+02  0.42794933744E+03  0.00000000000E+00 0. -1.
</event>
<event>
 5    1  0.4419198E-005  0.7411091E+02  0.7818608E-02  0.1216337E+00
         -4   -1    0    0    0  501 -0.00000000000E+00  0.00000000000E+00  0.26716356704E+02  0.26716356704E+02  0.00000000000E+00 0. -1.
         21   -1    0    0  501  502  0.00000000000E+00 -0.00000000000E+00 -0.27426736552E+03  0.27426736552E+03  0.00000000000E+00 0.  1.
        -13    1    1    2    0    0 -0.60701169013E+02 -0.30153051699E+02 -0.16698692000E+03  0.18021787109E+03  0.10566000000E+00 0.  1.
         13    1    1    2    0    0  0.71388832858E+02  0.29014408199E+02 -0.60377297036E+02  0.97896018823E+02  0.10566000000E+00 0. -1.
         -4    1    1    2    0  502 -0.10687663845E+02  0.11386435004E+01 -0.20186791789E+02  0.22869832317E+02  0.00000000000E+00 0. -1.
</event>
<event>
 5    1  0.4419198E-005  0.1858433E+03  0.7818608E-02  0.1090654E+00
         -4   -1    0    0    0  501 -0.00000000000E+00  0.00000000000E+00  0.95972631569E+03  0.95972631569E+03  0.00000000000E+00 0. -1.
         21   -1    0    0  501  502  0.00000000000E+00 -0.00000000000E+00 -0.59957620688E+03  0.59957620688E+03  0.00000000000E+00 0. -1.
        -13    1    1    2    0    0 -0.48773510701E+02 -0.92912627467E+02  0.55023173031E+03  0.56014871230E+03  0.10566000000E+00 0.  1.
         13    1    1    2    0    0  0.18759663500E+03  0.91936497188E+01 -0.56247443567E+03  0.59300465648E+03  0.10566000000E+00 0. -1.
         -4    1    1    2    0  502 -0.13882312430E+03  0.83718977749E+02  0.37239281418E+03  0.40614915379E+03  0.00000000000E+00 0. -1.
</event>
<event>
 5    1  0.4419198E-005  0.5493076E+03  0.7818608E-02  0.9375988E-01
          4   -1    0    0  502    0 -0.00000000000E+00  0.00000000000E+00  0.23410845624E+04  0.23410845624E+04  0.00000000000E+00 0.  1.
         21   -1    0    0  501  502  0.00000000000E+00 -0.00000000000E+00 -0.25680648347E+03  0.25680648347E+03  0.00000000000E+00 0. -1.
        -13    1    1    2    0    0  0.51699471073E+03 -0.15767204663E+03  0.12771527692E+04  0.13868176565E+04  0.10566000000E+00 0.  1.
         13    1    1    2    0    0 -0.54032464696E+03  0.15433359092E+03  0.92965871283E+03  0.10862941199E+04  0.10566000000E+00 0. -1.
          4    1    1    2  501    0  0.23329936230E+02  0.33384557119E+01 -0.12253340314E+03  0.12477926949E+03  0.00000000000E+00 0.  1.
</event>
<event>
 5    1  0.4419198E-005  0.6383186E+03  0.7818608E-02  0.9385690E-01
         -4   -1    0    0    0  501 -0.00000000000E+00  0.00000000000E+00  0.16198665145E+04  0.16198665145E+04  0.00000000000E+00 0. -1.
         21   -1    0    0  501  502  0.00000000000E+00 -0.00000000000E+00 -0.75834121813E+03  0.75834121813E+03  0.00000000000E+00 0.  1.
        -13    1    1    2    0    0 -0.81669815800E+03 -0.32138982360E+03  0.56359033719E+03  0.10430346971E+04  0.10566000000E+00 0.  1.
         13    1    1    2    0    0 -0.11787734848E+03 -0.76820901371E+02  0.28655478489E+03  0.31923373268E+03  0.10566000000E+00 0. -1.
         -4    1    1    2    0  502  0.93457550648E+03  0.39821072497E+03  0.11380174325E+02  0.10159393029E+04  0.00000000000E+00 0. -1.
</event>
<event>
 5    1  0.4419198E-005  0.6520385E+02  0.7818608E-02  0.1239903E+00
          4   -1    0    0  502    0 -0.00000000000E+00  0.00000000000E+00  0.46200585704E+02  0.46200585704E+02  0.00000000000E+00 0.  1.
         21   -1    0    0  501  502  0.00000000000E+00 -0.00000000000E+00 -0.12659843543E+03  0.12659843543E+03  0.00000000000E+00 0. -1.
        -13    1    1    2    0    0  0.65823169662E+02 -0.96016918933E+01 -0.28283591349E+02  0.72283157479E+02  0.10566000000E+00 0.  1.
         13    1    1    2    0    0 -0.60522810252E+02  0.22958841818E+02 -0.24176168873E+02  0.69098605513E+02  0.10566000000E+00 0. -1.
          4    1    1    2  501    0 -0.53003594103E+01 -0.13357149925E+02 -0.27938089503E+02  0.31417258141E+02  0.00000000000E+00 0.  1.
</event>
<event>
 5    1  0.4419198E-005  0.4497438E+02  0.7818608E-02  0.1313723E+00
         -4   -1    0    0    0  501 -0.00000000000E+00  0.00000000000E+00  0.16684034654E+03  0.16684034654E+03  0.00000000000E+00 0. -1.
         21   -1    0    0  501  502  0.00000000000E+00 -0.00000000000E+00 -0.20045760911E+03  0.20045760911E+03  0.00000000000E+00 0. -1.
        -13    1    1    2    0    0 -0.31062425841E+02 -0.19136468390E+02 -0.12781603158E+03  0.13292113381E+03  0.10566000000E+00 0.  1.
         13    1    1    2    0    0  0.32309019575E+02  0.31607470799E+02  0.16058152461E+03  0.16682128810E+03  0.10566000000E+00 0. -1.
         -4    1    1    2    0  502 -0.12465937335E+01 -0.12471002408E+02 -0.66382755605E+02  0.67555533738E+02  0.00000000000E+00 0. -1.
</event>
<event>
 5    1  0.4419198E-005  0.4767388E+02  0.7818608E-02  0.1301560E+00
         -4   -1    0    0    0  501 -0.00000000000E+00  0.00000000000E+00  0.21279796373E+02  0.21279796373E+02  0.00000000000E+00 0. -1.
         21   -1    0    0  501  502  0.00000000000E+00 -0.00000000000E+00 -0.21847347913E+03  0.21847347913E+03  0.00000000000E+00 0.  1.
        -13    1    1    2    0    0  0.14638790704E+02  0.37384217004E+02 -0.40998858608E+02  0.57382849751E+02  0.10566000000E+00 0.  1.
         13    1    1    2    0    0 -0.34812197751E+02 -0.49947042951E+02 -0.69114897202E+02  0.92105789129E+02  0.10566000000E+00 0. -1.
         -4    1    1    2    0  502  0.20173407046E+02  0.12562825947E+02 -0.87079926947E+02  0.90264636623E+02  0.00000000000E+00 0. -1.
</event>
<event>
 5    1  0.4419198E-005  0.4590654E+03  0.7818608E-02  0.1041713E+00
         -4   -1    0    0    0  501 -0.00000000000E+00  0.00000000000E+00  0.20124938153E+03  0.20124938153E+03  0.00000000000E+00 0. -1.
         21   -1    0    0  501  502  0.00000000000E+00 -0.00000000000E+00 -0.12234166947E+04  0.12234166947E+04  0.00000000000E+00 0. -1.
        -13    1    1    2    0    0  0.28576565361E+02 -0.19104766046E+00  0.10987670513E+01  0.28598514648E+02  0.10566000000E+00 0.  1.
         13    1    1    2    0    0 -0.33899163704E+03  0.32822448380E+03 -0.35936868773E+03  0.59312098819E+03  0.10566000000E+00 0. -1.
         -4    1    1    2    0  502  0.31041507168E+03 -0.32803343614E+03 -0.66389739245E+03  0.80294657334E+03  0.00000000000E+00 0. -1.
</event>
<event>
 5    1  0.4419198E-005  0.6409290E+03  0.7818608E-02  0.9213377E-01
         -4   -1    0    0    0  501 -0.00000000000E+00  0.00000000000E+00  0.32030826441E+04  0.32030826441E+04  0.00000000000E+00 0. -1.
         21   -1    0    0  501  502  0.00000000000E+00 -0.00000000000E+00 -0.51066677152E+03  0.51066677152E+03  0.00000000000E+00 0. -1.
        -13    1    1    2    0    0 -0.30820632993E+03  0.65406678186E+03  0.20848705520E+04  0.22066897667E+04  0.10566000000E+00 0.  1.
         13    1    1    2    0    0  0.20544356437E+03 -0.50458308998E+03  0.96388962541E+03  0.11072011443E+04  0.10566000000E+00 0. -1.
         -4    1    1    2    0  502  0.10276276556E+03 -0.14948369188E+03 -0.35634430479E+03  0.39985850458E+03  0.00000000000E+00 0. -1.
</event>
<event>
 5    1  0.4419198E-005  0.1182942E+03  0.7818608E-02  0.1137400E+00
          4   -1    0    0  502    0 -0.00000000000E+00  0.00000000000E+00  0.49123431905E+03  0.49123431905E+03  0.00000000000E+00 0.  1.
         21   -1    0    0  501  502  0.00000000000E+00 -0.00000000000E+00 -0.10003875831E+03  0.10003875831E+03  0.00000000000E+00 0. -1.
        -13    1    1    2    0    0 -0.48239526045E+02  0.10445437882E+03  0.38167286267E+03  0.39863762290E+03  0.10566000000E+00 0.  1.
         13    1    1    2    0    0  0.86516023593E+02 -0.12165846912E+03 -0.13278973303E+01  0.14929025394E+03  0.10566000000E+00 0. -1.
          4    1    1    2  501    0 -0.38276497548E+02  0.17204090298E+02  0.10850595398E+02  0.43345200519E+02  0.00000000000E+00 0.  1.
</event>
<event>
 5    1  0.4419198E-005  0.2069313E+03  0.7818608E-02  0.1055485E+00
          4   -1    0    0  502    0 -0.00000000000E+00  0.00000000000E+00  0.57832753240E+03  0.57832753240E+03  0.00000000000E+00 0.  1.
         21   -1    0    0  501  502  0.00000000000E+00 -0.00000000000E+00 -0.13963616765E+03  0.13963616765E+03  0.00000000000E+00 0. -1.
        -13    1    1    2    0    0 -0.20950415819E+03  0.28288012288E+02  0.32149346154E+03  0.38477299920E+03  0.10566000000E+00 0.  1.
         13    1    1    2    0    0  0.19741573709E+03 -0.36262280658E+02  0.17947209556E+03  0.26925484304E+03  0.10566000000E+00 0. -1.
          4    1    1    2  501    0  0.12088421104E+02  0.79742683695E+01 -0.62274192354E+02  0.63935857812E+02  0.00000000000E+00 0.  1.
</event>
<event>
 5    1  0.4419198E-005  0.1730829E+03  0.7818608E-02  0.1080339E+00
          4   -1    0    0  502    0 -0.00000000000E+00  0.00000000000E+00  0.79603471903E+02  0.79603471903E+02  0.00000000000E+00 0.  1.
         21   -1    0    0  501  502  0.00000000000E+00 -0.00000000000E+00 -0.92094820557E+03  0.92094820557E+03  0.00000000000E+00 0. -1.
        -13    1    1    2    0    0  0.12586798242E+03  0.84085006683E+02 -0.16091497097E+03  0.22092233113E+03  0.10566000000E+00 0.  1.
         13    1    1    2    0    0 -0.10665440464E+03 -0.18494954794E+03 -0.21495374507E+03  0.30296306870E+03  0.10566000000E+00 0. -1.
          4    1    1    2  501    0 -0.19213577786E+02  0.10086454125E+03 -0.46547601762E+03  0.47666627764E+03  0.00000000000E+00 0.  1.
</event>
<event>
 5    1  0.4419198E-005  0.1410011E+03  0.7818608E-02  0.1110342E+00
         -4   -1    0    0    0  501 -0.00000000000E+00  0.00000000000E+00  0.19004097351E+03  0.19004097351E+03  0.00000000000E+00 0. -1.
         21   -1    0    0  501  502  0.00000000000E+00 -0.00000000000E+00 -0.15968294099E+03  0.15968294099E+03  0.00000000000E+00 0. -1.
        -13    1    1    2    0    0 -0.10964217256E+03  0.83110636819E+02 -0.12067753759E+02  0.13811019442E+03  0.10566000000E+00 0.  1.
         13    1    1    2    0    0  0.10648264162E+03 -0.95468117032E+02  0.85546493907E+02  0.16664611643E+03  0.10566000000E+00 0. -1.
         -4    1    1    2    0  502  0.31595309456E+01  0.12357480214E+02 -0.43120707626E+02  0.44967603663E+02  0.00000000000E+00 0. -1.
</event>
<event>
 5    1  0.4419198E-005  0.4774817E+03  0.7818608E-02  0.1007427E+00
         -4   -1    0    0    0  501 -0.00000000000E+00  0.00000000000E+00  0.56393409315E+03  0.56393409315E+03  0.00000000000E+00 0. -1.
         21   -1    0    0  501  502  0.00000000000E+00 -0.00000000000E+00 -0.54722506697E+03  0.54722506697E+03  0.00000000000E+00 0. -1.
        -13    1    1    2    0    0  0.73922656399E+02 -0.53390790809E+01  0.12649110720E+03  0.14660517132E+03  0.10566000000E+00 0.  1.
         13    1    1    2    0    0 -0.36010445415E+03 -0.34981177578E+03 -0.65795606537E+02  0.50633246921E+03  0.10566000000E+00 0. -1.
         -4    1    1    2    0  502  0.28618179775E+03  0.35515085486E+03 -0.43986474477E+02  0.45822151958E+03  0.00000000000E+00 0. -1.
</event>
<event>
 5    1  0.4419198E-005  0.3730014E+03  0.7818608E-02  0.9897413E-01
         21   -1    0    0  501  502  0.00000000000E+00  0.00000000000E+00  0.39412952373E+03  0.39412952373E+03  0.00000000000E+00 0.  1.
          4   -1    0    0  502    0 -0.00000000000E+00 -0.00000000000E+00 -0.14000678390E+04  0.14000678390E+04  0.00000000000E+00 0.  1.
        -13    1    1    2    0    0 -0.59476869748E+03  0.50198242336E+02 -0.38443887472E+03  0.70997389148E+03  0.10566000000E+00 0.  1.
         13    1    1    2    0    0  0.27307337078E+03 -0.52432388299E+02 -0.69989357546E+03  0.75310639973E+03  0.10566000000E+00 0. -1.
          4    1    1    2  501    0  0.32169532669E+03  0.22341459634E+01  0.78394134952E+02  0.33111707147E+03  0.00000000000E+00 0.  1.
</event>
<event>
 5    1  0.4419198E-005  0.4615946E+03  0.7818608E-02  0.9566371E-01
          4   -1    0    0  502    0 -0.00000000000E+00  0.00000000000E+00  0.11577757350E+04  0.11577757350E+04  0.00000000000E+00 0.  1.
         21   -1    0    0  501  502  0.00000000000E+00 -0.00000000000E+00 -0.54440200282E+03  0.54440200282E+03  0.00000000000E+00 0.  1.
        -13    1    1    2    0    0 -0.39349609452E+03 -0.56525588264E+03  0.14510481088E+03  0.70385283019E+03  0.10566000000E+00 0.  1.
         13    1    1    2    0    0  0.20484748327E+02  0.41393397735E+03  0.42475081437E+03  0.59344269141E+03  0.10566000000E+00 0. -1.
          4    1    1    2  501    0  0.37301134619E+03  0.15132190529E+03  0.43518106973E+02  0.40488221626E+03  0.00000000000E+00 0.  1.
</event>
<event>
 5    1  0.4419198E-005  0.5001479E+03  0.7818608E-02  0.9506891E-01
          4   -1    0    0  502    0 -0.00000000000E+00  0.00000000000E+00  0.45290238728E+03  0.45290238728E+03  0.00000000000E+00 0.  1.
         21   -1    0    0  501  502  0.00000000000E+00 -0.00000000000E+00 -0.14112917281E+04  0.14112917281E+04  0.00000000000E+00 0.  1.
        -13    1    1    2    0    0 -0.48744451135E+03  0.20549335500E+03 -0.32441444925E+03  0.62054364604E+03  0.10566000000E+00 0.  1.
         13    1    1    2    0    0 -0.19355173026E+02 -0.44924014607E+03 -0.84737712804E+02  0.45757165854E+03  0.10566000000E+00 0. -1.
          4    1    1    2  501    0  0.50679968438E+03  0.24374679107E+03 -0.54923717879E+03  0.78607881081E+03  0.00000000000E+00 0.  1.
</event>
<event>
 5    1  0.4419198E-005  0.9903710E+02  0.7818608E-02  0.1166159E+00
          4   -1    0    0  502    0 -0.00000000000E+00  0.00000000000E+00  0.69695650363E+02  0.69695650363E+02  0.00000000000E+00 0.  1.
         21   -1    0    0  501  502  0.00000000000E+00 -0.00000000000E+00 -0.42290194218E+03  0.42290194218E+03  0.00000000000E+00 0.  1.
        -13    1    1    2    0    0  0.10473392042E+03  0.19975634075E+02  0.14816367450E+02  0.10764643957E+03  0.10566000000E+00 0.  1.
         13    1    1    2    0    0 -0.56622468947E+02 -0.28610353752E+02 -0.22695714970E+03  0.23565698652E+03  0.10566000000E+00 0. -1.
          4    1    1    2  501    0 -0.48111451478E+02  0.86347196773E+01 -0.14106550957E+03  0.14929416646E+03  0.00000000000E+00 0.  1.
</event>
<event>
 5    1  0.4419198E-005  0.1855251E+03  0.7818608E-02  0.1070539E+00
         21   -1    0    0  501  502  0.00000000000E+00  0.00000000000E+00  0.13399972319E+03  0.13399972319E+03  0.00000000000E+00 0. -1.
          4   -1    0    0  502    0 -0.00000000000E+00 -0.00000000000E+00 -0.78894248081E+03  0.78894248081E+03  0.00000000000E+00 0.  1.
        -13    1    1    2    0    0  0.32819878240E+02 -0.18715699680E+03 -0.69130430193E+03  0.71694249064E+03  0.10566000000E+00 0.  1.
         13    1    1    2    0    0 -0.53023503560E+02  0.14760545628E+03  0.17738111031E+02  0.15784015459E+03  0.10566000000E+00 0. -1.
          4    1    1    2  501    0  0.20203625320E+02  0.39551540518E+02  0.18623433276E+02  0.48159558765E+02  0.00000000000E+00 0.  1.
</event>
<event>
 5    1  0.4419198E-005  0.3493462E+02  0.7818608E-02  0.1369168E+00
          4   -1    0    0  502    0 -0.00000000000E+00  0.00000000000E+00  0.65873332072E+02  0.65873332072E+02  0.00000000000E+00 0.  1.
         21   -1    0    0  501  502  0.00000000000E+00 -0.00000000000E+00 -0.50071879550E+02  0.50071879550E+02  0.00000000000E+00 0.  1.
        -13    1    1    2    0    0 -0.12987987179E+02 -0.37351217755E+02  0.12341255910E+02  0.41426067158E+02  0.10566000000E+00 0.  1.
         13    1    1    2    0    0  0.26223365502E+02  0.22031362026E+02  0.26896998327E+02  0.43548886255E+02  0.10566000000E+00 0. -1.
          4    1    1    2  501    0 -0.13235378323E+02  0.15319855728E+02 -0.23436801715E+02  0.30970258209E+02  0.00000000000E+00 0.  1.
</event>
<event>
 5    1  0.4419198E-005  0.2320150E+02  0.7818608E-02  0.1469652E+00
         -4   -1    0    0    0  501 -0.00000000000E+00  0.00000000000E+00  0.17239814020E+02  0.17239814020E+02  0.00000000000E+00 0. -1.
         21   -1    0    0  501  502  0.00000000000E+00 -0.00000000000E+00 -0.15298261684E+03  0.15298261684E+03  0.00000000000E+00 0. -1.
        -13    1    1    2    0    0  0.13339256039E+02 -0.41381755568E+01 -0.38876291545E+02  0.41309048124E+02  0.10566000000E+00 0.  1.
         13    1    1    2    0    0 -0.25715670398E+02  0.12498293170E+01  0.50252521094E+01  0.26232081506E+02  0.10566000000E+00 0. -1.
         -4    1    1    2    0  502  0.12376414360E+02  0.28883462398E+01 -0.10189176339E+03  0.10268130123E+03  0.00000000000E+00 0. -1.
</event>
<event>
 5    1  0.4419198E-005  0.4608002E+03  0.7818608E-02  0.9663366E-01
         -4   -1    0    0    0  501 -0.00000000000E+00  0.00000000000E+00  0.83774437714E+03  0.83774437714E+03  0.00000000000E+00 0. -1.
         21   -1    0    0  501  502  0.00000000000E+00 -0.00000000000E+00 -0.60965185743E+03  0.60965185743E+03  0.00000000000E+00 0. -1.
        -13    1    1    2    0    0  0.92597614181E+02  0.31564527376E+03  0.19321085837E+03  0.38149273120E+03  0.10566000000E+00 0.  1.
         13    1    1    2    0    0  0.22605466689E+03  0.13338090030E+03  0.34537234005E+03  0.43378939754E+03  0.10566000000E+00 0. -1.
         -4    1    1    2    0  502 -0.31865228107E+03 -0.44902617407E+03 -0.31049067871E+03  0.63211410583E+03  0.00000000000E+00 0. -1.
</event>
<event>
 5    1  0.4419198E-005  0.4589682E+02  0.7818608E-02  0.1309461E+00
         21   -1    0    0  501  502  0.00000000000E+00  0.00000000000E+00  0.19857147621E+02  0.19857147621E+02  0.00000000000E+00 0. -1.
          4   -1    0    0  502    0 -0.00000000000E+00 -0.00000000000E+00 -0.22572966495E+03  0.22572966495E+03  0.00000000000E+00 0.  1.
        -13    1    1    2    0    0 -0.21611765934E+02  0.56130149396E+02 -0.13622150132E+03  0.14890926997E+03  0.10566000000E+00 0.  1.
         13    1    1    2    0    0  0.15384720977E+02 -0.31700034569E+02 -0.60197969672E+02  0.69752337221E+02  0.10566000000E+00 0. -1.
          4    1    1    2  501    0  0.62270449565E+01 -0.24430114827E+02 -0.94530463341E+01  0.26925205373E+02  0.00000000000E+00 0.  1.
</event>
<event>
 5    1  0.4419198E-005  0.5302268E+03  0.7818608E-02  0.9414073E-01
         -4   -1    0    0    0  501 -0.00000000000E+00  0.00000000000E+00  0.24820125198E+04  0.24820125198E+04  0.00000000000E+00 0. -1.
         21   -1    0    0  501  502  0.00000000000E+00 -0.00000000000E+00 -0.29813176986E+03  0.29813176986E+03  0.00000000000E+00 0. -1.
        -13    1    1    2    0    0 -0.49113567165E+03 -0.55362444038E+02  0.12025046942E+04  0.13001141484E+04  0.10566000000E+00 0.  1.
         13    1    1    2    0    0  0.62239577892E+03 -0.29028981199E+03  0.83801635626E+03  0.10834740906E+04  0.10566000000E+00 0. -1.
         -4    1    1    2    0  502 -0.13126010727E+03  0.34565225603E+03  0.14335969952E+03  0.39655605065E+03  0.00000000000E+00 0. -1.
</event>
<event>
 5    1  0.4419198E-005  0.3207220E+03  0.7818608E-02  0.9991007E-01
         21   -1    0    0  501  502  0.00000000000E+00  0.00000000000E+00  0.26073635314E+03  0.26073635314E+03  0.00000000000E+00 0. -1.
          4   -1    0    0  502    0 -0.00000000000E+00 -0.00000000000E+00 -0.51296495836E+03  0.51296495836E+03  0.00000000000E+00 0.  1.
        -13    1    1    2    0    0  0.18982544543E+03  0.27107080700E+03 -0.20314617514E+03  0.38830588687E+03  0.10566000000E+00 0.  1.
         13    1    1    2    0    0 -0.21704591492E+03 -0.22128821646E+03 -0.80896626448E+02  0.32034618659E+03  0.10566000000E+00 0. -1.
          4    1    1    2  501    0  0.27220469489E+02 -0.49782590535E+02  0.31814196373E+02  0.65049238047E+02  0.00000000000E+00 0.  1.
</event>
<event>
 5    1  0.4419198E-005  0.5034267E+03  0.7818608E-02  0.9989433E-01
         21   -1    0    0  501  502  0.00000000000E+00  0.00000000000E+00  0.11482967747E+03  0.11482967747E+03  0.00000000000E+00 0.  1.
          4   -1    0    0  502    0 -0.00000000000E+00 -0.00000000000E+00 -0.27095347143E+04  0.27095347143E+04  0.00000000000E+00 0.  1.
        -13    1    1    2    0    0  0.45223512968E+03  0.29683551266E+03 -0.11692004726E+04  0.12882770239E+04  0.10566000000E+00 0.  1.
         13    1    1    2    0    0 -0.79923786681E+02 -0.23682045812E+02 -0.88450466858E+02  0.12154072249E+03  0.10566000000E+00 0. -1.
          4    1    1    2  501    0 -0.37231134300E+03 -0.27315346685E+03 -0.13370540973E+04  0.14145466453E+04  0.00000000000E+00 0.  1.
</event>
<event>
 5    1  0.4419198E-005  0.5035639E+03  0.7818608E-02  0.9701988E-01
         21   -1    0    0  501  502  0.00000000000E+00  0.00000000000E+00  0.15165977348E+04  0.15165977348E+04  0.00000000000E+00 0. -1.
         -4   -1    0    0    0  501 -0.00000000000E+00 -0.00000000000E+00 -0.40745076730E+03  0.40745076730E+03  0.00000000000E+00 0. -1.
        -13    1    1    2    0    0 -0.19288454272E+03  0.10628413168E+03 -0.17030629687E+03  0.27839721512E+03  0.10566000000E+00 0.  1.
         13    1    1    2    0    0  0.10585876367E+03  0.44561646571E+03  0.42553199019E+03  0.62518605087E+03  0.10566000000E+00 0. -1.
         -4    1    1    2    0  502  0.87025779052E+02 -0.55190059739E+03  0.85392127417E+03  0.10204652361E+04  0.00000000000E+00 0. -1.
</event>
<event>
 5    1  0.4419198E-005  0.4927980E+03  0.7818608E-02  0.9883095E-01
         -4   -1    0    0    0  501 -0.00000000000E+00  0.00000000000E+00  0.88986162065E+03  0.88986162065E+03  0.00000000000E+00 0. -1.
         21   -1    0    0  501  502  0.00000000000E+00 -0.00000000000E+00 -0.39383196382E+03  0.39383196382E+03  0.00000000000E+00 0. -1.
        -13    1    1    2    0    0  0.12638410956E+03 -0.55375312610E+01 -0.60815570280E+02  0.14036435500E+03  0.10566000000E+00 0.  1.
         13    1    1    2    0    0 -0.54954641536E+03  0.14761448713E+02  0.18532144385E+03  0.58014068269E+03  0.10566000000E+00 0. -1.
         -4    1    1    2    0  502  0.42316230579E+03 -0.92239174516E+01  0.37152378326E+03  0.56318854678E+03  0.00000000000E+00 0. -1.
</event>
<event>
 5    1  0.4419198E-005  0.3788522E+03  0.7818608E-02  0.1011436E+00
         -4   -1    0    0    0  501 -0.00000000000E+00  0.00000000000E+00  0.48076158110E+03  0.48076158110E+03  0.00000000000E+00 0. -1.
         21   -1    0    0  501  502  0.00000000000E+00 -0.00000000000E+00 -0.73318626185E+03  0.73318626185E+03  0.00000000000E+00 0. -1.
        -13    1    1    2    0    0 -0.81528082489E+02  0.10180299992E+03  0.58382054654E+02  0.14289560699E+03  0.10566000000E+00 0.  1.
         13    1    1    2    0    0  0.41021731235E+03  0.77570764151E+02  0.17922626316E+03  0.45433196165E+03  0.10566000000E+00 0. -1.
         -4    1    1    2    0  502 -0.32868922986E+03 -0.17937376407E+03 -0.49003299857E+03  0.61672027431E+03  0.00000000000E+00 0. -1.
</event>
<event>
 5    1  0.4419198E-005  0.4976505E+03  0.7818608E-02  0.9585624E-01
         21   -1    0    0  501  502  0.00000000000E+00  0.00000000000E+00  0.45302417774E+03  0.45302417774E+03  0.00000000000E+00 0.  1.
          4   -1    0    0  502    0 -0.00000000000E+00 -0.00000000000E+00 -0.11476560765E+04  0.11476560765E+04  0.00000000000E+00 0.  1.
        -13    1    1    2    0    0  0.47230683111E+03  0.30926506103E+03 -0.33138005562E+03  0.65462307713E+03  0.10566000000E+00 0.  1.
         13    1    1    2    0    0 -0.30964358106E+03  0.14951811389E+03 -0.88930238777E+01  0.34396789197E+03  0.10566000000E+00 0. -1.
          4    1    1    2  501    0 -0.16266325006E+03 -0.45878317492E+03 -0.35435881929E+03  0.60208928517E+03  0.00000000000E+00 0.  1.
</event>
<event>
 5    1  0.4419198E-005  0.9257215E+03  0.7818608E-02  0.8847698E-01
          4   -1    0    0  502    0 -0.00000000000E+00  0.00000000000E+00  0.18724165868E+04  0.18724165868E+04  0.00000000000E+00 0.  1.
         21   -1    0    0  501  502  0.00000000000E+00 -0.00000000000E+00 -0.74372188816E+03  0.74372188816E+03  0.00000000000E+00 0. -1.
        -13    1    1    2    0    0  0.43347938614E+03 -0.82745593613E+03  0.11449513624E+04  0.14776675329E+04  0.10566000000E+00 0.  1.
         13    1    1    2    0    0 -0.43301413300E+03  0.79722694504E+03  0.19258806855E+03  0.92744930675E+03  0.10566000000E+00 0. -1.
          4    1    1    2  501    0 -0.46525314230E+00  0.30228991083E+02 -0.20884473229E+03  0.21102163531E+03  0.00000000000E+00 0.  1.
</event>
<event>
 5    1  0.4419198E-005  0.5417695E+02  0.7818608E-02  0.1275657E+00
         -4   -1    0    0    0  501 -0.00000000000E+00  0.00000000000E+00  0.29147775550E+03  0.29147775550E+03  0.00000000000E+00 0. -1.
         21   -1    0    0  501  502  0.00000000000E+00 -0.00000000000E+00 -0.10827614793E+03  0.10827614793E+03  0.00000000000E+00 0.  1.
        -13    1    1    2    0    0 -0.49642810309E+02 -0.76170390365E+01 -0.88621889662E+02  0.10186401912E+03  0.10566000000E+00 0.  1.
         13    1    1    2    0    0  0.52523126916E+02 -0.14198080073E+02  0.27042168735E+03  0.27584083181E+03  0.10566000000E+00 0. -1.
         -4    1    1    2    0  502 -0.28803166064E+01  0.21815119110E+02  0.14018098758E+01  0.22049052507E+02  0.00000000000E+00 0. -1.
</event>
<event>
 5    1  0.4419198E-005  0.4692822E+03  0.7818608E-02  0.9752014E-01
         21   -1    0    0  501  502  0.00000000000E+00  0.00000000000E+00  0.47516540007E+03  0.47516540007E+03  0.00000000000E+00 0. -1.
         -4   -1    0    0    0  501 -0.00000000000E+00 -0.00000000000E+00 -0.89803794917E+03  0.89803794917E+03  0.00000000000E+00 0. -1.
        -13    1    1    2    0    0  0.16307973729E+03  0.16049726910E+03 -0.25569678163E+03  0.34312567582E+03  0.10566000000E+00 0.  1.
         13    1    1    2    0    0  0.37839257195E+03 -0.23337116608E+03  0.38631478549E+02  0.44624594336E+03  0.10566000000E+00 0. -1.
         -4    1    1    2    0  502 -0.54147230923E+03  0.72873896983E+02 -0.20580724601E+03  0.58383173007E+03  0.00000000000E+00 0. -1.
</event>
<event>
 5    1  0.4419198E-005  0.4472975E+03  0.7818608E-02  0.9760044E-01
         21   -1    0    0  501  502  0.00000000000E+00  0.00000000000E+00  0.44488375429E+03  0.44488375429E+03  0.00000000000E+00 0.  1.
          4   -1    0    0  502    0 -0.00000000000E+00 -0.00000000000E+00 -0.94700113157E+03  0.94700113157E+03  0.00000000000E+00 0.  1.
        -13    1    1    2    0    0 -0.34471718157E+03 -0.17365173517E+03 -0.40942069654E+02  0.38815090445E+03  0.10566000000E+00 0.  1.
         13    1    1    2    0    0 -0.25620242615E+03  0.20573475806E+02 -0.56206177926E+02  0.26310092488E+03  0.10566000000E+00 0. -1.
          4    1    1    2  501    0  0.60091960771E+03  0.15307825936E+03 -0.40496912969E+03  0.74063305653E+03  0.00000000000E+00 0.  1.
</event>
<event>
 5    1  0.4419198E-005  0.3237047E+03  0.7818608E-02  0.9979743E-01
         -4   -1    0    0    0  501 -0.00000000000E+00  0.00000000000E+00  0.21222523704E+04  0.21222523704E+04  0.00000000000E+00 0. -1.
         21   -1    0    0  501  502  0.00000000000E+00 -0.00000000000E+00 -0.38318243059E+03  0.38318243059E+03  0.00000000000E+00 0. -1.
        -13    1    1    2    0    0 -0.30053274413E+03 -0.14300571351E+03  0.13604317769E+04  0.14005517467E+04  0.10566000000E+00 0.  1.
         13    1    1    2    0    0  0.10632821704E+03  0.38377948092E+03  0.60308089726E+03  0.72270253875E+03  0.10566000000E+00 0. -1.
         -4    1    1    2    0  502  0.19420452710E+03 -0.24077376741E+03 -0.22444273439E+03  0.38218051551E+03  0.00000000000E+00 0. -1.
</event>
<event>
 5    1  0.4419198E-005  0.5990923E+02  0.7818608E-02  0.1255992E+00
          4   -1    0    0  502    0 -0.00000000000E+00  0.00000000000E+00  0.20111937874E+03  0.20111937874E+03  0.00000000000E+00 0.  1.
         21   -1    0    0  501  502  0.00000000000E+00 -0.00000000000E+00 -0.27207407889E+03  0.27207407889E+03  0.00000000000E+00 0.  1.
        -13    1    1    2    0    0 -0.28420587543E+02 -0.52964006467E+02  0.19113516869E+03  0.20036361859E+03  0.10566000000E+00 0.  1.
         13    1    1    2    0    0  0.18573942786E+02  0.51040524572E+02 -0.13753579556E+03  0.14787235280E+03  0.10566000000E+00 0. -1.
          4    1    1    2  501    0  0.98466447574E+01  0.19234818951E+01 -0.12455407329E+03  0.12495748624E+03  0.00000000000E+00 0.  1.
</event>
<event>
 5    1  0.4419198E-005  0.4868826E+03  0.7818608E-02  0.9934208E-01
          4   -1    0    0  502    0 -0.00000000000E+00  0.00000000000E+00  0.20640686945E+03  0.20640686945E+03  0.00000000000E+00 0.  1.
         21   -1    0    0  501  502  0.00000000000E+00 -0.00000000000E+00 -0.18132898331E+04  0.18132898331E+04  0.00000000000E+00 0.  1.
        -13    1    1    2    0    0  0.22525056933E+03  0.49909149591E+03 -0.76459268452E+03  0.94044251534E+03  0.10566000000E+00 0.  1.
         13    1    1    2    0    0 -0.83718398922E+02 -0.72257813965E+02  0.14587001708E+02  0.11154709221E+03  0.10566000000E+00 0. -1.
          4    1    1    2  501    0 -0.14153217041E+03 -0.42683368195E+03 -0.85687728086E+03  0.96770709503E+03  0.00000000000E+00 0.  1.
</event>
<event>
 5    1  0.4419198E-005  0.4865156E+03  0.7818608E-02  0.9907982E-01
         -4   -1    0    0    0  501 -0.00000000000E+00  0.00000000000E+00  0.61055819340E+03  0.61055819340E+03  0.00000000000E+00 0. -1.
         21   -1    0    0  501  502  0.00000000000E+00 -0.00000000000E+00 -0.53348514965E+03  0.53348514965E+03  0.00000000000E+00 0. -1.
        -13    1    1    2    0    0  0.12081117259E+01  0.12095199663E+03  0.95528814663E+02  0.15413179626E+03  0.10566000000E+00 0.  1.
         13    1    1    2    0    0 -0.44296242152E+03 -0.25452214396E+03 -0.10184686131E+03  0.52093187939E+03  0.10566000000E+00 0. -1.
         -4    1    1    2    0  502  0.44175430979E+03  0.13357014733E+03  0.83391090393E+02  0.46897966740E+03  0.00000000000E+00 0. -1.
</event>
<event>
 5    1  0.4419198E-005  0.2061648E+03  0.7818608E-02  0.1106765E+00
         21   -1    0    0  501  502  0.00000000000E+00  0.00000000000E+00  0.17378000548E+03  0.17378000548E+03  0.00000000000E+00 0. -1.
         -4   -1    0    0    0  501 -0.00000000000E+00 -0.00000000000E+00 -0.15495982741E+04  0.15495982741E+04  0.00000000000E+00 0. -1.
        -13    1    1    2    0    0 -0.34948991402E+01  0.49499101577E+02 -0.15638037482E+03  0.16406464631E+03  0.10566000000E+00 0.  1.
         13    1    1    2    0    0 -0.14269565848E+03 -0.19269016816E+03 -0.13127073445E+04  0.13344257699E+04  0.10566000000E+00 0. -1.
         -4    1    1    2    0  502  0.14619055762E+03  0.14319106658E+03  0.93269450659E+02  0.22488786342E+03  0.00000000000E+00 0. -1.
</event>
<event>
 5    1  0.4419198E-005  0.5099374E+03  0.7818608E-02  0.9763018E-01
         -4   -1    0    0    0  501 -0.00000000000E+00  0.00000000000E+00  0.39204972713E+03  0.39204972713E+03  0.00000000000E+00 0. -1.
         21   -1    0    0  501  502  0.00000000000E+00 -0.00000000000E+00 -0.10668134874E+04  0.10668134874E+04  0.00000000000E+00 0. -1.
        -13    1    1    2    0    0  0.69108998925E+02  0.15717955458E+03  0.68894451946E+02  0.18500789925E+03  0.10566000000E+00 0.  1.
         13    1    1    2    0    0 -0.32888230127E+03 -0.49575285806E+03 -0.52928069201E+03  0.79628671121E+03  0.10566000000E+00 0. -1.
         -4    1    1    2    0  502  0.25977330234E+03  0.33857330347E+03 -0.21437752022E+03  0.47756860408E+03  0.00000000000E+00 0. -1.
</event>
<event>
 5    1  0.4419198E-005  0.7322533E+03  0.7818608E-02  0.9077459E-01
          4   -1    0    0  502    0 -0.00000000000E+00  0.00000000000E+00  0.31101615076E+04  0.31101615076E+04  0.00000000000E+00 0.  1.
         21   -1    0    0  501  502  0.00000000000E+00 -0.00000000000E+00 -0.31795361293E+03  0.31795361293E+03  0.00000000000E+00 0.  1.
        -13    1    1    2    0    0  0.74629706765E+03 -0.31061163908E+03  0.12013501605E+04  0.14479921004E+04  0.10566000000E+00 0.  1.
         13    1    1    2    0    0 -0.71209822216E+03 -0.60536890719E+02  0.13744073543E+04  0.15491107707E+04  0.10566000000E+00 0. -1.
          4    1    1    2  501    0 -0.34198845492E+02  0.37114852980E+03  0.21645037983E+03  0.43101224940E+03  0.00000000000E+00 0.  1.
</event>
<event>
 5    1  0.4419198E-005  0.4571477E+03  0.7818608E-02  0.9741528E-01
         21   -1    0    0  501  502  0.00000000000E+00  0.00000000000E+00  0.32583905261E+03  0.32583905261E+03  0.00000000000E+00 0.  1.
          4   -1    0    0  502    0 -0.00000000000E+00 -0.00000000000E+00 -0.13729229750E+04  0.13729229750E+04  0.00000000000E+00 0.  1.
        -13    1    1    2    0    0  0.55536548485E+03  0.28884840841E+03 -0.48104478537E+03  0.78947344572E+03  0.10566000000E+00 0.  1.
         13    1    1    2    0    0 -0.18460417297E+03 -0.17828278290E+03 -0.42695810197E+03  0.49815327296E+03  0.10566000000E+00 0. -1.
          4    1    1    2  501    0 -0.37076131188E+03 -0.11056562551E+03 -0.13908103504E+03  0.41113530892E+03  0.00000000000E+00 0.  1.
</event>
<event>
 5    1  0.4419198E-005  0.3480945E+03  0.7818608E-02  0.9892245E-01
         -4   -1    0    0    0  501 -0.00000000000E+00  0.00000000000E+00  0.37777801441E+03  0.37777801441E+03  0.00000000000E+00 0. -1.
         21   -1    0    0  501  502  0.00000000000E+00 -0.00000000000E+00 -0.10910033453E+04  0.10910033453E+04  0.00000000000E+00 0. -1.
        -13    1    1    2    0    0 -0.31193498506E+03 -0.51108918881E+02  0.48364682644E+02  0.31977290408E+03  0.10566000000E+00 0.  1.
         13    1    1    2    0    0  0.52700984095E+03 -0.15946620143E+03 -0.56834051272E+03  0.79131522886E+03  0.10566000000E+00 0. -1.
         -4    1    1    2    0  502 -0.21507485589E+03  0.21057512031E+03 -0.19324950086E+03  0.35769322682E+03  0.00000000000E+00 0. -1.
</event>
<event>
 5    1  0.4419198E-005  0.2342145E+03  0.7818608E-02  0.1038914E+00
         21   -1    0    0  501  502  0.00000000000E+00  0.00000000000E+00  0.42113865063E+03  0.42113865063E+03  0.00000000000E+00 0. -1.
         -4   -1    0    0    0  501 -0.00000000000E+00 -0.00000000000E+00 -0.13022919699E+04  0.13022919699E+04  0.00000000000E+00 0. -1.
        -13    1    1    2    0    0  0.65726671843E+02 -0.19146452785E+03 -0.70096643907E+03  0.72961128053E+03  0.10566000000E+00 0.  1.
         13    1    1    2    0    0 -0.66897068174E+02  0.37232851238E+03 -0.49965506295E+03  0.62670482044E+03  0.10566000000E+00 0. -1.
         -4    1    1    2    0  502  0.11703963305E+01 -0.18086398453E+03  0.31946818271E+03  0.36711451959E+03  0.00000000000E+00 0. -1.
</event>
<event>
 5    1  0.4419198E-005  0.2471920E+02  0.7818608E-02  0.1453141E+00
         -4   -1    0    0    0  501 -0.00000000000E+00  0.00000000000E+00  0.10887343832E+03  0.10887343832E+03  0.00000000000E+00 0. -1.
         21   -1    0    0  501  502  0.00000000000E+00 -0.00000000000E+00 -0.34101209570E+02  0.34101209570E+02  0.00000000000E+00 0.  1.
        -13    1    1    2    0    0  0.43977297066E+01  0.15209810597E+02 -0.20030100942E+02  0.25532224203E+02  0.10566000000E+00 0.  1.
         13    1    1    2    0    0  0.59012969559E+01 -0.24792467049E+02  0.99421441243E+02  0.10263588978E+03  0.10566000000E+00 0. -1.
         -4    1    1    2    0  502 -0.10299026662E+02  0.95826564527E+01 -0.46191115486E+01  0.14806533908E+02  0.00000000000E+00 0. -1.
</event>
<event>
 5    1  0.4419198E-005  0.4836032E+03  0.7818608E-02  0.9956162E-01
         -4   -1    0    0    0  501 -0.00000000000E+00  0.00000000000E+00  0.72523472791E+03  0.72523472791E+03  0.00000000000E+00 0. -1.
         21   -1    0    0  501  502  0.00000000000E+00 -0.00000000000E+00 -0.45217966209E+03  0.45217966209E+03  0.00000000000E+00 0. -1.
        -13    1    1    2    0    0 -0.11700988197E+00  0.10493356563E+03  0.12279702041E+03  0.16152456864E+03  0.10566000000E+00 0.  1.
         13    1    1    2    0    0  0.42222555672E+03 -0.27516150972E+03 -0.72500266342E+02  0.50916065928E+03  0.10566000000E+00 0. -1.
         -4    1    1    2    0  502 -0.42210854683E+03  0.17022794408E+03  0.22275831175E+03  0.50672916209E+03  0.00000000000E+00 0. -1.
</event>
<event>
 5    1  0.4419198E-005  0.7668828E+02  0.7818608E-02  0.1210198E+00
         21   -1    0    0  501  502  0.00000000000E+00  0.00000000000E+00  0.15532729222E+03  0.15532729222E+03  0.00000000000E+00 0.  1.
         -4   -1    0    0    0  501 -0.00000000000E+00 -0.00000000000E+00 -0.14540476786E+03  0.14540476786E+03  0.00000000000E+00 0. -1.
        -13    1    1    2    0    0 -0.37001457247E+01  0.89362856971E+02  0.11412743558E+03  0.14499825517E+03  0.10566000000E+00 0.  1.
         13    1    1    2    0    0  0.13605955873E+02 -0.74392121856E+02 -0.11282007504E+03  0.13582227478E+03  0.10566000000E+00 0. -1.
         -4    1    1    2    0  502 -0.99058101486E+01 -0.14970735115E+02  0.86151638233E+01  0.19911530134E+02  0.00000000000E+00 0. -1.
</event>
<event>
 5    1  0.4419198E-005  0.6982770E+03  0.7818608E-02  0.9125481E-01
         21   -1    0    0  501  502  0.00000000000E+00  0.00000000000E+00  0.35110054603E+03  0.35110054603E+03  0.00000000000E+00 0. -1.
         -4   -1    0    0    0  501 -0.00000000000E+00 -0.00000000000E+00 -0.24704813163E+04  0.24704813163E+04  0.00000000000E+00 0. -1.
        -13    1    1    2    0    0 -0.21809026863E+03 -0.60204098946E+03 -0.52316281243E+03  0.82687124616E+03  0.10566000000E+00 0.  1.
         13    1    1    2    0    0 -0.14277804060E+03  0.78058249488E+03 -0.10693672128E+04  0.13316308975E+04  0.10566000000E+00 0. -1.
         -4    1    1    2    0  502  0.36086830922E+03 -0.17854150543E+03 -0.52685074504E+03  0.66307971867E+03  0.00000000000E+00 0. -1.
</event>
<event>
 5    1  0.4419198E-005  0.8849543E+03  0.7818608E-02  0.8890915E-01
         21   -1    0    0  501  502  0.00000000000E+00  0.00000000000E+00  0.58919094544E+03  0.58919094544E+03  0.00000000000E+00 0.  1.
         -4   -1    0    0    0  501 -0.00000000000E+00 -0.00000000000E+00 -0.30950252316E+04  0.30950252316E+04  0.00000000000E+00 0. -1.
        -13    1    1    2    0    0  0.85973060165E+03  0.23839809343E+03 -0.21196872014E+04  0.22997922083E+04  0.10566000000E+00 0.  1.
         13    1    1    2    0    0 -0.70172541350E+03 -0.60674241455E+03 -0.24467404410E+03  0.95938538273E+03  0.10566000000E+00 0. -1.
         -4    1    1    2    0  502 -0.15800518814E+03  0.36834432112E+03 -0.14147304066E+03  0.42503858603E+03  0.00000000000E+00 0. -1.
</event>
<event>
 5    1  0.4419198E-005  0.1695285E+02  0.7818608E-02  0.1575690E+00
          4   -1    0    0  502    0 -0.00000000000E+00  0.00000000000E+00  0.46908984231E+01  0.46908984231E+01  0.00000000000E+00 0.  1.
         21   -1    0    0  501  502  0.00000000000E+00 -0.00000000000E+00 -0.23905362709E+03  0.23905362709E+03  0.00000000000E+00 0. -1.
        -13    1    1    2    0    0 -0.46485963094E+01 -0.10464338581E+02 -0.21184377097E+02  0.24081130094E+02  0.10566000000E+00 0.  1.
         13    1    1    2    0    0  0.18009537095E+01  0.29423410853E+02 -0.82969879372E+02  0.88051079423E+02  0.10566000000E+00 0. -1.
          4    1    1    2  501    0  0.28476425998E+01 -0.18959072273E+02 -0.13020847220E+03  0.13161231600E+03  0.00000000000E+00 0.  1.
</event>
<event>
 5    1  0.4419198E-005  0.4521588E+03  0.7818608E-02  0.9589486E-01
         21   -1    0    0  501  502  0.00000000000E+00  0.00000000000E+00  0.13744056677E+04  0.13744056677E+04  0.00000000000E+00 0.  1.
          4   -1    0    0  502    0 -0.00000000000E+00 -0.00000000000E+00 -0.64472524980E+03  0.64472524980E+03  0.00000000000E+00 0.  1.
        -13    1    1    2    0    0 -0.16727771283E+03 -0.35833302637E+03 -0.19158371460E+03  0.43941861802E+03  0.10566000000E+00 0.  1.
         13    1    1    2    0    0  0.49423976196E+03  0.42596493918E+03  0.59084728169E+02  0.65514127330E+03  0.10566000000E+00 0. -1.
          4    1    1    2  501    0 -0.32696204913E+03 -0.67631912815E+02  0.86217940433E+03  0.92457102618E+03  0.00000000000E+00 0.  1.
</event>
<event>
 5    1  0.4419198E-005  0.4980033E+03  0.7818608E-02  0.9981813E-01
         21   -1    0    0  501  502  0.00000000000E+00  0.00000000000E+00  0.14419734141E+04  0.14419734141E+04  0.00000000000E+00 0. -1.
         -4   -1    0    0    0  501 -0.00000000000E+00 -0.00000000000E+00 -0.27881568502E+03  0.27881568502E+03  0.00000000000E+00 0. -1.
        -13    1    1    2    0    0  0.32864303383E+02 -0.81951954807E+02 -0.73174554644E+02  0.11467655360E+03  0.10566000000E+00 0.  1.
         13    1    1    2    0    0 -0.17222168295E+03  0.50368651333E+03  0.91255773384E+03  0.10564667721E+04  0.10566000000E+00 0. -1.
         -4    1    1    2    0  502  0.13935737957E+03 -0.42173455852E+03  0.32377454987E+03  0.54964577342E+03  0.00000000000E+00 0. -1.
</event>
<event>
 5    1  0.4419198E-005  0.1354202E+03  0.7818608E-02  0.1141328E+00
         21   -1    0    0  501  502  0.00000000000E+00  0.00000000000E+00  0.50555325186E+02  0.50555325186E+02  0.00000000000E+00 0. -1.
         -4   -1    0    0    0  501 -0.00000000000E+00 -0.00000000000E+00 -0.62805983065E+03  0.62805983065E+03  0.00000000000E+00 0. -1.
        -13    1    1    2    0    0 -0.40051240565E+02  0.59112870855E+02 -0.16203702044E+03  0.17707185132E+03  0.10566000000E+00 0.  1.
         13    1    1    2    0    0 -0.26463875264E+02 -0.15494304480E+03 -0.18147211183E+03  0.24008294892E+03  0.10566000000E+00 0. -1.
         -4    1    1    2    0  502  0.66515115829E+02  0.95830173949E+02 -0.23399537319E+03  0.26146035559E+03  0.00000000000E+00 0. -1.
</event>
<event>
 5    1  0.4419198E-005  0.4670521E+03  0.7818608E-02  0.1004948E+00
         21   -1    0    0  501  502  0.00000000000E+00  0.00000000000E+00  0.72342041947E+03  0.72342041947E+03  0.00000000000E+00 0. -1.
         -4   -1    0    0    0  501 -0.00000000000E+00 -0.00000000000E+00 -0.71990828050E+03  0.71990828050E+03  0.00000000000E+00 0. -1.
        -13    1    1    2    0    0 -0.34423416371E+02  0.78601420686E+02 -0.37646516683E+03  0.38612069089E+03  0.10566000000E+00 0.  1.
         13    1    1    2    0    0 -0.36240155495E+03 -0.31598183531E+03  0.38440324432E+02  0.48234539179E+03  0.10566000000E+00 0. -1.
         -4    1    1    2    0  502  0.39682497132E+03  0.23738041462E+03  0.34153698137E+03  0.57486261729E+03  0.00000000000E+00 0. -1.
</event>
<event>
 5    1  0.4419198E-005  0.6328518E+03  0.7818608E-02  0.9226529E-01
          4   -1    0    0  502    0 -0.00000000000E+00  0.00000000000E+00  0.20650475453E+04  0.20650475453E+04  0.00000000000E+00 0.  1.
         21   -1    0    0  501  502  0.00000000000E+00 -0.00000000000E+00 -0.39163795946E+03  0.39163795946E+03  0.00000000000E+00 0.  1.
        -13    1    1    2    0    0  0.39652313253E+02 -0.67931751724E+03  0.23410477547E+03  0.71961771256E+03  0.10566000000E+00 0.  1.
         13    1    1    2    0    0  0.19353372407E+03  0.59250607868E+03  0.61347970492E+03  0.87457196109E+03  0.10566000000E+00 0. -1.
          4    1    1    2  501    0 -0.23318603733E+03  0.86811438561E+02  0.82582510542E+03  0.86249583106E+03  0.00000000000E+00 0.  1.
</event>
<event>
 5    1  0.4419198E-005  0.3902626E+03  0.7818608E-02  0.9838271E-01
         -4   -1    0    0    0  501 -0.00000000000E+00  0.00000000000E+00  0.10691108946E+04  0.10691108946E+04  0.00000000000E+00 0. -1.
         21   -1    0    0  501  502  0.00000000000E+00 -0.00000000000E+00 -0.39542090163E+03  0.39542090163E+03  0.00000000000E+00 0. -1.
        -13    1    1    2    0    0  0.14336184340E+03  0.25927922954E+03 -0.71566172447E+01  0.29636053271E+03  0.10566000000E+00 0.  1.
         13    1    1    2    0    0 -0.47436955853E+03 -0.61252979274E+02  0.61137213030E+03  0.77624371070E+03  0.10566000000E+00 0. -1.
         -4    1    1    2    0  502  0.33100771513E+03 -0.19802625027E+03  0.69474479864E+02  0.39192755277E+03  0.00000000000E+00 0. -1.
</event>
<event>
 5    1  0.4419198E-005  0.2052005E+03  0.7818608E-02  0.1056628E+00
         -4   -1    0    0    0  501 -0.00000000000E+00  0.00000000000E+00  0.12015680776E+04  0.12015680776E+04  0.00000000000E+00 0. -1.
         21   -1    0    0  501  502  0.00000000000E+00 -0.00000000000E+00 -0.43198154825E+02  0.43198154825E+02  0.00000000000E+00 0.  1.
        -13    1    1    2    0    0 -0.20386980076E+03  0.35225080418E+02  0.40898843103E+03  0.45833966644E+03  0.10566000000E+00 0.  1.
         13    1    1    2    0    0  0.20328279541E+03 -0.21494048069E+02  0.74415866782E+03  0.77172405889E+03  0.10566000000E+00 0. -1.
         -4    1    1    2    0  502  0.58700534921E+00 -0.13731032349E+02  0.52228238999E+01  0.14702507070E+02  0.00000000000E+00 0. -1.
</event>
<event>
 5    1  0.4419198E-005  0.1818566E+03  0.7818608E-02  0.1073340E+00
         21   -1    0    0  501  502  0.00000000000E+00  0.00000000000E+00  0.37894960014E+03  0.37894960014E+03  0.00000000000E+00 0. -1.
          4   -1    0    0  502    0 -0.00000000000E+00 -0.00000000000E+00 -0.20445743259E+03  0.20445743259E+03  0.00000000000E+00 0.  1.
        -13    1    1    2    0    0  0.10818390836E+03  0.14387344887E+03 -0.11597571454E+03  0.21413478195E+03  0.10566000000E+00 0.  1.
         13    1    1    2    0    0 -0.10646465896E+03 -0.15846437472E+03  0.19577908009E+03  0.27345043615E+03  0.10566000000E+00 0. -1.
          4    1    1    2  501    0 -0.17192493945E+01  0.14590925858E+02  0.94688801996E+02  0.95821814632E+02  0.00000000000E+00 0.  1.
</event>
<event>
 5    1  0.4419198E-005  0.4613708E+03  0.7818608E-02  0.9596774E-01
          4   -1    0    0  502    0 -0.00000000000E+00  0.00000000000E+00  0.14850048696E+04  0.14850048696E+04  0.00000000000E+00 0.  1.
         21   -1    0    0  501  502  0.00000000000E+00 -0.00000000000E+00 -0.42031161448E+03  0.42031161448E+03  0.00000000000E+00 0.  1.
        -13    1    1    2    0    0  0.38088377357E+03 -0.21430096006E+03  0.62550973660E+03  0.76305949453E+03  0.10566000000E+00 0.  1.
         13    1    1    2    0    0  0.98138777392E+02  0.40292285638E+03  0.46964713284E+03  0.62653530497E+03  0.10566000000E+00 0. -1.
          4    1    1    2  501    0 -0.47902255096E+03 -0.18862189632E+03 -0.30463614368E+02  0.51572168454E+03  0.00000000000E+00 0.  1.
</event>
<event>
 5    1  0.4419198E-005  0.4669813E+03  0.7818608E-02  0.1003712E+00
         21   -1    0    0  501  502  0.00000000000E+00  0.00000000000E+00  0.19471840214E+03  0.19471840214E+03  0.00000000000E+00 0. -1.
         -4   -1    0    0    0  501 -0.00000000000E+00 -0.00000000000E+00 -0.15074237187E+04  0.15074237187E+04  0.00000000000E+00 0. -1.
        -13    1    1    2    0    0 -0.83187385061E+02 -0.32655777555E+02 -0.11347486846E+03  0.14444063755E+03  0.10566000000E+00 0.  1.
         13    1    1    2    0    0  0.81280766665E+02  0.48801118017E+03 -0.85135615142E+03  0.98466683845E+03  0.10566000000E+00 0. -1.
         -4    1    1    2    0  502  0.19066183965E+01 -0.45535540262E+03 -0.34787429666E+03  0.57303464482E+03  0.00000000000E+00 0. -1.
</event>
<event>
 5    1  0.4419198E-005  0.9499578E+03  0.7818608E-02  0.8823086E-01
          4   -1    0    0  502    0 -0.00000000000E+00  0.00000000000E+00  0.33249854630E+04  0.33249854630E+04  0.00000000000E+00 0.  1.
         21   -1    0    0  501  502  0.00000000000E+00 -0.00000000000E+00 -0.46598105813E+03  0.46598105813E+03  0.00000000000E+00 0.  1.
        -13    1    1    2    0    0  0.16065465767E+03  0.91517073733E+03  0.19034697284E+04  0.21181464575E+04  0.10566000000E+00 0.  1.
         13    1    1    2    0    0 -0.29246449712E+03 -0.94777254256E+03  0.10955019532E+04  0.14778135251E+04  0.10566000000E+00 0. -1.
          4    1    1    2  501    0  0.13180983945E+03  0.32601805223E+02 -0.13996727672E+03  0.19500653844E+03  0.00000000000E+00 0.  1.
</event>
<event>
 5    1  0.4419198E-005  0.3532903E+03  0.7818608E-02  0.1013927E+00
          4   -1    0    0  502    0 -0.00000000000E+00  0.00000000000E+00  0.24425675304E+03  0.24425675304E+03  0.00000000000E+00 0.  1.
         21   -1    0    0  501  502  0.00000000000E+00 -0.00000000000E+00 -0.12118011559E+04  0.12118011559E+04  0.00000000000E+00 0.  1.
        -13    1    1    2    0    0  0.21234808858E+02 -0.22999398318E+03  0.94014909590E+02  0.24937314169E+03  0.10566000000E+00 0.  1.
         13    1    1    2    0    0  0.18108279016E+02 -0.14741535048E+03 -0.11802635133E+03  0.18970879289E+03  0.10566000000E+00 0. -1.
          4    1    1    2  501    0 -0.39343087873E+02  0.37740933366E+03 -0.94353296112E+03  0.10169759744E+04  0.00000000000E+00 0.  1.
</event>
<event>
 5    1  0.4419198E-005  0.7873145E+02  0.7818608E-02  0.1205518E+00
         21   -1    0    0  501  502  0.00000000000E+00  0.00000000000E+00  0.20872233335E+03  0.20872233335E+03  0.00000000000E+00 0.  1.
         -4   -1    0    0    0  501 -0.00000000000E+00 -0.00000000000E+00 -0.35755846867E+03  0.35755846867E+03  0.00000000000E+00 0. -1.
        -13    1    1    2    0    0  0.68777473660E+02  0.70993835834E+01  0.66072622459E+02  0.95636524053E+02  0.10566000000E+00 0.  1.
         13    1    1    2    0    0 -0.78711240275E+02  0.10272979876E+02 -0.33735778324E+03  0.34657074103E+03  0.10566000000E+00 0. -1.
         -4    1    1    2    0  502  0.99337666153E+01 -0.17372363459E+02  0.12244902546E+03  0.12407353693E+03  0.00000000000E+00 0. -1.
</event>
<event>
 5    1  0.4419198E-005  0.4351926E+03  0.7818608E-02  0.9878109E-01
          4   -1    0    0  502    0 -0.00000000000E+00  0.00000000000E+00  0.55670871465E+03  0.55670871465E+03  0.00000000000E+00 0.  1.
         21   -1    0    0  501  502  0.00000000000E+00 -0.00000000000E+00 -0.65582207615E+03  0.65582207615E+03  0.00000000000E+00 0.  1.
        -13    1    1    2    0    0 -0.20674868319E+03  0.49684779362E+03  0.13670211053E+03  0.55523889112E+03  0.10566000000E+00 0.  1.
         13    1    1    2    0    0  0.16156241788E+03 -0.93737335079E+02  0.25524961056E+01  0.18680371854E+03  0.10566000000E+00 0. -1.
          4    1    1    2  501    0  0.45186265302E+02 -0.40311045854E+03 -0.23836796814E+03  0.47048818114E+03  0.00000000000E+00 0.  1.
</event>
<event>
 5    1  0.4419198E-005  0.2754154E+03  0.7818608E-02  0.1018003E+00
         21   -1    0    0  501  502  0.00000000000E+00  0.00000000000E+00  0.20445680537E+03  0.20445680537E+03  0.00000000000E+00 0. -1.
         -4   -1    0    0    0  501 -0.00000000000E+00 -0.00000000000E+00 -0.23369733183E+04  0.23369733183E+04  0.00000000000E+00 0. -1.
        -13    1    1    2    0    0  0.23356015043E+03  0.12059131978E+03 -0.86761245554E+03  0.90655611764E+03  0.10566000000E+00 0.  1.
         13    1    1    2    0    0 -0.30950847307E+03  0.47506825941E+02 -0.13815737269E+04  0.14166151091E+04  0.10566000000E+00 0. -1.
         -4    1    1    2    0  502  0.75948322639E+02 -0.16809814572E+03  0.11666966948E+03  0.21825889692E+03  0.00000000000E+00 0. -1.
</event>
<event>
 5    1  0.4419198E-005  0.5205890E+03  0.7818608E-02  0.9433952E-01
         21   -1    0    0  501  502  0.00000000000E+00  0.00000000000E+00  0.12957321322E+04  0.12957321322E+04  0.00000000000E+00 0.  1.
         -4   -1    0    0    0  501 -0.00000000000E+00 -0.00000000000E+00 -0.38479403439E+03  0.38479403439E+03  0.00000000000E+00 0. -1.
        -13    1    1    2    0    0 -0.29821166534E+03  0.38281370978E+03  0.44693541355E+03  0.65971797671E+03  0.10566000000E+00 0.  1.
         13    1    1    2    0    0  0.33184445895E+03 -0.42247605199E+03 -0.16524422391E+02  0.53747542003E+03  0.10566000000E+00 0. -1.
         -4    1    1    2    0  502 -0.33632793609E+02  0.39662342213E+02  0.48052710665E+03  0.48333276986E+03  0.00000000000E+00 0. -1.
</event>
<event>
 5    1  0.4419198E-005  0.1877033E+03  0.7818608E-02  0.1068909E+00
          4   -1    0    0  502    0 -0.00000000000E+00  0.00000000000E+00  0.46672183458E+03  0.46672183458E+03  0.00000000000E+00 0.  1.
         21   -1    0    0  501  502  0.00000000000E+00 -0.00000000000E+00 -0.60563128739E+03  0.60563128739E+03  0.00000000000E+00 0.  1.
        -13    1    1    2    0    0 -0.59909954468E+02 -0.18171446059E+03  0.37135389245E+03  0.41774761811E+03  0.10566000000E+00 0.  1.
         13    1    1    2    0    0  0.63305444191E+02  0.15978577212E+03 -0.30773735612E+02  0.17460270961E+03  0.10566000000E+00 0. -1.
          4    1    1    2  501    0 -0.33954897233E+01  0.21928688468E+02 -0.47948960965E+03  0.48000279426E+03  0.00000000000E+00 0.  1.
</event>
<event>
 5    1  0.4419198E-005  0.2682087E+03  0.7818608E-02  0.1021366E+00
         21   -1    0    0  501  502  0.00000000000E+00  0.00000000000E+00  0.91606859222E+03  0.91606859222E+03  0.00000000000E+00 0.  1.
         -4   -1    0    0    0  501 -0.00000000000E+00 -0.00000000000E+00 -0.10055615154E+03  0.10055615154E+03  0.00000000000E+00 0. -1.
        -13    1    1    2    0    0  0.54204062512E+02  0.24818046772E+03  0.49017582492E+03  0.55209055005E+03  0.10566000000E+00 0.  1.
         13    1    1    2    0    0 -0.76602314465E+02 -0.26520417494E+03  0.21283538987E+03  0.34856862069E+03  0.10566000000E+00 0. -1.
         -4    1    1    2    0  502  0.22398251953E+02  0.17023707226E+02  0.11250122589E+03  0.11596557302E+03  0.00000000000E+00 0. -1.
</event>
<event>
 5    1  0.4419198E-005  0.1112015E+03  0.7818608E-02  0.1147245E+00
          4   -1    0    0  502    0 -0.00000000000E+00  0.00000000000E+00  0.89930229218E+03  0.89930229218E+03  0.00000000000E+00 0.  1.
         21   -1    0    0  501  502  0.00000000000E+00 -0.00000000000E+00 -0.33236315659E+02  0.33236315659E+02  0.00000000000E+00 0. -1.
        -13    1    1    2    0    0  0.74251677819E+02  0.79695760486E+02  0.62350300329E+03  0.63294607367E+03  0.10566000000E+00 0.  1.
         13    1    1    2    0    0 -0.51161878619E+02 -0.11273521714E+03  0.22236895516E+03  0.25450880218E+03  0.10566000000E+00 0. -1.
          4    1    1    2  501    0 -0.23089799200E+02  0.33039456656E+02  0.20194018067E+02  0.45083731976E+02  0.00000000000E+00 0.  1.
</event>
<event>
 5    1  0.4419198E-005  0.1749740E+03  0.7818608E-02  0.1078793E+00
         -4   -1    0    0    0  501 -0.00000000000E+00  0.00000000000E+00  0.13275255946E+03  0.13275255946E+03  0.00000000000E+00 0. -1.
         21   -1    0    0  501  502  0.00000000000E+00 -0.00000000000E+00 -0.25896807170E+03  0.25896807170E+03  0.00000000000E+00 0.  1.
        -13    1    1    2    0    0 -0.88981843417E+02 -0.14750876553E+03 -0.27027396194E+02  0.17437630479E+03  0.10566000000E+00 0.  1.
         13    1    1    2    0    0  0.10262634992E+03  0.14672670549E+03 -0.87179305012E+02  0.19915103864E+03  0.10566000000E+00 0. -1.
         -4    1    1    2    0  502 -0.13644506505E+02  0.78206003233E+00 -0.12008811037E+02  0.18193287724E+02  0.00000000000E+00 0. -1.
</event>
<event>
 5    1  0.4419198E-005  0.2808191E+02  0.7818608E-02  0.1423193E+00
          4   -1    0    0  502    0 -0.00000000000E+00  0.00000000000E+00  0.89437154813E+02  0.89437154813E+02  0.00000000000E+00 0.  1.
         21   -1    0    0  501  502  0.00000000000E+00 -0.00000000000E+00 -0.48640223398E+02  0.48640223398E+02  0.00000000000E+00 0. -1.
        -13    1    1    2    0    0  0.35383718912E+02 -0.84650910313E+01  0.60327128910E+02  0.70448839428E+02  0.10566000000E+00 0.  1.
         13    1    1    2    0    0 -0.21660036279E+02 -0.16291265533E+02  0.78810274789E+01  0.28225595874E+02  0.10566000000E+00 0. -1.
          4    1    1    2  501    0 -0.13723682633E+02  0.24756356564E+02 -0.27411224974E+02  0.39402942909E+02  0.00000000000E+00 0.  1.
</event>
<event>
 5    1  0.4419198E-005  0.2993043E+03  0.7818608E-02  0.1039218E+00
         21   -1    0    0  501  502  0.00000000000E+00  0.00000000000E+00  0.73743731626E+03  0.73743731626E+03  0.00000000000E+00 0. -1.
         -4   -1    0    0    0  501 -0.00000000000E+00 -0.00000000000E+00 -0.25177434587E+03  0.25177434587E+03  0.00000000000E+00 0. -1.
        -13    1    1    2    0    0 -0.44609139995E+02  0.10186190707E+03  0.30650231052E+03  0.32605137786E+03  0.10566000000E+00 0.  1.
         13    1    1    2    0    0 -0.23718921092E+03 -0.20310641881E+03 -0.37310808853E+01  0.31228972328E+03  0.10566000000E+00 0. -1.
         -4    1    1    2    0  502  0.28179835092E+03  0.10124451174E+03  0.18289174075E+03  0.35087056100E+03  0.00000000000E+00 0. -1.
</event>
<event>
 5    1  0.5875359E-005  0.3622946E+03  0.7818608E-02  0.1033201E+00
         21   -1    0    0  501  502  0.00000000000E+00  0.00000000000E+00  0.14444570117E+03  0.14444570117E+03  0.00000000000E+00 0.  1.
          4   -1    0    0  502    0 -0.00000000000E+00 -0.00000000000E+00 -0.20031428067E+04  0.20031428067E+04  0.00000000000E+00 0.  1.
        -13    1    1    2    0    0 -0.35127022934E+03  0.24602855618E+01 -0.18154547845E+03  0.39541825822E+03  0.10566000000E+00 0.  1.
         13    1    1    2    0    0 -0.69978143588E+02  0.27913770021E+02 -0.15237742203E+03  0.16998532009E+03  0.10566000000E+00 0. -1.
          4    1    1    2  501    0  0.42124837293E+03 -0.30374055583E+02 -0.15247742051E+04  0.15821849296E+04  0.00000000000E+00 0.  1.
</event>
<event>
 5    1  0.4419198E-005  0.5024302E+03  0.7818608E-02  0.9500742E-01
         -4   -1    0    0    0  501 -0.00000000000E+00  0.00000000000E+00  0.68328710911E+03  0.68328710911E+03  0.00000000000E+00 0. -1.
         21   -1    0    0  501  502  0.00000000000E+00 -0.00000000000E+00 -0.14171117002E+04  0.14171117002E+04  0.00000000000E+00 0. -1.
        -13    1    1    2    0    0 -0.45313260405E+03 -0.19915786230E+02  0.33393514993E+03  0.56323928389E+03  0.10566000000E+00 0.  1.
         13    1    1    2    0    0  0.11042826848E+03 -0.47306814722E+03 -0.33625330804E+03  0.59080806758E+03  0.10566000000E+00 0. -1.
         -4    1    1    2    0  502  0.34270433557E+03  0.49298393345E+03 -0.73150643300E+03  0.94635145785E+03  0.00000000000E+00 0. -1.
</event>
<event>
 5    1  0.4435192E-005  0.4042335E+03  0.7818608E-02  0.1001530E+00
         21   -1    0    0  501  502  0.00000000000E+00  0.00000000000E+00  0.39477295163E+03  0.39477295163E+03  0.00000000000E+00 0.  1.
          4   -1    0    0  502    0 -0.00000000000E+00 -0.00000000000E+00 -0.85817366272E+03  0.85817366272E+03  0.00000000000E+00 0.  1.
        -13    1    1    2    0    0 -0.29366150098E+03  0.13353631660E+03 -0.53268403362E+03  0.62275301352E+03  0.10566000000E+00 0.  1.
         13    1    1    2    0    0 -0.31645130478E+02  0.14450943168E+03 -0.90471316868E+02  0.17340547992E+03  0.10566000000E+00 0. -1.
          4    1    1    2  501    0  0.32530663145E+03 -0.27804574827E+03  0.15975463940E+03  0.45678812092E+03  0.00000000000E+00 0.  1.
</event>
<event>
 5    1  0.4419198E-005  0.4290467E+03  0.7818608E-02  0.9648722E-01
         -4   -1    0    0    0  501 -0.00000000000E+00  0.00000000000E+00  0.75317264126E+03  0.75317264126E+03  0.00000000000E+00 0. -1.
         21   -1    0    0  501  502  0.00000000000E+00 -0.00000000000E+00 -0.99082629140E+03  0.99082629140E+03  0.00000000000E+00 0.  1.
        -13    1    1    2    0    0 -0.53011366985E+03  0.20389512987E+03 -0.13253801173E+03  0.58323242594E+03  0.10566000000E+00 0.  1.
         13    1    1    2    0    0  0.15665282001E+03 -0.39914841741E+03  0.34042553720E+03  0.54749349099E+03  0.10566000000E+00 0. -1.
         -4    1    1    2    0  502  0.37346084984E+03  0.19525328753E+03 -0.44554117561E+03  0.61327301573E+03  0.00000000000E+00 0. -1.
</event>
<event>
 5    1  0.4419198E-005  0.4454073E+03  0.7818608E-02  0.9606394E-01
          4   -1    0    0  502    0 -0.00000000000E+00  0.00000000000E+00  0.20366405378E+04  0.20366405378E+04  0.00000000000E+00 0.  1.
         21   -1    0    0  501  502  0.00000000000E+00 -0.00000000000E+00 -0.57870531834E+03  0.57870531834E+03  0.00000000000E+00 0.  1.
        -13    1    1    2    0    0  0.50391228436E+03  0.17433217521E+03  0.12351145854E+04  0.13452982375E+04  0.10566000000E+00 0.  1.
         13    1    1    2    0    0 -0.35510576032E+03 -0.10668475044E+03  0.68549378896E+03  0.77934811404E+03  0.10566000000E+00 0. -1.
          4    1    1    2  501    0 -0.14880652404E+03 -0.67647424767E+02 -0.46267315483E+03  0.49069950466E+03  0.00000000000E+00 0.  1.
</event>
<event>
 5    1  0.4419198E-005  0.5171857E+03  0.7818608E-02  0.9441080E-01
         -4   -1    0    0    0  501 -0.00000000000E+00  0.00000000000E+00  0.15392805693E+04  0.15392805693E+04  0.00000000000E+00 0. -1.
         21   -1    0    0  501  502  0.00000000000E+00 -0.00000000000E+00 -0.49000721583E+03  0.49000721583E+03  0.00000000000E+00 0. -1.
        -13    1    1    2    0    0  0.49752888960E+03 -0.95111601875E+01  0.62670062211E+03  0.80023692684E+03  0.10566000000E+00 0.  1.
         13    1    1    2    0    0 -0.51235941783E+03  0.23794948812E+03  0.68034190315E+03  0.88430608292E+03  0.10566000000E+00 0. -1.
         -4    1    1    2    0  502  0.14830528225E+02 -0.22843832793E+03 -0.25776917179E+03  0.34474477539E+03  0.00000000000E+00 0. -1.
</event>
<event>
 5    1  0.4419198E-005  0.3215037E+03  0.7818608E-02  0.9988043E-01
         21   -1    0    0  501  502  0.00000000000E+00  0.00000000000E+00  0.91861301284E+02  0.91861301284E+02  0.00000000000E+00 0. -1.
          4   -1    0    0  502    0 -0.00000000000E+00 -0.00000000000E+00 -0.24801348793E+04  0.24801348793E+04  0.00000000000E+00 0.  1.
        -13    1    1    2    0    0 -0.26539761671E+03 -0.19151427112E+03 -0.16156034933E+04  0.16484199312E+04  0.10566000000E+00 0.  1.
         13    1    1    2    0    0  0.24734302773E+03  0.18933520312E+03 -0.81769622024E+03  0.87501629257E+03  0.10566000000E+00 0. -1.
          4    1    1    2  501    0  0.18054588979E+02  0.21790680062E+01  0.45026135527E+02  0.48559956766E+02  0.00000000000E+00 0.  1.
</event>
<event>
 5    1  0.4419198E-005  0.6666201E+03  0.7818608E-02  0.9172859E-01
         -4   -1    0    0    0  501 -0.00000000000E+00  0.00000000000E+00  0.12461923896E+04  0.12461923896E+04  0.00000000000E+00 0. -1.
         21   -1    0    0  501  502  0.00000000000E+00 -0.00000000000E+00 -0.46588654095E+03  0.46588654095E+03  0.00000000000E+00 0. -1.
        -13    1    1    2    0    0 -0.89272847199E+02 -0.65084082987E+03  0.47205673093E+03  0.80895055192E+03  0.10566000000E+00 0.  1.
         13    1    1    2    0    0  0.10537184790E+03  0.66936855657E+03  0.41432921656E+03  0.79424568095E+03  0.10566000000E+00 0. -1.
         -4    1    1    2    0  502 -0.16099000697E+02 -0.18527726701E+02 -0.10608009885E+03  0.10888269767E+03  0.00000000000E+00 0. -1.
</event>
<event>
 5    1  0.4419198E-005  0.5363582E+02  0.7818608E-02  0.1277654E+00
          4   -1    0    0  502    0 -0.00000000000E+00  0.00000000000E+00  0.86547921996E+02  0.86547921996E+02  0.00000000000E+00 0.  1.
         21   -1    0    0  501  502  0.00000000000E+00 -0.00000000000E+00 -0.10059790565E+03  0.10059790565E+03  0.00000000000E+00 0. -1.
        -13    1    1    2    0    0  0.28184254770E+02  0.41471870526E+02  0.45936174980E+02  0.68003026386E+02  0.10566000000E+00 0.  1.
         13    1    1    2    0    0 -0.44739685882E+02 -0.49541825756E+02 -0.12105874866E+02  0.67842430399E+02  0.10566000000E+00 0. -1.
          4    1    1    2  501    0  0.16555431112E+02  0.80699552301E+01 -0.47880283767E+02  0.51300370860E+02  0.00000000000E+00 0.  1.
</event>
<event>
 5    1  0.4419198E-005  0.4582293E+03  0.7818608E-02  0.1013641E+00
         21   -1    0    0  501  502  0.00000000000E+00  0.00000000000E+00  0.26638172636E+03  0.26638172636E+03  0.00000000000E+00 0. -1.
         -4   -1    0    0    0  501 -0.00000000000E+00 -0.00000000000E+00 -0.10136521963E+04  0.10136521963E+04  0.00000000000E+00 0. -1.
        -13    1    1    2    0    0  0.68687762198E+02  0.67570771621E+00 -0.79343545380E+02  0.10494700860E+03  0.10566000000E+00 0.  1.
         13    1    1    2    0    0 -0.36257102432E+03  0.32992603960E+03 -0.50471909409E+03  0.70359811994E+03  0.10566000000E+00 0. -1.
         -4    1    1    2    0  502  0.29388326212E+03 -0.33060174732E+03 -0.16320783052E+03  0.47148879417E+03  0.00000000000E+00 0. -1.
</event>
<event>
 5    1  0.4419198E-005  0.4302100E+03  0.7818608E-02  0.9719231E-01
          4   -1    0    0  502    0 -0.00000000000E+00  0.00000000000E+00  0.24329898565E+04  0.24329898565E+04  0.00000000000E+00 0.  1.
         21   -1    0    0  501  502  0.00000000000E+00 -0.00000000000E+00 -0.34984636535E+03  0.34984636535E+03  0.00000000000E+00 0.  1.
        -13    1    1    2    0    0  0.22569268373E+03  0.17745537281E+03  0.47541399256E+03  0.55537921488E+03  0.10566000000E+00 0.  1.
         13    1    1    2    0    0 -0.95077072780E+02  0.31876105367E+03  0.16770104456E+04  0.17096819309E+04  0.10566000000E+00 0. -1.
          4    1    1    2  501    0 -0.13061561095E+03 -0.49621642648E+03 -0.69280947035E+02  0.51777507602E+03  0.00000000000E+00 0.  1.
</event>
<event>
 5    1  0.4419198E-005  0.1813670E+03  0.7818608E-02  0.1073719E+00
         21   -1    0    0  501  502  0.00000000000E+00  0.00000000000E+00  0.28531459159E+03  0.28531459159E+03  0.00000000000E+00 0. -1.
          4   -1    0    0  502    0 -0.00000000000E+00 -0.00000000000E+00 -0.20719123257E+03  0.20719123257E+03  0.00000000000E+00 0.  1.
        -13    1    1    2    0    0 -0.88662985295E+02 -0.15275886712E+03 -0.92270426948E+02  0.19927428158E+03  0.10566000000E+00 0.  1.
         13    1    1    2    0    0  0.79553025884E+02  0.18025560649E+03  0.10858056229E+03  0.22496781385E+03  0.10566000000E+00 0. -1.
          4    1    1    2  501    0  0.91099594112E+01 -0.27496739371E+02  0.61813223684E+02  0.68263728719E+02  0.00000000000E+00 0.  1.
</event>
<event>
 5    1  0.4419198E-005  0.9269244E+02  0.7818608E-02  0.1218620E+00
         21   -1    0    0  501  502  0.00000000000E+00  0.00000000000E+00  0.32984556654E+03  0.32984556654E+03  0.00000000000E+00 0. -1.
          4   -1    0    0  502    0 -0.00000000000E+00 -0.00000000000E+00 -0.72191442613E+02  0.72191442613E+02  0.00000000000E+00 0.  1.
        -13    1    1    2    0    0  0.19386730738E+01 -0.11747963088E+03  0.79903365215E+01  0.11776705298E+03  0.10566000000E+00 0.  1.
         13    1    1    2    0    0  0.14770747975E+02  0.32844420264E+02  0.14099269272E+03  0.14551935096E+03  0.10566000000E+00 0. -1.
          4    1    1    2  501    0 -0.16709421049E+02  0.84635210618E+02  0.10867109468E+03  0.13875060521E+03  0.00000000000E+00 0.  1.
</event>
<event>
 5    1  0.4419198E-005  0.1999980E+03  0.7818608E-02  0.1060137E+00
         -4   -1    0    0    0  501 -0.00000000000E+00  0.00000000000E+00  0.80764914303E+02  0.80764914303E+02  0.00000000000E+00 0. -1.
         21   -1    0    0  501  502  0.00000000000E+00 -0.00000000000E+00 -0.83933550441E+03  0.83933550441E+03  0.00000000000E+00 0. -1.
        -13    1    1    2    0    0  0.21183702933E+03 -0.20095112827E+02 -0.23843655926E+03  0.31957901137E+03  0.10566000000E+00 0.  1.
         13    1    1    2    0    0 -0.18826804755E+03  0.22975769191E+02 -0.18634693057E+03  0.26589082984E+03  0.10566000000E+00 0. -1.
         -4    1    1    2    0  502 -0.23568981784E+02 -0.28806563636E+01 -0.33378710028E+03  0.33463057750E+03  0.00000000000E+00 0. -1.
</event>
<event>
 5    1  0.4419198E-005  0.4673714E+03  0.7818608E-02  0.9957457E-01
          4   -1    0    0  502    0 -0.00000000000E+00  0.00000000000E+00  0.26886122601E+04  0.26886122601E+04  0.00000000000E+00 0.  1.
         21   -1    0    0  501  502  0.00000000000E+00 -0.00000000000E+00 -0.12094439466E+03  0.12094439466E+03  0.00000000000E+00 0.  1.
        -13    1    1    2    0    0 -0.42259743239E+03  0.28506714369E+03  0.15904717173E+04  0.16701653095E+04  0.10566000000E+00 0.  1.
         13    1    1    2    0    0  0.35014778752E+01 -0.11570102423E+03  0.33204990593E+03  0.35164774782E+03  0.10566000000E+00 0. -1.
          4    1    1    2  501    0  0.41909595452E+03 -0.16936611946E+03  0.64514624222E+03  0.78774359747E+03  0.00000000000E+00 0.  1.
</event>
<event>
 5    1  0.4419198E-005  0.2730329E+03  0.7818608E-02  0.1019103E+00
         21   -1    0    0  501  502  0.00000000000E+00  0.00000000000E+00  0.13727574494E+04  0.13727574494E+04  0.00000000000E+00 0. -1.
          4   -1    0    0  502    0 -0.00000000000E+00 -0.00000000000E+00 -0.72332829201E+02  0.72332829201E+02  0.00000000000E+00 0.  1.
        -13    1    1    2    0    0 -0.15817254360E+03  0.21786853135E+03  0.33598176363E+03  0.43054501176E+03  0.10566000000E+00 0.  1.
         13    1    1    2    0    0  0.17229474449E+03 -0.22202670379E+03  0.77239403322E+03  0.82193302032E+03  0.10566000000E+00 0. -1.
          4    1    1    2  501    0 -0.14122200894E+02  0.41581724424E+01  0.19204882339E+03  0.19261224655E+03  0.00000000000E+00 0.  1.
</event>
<event>
 5    1  0.4419198E-005  0.2961160E+03  0.7818608E-02  0.1042158E+00
         21   -1    0    0  501  502  0.00000000000E+00  0.00000000000E+00  0.57863024718E+03  0.57863024718E+03  0.00000000000E+00 0. -1.
         -4   -1    0    0    0  501 -0.00000000000E+00 -0.00000000000E+00 -0.36031041640E+03  0.36031041640E+03  0.00000000000E+00 0. -1.
        -13    1    1    2    0    0  0.10234391261E+03  0.23727632368E+02 -0.47381103702E+02  0.11524867521E+03  0.10566000000E+00 0.  1.
         13    1    1    2    0    0 -0.24693601111E+03 -0.26676054102E+03 -0.84864289489E+02  0.37328345614E+03  0.10566000000E+00 0. -1.
         -4    1    1    2    0  502  0.14459209851E+03  0.24303290866E+03  0.35056522397E+03  0.45040853222E+03  0.00000000000E+00 0. -1.
</event>
<event>
 5    1  0.4419198E-005  0.4832236E+03  0.7818608E-02  0.9572444E-01
         21   -1    0    0  501  502  0.00000000000E+00  0.00000000000E+00  0.19672737683E+03  0.19672737683E+03  0.00000000000E+00 0. -1.
         -4   -1    0    0    0  501 -0.00000000000E+00 -0.00000000000E+00 -0.28751794252E+04  0.28751794252E+04  0.00000000000E+00 0. -1.
        -13    1    1    2    0    0 -0.31377119521E+03 -0.23777949785E+03 -0.96351045199E+03  0.10408380541E+04  0.10566000000E+00 0.  1.
         13    1    1    2    0    0  0.59700347753E+03 -0.12695315102E+03 -0.11450745668E+04  0.12975846907E+04  0.10566000000E+00 0. -1.
         -4    1    1    2    0  502 -0.28323228232E+03  0.36473264887E+03 -0.56986702957E+03  0.73348405728E+03  0.00000000000E+00 0. -1.
</event>
<event>
 5    1  0.4419198E-005  0.3788892E+03  0.7818608E-02  0.9792075E-01
         21   -1    0    0  501  502  0.00000000000E+00  0.00000000000E+00  0.15123493707E+03  0.15123493707E+03  0.00000000000E+00 0. -1.
         -4   -1    0    0    0  501 -0.00000000000E+00 -0.00000000000E+00 -0.32066168250E+04  0.32066168250E+04  0.00000000000E+00 0. -1.
        -13    1    1    2    0    0  0.29112779349E+03 -0.16269743862E+03 -0.83686812736E+03  0.90087408800E+03  0.10566000000E+00 0.  1.
         13    1    1    2    0    0 -0.43669753431E+03 -0.48670214426E+02 -0.21456636745E+04  0.21901931744E+04  0.10566000000E+00 0. -1.
         -4    1    1    2    0  502  0.14556974082E+03  0.21136765304E+03 -0.72850086097E+02  0.26678449962E+03  0.00000000000E+00 0. -1.
</event>
<event>
 5    1  0.4419198E-005  0.5806857E+03  0.7818608E-02  0.9316756E-01
         -4   -1    0    0    0  501 -0.00000000000E+00  0.00000000000E+00  0.30265849354E+04  0.30265849354E+04  0.00000000000E+00 0. -1.
         21   -1    0    0  501  502  0.00000000000E+00 -0.00000000000E+00 -0.20362670551E+03  0.20362670551E+03  0.00000000000E+00 0.  1.
        -13    1    1    2    0    0 -0.54708788119E+03  0.88291770052E+02  0.11230188625E+04  0.12523066570E+04  0.10566000000E+00 0.  1.
         13    1    1    2    0    0  0.59231400114E+03 -0.10122719538E+03  0.17835030831E+04  0.18820111795E+04  0.10566000000E+00 0. -1.
         -4    1    1    2    0  502 -0.45226119947E+02  0.12935425326E+02 -0.83563715707E+02  0.95893804475E+02  0.00000000000E+00 0. -1.
</event>
<event>
 5    1  0.4419198E-005  0.2539385E+03  0.7818608E-02  0.1046692E+00
         -4   -1    0    0    0  501 -0.00000000000E+00  0.00000000000E+00  0.29119536442E+04  0.29119536442E+04  0.00000000000E+00 0. -1.
         21   -1    0    0  501  502  0.00000000000E+00 -0.00000000000E+00 -0.12127667117E+03  0.12127667117E+03  0.00000000000E+00 0. -1.
        -13    1    1    2    0    0 -0.82771099508E+02 -0.11949657031E+03  0.17287042281E+03  0.22586429438E+03  0.10566000000E+00 0.  1.
         13    1    1    2    0    0 -0.24823221189E+03  0.11069135377E+02  0.10370570275E+03  0.26925200227E+03  0.10566000000E+00 0. -1.
         -4    1    1    2    0  502  0.33100331140E+03  0.10842743494E+03  0.25141008475E+04  0.25381140187E+04  0.00000000000E+00 0. -1.
</event>
<event>
 5    1  0.4419198E-005  0.4918933E+03  0.7818608E-02  0.9866731E-01
         -4   -1    0    0    0  501 -0.00000000000E+00  0.00000000000E+00  0.86528524471E+03  0.86528524471E+03  0.00000000000E+00 0. -1.
         21   -1    0    0  501  502  0.00000000000E+00 -0.00000000000E+00 -0.55778791427E+03  0.55778791427E+03  0.00000000000E+00 0. -1.
        -13    1    1    2    0    0 -0.12178870621E+03  0.56842121072E+02  0.36303199867E+03  0.38711207539E+03  0.10566000000E+00 0.  1.
         13    1    1    2    0    0  0.45432319900E+03 -0.35337558268E+03  0.51085869388E+02  0.57783531288E+03  0.10566000000E+00 0. -1.
         -4    1    1    2    0  502 -0.33253449280E+03  0.29653346161E+03 -0.10662053762E+03  0.45812577072E+03  0.00000000000E+00 0. -1.
</event>
<event>
 5    1  0.4419198E-005  0.1685992E+03  0.7818608E-02  0.1084089E+00
         21   -1    0    0  501  502  0.00000000000E+00  0.00000000000E+00  0.63669261099E+03  0.63669261099E+03  0.00000000000E+00 0. -1.
         -4   -1    0    0    0  501 -0.00000000000E+00 -0.00000000000E+00 -0.29049365079E+03  0.29049365079E+03  0.00000000000E+00 0. -1.
        -13    1    1    2    0    0  0.19080635165E+03 -0.54532222959E+02  0.17593394290E+03  0.26520480878E+03  0.10566000000E+00 0.  1.
         13    1    1    2    0    0 -0.16425499186E+03  0.17212466543E+02 -0.21661868967E+03  0.27239610723E+03  0.10566000000E+00 0. -1.
         -4    1    1    2    0  502 -0.26551359789E+02  0.37319756416E+02  0.38688370697E+03  0.38958534578E+03  0.00000000000E+00 0. -1.
</event>
<event>
 5    1  0.4419198E-005  0.4130257E+03  0.7818608E-02  0.1078711E+00
         21   -1    0    0  501  502  0.00000000000E+00  0.00000000000E+00  0.80797072699E+03  0.80797072699E+03  0.00000000000E+00 0. -1.
         -4   -1    0    0    0  501 -0.00000000000E+00 -0.00000000000E+00 -0.41951519426E+03  0.41951519426E+03  0.00000000000E+00 0. -1.
        -13    1    1    2    0    0 -0.36410865762E+01  0.12826987166E+02 -0.78117607212E+02  0.79247465775E+02  0.10566000000E+00 0.  1.
         13    1    1    2    0    0 -0.77899924170E+01  0.40251921466E+03 -0.12837081618E+03  0.42256535561E+03  0.10566000000E+00 0. -1.
         -4    1    1    2    0  502  0.11431078993E+02 -0.41534620183E+03  0.59494395612E+03  0.72567309986E+03  0.00000000000E+00 0. -1.
</event>
<event>
 5    1  0.4419198E-005  0.6401173E+02  0.7818608E-02  0.1243374E+00
         21   -1    0    0  501  502  0.00000000000E+00  0.00000000000E+00  0.61015133817E+02  0.61015133817E+02  0.00000000000E+00 0.  1.
         -4   -1    0    0    0  501 -0.00000000000E+00 -0.00000000000E+00 -0.10924076689E+03  0.10924076689E+03  0.00000000000E+00 0. -1.
        -13    1    1    2    0    0 -0.46606002740E+02 -0.36386893036E+02  0.62345249124E+01  0.59455915947E+02  0.10566000000E+00 0.  1.
         13    1    1    2    0    0  0.45969113242E+02  0.47656797035E+02 -0.66813701251E+02  0.94065995529E+02  0.10566000000E+00 0. -1.
         -4    1    1    2    0  502  0.63688949796E+00 -0.11269903999E+02  0.12353543266E+02  0.16733989232E+02  0.00000000000E+00 0. -1.
</event>
<event>
 5    1  0.4419198E-005  0.3492874E+03  0.7818608E-02  0.9888163E-01
         -4   -1    0    0    0  501 -0.00000000000E+00  0.00000000000E+00  0.24748408194E+04  0.24748408194E+04  0.00000000000E+00 0. -1.
         21   -1    0    0  501  502  0.00000000000E+00 -0.00000000000E+00 -0.18786553353E+03  0.18786553353E+03  0.00000000000E+00 0. -1.
        -13    1    1    2    0    0 -0.12899907262E+02  0.27741143231E+03  0.21307207216E+03  0.35003318340E+03  0.10566000000E+00 0.  1.
         13    1    1    2    0    0  0.20811643255E+03 -0.31211583835E+03  0.20807316200E+04  0.21142783241E+04  0.10566000000E+00 0. -1.
         -4    1    1    2    0  502 -0.19521652529E+03  0.34704406043E+02 -0.68284063597E+01  0.19839484539E+03  0.00000000000E+00 0. -1.
</event>
<event>
 5    1  0.4419198E-005  0.4148057E+03  0.7818608E-02  0.9719514E-01
         21   -1    0    0  501  502  0.00000000000E+00  0.00000000000E+00  0.23894411341E+03  0.23894411341E+03  0.00000000000E+00 0.  1.
          4   -1    0    0  502    0 -0.00000000000E+00 -0.00000000000E+00 -0.27290227121E+04  0.27290227121E+04  0.00000000000E+00 0.  1.
        -13    1    1    2    0    0  0.24527599760E+03  0.13557197169E+03 -0.11836494929E+04  0.12163742055E+04  0.10566000000E+00 0.  1.
         13    1    1    2    0    0 -0.30327123129E+03  0.31709395704E+03 -0.12073333447E+04  0.12845916993E+04  0.10566000000E+00 0. -1.
          4    1    1    2  501    0  0.57995233686E+02 -0.45266592873E+03 -0.99095761039E+02  0.46700092079E+03  0.00000000000E+00 0.  1.
</event>
<event>
 5    1  0.4419198E-005  0.3394905E+03  0.7818608E-02  0.1040372E+00
         21   -1    0    0  501  502  0.00000000000E+00  0.00000000000E+00  0.24632055209E+03  0.24632055209E+03  0.00000000000E+00 0.  1.
          4   -1    0    0  502    0 -0.00000000000E+00 -0.00000000000E+00 -0.14108911047E+04  0.14108911047E+04  0.00000000000E+00 0.  1.
        -13    1    1    2    0    0 -0.19390100532E+02 -0.31306722471E+03 -0.11803491691E+04  0.12213153710E+04  0.10566000000E+00 0.  1.
         13    1    1    2    0    0 -0.70991282590E+02 -0.19359624744E+02  0.51113565475E+02  0.89594447449E+02  0.10566000000E+00 0. -1.
          4    1    1    2  501    0  0.90381383123E+02  0.33242684945E+03 -0.35334948986E+02  0.34630183839E+03  0.00000000000E+00 0.  1.
</event>
<event>
 5    1  0.4419198E-005  0.4682616E+03  0.7818608E-02  0.9858750E-01
         21   -1    0    0  501  502  0.00000000000E+00  0.00000000000E+00  0.11091292047E+04  0.11091292047E+04  0.00000000000E+00 0. -1.
         -4   -1    0    0    0  501 -0.00000000000E+00 -0.00000000000E+00 -0.30209244758E+03  0.30209244758E+03  0.00000000000E+00 0. -1.
        -13    1    1    2    0    0 -0.15916363082E+03 -0.16736290425E+02  0.48880126426E+02  0.16733930416E+03  0.10566000000E+00 0.  1.
         13    1    1    2    0    0  0.45895695706E+03  0.24793836684E+03  0.68045716761E+03  0.85740124230E+03  0.10566000000E+00 0. -1.
         -4    1    1    2    0  502 -0.29979332625E+03 -0.23120207642E+03  0.77699463108E+02  0.38648110584E+03  0.00000000000E+00 0. -1.
</event>
<event>
 5    1  0.4419198E-005  0.1467301E+03  0.7818608E-02  0.1104382E+00
         -4   -1    0    0    0  501 -0.00000000000E+00  0.00000000000E+00  0.39530165719E+03  0.39530165719E+03  0.00000000000E+00 0. -1.
         21   -1    0    0  501  502  0.00000000000E+00 -0.00000000000E+00 -0.13177199408E+03  0.13177199408E+03  0.00000000000E+00 0. -1.
        -13    1    1    2    0    0  0.12135021479E+03  0.34525483801E+02  0.14044861461E+03  0.18879541353E+03  0.10566000000E+00 0.  1.
         13    1    1    2    0    0 -0.16950943636E+03 -0.49676964871E+02  0.18672857288E+03  0.25703855926E+03  0.10566000000E+00 0. -1.
         -4    1    1    2    0  502  0.48159221572E+02  0.15151481070E+02 -0.63647524369E+02  0.81239678478E+02  0.00000000000E+00 0. -1.
</event>
<event>
 5    1  0.4419198E-005  0.6532332E+03  0.7818608E-02  0.9193729E-01
         -4   -1    0    0    0  501 -0.00000000000E+00  0.00000000000E+00  0.79717953289E+03  0.79717953289E+03  0.00000000000E+00 0. -1.
         21   -1    0    0  501  502  0.00000000000E+00 -0.00000000000E+00 -0.13629571874E+04  0.13629571874E+04  0.00000000000E+00 0.  1.
        -13    1    1    2    0    0  0.67743078027E+03 -0.18268780232E+03  0.21086939600E+03  0.73263443033E+03  0.10566000000E+00 0.  1.
         13    1    1    2    0    0 -0.34444868773E+03  0.51734231477E+03 -0.72136519524E+03  0.95218471170E+03  0.10566000000E+00 0. -1.
         -4    1    1    2    0  502 -0.33298209254E+03 -0.33465451245E+03 -0.55281855234E+02  0.47531757823E+03  0.00000000000E+00 0. -1.
</event>
<event>
 5    1  0.4419198E-005  0.9401118E+02  0.7818608E-02  0.1174863E+00
         21   -1    0    0  501  502  0.00000000000E+00  0.00000000000E+00  0.46594453756E+02  0.46594453756E+02  0.00000000000E+00 0. -1.
          4   -1    0    0  502    0 -0.00000000000E+00 -0.00000000000E+00 -0.36040038409E+03  0.36040038409E+03  0.00000000000E+00 0.  1.
        -13    1    1    2    0    0  0.92648427191E+02  0.14513797463E+02 -0.21955723970E+03  0.23874625452E+03  0.10566000000E+00 0.  1.
         13    1    1    2    0    0 -0.97135567171E+02  0.22870084983E+02 -0.80328515169E+02  0.12810558423E+03  0.10566000000E+00 0. -1.
          4    1    1    2  501    0  0.44871399806E+01 -0.37383882446E+02 -0.13920175466E+02  0.40142999102E+02  0.00000000000E+00 0.  1.
</event>
<event>
 5    1  0.4419198E-005  0.1384820E+03  0.7818608E-02  0.1121655E+00
         -4   -1    0    0    0  501 -0.00000000000E+00  0.00000000000E+00  0.18260477016E+03  0.18260477016E+03  0.00000000000E+00 0. -1.
         21   -1    0    0  501  502  0.00000000000E+00 -0.00000000000E+00 -0.33084132938E+03  0.33084132938E+03  0.00000000000E+00 0. -1.
        -13    1    1    2    0    0  0.44497200153E+02 -0.10115737742E+03  0.48026565487E+02  0.12049638163E+03  0.10566000000E+00 0.  1.
         13    1    1    2    0    0 -0.11583213422E+03  0.18779482781E+03 -0.89668887684E+02  0.23816906023E+03  0.10566000000E+00 0. -1.
         -4    1    1    2    0  502  0.71334934069E+02 -0.86637450384E+02 -0.10659423702E+03  0.15478065768E+03  0.00000000000E+00 0. -1.
</event>
<event>
 5    1  0.4419198E-005  0.4760322E+03  0.7818608E-02  0.9767914E-01
         21   -1    0    0  501  502  0.00000000000E+00  0.00000000000E+00  0.36599012085E+03  0.36599012085E+03  0.00000000000E+00 0. -1.
         -4   -1    0    0    0  501 -0.00000000000E+00 -0.00000000000E+00 -0.19241069818E+04  0.19241069818E+04  0.00000000000E+00 0. -1.
        -13    1    1    2    0    0  0.63440092205E+02  0.19760865012E+03 -0.11804177823E+04  0.11985240823E+04  0.10566000000E+00 0.  1.
         13    1    1    2    0    0  0.20400524705E+03 -0.53758689997E+03 -0.31156929556E+03  0.65398260905E+03  0.10566000000E+00 0. -1.
         -4    1    1    2    0  502 -0.26744533925E+03  0.33997824986E+03 -0.66129783109E+02  0.43759041132E+03  0.00000000000E+00 0. -1.
</event>
<event>
 5    1  0.4419198E-005  0.1026590E+03  0.7818608E-02  0.1171693E+00
         -4   -1    0    0    0  501 -0.00000000000E+00  0.00000000000E+00  0.81941785378E+03  0.81941785378E+03  0.00000000000E+00 0. -1.
         21   -1    0    0  501  502  0.00000000000E+00 -0.00000000000E+00 -0.10933836690E+03  0.10933836690E+03  0.00000000000E+00 0.  1.
        -13    1    1    2    0    0  0.56843561555E+02  0.53208410539E+02 -0.62506593631E+02  0.99846937128E+02  0.10566000000E+00 0.  1.
         13    1    1    2    0    0 -0.10675420656E+03  0.39131811963E+02  0.67846108789E+03  0.68792239262E+03  0.10566000000E+00 0. -1.
         -4    1    1    2    0  502  0.49910645001E+02 -0.92340222502E+02  0.94124992625E+02  0.14098689093E+03  0.00000000000E+00 0. -1.
</event>
<event>
 5    1  0.4419198E-005  0.6210375E+03  0.7818608E-02  0.9246141E-01
          4   -1    0    0  502    0 -0.00000000000E+00  0.00000000000E+00  0.20763133482E+04  0.20763133482E+04  0.00000000000E+00 0.  1.
         21   -1    0    0  501  502  0.00000000000E+00 -0.00000000000E+00 -0.31692662495E+03  0.31692662495E+03  0.00000000000E+00 0. -1.
        -13    1    1    2    0    0 -0.69054056359E+03 -0.19078715342E+03  0.11302323155E+04  0.13381595966E+04  0.10566000000E+00 0.  1.
         13    1    1    2    0    0  0.52795902083E+03  0.94288817327E+02  0.67343814886E+03  0.86090072613E+03  0.10566000000E+00 0. -1.
          4    1    1    2  501    0  0.16258154276E+03  0.96498336093E+02 -0.44283741078E+02  0.19417965042E+03  0.00000000000E+00 0.  1.
</event>
<event>
 5    1  0.4419198E-005  0.5635333E+03  0.7818608E-02  0.9348630E-01
         -4   -1    0    0    0  501 -0.00000000000E+00  0.00000000000E+00  0.19874416367E+04  0.19874416367E+04  0.00000000000E+00 0. -1.
         21   -1    0    0  501  502  0.00000000000E+00 -0.00000000000E+00 -0.63164262452E+03  0.63164262452E+03  0.00000000000E+00 0. -1.
        -13    1    1    2    0    0  0.32859344119E+03  0.47156937981E+03  0.13499322380E+04  0.14671974604E+04  0.10566000000E+00 0.  1.
         13    1    1    2    0    0 -0.15625670136E+02 -0.54620023812E+03 -0.36788489715E+03  0.65872465447E+03  0.10566000000E+00 0. -1.
         -4    1    1    2    0  502 -0.31296777106E+03  0.74630858307E+02  0.37375167132E+03  0.49316214630E+03  0.00000000000E+00 0. -1.
</event>
<event>
 5    1  0.4419198E-005  0.1120968E+03  0.7818608E-02  0.1145958E+00
         21   -1    0    0  501  502  0.00000000000E+00  0.00000000000E+00  0.29474937712E+03  0.29474937712E+03  0.00000000000E+00 0.  1.
         -4   -1    0    0    0  501 -0.00000000000E+00 -0.00000000000E+00 -0.76923933600E+02  0.76923933600E+02  0.00000000000E+00 0. -1.
        -13    1    1    2    0    0 -0.21010862489E+02  0.12271854374E+03  0.14403908728E+03  0.19039056475E+03  0.10566000000E+00 0.  1.
         13    1    1    2    0    0  0.35307614062E+01 -0.10814036699E+03  0.44318814840E+01  0.10828877128E+03  0.10566000000E+00 0. -1.
         -4    1    1    2    0  502  0.17480101083E+02 -0.14578176752E+02  0.69354474757E+02  0.72993974684E+02  0.00000000000E+00 0. -1.
</event>
<event>
 5    1  0.4419198E-005  0.4803209E+03  0.7818608E-02  0.9552391E-01
          4   -1    0    0  502    0 -0.00000000000E+00  0.00000000000E+00  0.26516448971E+04  0.26516448971E+04  0.00000000000E+00 0.  1.
         21   -1    0    0  501  502  0.00000000000E+00 -0.00000000000E+00 -0.26662570850E+03  0.26662570850E+03  0.00000000000E+00 0. -1.
        -13    1    1    2    0    0 -0.35929847926E+03  0.28734020920E+03  0.15239572188E+04  0.15918873732E+04  0.10566000000E+00 0.  1.
         13    1    1    2    0    0 -0.17789573623E+03 -0.39230633212E+03  0.22080895108E+03  0.48405346320E+03  0.10566000000E+00 0. -1.
          4    1    1    2  501    0  0.53719421549E+03  0.10496612293E+03  0.64025301867E+03  0.84232976917E+03  0.00000000000E+00 0.  1.
</event>
<event>
 5    1  0.4419198E-005  0.8555351E+02  0.7818608E-02  0.1190960E+00
         21   -1    0    0  501  502  0.00000000000E+00  0.00000000000E+00  0.45450594795E+03  0.45450594795E+03  0.00000000000E+00 0.  1.
          4   -1    0    0  502    0 -0.00000000000E+00 -0.00000000000E+00 -0.24247475894E+03  0.24247475894E+03  0.00000000000E+00 0.  1.
        -13    1    1    2    0    0  0.78759040377E+02  0.35723662694E+02 -0.22603730994E+03  0.24201661754E+03  0.10566000000E+00 0.  1.
         13    1    1    2    0    0 -0.62643855260E+02 -0.28370898936E+02  0.13620227040E+03  0.15257860313E+03  0.10566000000E+00 0. -1.
          4    1    1    2  501    0 -0.16115185117E+02 -0.73527637583E+01  0.30186622856E+03  0.30238548621E+03  0.00000000000E+00 0.  1.
</event>
<event>
 5    1  0.4419198E-005  0.4167734E+03  0.7818608E-02  0.1059652E+00
         21   -1    0    0  501  502  0.00000000000E+00  0.00000000000E+00  0.40146846429E+03  0.40146846429E+03  0.00000000000E+00 0. -1.
         -4   -1    0    0    0  501 -0.00000000000E+00 -0.00000000000E+00 -0.51621634543E+03  0.51621634543E+03  0.00000000000E+00 0. -1.
        -13    1    1    2    0    0 -0.19281864728E+02  0.11430884418E+02 -0.61974359152E+02  0.65903624955E+02  0.10566000000E+00 0.  1.
         13    1    1    2    0    0  0.41119054050E+03 -0.12499754141E+03 -0.99338592850E+02  0.44110113710E+03  0.10566000000E+00 0. -1.
         -4    1    1    2    0  502 -0.39190867577E+03  0.11356665699E+03  0.46565070867E+02  0.41068004767E+03  0.00000000000E+00 0. -1.
</event>
<event>
 5    1  0.4419198E-005  0.6768793E+02  0.7818608E-02  0.1232928E+00
          4   -1    0    0  502    0 -0.00000000000E+00  0.00000000000E+00  0.30461870523E+03  0.30461870523E+03  0.00000000000E+00 0.  1.
         21   -1    0    0  501  502  0.00000000000E+00 -0.00000000000E+00 -0.29421632406E+03  0.29421632406E+03  0.00000000000E+00 0.  1.
        -13    1    1    2    0    0  0.70125528973E+02 -0.10306523438E+02  0.22334168881E+03  0.23431887539E+03  0.10566000000E+00 0.  1.
         13    1    1    2    0    0 -0.60408747600E+02  0.56932133720E+01  0.63522587434E+02  0.87845089467E+02  0.10566000000E+00 0. -1.
          4    1    1    2  501    0 -0.97167813731E+01  0.46133100664E+01 -0.27646189508E+03  0.27667106444E+03  0.00000000000E+00 0.  1.
</event>
<event>
 5    1  0.4419198E-005  0.2040168E+03  0.7818608E-02  0.1057417E+00
         21   -1    0    0  501  502  0.00000000000E+00  0.00000000000E+00  0.45348487502E+03  0.45348487502E+03  0.00000000000E+00 0. -1.
         -4   -1    0    0    0  501 -0.00000000000E+00 -0.00000000000E+00 -0.25322353286E+03  0.25322353286E+03  0.00000000000E+00 0. -1.
        -13    1    1    2    0    0  0.15988096799E+03  0.12048201614E+03  0.20717366285E+03  0.28809508480E+03  0.10566000000E+00 0.  1.
         13    1    1    2    0    0 -0.18671013342E+03 -0.86017354036E+02 -0.15931305087E+03  0.26007752394E+03  0.10566000000E+00 0. -1.
         -4    1    1    2    0  502  0.26829165430E+02 -0.34464662104E+02  0.15240073018E+03  0.15853579915E+03  0.00000000000E+00 0. -1.
</event>
<event>
 5    1  0.4419198E-005  0.3534639E+03  0.7818608E-02  0.9921183E-01
          4   -1    0    0  502    0 -0.00000000000E+00  0.00000000000E+00  0.21434561978E+04  0.21434561978E+04  0.00000000000E+00 0.  1.
         21   -1    0    0  501  502  0.00000000000E+00 -0.00000000000E+00 -0.33688725938E+03  0.33688725938E+03  0.00000000000E+00 0.  1.
        -13    1    1    2    0    0 -0.24617313307E+03  0.19001869500E+03 -0.96577328476E+02  0.32563093746E+03  0.10566000000E+00 0.  1.
         13    1    1    2    0    0  0.15007447326E+03  0.35183161873E+03  0.12138427033E+04  0.12726829750E+04  0.10566000000E+00 0. -1.
          4    1    1    2  501    0  0.96098659815E+02 -0.54185031372E+03  0.68930356360E+03  0.88202954468E+03  0.00000000000E+00 0.  1.
</event>
<event>
 5    1  0.4419198E-005  0.4907383E+03  0.7818608E-02  0.9637175E-01
         21   -1    0    0  501  502  0.00000000000E+00  0.00000000000E+00  0.17162555088E+03  0.17162555088E+03  0.00000000000E+00 0. -1.
         -4   -1    0    0    0  501 -0.00000000000E+00 -0.00000000000E+00 -0.26044411082E+04  0.26044411082E+04  0.00000000000E+00 0. -1.
        -13    1    1    2    0    0  0.29855684268E+03 -0.69524364258E+01 -0.46056138316E+03  0.54890921244E+03  0.10566000000E+00 0.  1.
         13    1    1    2    0    0 -0.53707093668E+03  0.27571027562E+03 -0.80743548404E+03  0.10081733081E+04  0.10566000000E+00 0. -1.
         -4    1    1    2    0  502  0.23851409400E+03 -0.26875783920E+03 -0.11648186901E+04  0.12189841386E+04  0.00000000000E+00 0. -1.
</event>
<event>
 5    1  0.4419198E-005  0.1397834E+03  0.7818608E-02  0.1127698E+00
         21   -1    0    0  501  502  0.00000000000E+00  0.00000000000E+00  0.99581516379E+02  0.99581516379E+02  0.00000000000E+00 0. -1.
         -4   -1    0    0    0  501 -0.00000000000E+00 -0.00000000000E+00 -0.15214261574E+04  0.15214261574E+04  0.00000000000E+00 0. -1.
        -13    1    1    2    0    0  0.54385249719E+02  0.74049729465E+02 -0.32569352213E+03  0.33840419522E+03  0.10566000000E+00 0.  1.
         13    1    1    2    0    0 -0.96364298544E+02 -0.20305639739E+03 -0.11221771356E+04  0.11444647279E+04  0.10566000000E+00 0. -1.
         -4    1    1    2    0  502  0.41979048824E+02  0.12900666792E+03  0.26026016655E+02  0.13813875073E+03  0.00000000000E+00 0. -1.
</event>
<event>
 5    1  0.4419198E-005  0.1383619E+03  0.7818608E-02  0.1113193E+00
         -4   -1    0    0    0  501 -0.00000000000E+00  0.00000000000E+00  0.65467352459E+03  0.65467352459E+03  0.00000000000E+00 0. -1.
         21   -1    0    0  501  502  0.00000000000E+00 -0.00000000000E+00 -0.36288604032E+03  0.36288604032E+03  0.00000000000E+00 0. -1.
        -13    1    1    2    0    0 -0.12445278357E+03 -0.81185331819E+02  0.35021021277E+02  0.15266314727E+03  0.10566000000E+00 0.  1.
         13    1    1    2    0    0  0.11098244039E+03  0.80202070336E+02  0.55231702231E+03  0.56903741394E+03  0.10566000000E+00 0. -1.
         -4    1    1    2    0  502  0.13470343178E+02  0.98326148249E+00 -0.29555055933E+03  0.29585900369E+03  0.00000000000E+00 0. -1.
</event>
<event>
 5    1  0.4419198E-005  0.2214467E+03  0.7818608E-02  0.1046351E+00
          4   -1    0    0  502    0 -0.00000000000E+00  0.00000000000E+00  0.15813694971E+04  0.15813694971E+04  0.00000000000E+00 0.  1.
         21   -1    0    0  501  502  0.00000000000E+00 -0.00000000000E+00 -0.48232971976E+02  0.48232971976E+02  0.00000000000E+00 0. -1.
        -13    1    1    2    0    0 -0.26938150989E+02  0.22650550688E+03  0.11516161989E+04  0.11739890500E+04  0.10566000000E+00 0.  1.
         13    1    1    2    0    0  0.32343456353E+02 -0.20344837035E+03  0.37954753801E+03  0.43184914419E+03  0.10566000000E+00 0. -1.
          4    1    1    2  501    0 -0.54053053643E+01 -0.23057136529E+02  0.19727882267E+01  0.23764274960E+02  0.00000000000E+00 0.  1.
</event>
<event>
 5    1  0.4419198E-005  0.7066911E+02  0.7818608E-02  0.1224982E+00
         -4   -1    0    0    0  501 -0.00000000000E+00  0.00000000000E+00  0.11963543915E+02  0.11963543915E+02  0.00000000000E+00 0. -1.
         21   -1    0    0  501  502  0.00000000000E+00 -0.00000000000E+00 -0.80107730198E+03  0.80107730198E+03  0.00000000000E+00 0.  1.
        -13    1    1    2    0    0 -0.58232379708E+02  0.64883861771E+02 -0.35562011831E+03  0.36615106893E+03  0.10566000000E+00 0.  1.
         13    1    1    2    0    0  0.26121785257E+02 -0.58101239759E+02 -0.17335566260E+03  0.18468973617E+03  0.10566000000E+00 0. -1.
         -4    1    1    2    0  502  0.32110594451E+02 -0.67826220117E+01 -0.26013797716E+03  0.26220004080E+03  0.00000000000E+00 0. -1.
</event>
<event>
 5    1  0.4419198E-005  0.4014092E+03  0.7818608E-02  0.9724985E-01
          4   -1    0    0  502    0 -0.00000000000E+00  0.00000000000E+00  0.16565044030E+04  0.16565044030E+04  0.00000000000E+00 0.  1.
         21   -1    0    0  501  502  0.00000000000E+00 -0.00000000000E+00 -0.62046886567E+03  0.62046886567E+03  0.00000000000E+00 0.  1.
        -13    1    1    2    0    0  0.38581053598E+03  0.48552546377E+02  0.10385205188E+04  0.11089328197E+04  0.10566000000E+00 0.  1.
         13    1    1    2    0    0 -0.41960365625E+03 -0.10257439101E+03  0.50044753305E+03  0.66108734561E+03  0.10566000000E+00 0. -1.
          4    1    1    2  501    0  0.33793120265E+02  0.54021844634E+02 -0.50293251461E+03  0.50695310328E+03  0.00000000000E+00 0.  1.
</event>
<event>
 5    1  0.4419198E-005  0.1645501E+03  0.7818608E-02  0.1087586E+00
         21   -1    0    0  501  502  0.00000000000E+00  0.00000000000E+00  0.96264873377E+02  0.96264873377E+02  0.00000000000E+00 0.  1.
         -4   -1    0    0    0  501 -0.00000000000E+00 -0.00000000000E+00 -0.62355086104E+03  0.62355086104E+03  0.00000000000E+00 0. -1.
        -13    1    1    2    0    0  0.17008069521E+03  0.36424434491E+02 -0.99552149301E+02  0.20041163615E+03  0.10566000000E+00 0.  1.
         13    1    1    2    0    0 -0.15843349176E+03 -0.33643111528E+02 -0.45856561435E+03  0.48632855571E+03  0.10566000000E+00 0. -1.
         -4    1    1    2    0  502 -0.11647203441E+02 -0.27813229626E+01  0.30831775987E+02  0.33075542564E+02  0.00000000000E+00 0. -1.
</event>
<event>
 5    1  0.4419198E-005  0.2128475E+03  0.7818608E-02  0.1051668E+00
         21   -1    0    0  501  502  0.00000000000E+00  0.00000000000E+00  0.36078684007E+03  0.36078684007E+03  0.00000000000E+00 0.  1.
          4   -1    0    0  502    0 -0.00000000000E+00 -0.00000000000E+00 -0.47355153178E+03  0.47355153178E+03  0.00000000000E+00 0.  1.
        -13    1    1    2    0    0 -0.14663373125E+02 -0.21111880286E+03 -0.31810064440E+03  0.38206569404E+03  0.10566000000E+00 0.  1.
         13    1    1    2    0    0 -0.10859893244E+01  0.21693490903E+03 -0.27641073840E+02  0.21869150476E+03  0.10566000000E+00 0. -1.
          4    1    1    2  501    0  0.15749362449E+02 -0.58161061738E+01  0.23297702653E+03  0.23358117304E+03  0.00000000000E+00 0.  1.
</event>
<event>
 5    1  0.4419198E-005  0.5235106E+03  0.7818608E-02  0.9428761E-01
         21   -1    0    0  501  502  0.00000000000E+00  0.00000000000E+00  0.41968376882E+03  0.41968376882E+03  0.00000000000E+00 0.  1.
         -4   -1    0    0    0  501 -0.00000000000E+00 -0.00000000000E+00 -0.18339223607E+04  0.18339223607E+04  0.00000000000E+00 0. -1.
        -13    1    1    2    0    0  0.48050935683E+03  0.20345924405E+03 -0.24389136457E+03  0.57599298161E+03  0.10566000000E+00 0.  1.
         13    1    1    2    0    0 -0.90969473617E+02 -0.59185621055E+03 -0.36158876392E+03  0.69951101810E+03  0.10566000000E+00 0. -1.
         -4    1    1    2    0  502 -0.38953988322E+03  0.38839696650E+03 -0.80875846337E+03  0.97810212978E+03  0.00000000000E+00 0. -1.
</event>
<event>
 5    1  0.4419198E-005  0.3606578E+03  0.7818608E-02  0.9850101E-01
          4   -1    0    0  502    0 -0.00000000000E+00  0.00000000000E+00  0.52944543104E+03  0.52944543104E+03  0.00000000000E+00 0.  1.
         21   -1    0    0  501  502  0.00000000000E+00 -0.00000000000E+00 -0.15539201464E+04  0.15539201464E+04  0.00000000000E+00 0.  1.
        -13    1    1    2    0    0  0.19153125850E+03  0.44795731348E+03 -0.16477141491E+03  0.51429525373E+03  0.10566000000E+00 0.  1.
         13    1    1    2    0    0 -0.29523652806E+03 -0.17912865881E+03  0.24758154635E+03  0.42490977532E+03  0.10566000000E+00 0. -1.
          4    1    1    2  501    0  0.10370526956E+03 -0.26882865467E+03 -0.11072848468E+04  0.11441605484E+04  0.00000000000E+00 0.  1.
</event>
<event>
 5    1  0.4419198E-005  0.1821514E+03  0.7818608E-02  0.1073112E+00
         -4   -1    0    0    0  501 -0.00000000000E+00  0.00000000000E+00  0.36491556495E+03  0.36491556495E+03  0.00000000000E+00 0. -1.
         21   -1    0    0  501  502  0.00000000000E+00 -0.00000000000E+00 -0.17361972945E+03  0.17361972945E+03  0.00000000000E+00 0.  1.
        -13    1    1    2    0    0 -0.12311725246E+03 -0.13993357001E+03  0.62023263528E+02  0.19643359757E+03  0.10566000000E+00 0.  1.
         13    1    1    2    0    0  0.10805779419E+03  0.14416487761E+03  0.20027977403E+03  0.26939190387E+03  0.10566000000E+00 0. -1.
         -4    1    1    2    0  502  0.15059458270E+02 -0.42313076004E+01 -0.71007202059E+02  0.72709792955E+02  0.00000000000E+00 0. -1.
</event>
<event>
 5    1  0.4419198E-005  0.4040502E+03  0.7818608E-02  0.9737651E-01
          4   -1    0    0  502    0 -0.00000000000E+00  0.00000000000E+00  0.22081063785E+04  0.22081063785E+04  0.00000000000E+00 0.  1.
         21   -1    0    0  501  502  0.00000000000E+00 -0.00000000000E+00 -0.68019860462E+03  0.68019860462E+03  0.00000000000E+00 0.  1.
        -13    1    1    2    0    0  0.31388871019E+03 -0.30051864685E+02 -0.21797256967E+03  0.38332921784E+03  0.10566000000E+00 0.  1.
         13    1    1    2    0    0  0.41698075880E+03 -0.35116255443E+02  0.17206182595E+04  0.17707719534E+04  0.10566000000E+00 0. -1.
          4    1    1    2  501    0 -0.73086946899E+03  0.65168120128E+02  0.25262084046E+02  0.73420381195E+03  0.00000000000E+00 0.  1.
</event>
<event>
 5    1  0.4419198E-005  0.6598578E+02  0.7818608E-02  0.1237671E+00
         21   -1    0    0  501  502  0.00000000000E+00  0.00000000000E+00  0.51471251862E+02  0.51471251862E+02  0.00000000000E+00 0. -1.
         -4   -1    0    0    0  501 -0.00000000000E+00 -0.00000000000E+00 -0.38631688422E+03  0.38631688422E+03  0.00000000000E+00 0. -1.
        -13    1    1    2    0    0 -0.46668188650E+02 -0.25940165163E+02 -0.15447510978E+03  0.16344229167E+03  0.10566000000E+00 0.  1.
         13    1    1    2    0    0  0.99331414380E+02  0.31093609744E+02 -0.19359708585E+03  0.21980306018E+03  0.10566000000E+00 0. -1.
         -4    1    1    2    0  502 -0.52663225730E+02 -0.51534445806E+01  0.13226563278E+02  0.54542784229E+02  0.00000000000E+00 0. -1.
</event>
<event>
 5    1  0.4419198E-005  0.6268962E+03  0.7818608E-02  0.9236359E-01
         21   -1    0    0  501  502  0.00000000000E+00  0.00000000000E+00  0.43952503579E+03  0.43952503579E+03  0.00000000000E+00 0.  1.
         -4   -1    0    0    0  501 -0.00000000000E+00 -0.00000000000E+00 -0.36913389723E+04  0.36913389723E+04  0.00000000000E+00 0. -1.
        -13    1    1    2    0    0  0.22973629621E+03 -0.61606918971E+03 -0.27819163484E+04  0.28585623298E+04  0.10566000000E+00 0.  1.
         13    1    1    2    0    0 -0.49554887138E+03  0.35478473991E+03 -0.62100537717E+03  0.87010837557E+03  0.10566000000E+00 0. -1.
         -4    1    1    2    0  502  0.26581257517E+03  0.26128444980E+03  0.15110778913E+03  0.40219330273E+03  0.00000000000E+00 0. -1.
</event>
<event>
 5    1  0.4419198E-005  0.4897941E+03  0.7818608E-02  0.9886458E-01
         -4   -1    0    0    0  501 -0.00000000000E+00  0.00000000000E+00  0.51320510104E+03  0.51320510104E+03  0.00000000000E+00 0. -1.
         21   -1    0    0  501  502  0.00000000000E+00 -0.00000000000E+00 -0.62236708804E+03  0.62236708804E+03  0.00000000000E+00 0. -1.
        -13    1    1    2    0    0 -0.12510573510E+03  0.24077347193E+02  0.29214681005E+02  0.13070834844E+03  0.10566000000E+00 0.  1.
         13    1    1    2    0    0  0.98495456544E+02  0.47728927230E+03 -0.12266091678E+03  0.50254563582E+03  0.10566000000E+00 0. -1.
         -4    1    1    2    0  502  0.26610278551E+02 -0.50136661949E+03 -0.15715751224E+02  0.50231820483E+03  0.00000000000E+00 0. -1.
</event>
<event>
 5    1  0.4419198E-005  0.4812597E+03  0.7818608E-02  0.9815071E-01
         -4   -1    0    0    0  501 -0.00000000000E+00  0.00000000000E+00  0.96159229434E+03  0.96159229434E+03  0.00000000000E+00 0. -1.
         21   -1    0    0  501  502  0.00000000000E+00 -0.00000000000E+00 -0.62795959472E+03  0.62795959472E+03  0.00000000000E+00 0. -1.
        -13    1    1    2    0    0  0.17576057669E+01  0.17092949505E+03  0.52961538973E+03  0.55651815214E+03  0.10566000000E+00 0.  1.
         13    1    1    2    0    0 -0.36069886515E+03  0.25697175955E+03 -0.16849083783E+03  0.47384314928E+03  0.10566000000E+00 0. -1.
         -4    1    1    2    0  502  0.35894125939E+03 -0.42790125459E+03 -0.27491852285E+02  0.55919058765E+03  0.00000000000E+00 0. -1.
</event>
<event>
 5    1  0.4419198E-005  0.4035537E+03  0.7818608E-02  0.9718839E-01
          4   -1    0    0  502    0 -0.00000000000E+00  0.00000000000E+00  0.25567803400E+04  0.25567803400E+04  0.00000000000E+00 0.  1.
         21   -1    0    0  501  502  0.00000000000E+00 -0.00000000000E+00 -0.15718528580E+03  0.15718528580E+03  0.00000000000E+00 0.  1.
        -13    1    1    2    0    0 -0.28010959424E+03 -0.29944257099E+03  0.19962253640E+04  0.20379016054E+04  0.10566000000E+00 0.  1.
         13    1    1    2    0    0  0.27585967419E+03  0.26526102289E+03  0.46695666439E+03  0.60374705605E+03  0.10566000000E+00 0. -1.
          4    1    1    2  501    0  0.42499200450E+01  0.34181548109E+02 -0.63586974193E+02  0.72316964390E+02  0.00000000000E+00 0.  1.
</event>
<event>
 5    1  0.4419198E-005  0.4424344E+03  0.7818608E-02  0.9613941E-01
          4   -1    0    0  502    0 -0.00000000000E+00  0.00000000000E+00  0.13382452017E+04  0.13382452017E+04  0.00000000000E+00 0.  1.
         21   -1    0    0  501  502  0.00000000000E+00 -0.00000000000E+00 -0.53601306115E+03  0.53601306115E+03  0.00000000000E+00 0.  1.
        -13    1    1    2    0    0  0.67559206582E+03 -0.18651933625E+03  0.17337966396E+03  0.72199350498E+03  0.10566000000E+00 0.  1.
         13    1    1    2    0    0 -0.32039895635E+03  0.23691304242E+03  0.68172378373E+03  0.78963954395E+03  0.10566000000E+00 0. -1.
          4    1    1    2  501    0 -0.35519310947E+03 -0.50393706173E+02 -0.52871307157E+02  0.36262521390E+03  0.00000000000E+00 0.  1.
</event>
<event>
 5    1  0.4419198E-005  0.4010607E+03  0.7818608E-02  0.9725988E-01
         -4   -1    0    0    0  501 -0.00000000000E+00  0.00000000000E+00  0.14522994507E+04  0.14522994507E+04  0.00000000000E+00 0. -1.
         21   -1    0    0  501  502  0.00000000000E+00 -0.00000000000E+00 -0.33340088195E+03  0.33340088195E+03  0.00000000000E+00 0. -1.
        -13    1    1    2    0    0 -0.18880562026E+03  0.32810225670E+03  0.77378981114E+03  0.86142285556E+03  0.10566000000E+00 0.  1.
         13    1    1    2    0    0  0.31032954066E+03 -0.32746234275E+03  0.53437703052E+03  0.69935315231E+03  0.10566000000E+00 0. -1.
         -4    1    1    2    0  502 -0.12152392040E+03 -0.63991394560E+00 -0.18926827294E+03  0.22492432474E+03  0.00000000000E+00 0. -1.
</event>
<event>
 5    1  0.4419198E-005  0.2124014E+03  0.7818608E-02  0.1089061E+00
         21   -1    0    0  501  502  0.00000000000E+00  0.00000000000E+00  0.63972545164E+03  0.63972545164E+03  0.00000000000E+00 0. -1.
         -4   -1    0    0    0  501 -0.00000000000E+00 -0.00000000000E+00 -0.54395227601E+03  0.54395227601E+03  0.00000000000E+00 0. -1.
        -13    1    1    2    0    0 -0.73408959616E+02 -0.24566629919E+01 -0.13529828772E+03  0.15394982419E+03  0.10566000000E+00 0.  1.
         13    1    1    2    0    0 -0.20371102641E+03 -0.46681257431E+02  0.55946902435E+03  0.59722937173E+03  0.10566000000E+00 0. -1.
         -4    1    1    2    0  502  0.27711998602E+03  0.49137920423E+02 -0.32839756101E+03  0.43249853174E+03  0.00000000000E+00 0. -1.
</event>
<event>
 5    1  0.4419198E-005  0.8523925E+02  0.7818608E-02  0.1191598E+00
         21   -1    0    0  501  502  0.00000000000E+00  0.00000000000E+00  0.55803251663E+03  0.55803251663E+03  0.00000000000E+00 0.  1.
         -4   -1    0    0    0  501 -0.00000000000E+00 -0.00000000000E+00 -0.36020746742E+02  0.36020746742E+02  0.00000000000E+00 0. -1.
        -13    1    1    2    0    0  0.10765361042E+03  0.12740485467E+02  0.26504195114E+03  0.28635444267E+03  0.10566000000E+00 0.  1.
         13    1    1    2    0    0 -0.79555750799E+02 -0.59552670523E+01  0.40801872418E+02  0.89606844871E+02  0.10566000000E+00 0. -1.
         -4    1    1    2    0  502 -0.28097859616E+02 -0.67852184152E+01  0.21616794632E+03  0.21809197583E+03  0.00000000000E+00 0. -1.
</event>
<event>
 5    1  0.4419198E-005  0.4946531E+03  0.7818608E-02  0.9796908E-01
         21   -1    0    0  501  502  0.00000000000E+00  0.00000000000E+00  0.15308003312E+03  0.15308003312E+03  0.00000000000E+00 0. -1.
         -4   -1    0    0    0  501 -0.00000000000E+00 -0.00000000000E+00 -0.23814419841E+04  0.23814419841E+04  0.00000000000E+00 0. -1.
        -13    1    1    2    0    0 -0.16710180773E+03 -0.11303429042E+02 -0.53003705045E+03  0.55586875040E+03  0.10566000000E+00 0.  1.
         13    1    1    2    0    0  0.59098119488E+03 -0.54326010845E+01 -0.97914289778E+03  0.11436822598E+04  0.10566000000E+00 0. -1.
         -4    1    1    2    0  502 -0.42387938715E+03  0.16736030127E+02 -0.71918200279E+03  0.83497100709E+03  0.00000000000E+00 0. -1.
</event>
<event>
 5    1  0.4419198E-005  0.4882246E+03  0.7818608E-02  0.9559769E-01
         -4   -1    0    0    0  501 -0.00000000000E+00  0.00000000000E+00  0.14818820213E+04  0.14818820213E+04  0.00000000000E+00 0. -1.
         21   -1    0    0  501  502  0.00000000000E+00 -0.00000000000E+00 -0.47683535476E+03  0.47683535476E+03  0.00000000000E+00 0. -1.
        -13    1    1    2    0    0  0.27074405152E+03 -0.29369788798E+03  0.76689610263E+03  0.86469094724E+03  0.10566000000E+00 0.  1.
         13    1    1    2    0    0  0.24790084048E+03 -0.10016250334E+03  0.34247009491E+03  0.43448029974E+03  0.10566000000E+00 0. -1.
         -4    1    1    2    0  502 -0.51864489201E+03  0.39386039131E+03 -0.10431953100E+03  0.65954612909E+03  0.00000000000E+00 0. -1.
</event>
<event>
 5    1  0.4419198E-005  0.2184681E+03  0.7818608E-02  0.1048163E+00
         21   -1    0    0  501  502  0.00000000000E+00  0.00000000000E+00  0.84875176456E+03  0.84875176456E+03  0.00000000000E+00 0. -1.
          4   -1    0    0  502    0 -0.00000000000E+00 -0.00000000000E+00 -0.20451960829E+03  0.20451960829E+03  0.00000000000E+00 0.  1.
        -13    1    1    2    0    0 -0.21143699528E+03  0.52258597563E+02 -0.10891081106E+03  0.24351209399E+03  0.10566000000E+00 0.  1.
         13    1    1    2    0    0  0.20192151823E+03 -0.11581294998E+03  0.60744724183E+03  0.65052063893E+03  0.10566000000E+00 0. -1.
          4    1    1    2  501    0  0.95154770429E+01  0.63554352418E+02  0.14569572551E+03  0.15923863993E+03  0.00000000000E+00 0.  1.
</event>
<event>
 5    1  0.4419198E-005  0.2860033E+02  0.7818608E-02  0.1416512E+00
          4   -1    0    0  502    0 -0.00000000000E+00  0.00000000000E+00  0.17382752791E+03  0.17382752791E+03  0.00000000000E+00 0.  1.
         21   -1    0    0  501  502  0.00000000000E+00 -0.00000000000E+00 -0.97958987893E+01  0.97958987893E+01  0.00000000000E+00 0.  1.
        -13    1    1    2    0    0  0.11017878618E+02  0.33157386508E+02  0.11304377569E+03  0.11832037996E+03  0.10566000000E+00 0.  1.
         13    1    1    2    0    0 -0.35585615679E+01 -0.22223170514E+02  0.45903039823E+02  0.51123701912E+02  0.10566000000E+00 0. -1.
          4    1    1    2  501    0 -0.74593170499E+01 -0.10934215994E+02  0.50848136154E+01  0.14179344828E+02  0.00000000000E+00 0.  1.
</event>
<event>
 5    1  0.4419198E-005  0.2039753E+03  0.7818608E-02  0.1057444E+00
         21   -1    0    0  501  502  0.00000000000E+00  0.00000000000E+00  0.13657158623E+03  0.13657158623E+03  0.00000000000E+00 0.  1.
         -4   -1    0    0    0  501 -0.00000000000E+00 -0.00000000000E+00 -0.72783460777E+03  0.72783460777E+03  0.00000000000E+00 0. -1.
        -13    1    1    2    0    0 -0.14869401079E+03 -0.15302517005E+03 -0.60535228239E+00  0.21337054420E+03  0.10566000000E+00 0.  1.
         13    1    1    2    0    0  0.15961504228E+03  0.12500538442E+03 -0.58665309183E+03  0.62069732493E+03  0.10566000000E+00 0. -1.
         -4    1    1    2    0  502 -0.10921031489E+02  0.28019785637E+02 -0.40045774268E+01  0.30338324876E+02  0.00000000000E+00 0. -1.
</event>
<event>
 5    1  0.4419198E-005  0.4949612E+03  0.7818608E-02  0.9527924E-01
         -4   -1    0    0    0  501 -0.00000000000E+00  0.00000000000E+00  0.17306791610E+04  0.17306791610E+04  0.00000000000E+00 0. -1.
         21   -1    0    0  501  502  0.00000000000E+00 -0.00000000000E+00 -0.58477521846E+03  0.58477521846E+03  0.00000000000E+00 0. -1.
        -13    1    1    2    0    0  0.13047055951E+03  0.51480243289E+03  0.10650448349E+04  0.11901111811E+04  0.10566000000E+00 0.  1.
         13    1    1    2    0    0  0.16391210038E+03  0.24813888268E+03  0.78496994595E+02  0.30757417166E+03  0.10566000000E+00 0. -1.
         -4    1    1    2    0  502 -0.29438265989E+03 -0.76294131556E+03  0.23621130085E+01  0.81776902669E+03  0.00000000000E+00 0. -1.
</event>
<event>
 5    1  0.4419198E-005  0.4815692E+03  0.7818608E-02  0.9750427E-01
         21   -1    0    0  501  502  0.00000000000E+00  0.00000000000E+00  0.15547563053E+03  0.15547563053E+03  0.00000000000E+00 0. -1.
         -4   -1    0    0    0  501 -0.00000000000E+00 -0.00000000000E+00 -0.27323659652E+04  0.27323659652E+04  0.00000000000E+00 0. -1.
        -13    1    1    2    0    0 -0.10591179412E+03  0.18468808829E+03 -0.91305737649E+03  0.93755041572E+03  0.10566000000E+00 0.  1.
         13    1    1    2    0    0 -0.41497032509E+03 -0.13399922122E+03 -0.10881914487E+04  0.11723125873E+04  0.10566000000E+00 0. -1.
         -4    1    1    2    0  502  0.52088211921E+03 -0.50688867073E+02 -0.57564150941E+03  0.77797859271E+03  0.00000000000E+00 0. -1.
</event>
<event>
 5    1  0.4419198E-005  0.4788548E+03  0.7818608E-02  0.9532109E-01
         21   -1    0    0  501  502  0.00000000000E+00  0.00000000000E+00  0.80297634274E+03  0.80297634274E+03  0.00000000000E+00 0.  1.
         -4   -1    0    0    0  501 -0.00000000000E+00 -0.00000000000E+00 -0.83654550671E+03  0.83654550671E+03  0.00000000000E+00 0. -1.
        -13    1    1    2    0    0  0.24744715719E+03 -0.41660217921E+03  0.11661776156E+03  0.49838457520E+03  0.10566000000E+00 0.  1.
         13    1    1    2    0    0  0.23659674560E+02 -0.14460077705E+03 -0.43270425514E+03  0.45683930271E+03  0.10566000000E+00 0. -1.
         -4    1    1    2    0  502 -0.27110683175E+03  0.56120295625E+03  0.28251732961E+03  0.68429797154E+03  0.00000000000E+00 0. -1.
</event>
<event>
 5    1  0.4419198E-005  0.2010604E+03  0.7818608E-02  0.1059411E+00
         -4   -1    0    0    0  501 -0.00000000000E+00  0.00000000000E+00  0.41490880357E+03  0.41490880357E+03  0.00000000000E+00 0. -1.
         21   -1    0    0  501  502  0.00000000000E+00 -0.00000000000E+00 -0.13845470202E+03  0.13845470202E+03  0.00000000000E+00 0.  1.
        -13    1    1    2    0    0 -0.71463034396E+02 -0.16704601228E+03  0.76130199245E+02  0.19699531443E+03  0.10566000000E+00 0.  1.
         13    1    1    2    0    0  0.10445882501E+03  0.18837325368E+03  0.22378689762E+03  0.31060701141E+03  0.10566000000E+00 0. -1.
         -4    1    1    2    0  502 -0.32995790617E+02 -0.21327241397E+02 -0.23462995318E+02  0.45761179763E+02  0.00000000000E+00 0. -1.
</event>
<event>
 5    1  0.4419198E-005  0.1008278E+03  0.7818608E-02  0.1163193E+00
         21   -1    0    0  501  502  0.00000000000E+00  0.00000000000E+00  0.21483871649E+03  0.21483871649E+03  0.00000000000E+00 0.  1.
         -4   -1    0    0    0  501 -0.00000000000E+00 -0.00000000000E+00 -0.14393616827E+03  0.14393616827E+03  0.00000000000E+00 0. -1.
        -13    1    1    2    0    0  0.76662057467E+01 -0.60802692140E+02  0.15504288125E+03  0.16671545901E+03  0.10566000000E+00 0.  1.
         13    1    1    2    0    0  0.69268022492E+01  0.10666929621E+03 -0.94669833415E+02  0.14278903272E+03  0.10566000000E+00 0. -1.
         -4    1    1    2    0  502 -0.14593007996E+02 -0.45866604066E+02  0.10529500379E+02  0.49270393028E+02  0.00000000000E+00 0. -1.
</event>
<event>
 5    1  0.4419198E-005  0.4756114E+03  0.7818608E-02  0.9977130E-01
         21   -1    0    0  501  502  0.00000000000E+00  0.00000000000E+00  0.27087748066E+03  0.27087748066E+03  0.00000000000E+00 0. -1.
         -4   -1    0    0    0  501 -0.00000000000E+00 -0.00000000000E+00 -0.12378324945E+04  0.12378324945E+04  0.00000000000E+00 0. -1.
        -13    1    1    2    0    0  0.19366785047E+02  0.10109964169E+03 -0.28401474828E+03  0.30209369129E+03  0.10566000000E+00 0.  1.
         13    1    1    2    0    0  0.29759868240E+03 -0.40190125173E+03 -0.15983885900E+03  0.52501244168E+03  0.10566000000E+00 0. -1.
         -4    1    1    2    0  502 -0.31696546744E+03  0.30080161005E+03 -0.52310140659E+03  0.68160384222E+03  0.00000000000E+00 0. -1.
</event>
<event>
 5    1  0.4419198E-005  0.3931816E+03  0.7818608E-02  0.1001512E+00
          4   -1    0    0  502    0 -0.00000000000E+00  0.00000000000E+00  0.14979967879E+04  0.14979967879E+04  0.00000000000E+00 0.  1.
         21   -1    0    0  501  502  0.00000000000E+00 -0.00000000000E+00 -0.24898539195E+03  0.24898539195E+03  0.00000000000E+00 0.  1.
        -13    1    1    2    0    0  0.41380780445E+03  0.39713677314E+01  0.77822999580E+01  0.41390004367E+03  0.10566000000E+00 0.  1.
         13    1    1    2    0    0 -0.10937246570E+03 -0.11795184735E+03  0.38772583001E+03  0.41976934734E+03  0.10566000000E+00 0. -1.
          4    1    1    2  501    0 -0.30443533875E+03  0.11398047962E+03  0.85350326600E+03  0.91331278886E+03  0.00000000000E+00 0.  1.
</event>
<event>
 5    1  0.4419198E-005  0.7440679E+02  0.7818608E-02  0.1215618E+00
         21   -1    0    0  501  502  0.00000000000E+00  0.00000000000E+00  0.24403322048E+02  0.24403322048E+02  0.00000000000E+00 0. -1.
          4   -1    0    0  502    0 -0.00000000000E+00 -0.00000000000E+00 -0.39647649584E+03  0.39647649584E+03  0.00000000000E+00 0.  1.
        -13    1    1    2    0    0  0.63040932570E+02  0.40684111735E+02 -0.28292727965E+03  0.29270670109E+03  0.10566000000E+00 0.  1.
         13    1    1    2    0    0 -0.51904536865E+02 -0.52633899415E+02 -0.81830395513E+02  0.11027526064E+03  0.10566000000E+00 0. -1.
          4    1    1    2  501    0 -0.11136395705E+02  0.11949787681E+02 -0.73154986226E+01  0.17897856157E+02  0.00000000000E+00 0.  1.
</event>
<event>
 5    1  0.4419198E-005  0.1460629E+03  0.7818608E-02  0.1105061E+00
          4   -1    0    0  502    0 -0.00000000000E+00  0.00000000000E+00  0.47840321988E+03  0.47840321988E+03  0.00000000000E+00 0.  1.
         21   -1    0    0  501  502  0.00000000000E+00 -0.00000000000E+00 -0.32228854791E+03  0.32228854791E+03  0.00000000000E+00 0. -1.
        -13    1    1    2    0    0 -0.88928441510E+02 -0.11588857019E+03  0.40011993968E+03  0.42595117760E+03  0.10566000000E+00 0.  1.
         13    1    1    2    0    0  0.10422820440E+02  0.17368475516E+03 -0.20712819109E+03  0.27051271332E+03  0.10566000000E+00 0. -1.
          4    1    1    2  501    0  0.78505621070E+02 -0.57796184968E+02 -0.36877076627E+02  0.10422787687E+03  0.00000000000E+00 0.  1.
</event>
<event>
 5    1  0.7488158E-005  0.4352184E+03  0.7818608E-02  0.1008933E+00
         21   -1    0    0  501  502  0.00000000000E+00  0.00000000000E+00  0.56217423871E+03  0.56217423871E+03  0.00000000000E+00 0.  1.
          4   -1    0    0  502    0 -0.00000000000E+00 -0.00000000000E+00 -0.55436834768E+03  0.55436834768E+03  0.00000000000E+00 0.  1.
        -13    1    1    2    0    0 -0.39980812687E+03 -0.10165491750E+03  0.23703355862E+03  0.47577849851E+03  0.10566000000E+00 0.  1.
         13    1    1    2    0    0 -0.93099312142E+02  0.49740942762E+01 -0.59330444990E+02  0.11050944033E+03  0.10566000000E+00 0. -1.
          4    1    1    2  501    0  0.49290743901E+03  0.96680823226E+02 -0.16989722260E+03  0.53025464756E+03  0.00000000000E+00 0.  1.
</event>
<event>
 5    1  0.4419198E-005  0.1902469E+02  0.7818608E-02  0.1526419E+00
          4   -1    0    0  502    0 -0.00000000000E+00  0.00000000000E+00  0.32411964235E+02  0.32411964235E+02  0.00000000000E+00 0.  1.
         21   -1    0    0  501  502  0.00000000000E+00 -0.00000000000E+00 -0.65716052254E+02  0.65716052254E+02  0.00000000000E+00 0. -1.
        -13    1    1    2    0    0 -0.15697132527E+02 -0.97552460810E+01  0.19701906639E+02  0.27013720309E+02  0.10566000000E+00 0.  1.
         13    1    1    2    0    0  0.26686125765E+02 -0.61921784382E+01 -0.25161511937E+02  0.37196844344E+02  0.10566000000E+00 0. -1.
          4    1    1    2  501    0 -0.10988993238E+02  0.15947424519E+02 -0.27844482720E+02  0.33917451837E+02  0.00000000000E+00 0.  1.
</event>
<event>
 5    1  0.4419198E-005  0.1132300E+03  0.7818608E-02  0.1144348E+00
         -4   -1    0    0    0  501 -0.00000000000E+00  0.00000000000E+00  0.66677337682E+02  0.66677337682E+02  0.00000000000E+00 0. -1.
         21   -1    0    0  501  502  0.00000000000E+00 -0.00000000000E+00 -0.66800996385E+03  0.66800996385E+03  0.00000000000E+00 0. -1.
        -13    1    1    2    0    0 -0.11561698364E+03 -0.78835280810E+01 -0.25350832653E+02  0.11862593646E+03  0.10566000000E+00 0.  1.
         13    1    1    2    0    0  0.10683669296E+03  0.16452722477E+02 -0.12642503294E+03  0.16633722120E+03  0.10566000000E+00 0. -1.
         -4    1    1    2    0  502  0.87802906844E+01 -0.85691943960E+01 -0.44955676057E+03  0.44972414387E+03  0.00000000000E+00 0. -1.
</event>
<event>
 5    1  0.4419198E-005  0.3522454E+03  0.7818608E-02  0.1016829E+00
          4   -1    0    0  502    0 -0.00000000000E+00  0.00000000000E+00  0.12329779645E+04  0.12329779645E+04  0.00000000000E+00 0.  1.
         21   -1    0    0  501  502  0.00000000000E+00 -0.00000000000E+00 -0.31613829122E+03  0.31613829122E+03  0.00000000000E+00 0.  1.
        -13    1    1    2    0    0 -0.25658416480E+03 -0.22266555169E+03 -0.11844935001E+03  0.35978554892E+03  0.10566000000E+00 0.  1.
         13    1    1    2    0    0 -0.17820853179E+01 -0.13662363561E+03  0.32370972323E+03  0.35136475309E+03  0.10566000000E+00 0. -1.
          4    1    1    2  501    0  0.25836625011E+03  0.35928918730E+03  0.71157930003E+03  0.83796595369E+03  0.00000000000E+00 0.  1.
</event>
<event>
 5    1  0.4419198E-005  0.4279436E+03  0.7818608E-02  0.1015347E+00
          4   -1    0    0  502    0 -0.00000000000E+00  0.00000000000E+00  0.22973771478E+03  0.22973771478E+03  0.00000000000E+00 0.  1.
         21   -1    0    0  501  502  0.00000000000E+00 -0.00000000000E+00 -0.14265058814E+04  0.14265058814E+04  0.00000000000E+00 0.  1.
        -13    1    1    2    0    0  0.10798741725E+03 -0.41951923434E+03 -0.21034021116E+03  0.48156067724E+03  0.10566000000E+00 0.  1.
         13    1    1    2    0    0  0.73292022586E+02  0.31742039271E+02  0.18848991229E+02  0.82064445810E+02  0.10566000000E+00 0. -1.
          4    1    1    2  501    0 -0.18127943983E+03  0.38777719507E+03 -0.10052769467E+04  0.10926184732E+04  0.00000000000E+00 0.  1.
</event>
<event>
 5    1  0.4419198E-005  0.4556424E+03  0.7818608E-02  0.9817093E-01
         21   -1    0    0  501  502  0.00000000000E+00  0.00000000000E+00  0.29298530485E+03  0.29298530485E+03  0.00000000000E+00 0.  1.
         -4   -1    0    0    0  501 -0.00000000000E+00 -0.00000000000E+00 -0.14803481771E+04  0.14803481771E+04  0.00000000000E+00 0. -1.
        -13    1    1    2    0    0 -0.66413665780E+02 -0.18869352418E+03  0.91609947278E+01  0.20024973422E+03  0.10566000000E+00 0.  1.
         13    1    1    2    0    0  0.32133018905E+03  0.49725772255E+03 -0.89007293879E+03  0.10689940040E+04  0.10566000000E+00 0. -1.
         -4    1    1    2    0  502 -0.25491652327E+03 -0.30856419838E+03 -0.30645092820E+03  0.50408974375E+03  0.00000000000E+00 0. -1.
</event>
<event>
 5    1  0.4419198E-005  0.4989850E+03  0.7818608E-02  0.9899086E-01
         21   -1    0    0  501  502  0.00000000000E+00  0.00000000000E+00  0.64883824692E+03  0.64883824692E+03  0.00000000000E+00 0.  1.
          4   -1    0    0  502    0 -0.00000000000E+00 -0.00000000000E+00 -0.73738014434E+03  0.73738014434E+03  0.00000000000E+00 0.  1.
        -13    1    1    2    0    0 -0.21416048462E+03 -0.48180124478E+03  0.26324217717E+03  0.58931622042E+03  0.10566000000E+00 0.  1.
         13    1    1    2    0    0 -0.50108632777E+02  0.10406315118E+03 -0.31374832775E+03  0.33433222824E+03  0.10566000000E+00 0. -1.
          4    1    1    2  501    0  0.26426911740E+03  0.37773809359E+03 -0.38035746841E+02  0.46256994260E+03  0.00000000000E+00 0.  1.
</event>
<event>
 5    1  0.4419198E-005  0.1079522E+03  0.7818608E-02  0.1152029E+00
         21   -1    0    0  501  502  0.00000000000E+00  0.00000000000E+00  0.80445474049E+02  0.80445474049E+02  0.00000000000E+00 0.  1.
         -4   -1    0    0    0  501 -0.00000000000E+00 -0.00000000000E+00 -0.28439582536E+03  0.28439582536E+03  0.00000000000E+00 0. -1.
        -13    1    1    2    0    0  0.24234485539E+02 -0.11066006598E+03 -0.81241792805E+01  0.11357364987E+03  0.10566000000E+00 0.  1.
         13    1    1    2    0    0 -0.40909860626E+01  0.10688942306E+03 -0.20307944480E+03  0.22952855377E+03  0.10566000000E+00 0. -1.
         -4    1    1    2    0  502 -0.20143499476E+02  0.37706429190E+01  0.72532727648E+01  0.21739095772E+02  0.00000000000E+00 0. -1.
</event>
<event>
 5    1  0.4419198E-005  0.4909384E+03  0.7818608E-02  0.9729330E-01
         -4   -1    0    0    0  501 -0.00000000000E+00  0.00000000000E+00  0.31503377228E+03  0.31503377228E+03  0.00000000000E+00 0. -1.
         21   -1    0    0  501  502  0.00000000000E+00 -0.00000000000E+00 -0.12510725549E+04  0.12510725549E+04  0.00000000000E+00 0. -1.
        -13    1    1    2    0    0 -0.17003771620E+03 -0.13342728606E+03 -0.40898798037E+02  0.21997360851E+03  0.10566000000E+00 0.  1.
         13    1    1    2    0    0  0.33820950646E+02  0.55499071389E+03 -0.57254310733E+03  0.79810035091E+03  0.10566000000E+00 0. -1.
         -4    1    1    2    0  502  0.13621676555E+03 -0.42156342782E+03 -0.32259687725E+03  0.54803236775E+03  0.00000000000E+00 0. -1.
</event>
<event>
 5    1  0.4419198E-005  0.4923223E+03  0.7818608E-02  0.9680633E-01
          4   -1    0    0  502    0 -0.00000000000E+00  0.00000000000E+00  0.86541224140E+03  0.86541224140E+03  0.00000000000E+00 0.  1.
         21   -1    0    0  501  502  0.00000000000E+00 -0.00000000000E+00 -0.54876070898E+03  0.54876070898E+03  0.00000000000E+00 0.  1.
        -13    1    1    2    0    0  0.55311306816E+03 -0.12825599214E+02  0.17082293129E+03  0.57903285501E+03  0.10566000000E+00 0.  1.
         13    1    1    2    0    0 -0.15402692296E+03 -0.20183122737E+03 -0.14912960064E+03  0.29444827438E+03  0.10566000000E+00 0. -1.
          4    1    1    2  501    0 -0.39908614520E+03  0.21465682658E+03  0.29495820177E+03  0.54069182098E+03  0.00000000000E+00 0.  1.
</event>
<event>
 5    1  0.4419198E-005  0.1974449E+03  0.7818608E-02  0.1061902E+00
         -4   -1    0    0    0  501 -0.00000000000E+00  0.00000000000E+00  0.92147418157E+03  0.92147418157E+03  0.00000000000E+00 0. -1.
         21   -1    0    0  501  502  0.00000000000E+00 -0.00000000000E+00 -0.60154093320E+02  0.60154093320E+02  0.00000000000E+00 0.  1.
        -13    1    1    2    0    0 -0.13554263706E+03 -0.98449356163E+02  0.27009013509E+03  0.31782506891E+03  0.10566000000E+00 0.  1.
         13    1    1    2    0    0  0.19977274161E+03  0.11104191625E+03  0.51427820310E+03  0.56278018515E+03  0.10566000000E+00 0. -1.
         -4    1    1    2    0  502 -0.64230104548E+02 -0.12592560089E+02  0.76951750056E+02  0.10102302082E+03  0.00000000000E+00 0. -1.
</event>
<event>
 5    1  0.4419198E-005  0.4986203E+03  0.7818608E-02  0.9481001E-01
          4   -1    0    0  502    0 -0.00000000000E+00  0.00000000000E+00  0.81791404654E+03  0.81791404654E+03  0.00000000000E+00 0.  1.
         21   -1    0    0  501  502  0.00000000000E+00 -0.00000000000E+00 -0.87448736792E+03  0.87448736792E+03  0.00000000000E+00 0.  1.
        -13    1    1    2    0    0  0.13197588906E+03  0.74630463991E+03 -0.33814657860E+03  0.82989840982E+03  0.10566000000E+00 0.  1.
         13    1    1    2    0    0 -0.69351004403E+01 -0.44699301940E+03  0.29872647317E+03  0.53766938907E+03  0.10566000000E+00 0. -1.
          4    1    1    2  501    0 -0.12504078862E+03 -0.29931162051E+03 -0.17153215943E+02  0.32483361557E+03  0.00000000000E+00 0.  1.
</event>
<event>
 5    1  0.4419198E-005  0.5008275E+03  0.7818608E-02  0.9480875E-01
         21   -1    0    0  501  502  0.00000000000E+00  0.00000000000E+00  0.39506635712E+03  0.39506635712E+03  0.00000000000E+00 0.  1.
          4   -1    0    0  502    0 -0.00000000000E+00 -0.00000000000E+00 -0.17846933282E+04  0.17846933282E+04  0.00000000000E+00 0.  1.
        -13    1    1    2    0    0 -0.50800566537E+03 -0.64479935336E+02 -0.76436243488E+03  0.92004204313E+03  0.10566000000E+00 0.  1.
         13    1    1    2    0    0  0.23360296987E+03 -0.44789602367E+03 -0.21902265032E+03  0.55059252453E+03  0.10566000000E+00 0. -1.
          4    1    1    2  501    0  0.27440269550E+03  0.51237595900E+03 -0.40624188592E+03  0.70912511769E+03  0.00000000000E+00 0.  1.
</event>
<event>
 5    1  0.4419198E-005  0.7473966E+02  0.7818608E-02  0.1214814E+00
         21   -1    0    0  501  502  0.00000000000E+00  0.00000000000E+00  0.31713004286E+03  0.31713004286E+03  0.00000000000E+00 0.  1.
          4   -1    0    0  502    0 -0.00000000000E+00 -0.00000000000E+00 -0.13037539360E+03  0.13037539360E+03  0.00000000000E+00 0.  1.
        -13    1    1    2    0    0 -0.72052819598E+02 -0.24237774899E+02 -0.11340474831E+03  0.13652738424E+03  0.10566000000E+00 0.  1.
         13    1    1    2    0    0  0.47116501068E+02  0.11357914164E+02  0.23636407759E+03  0.24128189992E+03  0.10566000000E+00 0. -1.
          4    1    1    2  501    0  0.24936318530E+02  0.12879860735E+02  0.63795319980E+02  0.69696152302E+02  0.00000000000E+00 0.  1.
</event>
<event>
 5    1  0.4419198E-005  0.4948132E+03  0.7818608E-02  0.1026946E+00
         21   -1    0    0  501  502  0.00000000000E+00  0.00000000000E+00  0.81151307613E+03  0.81151307613E+03  0.00000000000E+00 0. -1.
         -4   -1    0    0    0  501 -0.00000000000E+00 -0.00000000000E+00 -0.33286765323E+03  0.33286765323E+03  0.00000000000E+00 0. -1.
        -13    1    1    2    0    0 -0.32093689667E+02 -0.16035757675E+02 -0.11329781501E+02  0.37623470780E+02  0.10566000000E+00 0.  1.
         13    1    1    2    0    0  0.38346662525E+02 -0.48581544866E+03  0.19719677594E+03  0.52571256052E+03  0.10566000000E+00 0. -1.
         -4    1    1    2    0  502 -0.62529728584E+01  0.50185120633E+03  0.29277842847E+03  0.58104469806E+03  0.00000000000E+00 0. -1.
</event>
<event>
 5    1  0.4419198E-005  0.1439799E+03  0.7818608E-02  0.1107205E+00
         -4   -1    0    0    0  501 -0.00000000000E+00  0.00000000000E+00  0.11262175996E+04  0.11262175996E+04  0.00000000000E+00 0. -1.
         21   -1    0    0  501  502  0.00000000000E+00 -0.00000000000E+00 -0.28092152562E+02  0.28092152562E+02  0.00000000000E+00 0.  1.
        -13    1    1    2    0    0  0.12048098156E+03  0.67004926046E+02  0.24730853148E+03  0.28313750712E+03  0.10566000000E+00 0.  1.
         13    1    1    2    0    0 -0.13543805426E+03 -0.55638837090E+02  0.83125003145E+03  0.84404725738E+03  0.10566000000E+00 0. -1.
         -4    1    1    2    0  502  0.14957072697E+02 -0.11366088956E+02  0.19566884087E+02  0.27124987644E+02  0.00000000000E+00 0. -1.
</event>
<event>
 5    1  0.4419198E-005  0.5020739E+03  0.7818608E-02  0.9805923E-01
         21   -1    0    0  501  502  0.00000000000E+00  0.00000000000E+00  0.14722611576E+04  0.14722611576E+04  0.00000000000E+00 0.  1.
          4   -1    0    0  502    0 -0.00000000000E+00 -0.00000000000E+00 -0.27721550407E+03  0.27721550407E+03  0.00000000000E+00 0.  1.
        -13    1    1    2    0    0  0.26109286002E+03 -0.49659006840E+03  0.79223538141E+03  0.97077705386E+03  0.10566000000E+00 0.  1.
         13    1    1    2    0    0  0.22956384772E+02  0.15360782870E+03 -0.29447665192E+02  0.15808079197E+03  0.10566000000E+00 0. -1.
          4    1    1    2  501    0 -0.28404924479E+03  0.34298223969E+03  0.43225793735E+03  0.62061881587E+03  0.00000000000E+00 0.  1.
</event>
<event>
 5    1  0.4419198E-005  0.4605847E+03  0.7818608E-02  0.9582086E-01
         21   -1    0    0  501  502  0.00000000000E+00  0.00000000000E+00  0.75255506600E+03  0.75255506600E+03  0.00000000000E+00 0. -1.
         -4   -1    0    0    0  501 -0.00000000000E+00 -0.00000000000E+00 -0.88912770824E+03  0.88912770824E+03  0.00000000000E+00 0. -1.
        -13    1    1    2    0    0 -0.37313537419E+03  0.23173596465E+03 -0.30485264413E+03  0.53466504522E+03  0.10566000000E+00 0.  1.
         13    1    1    2    0    0 -0.22389156114E+03 -0.38420293286E+03  0.20516611734E+03  0.48972693579E+03  0.10566000000E+00 0. -1.
         -4    1    1    2    0  502  0.59702693533E+03  0.15246696821E+03 -0.36886115467E+02  0.61729079324E+03  0.00000000000E+00 0. -1.
</event>
<event>
 5    1  0.4419198E-005  0.3092208E+03  0.7818608E-02  0.1003570E+00
         21   -1    0    0  501  502  0.00000000000E+00  0.00000000000E+00  0.20736155957E+03  0.20736155957E+03  0.00000000000E+00 0. -1.
         -4   -1    0    0    0  501 -0.00000000000E+00 -0.00000000000E+00 -0.21093368999E+04  0.21093368999E+04  0.00000000000E+00 0. -1.
        -13    1    1    2    0    0  0.13725807125E+03 -0.24216888824E+03 -0.35734667483E+03  0.45297042479E+03  0.10566000000E+00 0.  1.
         13    1    1    2    0    0  0.78262871358E+02  0.33414662234E+03 -0.15886548025E+04  0.16253009368E+04  0.10566000000E+00 0. -1.
         -4    1    1    2    0  502 -0.21552094261E+03 -0.91977734103E+02  0.44026137044E+02  0.23842709791E+03  0.00000000000E+00 0. -1.
</event>
<event>
 5    1  0.4419198E-005  0.4907313E+03  0.7818608E-02  0.9705338E-01
         21   -1    0    0  501  502  0.00000000000E+00  0.00000000000E+00  0.29173586990E+03  0.29173586990E+03  0.00000000000E+00 0.  1.
          4   -1    0    0  502    0 -0.00000000000E+00 -0.00000000000E+00 -0.18726680865E+04  0.18726680865E+04  0.00000000000E+00 0.  1.
        -13    1    1    2    0    0  0.32629466942E-01  0.50432256968E+03 -0.51159074700E+03  0.71837758800E+03  0.10566000000E+00 0.  1.
         13    1    1    2    0    0 -0.22850134674E+03 -0.55748905620E+02 -0.87557793012E+03  0.90661873399E+03  0.10566000000E+00 0. -1.
          4    1    1    2  501    0  0.22846871727E+03 -0.44857366406E+03 -0.19376353952E+03  0.53940763446E+03  0.00000000000E+00 0.  1.
</event>
<event>
 5    1  0.4419198E-005  0.5099713E+03  0.7818608E-02  0.9615637E-01
         21   -1    0    0  501  502  0.00000000000E+00  0.00000000000E+00  0.56042731958E+03  0.56042731958E+03  0.00000000000E+00 0.  1.
          4   -1    0    0  502    0 -0.00000000000E+00 -0.00000000000E+00 -0.16305734958E+04  0.16305734958E+04  0.00000000000E+00 0.  1.
        -13    1    1    2    0    0  0.31861675663E+03 -0.55080141837E+03  0.74747807381E+02  0.64069188067E+03  0.10566000000E+00 0.  1.
         13    1    1    2    0    0 -0.25244426879E+03  0.13689814193E+03 -0.10904475115E+04  0.11276280400E+04  0.10566000000E+00 0. -1.
          4    1    1    2  501    0 -0.66172487842E+02  0.41390327645E+03 -0.54446472075E+02  0.42268089467E+03  0.00000000000E+00 0.  1.
</event>
<event>
 5    1  0.4419198E-005  0.4809786E+03  0.7818608E-02  0.9777891E-01
         21   -1    0    0  501  502  0.00000000000E+00  0.00000000000E+00  0.47720762184E+03  0.47720762184E+03  0.00000000000E+00 0.  1.
          4   -1    0    0  502    0 -0.00000000000E+00 -0.00000000000E+00 -0.13229112793E+04  0.13229112793E+04  0.00000000000E+00 0.  1.
        -13    1    1    2    0    0 -0.39359732592E+03  0.29326556916E+03  0.11847412872E+03  0.50493532196E+03  0.10566000000E+00 0.  1.
         13    1    1    2    0    0  0.14722376620E+03  0.12699784014E+03 -0.72852560263E+03  0.75402443832E+03  0.10566000000E+00 0. -1.
          4    1    1    2  501    0  0.24637355972E+03 -0.42026340929E+03 -0.23565218355E+03  0.54115914086E+03  0.00000000000E+00 0.  1.
</event>
<event>
 5    1  0.4419198E-005  0.9409914E+02  0.7818608E-02  0.1174706E+00
         21   -1    0    0  501  502  0.00000000000E+00  0.00000000000E+00  0.58410666980E+02  0.58410666980E+02  0.00000000000E+00 0.  1.
         -4   -1    0    0    0  501 -0.00000000000E+00 -0.00000000000E+00 -0.25787477403E+03  0.25787477403E+03  0.00000000000E+00 0. -1.
        -13    1    1    2    0    0 -0.64613537658E+02 -0.57221130260E+02 -0.45255647786E+02  0.97453844549E+02  0.10566000000E+00 0.  1.
         13    1    1    2    0    0  0.65819537796E+02  0.72895362133E+02 -0.17013822967E+03  0.19645094486E+03  0.10566000000E+00 0. -1.
         -4    1    1    2    0  502 -0.12060001388E+01 -0.15674231872E+02  0.15929770404E+02  0.22380651605E+02  0.00000000000E+00 0. -1.
</event>
<event>
 5    1  0.4419198E-005  0.2631351E+03  0.7818608E-02  0.1023802E+00
          4   -1    0    0  502    0 -0.00000000000E+00  0.00000000000E+00  0.28070354233E+03  0.28070354233E+03  0.00000000000E+00 0.  1.
         21   -1    0    0  501  502  0.00000000000E+00 -0.00000000000E+00 -0.46389733862E+03  0.46389733862E+03  0.00000000000E+00 0. -1.
        -13    1    1    2    0    0  0.25767011594E+02  0.26693723474E+03  0.13501542017E+03  0.30024756622E+03  0.10566000000E+00 0.  1.
         13    1    1    2    0    0 -0.47217529899E+02 -0.24405019728E+03 -0.19141069219E+03  0.31373246273E+03  0.10566000000E+00 0. -1.
          4    1    1    2  501    0  0.21450518305E+02 -0.22887037460E+02 -0.12679852427E+03  0.13062085200E+03  0.00000000000E+00 0.  1.
</event>
<event>
 5    1  0.4419198E-005  0.4468417E+03  0.7818608E-02  0.1072988E+00
          4   -1    0    0  502    0 -0.00000000000E+00  0.00000000000E+00  0.28952716715E+03  0.28952716715E+03  0.00000000000E+00 0.  1.
         21   -1    0    0  501  502  0.00000000000E+00 -0.00000000000E+00 -0.84345038386E+03  0.84345038386E+03  0.00000000000E+00 0.  1.
        -13    1    1    2    0    0  0.33994392711E+03  0.28472234463E+03 -0.14767012607E+03  0.46737047875E+03  0.10566000000E+00 0.  1.
         13    1    1    2    0    0 -0.30826123648E+01  0.11992017349E+02  0.34404493650E+02  0.36564891993E+02  0.10566000000E+00 0. -1.
          4    1    1    2  501    0 -0.33686131474E+03 -0.29671436198E+03 -0.44065758429E+03  0.62904218027E+03  0.00000000000E+00 0.  1.
</event>
<event>
 5    1  0.4419198E-005  0.4700977E+03  0.7818608E-02  0.9972231E-01
          4   -1    0    0  502    0 -0.00000000000E+00  0.00000000000E+00  0.12250835673E+04  0.12250835673E+04  0.00000000000E+00 0.  1.
         21   -1    0    0  501  502  0.00000000000E+00 -0.00000000000E+00 -0.28488258388E+03  0.28488258388E+03  0.00000000000E+00 0.  1.
        -13    1    1    2    0    0  0.41401347617E+03  0.29190721464E+03  0.96814388909E+02  0.51574220059E+03  0.10566000000E+00 0.  1.
         13    1    1    2    0    0 -0.93295858608E+02 -0.55070637502E+02  0.30941362508E+03  0.32783180885E+03  0.10566000000E+00 0. -1.
          4    1    1    2  501    0 -0.32071761756E+03 -0.23683657714E+03  0.53397296945E+03  0.66639214175E+03  0.00000000000E+00 0.  1.
</event>
<event>
 5    1  0.4419198E-005  0.2519065E+03  0.7818608E-02  0.1029409E+00
         21   -1    0    0  501  502  0.00000000000E+00  0.00000000000E+00  0.25225956292E+03  0.25225956292E+03  0.00000000000E+00 0.  1.
          4   -1    0    0  502    0 -0.00000000000E+00 -0.00000000000E+00 -0.13566876674E+04  0.13566876674E+04  0.00000000000E+00 0.  1.
        -13    1    1    2    0    0  0.13795366219E+03  0.19969526807E+03 -0.10397493979E+04  0.10677023156E+04  0.10566000000E+00 0.  1.
         13    1    1    2    0    0 -0.23296554012E+03 -0.21263607507E+03 -0.20141354081E+03  0.37423851872E+03  0.10566000000E+00 0. -1.
          4    1    1    2  501    0  0.95011877927E+02  0.12940807007E+02  0.13673483423E+03  0.16700639606E+03  0.00000000000E+00 0.  1.
</event>
<event>
 5    1  0.4419198E-005  0.7264954E+02  0.7818608E-02  0.1219942E+00
         -4   -1    0    0    0  501 -0.00000000000E+00  0.00000000000E+00  0.69373580290E+03  0.69373580290E+03  0.00000000000E+00 0. -1.
         21   -1    0    0  501  502  0.00000000000E+00 -0.00000000000E+00 -0.38737371181E+02  0.38737371181E+02  0.00000000000E+00 0.  1.
        -13    1    1    2    0    0  0.30196708970E+02 -0.99010416880E+02  0.30265503016E+03  0.31986713230E+03  0.10566000000E+00 0.  1.
         13    1    1    2    0    0 -0.15517789305E+02  0.61048805468E+02  0.36467733055E+03  0.37007745813E+03  0.10566000000E+00 0. -1.
         -4    1    1    2    0  502 -0.14678919665E+02  0.37961611411E+02 -0.12333928984E+02  0.42528583655E+02  0.00000000000E+00 0. -1.
</event>
<event>
 5    1  0.4419198E-005  0.4598599E+03  0.7818608E-02  0.9952950E-01
         21   -1    0    0  501  502  0.00000000000E+00  0.00000000000E+00  0.28726734258E+03  0.28726734258E+03  0.00000000000E+00 0. -1.
         -4   -1    0    0    0  501 -0.00000000000E+00 -0.00000000000E+00 -0.14810770527E+04  0.14810770527E+04  0.00000000000E+00 0. -1.
        -13    1    1    2    0    0  0.17986510920E+02  0.12202636844E+03 -0.53099895506E+03  0.54513654309E+03  0.10566000000E+00 0.  1.
         13    1    1    2    0    0  0.38421038060E+03 -0.27933093150E+03 -0.55857533489E+02  0.47829223396E+03  0.10566000000E+00 0. -1.
         -4    1    1    2    0  502 -0.40219689152E+03  0.15730456306E+03 -0.60695322160E+03  0.74491561825E+03  0.00000000000E+00 0. -1.
</event>
<event>
 5    1  0.4419198E-005  0.1464543E+02  0.7818608E-02  0.1601810E+00
         -4   -1    0    0    0  501 -0.00000000000E+00  0.00000000000E+00  0.65011158537E+02  0.65011158537E+02  0.00000000000E+00 0. -1.
         21   -1    0    0  501  502  0.00000000000E+00 -0.00000000000E+00 -0.83275291024E+02  0.83275291024E+02  0.00000000000E+00 0. -1.
        -13    1    1    2    0    0  0.11098423738E+02 -0.19833716072E+02 -0.19431986511E+02  0.29902584612E+02  0.10566000000E+00 0.  1.
         13    1    1    2    0    0 -0.11555897446E+02  0.86316724499E+01  0.58353389364E+02  0.60109680995E+02  0.10566000000E+00 0. -1.
         -4    1    1    2    0  502  0.45747370768E+00  0.11202043622E+02 -0.57185535339E+02  0.58274183954E+02  0.00000000000E+00 0. -1.
</event>
<event>
 5    1  0.4419198E-005  0.4322211E+03  0.7818608E-02  0.1025845E+00
         -4   -1    0    0    0  501 -0.00000000000E+00  0.00000000000E+00  0.12425658871E+04  0.12425658871E+04  0.00000000000E+00 0. -1.
         21   -1    0    0  501  502  0.00000000000E+00 -0.00000000000E+00 -0.25892458324E+03  0.25892458324E+03  0.00000000000E+00 0. -1.
        -13    1    1    2    0    0 -0.45985223180E+02 -0.31440497261E+02  0.30950265970E+03  0.31447583873E+03  0.10566000000E+00 0.  1.
         13    1    1    2    0    0 -0.11843907173E+02  0.43998159620E+03  0.55821471637E+02  0.44366668908E+03  0.10566000000E+00 0. -1.
         -4    1    1    2    0  502  0.57829130353E+02 -0.40854109894E+03  0.61831717257E+03  0.74334794258E+03  0.00000000000E+00 0. -1.
</event>
<event>
 5    1  0.4419198E-005  0.5104285E+03  0.7818608E-02  0.9531185E-01
         21   -1    0    0  501  502  0.00000000000E+00  0.00000000000E+00  0.70079917024E+03  0.70079917024E+03  0.00000000000E+00 0.  1.
          4   -1    0    0  502    0 -0.00000000000E+00 -0.00000000000E+00 -0.78830868413E+03  0.78830868413E+03  0.00000000000E+00 0.  1.
        -13    1    1    2    0    0 -0.37801953111E+03  0.17883681730E+03 -0.80382306343E+02  0.42584351523E+03  0.10566000000E+00 0.  1.
         13    1    1    2    0    0  0.21002128982E+02  0.38685857818E+03 -0.60844850453E+02  0.39217694466E+03  0.10566000000E+00 0. -1.
          4    1    1    2  501    0  0.35701740213E+03 -0.56569539548E+03  0.53717642905E+02  0.67108739449E+03  0.00000000000E+00 0.  1.
</event>
<event>
 5    1  0.4419198E-005  0.3155185E+02  0.7818608E-02  0.1392864E+00
         21   -1    0    0  501  502  0.00000000000E+00  0.00000000000E+00  0.61337470484E+02  0.61337470484E+02  0.00000000000E+00 0.  1.
         -4   -1    0    0    0  501 -0.00000000000E+00 -0.00000000000E+00 -0.70159242871E+02  0.70159242871E+02  0.00000000000E+00 0. -1.
        -13    1    1    2    0    0 -0.31410747475E+02  0.11903596722E+02  0.38909764012E+02  0.51403419842E+02  0.10566000000E+00 0.  1.
         13    1    1    2    0    0  0.21119588505E+02 -0.23620257939E+02 -0.54541079262E+02  0.63076890338E+02  0.10566000000E+00 0. -1.
         -4    1    1    2    0  502  0.10291158971E+02  0.11716661217E+02  0.68095428627E+01  0.17016403175E+02  0.00000000000E+00 0. -1.
</event>
<event>
 5    1  0.4419198E-005  0.1606544E+03  0.7818608E-02  0.1091055E+00
         21   -1    0    0  501  502  0.00000000000E+00  0.00000000000E+00  0.37283128719E+03  0.37283128719E+03  0.00000000000E+00 0.  1.
         -4   -1    0    0    0  501 -0.00000000000E+00 -0.00000000000E+00 -0.16208641120E+03  0.16208641120E+03  0.00000000000E+00 0. -1.
        -13    1    1    2    0    0  0.16728384539E+03  0.23030237772E+02  0.66973928111E+02  0.18165845698E+03  0.10566000000E+00 0.  1.
         13    1    1    2    0    0 -0.11384428498E+03 -0.13008324015E+03  0.90859518844E+01  0.17310325322E+03  0.10566000000E+00 0. -1.
         -4    1    1    2    0  502 -0.53439560417E+02  0.10705300237E+03  0.13468499600E+03  0.18015598819E+03  0.00000000000E+00 0. -1.
</event>
<event>
 5    1  0.4419198E-005  0.9573345E+02  0.7818608E-02  0.1203953E+00
         -4   -1    0    0    0  501 -0.00000000000E+00  0.00000000000E+00  0.20489278134E+03  0.20489278134E+03  0.00000000000E+00 0. -1.
         21   -1    0    0  501  502  0.00000000000E+00 -0.00000000000E+00 -0.73469606323E+02  0.73469606323E+02  0.00000000000E+00 0. -1.
        -13    1    1    2    0    0  0.22661656382E+02  0.39303320319E+02  0.13216998527E+02  0.47254649212E+02  0.10566000000E+00 0.  1.
         13    1    1    2    0    0 -0.10495603841E+03 -0.27034085393E+02  0.36158609947E+02  0.11425440039E+03  0.10566000000E+00 0. -1.
         -4    1    1    2    0  502  0.82294382030E+02 -0.12269234926E+02  0.82047566540E+02  0.11685333805E+03  0.00000000000E+00 0. -1.
</event>
<event>
 5    1  0.4419198E-005  0.5464875E+03  0.7818608E-02  0.9493950E-01
         21   -1    0    0  501  502  0.00000000000E+00  0.00000000000E+00  0.26318170292E+03  0.26318170292E+03  0.00000000000E+00 0. -1.
          4   -1    0    0  502    0 -0.00000000000E+00 -0.00000000000E+00 -0.37397270763E+04  0.37397270763E+04  0.00000000000E+00 0.  1.
        -13    1    1    2    0    0  0.29239988535E+03 -0.27851205788E+03 -0.38701447672E+03  0.55932716338E+03  0.10566000000E+00 0.  1.
         13    1    1    2    0    0  0.47168958114E+03  0.47879781034E+03 -0.19026781963E+04  0.20179005759E+04  0.10566000000E+00 0. -1.
          4    1    1    2  501    0 -0.76408946649E+03 -0.20028575246E+03 -0.11868527003E+04  0.14256810399E+04  0.00000000000E+00 0.  1.
</event>
<event>
 5    1  0.4419198E-005  0.2926598E+03  0.7818608E-02  0.1016197E+00
         -4   -1    0    0    0  501 -0.00000000000E+00  0.00000000000E+00  0.10208049043E+04  0.10208049043E+04  0.00000000000E+00 0. -1.
         21   -1    0    0  501  502  0.00000000000E+00 -0.00000000000E+00 -0.41112869766E+03  0.41112869766E+03  0.00000000000E+00 0. -1.
        -13    1    1    2    0    0 -0.19985460718E+03 -0.13834817494E+03  0.22096833020E+03  0.32849519880E+03  0.10566000000E+00 0.  1.
         13    1    1    2    0    0  0.44760806947E+03  0.44335896992E+01  0.60197982754E+03  0.75016822413E+03  0.10566000000E+00 0. -1.
         -4    1    1    2    0  502 -0.24775346230E+03  0.13391458524E+03 -0.21327195114E+03  0.35327017899E+03  0.00000000000E+00 0. -1.
</event>
<event>
 5    1  0.4419198E-005  0.4251643E+03  0.7818608E-02  0.9908339E-01
         21   -1    0    0  501  502  0.00000000000E+00  0.00000000000E+00  0.16448545068E+03  0.16448545068E+03  0.00000000000E+00 0.  1.
          4   -1    0    0  502    0 -0.00000000000E+00 -0.00000000000E+00 -0.25900893030E+04  0.25900893030E+04  0.00000000000E+00 0.  1.
        -13    1    1    2    0    0 -0.24955286780E+03  0.25812730694E+03 -0.12232372772E+04  0.12748395146E+04  0.10566000000E+00 0.  1.
         13    1    1    2    0    0 -0.16463356948E+03 -0.75269986886E+02 -0.93829295250E+03  0.95559586594E+03  0.10566000000E+00 0. -1.
          4    1    1    2  501    0  0.41418643728E+03 -0.18285732006E+03 -0.26407362256E+03  0.52413937312E+03  0.00000000000E+00 0.  1.
</event>
<event>
 5    1  0.4419198E-005  0.5738076E+03  0.7818608E-02  0.9329396E-01
          4   -1    0    0  502    0 -0.00000000000E+00  0.00000000000E+00  0.13750345494E+04  0.13750345494E+04  0.00000000000E+00 0.  1.
         21   -1    0    0  501  502  0.00000000000E+00 -0.00000000000E+00 -0.10130498202E+04  0.10130498202E+04  0.00000000000E+00 0.  1.
        -13    1    1    2    0    0 -0.27460227836E+03  0.37591478114E+03  0.25316214691E+03  0.52991453816E+03  0.10566000000E+00 0.  1.
         13    1    1    2    0    0  0.53078365675E+03 -0.41880910096E+03  0.84227950388E+03  0.10800773709E+04  0.10566000000E+00 0. -1.
          4    1    1    2  501    0 -0.25618137839E+03  0.42894319816E+02 -0.73345692159E+03  0.77809246053E+03  0.00000000000E+00 0.  1.
</event>
<event>
 5    1  0.4419198E-005  0.4793103E+03  0.7818608E-02  0.9857308E-01
         21   -1    0    0  501  502  0.00000000000E+00  0.00000000000E+00  0.36477989488E+03  0.36477989488E+03  0.00000000000E+00 0.  1.
          4   -1    0    0  502    0 -0.00000000000E+00 -0.00000000000E+00 -0.11995451900E+04  0.11995451900E+04  0.00000000000E+00 0.  1.
        -13    1    1    2    0    0 -0.37797810715E+03  0.33509093797E+03 -0.21885384832E+03  0.55050014013E+03  0.10566000000E+00 0.  1.
         13    1    1    2    0    0  0.13462697933E+03  0.66045044398E+02 -0.51168810371E+03  0.53320830648E+03  0.10566000000E+00 0. -1.
          4    1    1    2  501    0  0.24335112782E+03 -0.40113598236E+03 -0.10422334311E+03  0.48061663830E+03  0.00000000000E+00 0.  1.
</event>
<event>
 5    1  0.4419198E-005  0.4762539E+03  0.7818608E-02  0.9531594E-01
         -4   -1    0    0    0  501 -0.00000000000E+00  0.00000000000E+00  0.19264971926E+04  0.19264971926E+04  0.00000000000E+00 0. -1.
         21   -1    0    0  501  502  0.00000000000E+00 -0.00000000000E+00 -0.27139371663E+03  0.27139371663E+03  0.00000000000E+00 0.  1.
        -13    1    1    2    0    0  0.32777649644E+03  0.25628456375E+03  0.47564232964E+03  0.63194528730E+03  0.10566000000E+00 0.  1.
         13    1    1    2    0    0 -0.60370489072E+03  0.49147897340E+01  0.93887724564E+03  0.11162321639E+04  0.10566000000E+00 0. -1.
         -4    1    1    2    0  502  0.27592839428E+03 -0.26119935348E+03  0.24058390068E+03  0.44971345799E+03  0.00000000000E+00 0. -1.
</event>
<event>
 5    1  0.4419198E-005  0.3479471E+03  0.7818608E-02  0.9965687E-01
         21   -1    0    0  501  502  0.00000000000E+00  0.00000000000E+00  0.36178803234E+04  0.36178803234E+04  0.00000000000E+00 0. -1.
         -4   -1    0    0    0  501 -0.00000000000E+00 -0.00000000000E+00 -0.13854035016E+03  0.13854035016E+03  0.00000000000E+00 0. -1.
        -13    1    1    2    0    0 -0.25438860541E+03  0.99094425536E+02  0.26177770892E+03  0.37823385330E+03  0.10566000000E+00 0.  1.
         13    1    1    2    0    0  0.54770277866E+03  0.25957111272E+02  0.10239256912E+04  0.11614972827E+04  0.10566000000E+00 0. -1.
         -4    1    1    2    0  502 -0.29331417325E+03 -0.12505153681E+03  0.21936365732E+04  0.22166895376E+04  0.00000000000E+00 0. -1.
</event>
<event>
 5    1  0.4419198E-005  0.2670569E+03  0.7818608E-02  0.1021914E+00
          4   -1    0    0  502    0 -0.00000000000E+00  0.00000000000E+00  0.95188712136E+02  0.95188712136E+02  0.00000000000E+00 0.  1.
         21   -1    0    0  501  502  0.00000000000E+00 -0.00000000000E+00 -0.19021512614E+04  0.19021512614E+04  0.00000000000E+00 0.  1.
        -13    1    1    2    0    0  0.23920083395E+03 -0.11712286471E+03 -0.17441132745E+03  0.31836162882E+03  0.10566000000E+00 0.  1.
         13    1    1    2    0    0 -0.24849896182E+03  0.10476480454E+03 -0.76242316930E+03  0.80871286533E+03  0.10566000000E+00 0. -1.
          4    1    1    2  501    0  0.92981278739E+01  0.12358060166E+02 -0.87012805249E+03  0.87026547936E+03  0.00000000000E+00 0.  1.
</event>
<event>
 5    1  0.4419198E-005  0.4819635E+03  0.7818608E-02  0.9776628E-01
         21   -1    0    0  501  502  0.00000000000E+00  0.00000000000E+00  0.24020895386E+03  0.24020895386E+03  0.00000000000E+00 0.  1.
          4   -1    0    0  502    0 -0.00000000000E+00 -0.00000000000E+00 -0.16066752962E+04  0.16066752962E+04  0.00000000000E+00 0.  1.
        -13    1    1    2    0    0  0.37162694468E+03  0.45956683954E+03 -0.63007659050E+03  0.86388933728E+03  0.10566000000E+00 0.  1.
         13    1    1    2    0    0 -0.17285349742E+03 -0.88254000949E+02 -0.39772705006E+03  0.44255385860E+03  0.10566000000E+00 0. -1.
          4    1    1    2  501    0 -0.19877344726E+03 -0.37131283859E+03 -0.33866270175E+03  0.54044105413E+03  0.00000000000E+00 0.  1.
</event>
<event>
 5    1  0.4419198E-005  0.4626319E+03  0.7818608E-02  0.9713893E-01
          4   -1    0    0  502    0 -0.00000000000E+00  0.00000000000E+00  0.68205801003E+03  0.68205801003E+03  0.00000000000E+00 0.  1.
         21   -1    0    0  501  502  0.00000000000E+00 -0.00000000000E+00 -0.62732730454E+03  0.62732730454E+03  0.00000000000E+00 0.  1.
        -13    1    1    2    0    0 -0.63836200250E+03 -0.22344188080E+02  0.71661811798E+02  0.64276024722E+03  0.10566000000E+00 0.  1.
         13    1    1    2    0    0  0.25846050403E+03  0.86315741063E+02  0.45758290177E+02  0.27630792891E+03  0.10566000000E+00 0. -1.
          4    1    1    2  501    0  0.37990149847E+03 -0.63971552983E+02 -0.62689396483E+02  0.39031713844E+03  0.00000000000E+00 0.  1.
</event>
<event>
 5    1  0.4419198E-005  0.8941156E+02  0.7818608E-02  0.1235337E+00
         -4   -1    0    0    0  501 -0.00000000000E+00  0.00000000000E+00  0.32574698997E+02  0.32574698997E+02  0.00000000000E+00 0. -1.
         21   -1    0    0  501  502  0.00000000000E+00 -0.00000000000E+00 -0.34576720062E+03  0.34576720062E+03  0.00000000000E+00 0. -1.
        -13    1    1    2    0    0  0.22262610840E+02  0.16788483969E+02 -0.48903762755E+02  0.56294459861E+02  0.10566000000E+00 0.  1.
         13    1    1    2    0    0 -0.17817170969E+02  0.82128541946E+02 -0.13791342784E+03  0.16150131184E+03  0.10566000000E+00 0. -1.
         -4    1    1    2    0  502 -0.44454398703E+01 -0.98917025915E+02 -0.12637531103E+03  0.16054612792E+03  0.00000000000E+00 0. -1.
</event>
<event>
 5    1  0.4419198E-005  0.4824012E+03  0.7818608E-02  0.9718565E-01
         21   -1    0    0  501  502  0.00000000000E+00  0.00000000000E+00  0.35768577251E+03  0.35768577251E+03  0.00000000000E+00 0.  1.
          4   -1    0    0  502    0 -0.00000000000E+00 -0.00000000000E+00 -0.11446300121E+04  0.11446300121E+04  0.00000000000E+00 0.  1.
        -13    1    1    2    0    0 -0.22226600507E+03 -0.47634044222E+03 -0.11322607461E+03  0.53770117076E+03  0.10566000000E+00 0.  1.
         13    1    1    2    0    0 -0.12935888639E+03  0.19796061360E+03 -0.29147377565E+03  0.37533864586E+03  0.10566000000E+00 0. -1.
          4    1    1    2  501    0  0.35162489146E+03  0.27837982862E+03 -0.38224438936E+03  0.58927596801E+03  0.00000000000E+00 0.  1.
</event>
<event>
 5    1  0.4419198E-005  0.3641438E+03  0.7818608E-02  0.9838729E-01
         21   -1    0    0  501  502  0.00000000000E+00  0.00000000000E+00  0.79143878694E+03  0.79143878694E+03  0.00000000000E+00 0.  1.
         -4   -1    0    0    0  501 -0.00000000000E+00 -0.00000000000E+00 -0.11356530909E+04  0.11356530909E+04  0.00000000000E+00 0. -1.
        -13    1    1    2    0    0 -0.25329277117E+03  0.25926468704E+03 -0.73254410730E+03  0.81731039769E+03  0.10566000000E+00 0.  1.
         13    1    1    2    0    0  0.33289690925E+03 -0.22449020001E+03  0.68864774441E+03  0.79715238764E+03  0.10566000000E+00 0. -1.
         -4    1    1    2    0  502 -0.79604138079E+02 -0.34774487034E+02 -0.30031794104E+03  0.31262909247E+03  0.00000000000E+00 0. -1.
</event>
<event>
 5    1  0.4419198E-005  0.4774153E+03  0.7818608E-02  0.9678437E-01
          4   -1    0    0  502    0 -0.00000000000E+00  0.00000000000E+00  0.14239131058E+04  0.14239131058E+04  0.00000000000E+00 0.  1.
         21   -1    0    0  501  502  0.00000000000E+00 -0.00000000000E+00 -0.40354162650E+03  0.40354162650E+03  0.00000000000E+00 0.  1.
        -13    1    1    2    0    0 -0.51405599393E+03  0.67630683991E+01  0.46713747719E+03  0.69463424746E+03  0.10566000000E+00 0.  1.
         13    1    1    2    0    0  0.10080078859E+03 -0.26183632492E+03  0.58224476412E+03  0.64631883504E+03  0.10566000000E+00 0. -1.
          4    1    1    2  501    0  0.41325520534E+03  0.25507325652E+03 -0.29010762013E+02  0.48650164979E+03  0.00000000000E+00 0.  1.
</event>
<event>
 5    1  0.4419198E-005  0.2192118E+03  0.7818608E-02  0.1047708E+00
          4   -1    0    0  502    0 -0.00000000000E+00  0.00000000000E+00  0.49793119587E+03  0.49793119587E+03  0.00000000000E+00 0.  1.
         21   -1    0    0  501  502  0.00000000000E+00 -0.00000000000E+00 -0.13587423772E+03  0.13587423772E+03  0.00000000000E+00 0. -1.
        -13    1    1    2    0    0  0.16613505858E+03 -0.14678517144E+03  0.33108891304E+03  0.39845529705E+03  0.10566000000E+00 0.  1.
         13    1    1    2    0    0 -0.17078264155E+03  0.12701051333E+03  0.25821326907E+02  0.21439480693E+03  0.10566000000E+00 0. -1.
          4    1    1    2  501    0  0.46475829759E+01  0.19774658110E+02  0.51467181958E+01  0.20955329611E+02  0.00000000000E+00 0.  1.
</event>
<event>
 5    1  0.4419198E-005  0.4769137E+03  0.7818608E-02  0.9969782E-01
          4   -1    0    0  502    0 -0.00000000000E+00  0.00000000000E+00  0.78084371886E+03  0.78084371886E+03  0.00000000000E+00 0.  1.
         21   -1    0    0  501  502  0.00000000000E+00 -0.00000000000E+00 -0.45383665001E+03  0.45383665001E+03  0.00000000000E+00 0.  1.
        -13    1    1    2    0    0 -0.34438463143E+03 -0.28928586770E+03 -0.86094184577E+02  0.45792936944E+03  0.10566000000E+00 0.  1.
         13    1    1    2    0    0 -0.10157880193E+03 -0.24955066536E+02  0.11348094900E+03  0.15433387605E+03  0.10566000000E+00 0. -1.
          4    1    1    2  501    0  0.44596343337E+03  0.31424093423E+03  0.29962030442E+03  0.62241712337E+03  0.00000000000E+00 0.  1.
</event>
<event>
 5    1  0.4419198E-005  0.4641615E+03  0.7818608E-02  0.9828954E-01
         21   -1    0    0  501  502  0.00000000000E+00  0.00000000000E+00  0.35446838798E+03  0.35446838798E+03  0.00000000000E+00 0. -1.
         -4   -1    0    0    0  501 -0.00000000000E+00 -0.00000000000E+00 -0.16719614300E+04  0.16719614300E+04  0.00000000000E+00 0. -1.
        -13    1    1    2    0    0 -0.18090618631E+03 -0.17510340378E+02 -0.90714272768E+03  0.92517111921E+03  0.10566000000E+00 0.  1.
         13    1    1    2    0    0  0.28329134722E+02  0.46605440688E+03 -0.41906366957E+03  0.62739431012E+03  0.10566000000E+00 0. -1.
         -4    1    1    2    0  502  0.15257705158E+03 -0.44854406651E+03  0.87133552431E+01  0.47386438865E+03  0.00000000000E+00 0. -1.
</event>
<event>
 5    1  0.4419198E-005  0.4438730E+03  0.7818608E-02  0.1030424E+00
          4   -1    0    0  502    0 -0.00000000000E+00  0.00000000000E+00  0.42668559635E+03  0.42668559635E+03  0.00000000000E+00 0.  1.
         21   -1    0    0  501  502  0.00000000000E+00 -0.00000000000E+00 -0.78703899028E+03  0.78703899028E+03  0.00000000000E+00 0.  1.
        -13    1    1    2    0    0  0.36391985524E+03  0.29839855301E+03 -0.30222642184E+02  0.47158538648E+03  0.10566000000E+00 0.  1.
         13    1    1    2    0    0 -0.14350275483E+02 -0.42252327835E+02  0.11350403509E+03  0.12196051312E+03  0.10566000000E+00 0. -1.
          4    1    1    2  501    0 -0.34956957976E+03 -0.25614622518E+03 -0.44363478684E+03  0.62017868704E+03  0.00000000000E+00 0.  1.
</event>
<event>
 5    1  0.4419198E-005  0.2669678E+03  0.7818608E-02  0.1021957E+00
         -4   -1    0    0    0  501 -0.00000000000E+00  0.00000000000E+00  0.14238870121E+04  0.14238870121E+04  0.00000000000E+00 0. -1.
         21   -1    0    0  501  502  0.00000000000E+00 -0.00000000000E+00 -0.69997170893E+02  0.69997170893E+02  0.00000000000E+00 0. -1.
        -13    1    1    2    0    0  0.25339882764E+03  0.94380200406E+00  0.64150735857E+03  0.68974166097E+03  0.10566000000E+00 0.  1.
         13    1    1    2    0    0 -0.28048695182E+03 -0.64725813919E+02  0.65006200084E+03  0.71094512954E+03  0.10566000000E+00 0. -1.
         -4    1    1    2    0  502  0.27088124175E+02  0.63782011914E+02  0.62320481831E+02  0.93197392511E+02  0.00000000000E+00 0. -1.
</event>
<event>
 5    1  0.4419198E-005  0.4567738E+03  0.7818608E-02  0.9782662E-01
         21   -1    0    0  501  502  0.00000000000E+00  0.00000000000E+00  0.17685239430E+03  0.17685239430E+03  0.00000000000E+00 0. -1.
         -4   -1    0    0    0  501 -0.00000000000E+00 -0.00000000000E+00 -0.26648650619E+04  0.26648650619E+04  0.00000000000E+00 0. -1.
        -13    1    1    2    0    0 -0.16263957609E+03  0.15304381844E+03 -0.11241196004E+03  0.25002100311E+03  0.10566000000E+00 0.  1.
         13    1    1    2    0    0  0.45854668775E+03  0.19305969863E+03 -0.17405520673E+04  0.18102647934E+04  0.10566000000E+00 0. -1.
         -4    1    1    2    0  502 -0.29590711166E+03 -0.34610351707E+03 -0.63504864024E+03  0.78143165966E+03  0.00000000000E+00 0. -1.
</event>
<event>
 5    1  0.4419198E-005  0.8635453E+02  0.7818608E-02  0.1189349E+00
         21   -1    0    0  501  502  0.00000000000E+00  0.00000000000E+00  0.54924714406E+03  0.54924714406E+03  0.00000000000E+00 0.  1.
         -4   -1    0    0    0  501 -0.00000000000E+00 -0.00000000000E+00 -0.60772937441E+02  0.60772937441E+02  0.00000000000E+00 0. -1.
        -13    1    1    2    0    0 -0.57146880182E+02  0.69407353563E+02  0.34333019257E+03  0.35490671864E+03  0.10566000000E+00 0.  1.
         13    1    1    2    0    0  0.61430256838E+02 -0.60264866824E+02 -0.21066498493E+02  0.88596496270E+02  0.10566000000E+00 0. -1.
         -4    1    1    2    0  502 -0.42833766558E+01 -0.91424867391E+01  0.16621051255E+03  0.16651686660E+03  0.00000000000E+00 0. -1.
</event>
<event>
 5    1  0.4419198E-005  0.4711540E+03  0.7818608E-02  0.9544040E-01
         21   -1    0    0  501  502  0.00000000000E+00  0.00000000000E+00  0.50751581798E+03  0.50751581798E+03  0.00000000000E+00 0.  1.
          4   -1    0    0  502    0 -0.00000000000E+00 -0.00000000000E+00 -0.15826557844E+04  0.15826557844E+04  0.00000000000E+00 0.  1.
        -13    1    1    2    0    0 -0.16905290295E+03 -0.39042353345E+03 -0.17635437393E+03  0.46055433538E+03  0.10566000000E+00 0.  1.
         13    1    1    2    0    0  0.44793029895E+03 -0.14745900153E+03 -0.90856550082E+03  0.10236586298E+04  0.10566000000E+00 0. -1.
          4    1    1    2  501    0 -0.27887739600E+03  0.53788253497E+03  0.97799083355E+01  0.60595863723E+03  0.00000000000E+00 0.  1.
</event>
<event>
 5    1  0.4419198E-005  0.1162133E+03  0.7818608E-02  0.1140208E+00
          4   -1    0    0  502    0 -0.00000000000E+00  0.00000000000E+00  0.18759236118E+03  0.18759236118E+03  0.00000000000E+00 0.  1.
         21   -1    0    0  501  502  0.00000000000E+00 -0.00000000000E+00 -0.44395298229E+03  0.44395298229E+03  0.00000000000E+00 0.  1.
        -13    1    1    2    0    0 -0.10498415607E+03  0.91917306635E+02  0.50299136022E+02  0.14832558287E+03  0.10566000000E+00 0.  1.
         13    1    1    2    0    0  0.81961119456E+02 -0.60947364011E+02  0.57371882795E+02  0.11714841178E+03  0.10566000000E+00 0. -1.
          4    1    1    2  501    0  0.23023036619E+02 -0.30969942624E+02 -0.36403163992E+03  0.36607134882E+03  0.00000000000E+00 0.  1.
</event>
<event>
 5    1  0.4419198E-005  0.4718243E+03  0.7818608E-02  0.9803006E-01
         -4   -1    0    0    0  501 -0.00000000000E+00  0.00000000000E+00  0.16011410492E+04  0.16011410492E+04  0.00000000000E+00 0. -1.
         21   -1    0    0  501  502  0.00000000000E+00 -0.00000000000E+00 -0.39615755968E+03  0.39615755968E+03  0.00000000000E+00 0. -1.
        -13    1    1    2    0    0  0.18757693091E+03 -0.23257949988E+02  0.93087001758E+03  0.94986580002E+03  0.10566000000E+00 0.  1.
         13    1    1    2    0    0 -0.59238936351E+03 -0.32774940230E+02  0.23027412791E+03  0.63641616875E+03  0.10566000000E+00 0. -1.
         -4    1    1    2    0  502  0.40481243260E+03  0.56032890218E+02  0.43839344042E+02  0.41101664013E+03  0.00000000000E+00 0. -1.
</event>
<event>
 5    1  0.4419198E-005  0.3266906E+03  0.7818608E-02  0.9968596E-01
         21   -1    0    0  501  502  0.00000000000E+00  0.00000000000E+00  0.81807652217E+03  0.81807652217E+03  0.00000000000E+00 0. -1.
         -4   -1    0    0    0  501 -0.00000000000E+00 -0.00000000000E+00 -0.59939439153E+03  0.59939439153E+03  0.00000000000E+00 0. -1.
        -13    1    1    2    0    0  0.28832173561E+03 -0.52976713878E+02 -0.12037482304E+03  0.31690071729E+03  0.10566000000E+00 0.  1.
         13    1    1    2    0    0 -0.55854911280E+03 -0.55712825432E+02  0.51374880478E+03  0.76093289843E+03  0.10566000000E+00 0. -1.
         -4    1    1    2    0  502  0.27022737719E+03  0.10868953931E+03 -0.17469185111E+03  0.33963729798E+03  0.00000000000E+00 0. -1.
</event>
<event>
 5    1  0.4419198E-005  0.4622646E+03  0.7818608E-02  0.9663413E-01
         21   -1    0    0  501  502  0.00000000000E+00  0.00000000000E+00  0.37150741451E+03  0.37150741451E+03  0.00000000000E+00 0. -1.
         -4   -1    0    0    0  501 -0.00000000000E+00 -0.00000000000E+00 -0.20626799956E+04  0.20626799956E+04  0.00000000000E+00 0. -1.
        -13    1    1    2    0    0  0.21527655157E+03 -0.24451201386E+03 -0.12556023842E+04  0.12971767332E+04  0.10566000000E+00 0.  1.
         13    1    1    2    0    0  0.17540758853E+03 -0.31752975479E+03 -0.11021245548E+03  0.37913027286E+03  0.10566000000E+00 0. -1.
         -4    1    1    2    0  502 -0.39068414010E+03  0.56204176865E+03 -0.32535774137E+03  0.75788040409E+03  0.00000000000E+00 0. -1.
</event>
<event>
 5    1  0.4419198E-005  0.5101818E+03  0.7818608E-02  0.9455931E-01
         21   -1    0    0  501  502  0.00000000000E+00  0.00000000000E+00  0.33218007453E+03  0.33218007453E+03  0.00000000000E+00 0.  1.
         -4   -1    0    0    0  501 -0.00000000000E+00 -0.00000000000E+00 -0.11386712067E+04  0.11386712067E+04  0.00000000000E+00 0. -1.
        -13    1    1    2    0    0 -0.32965868380E+03 -0.37133616656E+03 -0.27416978946E+02  0.49730986145E+03  0.10566000000E+00 0.  1.
         13    1    1    2    0    0  0.35334724508E+03  0.37418882193E+03 -0.79340575855E+03  0.94570833714E+03  0.10566000000E+00 0. -1.
         -4    1    1    2    0  502 -0.23688561277E+02 -0.28526553702E+01  0.14331605331E+02  0.27833082643E+02  0.00000000000E+00 0. -1.
</event>
<event>
 5    1  0.4419198E-005  0.3824411E+03  0.7818608E-02  0.9853886E-01
         21   -1    0    0  501  502  0.00000000000E+00  0.00000000000E+00  0.47534470652E+03  0.47534470652E+03  0.00000000000E+00 0.  1.
          4   -1    0    0  502    0 -0.00000000000E+00 -0.00000000000E+00 -0.16234105030E+04  0.16234105030E+04  0.00000000000E+00 0.  1.
        -13    1    1    2    0    0 -0.88265792470E+02 -0.12344959827E+03 -0.50779614819E+03  0.52998829488E+03  0.10566000000E+00 0.  1.
         13    1    1    2    0    0 -0.28180649260E+03 -0.98817679224E+02 -0.97678221042E+03  0.10214124195E+04  0.10566000000E+00 0. -1.
          4    1    1    2  501    0  0.37007228507E+03  0.22226727750E+03  0.33651256215E+03  0.54735449510E+03  0.00000000000E+00 0.  1.
</event>
<event>
 5    1  0.4419198E-005  0.2662449E+03  0.7818608E-02  0.1057445E+00
         21   -1    0    0  501  502  0.00000000000E+00  0.00000000000E+00  0.53130521310E+02  0.53130521310E+02  0.00000000000E+00 0.  1.
          4   -1    0    0  502    0 -0.00000000000E+00 -0.00000000000E+00 -0.40435371747E+04  0.40435371747E+04  0.00000000000E+00 0.  1.
        -13    1    1    2    0    0 -0.55683135605E+01 -0.27267861965E+03 -0.36771130196E+03  0.45781682852E+03  0.10566000000E+00 0.  1.
         13    1    1    2    0    0  0.73646733465E+02  0.54667991906E+02 -0.54242750247E+03  0.55012729190E+03  0.10566000000E+00 0. -1.
          4    1    1    2  501    0 -0.68078419904E+02  0.21801062774E+03 -0.30802678490E+04  0.30887235756E+04  0.00000000000E+00 0.  1.
</event>
<event>
 5    1  0.4419198E-005  0.4726476E+03  0.7818608E-02  0.9713228E-01
          4   -1    0    0  502    0 -0.00000000000E+00  0.00000000000E+00  0.20549192864E+04  0.20549192864E+04  0.00000000000E+00 0.  1.
         21   -1    0    0  501  502  0.00000000000E+00 -0.00000000000E+00 -0.20509659870E+03  0.20509659870E+03  0.00000000000E+00 0. -1.
        -13    1    1    2    0    0 -0.30134794413E+03  0.67030020633E+02  0.94642704845E+03  0.99550378016E+03  0.10566000000E+00 0.  1.
         13    1    1    2    0    0 -0.25610070193E+03 -0.35391422586E+01  0.53549251934E+03  0.59359274295E+03  0.10566000000E+00 0. -1.
          4    1    1    2  501    0  0.55744864606E+03 -0.63490878375E+02  0.36790311987E+03  0.67091936195E+03  0.00000000000E+00 0.  1.
</event>
<event>
 5    1  0.4419198E-005  0.3678230E+03  0.7818608E-02  0.1002231E+00
         -4   -1    0    0    0  501 -0.00000000000E+00  0.00000000000E+00  0.17027238534E+04  0.17027238534E+04  0.00000000000E+00 0. -1.
         21   -1    0    0  501  502  0.00000000000E+00 -0.00000000000E+00 -0.26750046167E+03  0.26750046167E+03  0.00000000000E+00 0. -1.
        -13    1    1    2    0    0  0.17045222405E+03 -0.88183384699E+02  0.66171034039E+03  0.68897812430E+03  0.10566000000E+00 0.  1.
         13    1    1    2    0    0 -0.50049246174E+03  0.16134260410E+03  0.78284674906E+03  0.94306584278E+03  0.10566000000E+00 0. -1.
         -4    1    1    2    0  502  0.33004023768E+03 -0.73159219401E+02 -0.93336976726E+01  0.33818034802E+03  0.00000000000E+00 0. -1.
</event>
<event>
 5    1  0.4419198E-005  0.1730835E+03  0.7818608E-02  0.1080338E+00
          4   -1    0    0  502    0 -0.00000000000E+00  0.00000000000E+00  0.82554198700E+02  0.82554198700E+02  0.00000000000E+00 0.  1.
         21   -1    0    0  501  502  0.00000000000E+00 -0.00000000000E+00 -0.70053336851E+03  0.70053336851E+03  0.00000000000E+00 0. -1.
        -13    1    1    2    0    0  0.13486902042E+03  0.13161293250E+03 -0.73233974840E+02  0.20217527768E+03  0.10566000000E+00 0.  1.
         13    1    1    2    0    0 -0.10785841843E+03 -0.87158178640E+02 -0.29718960751E+03  0.32795069828E+03  0.10566000000E+00 0. -1.
          4    1    1    2  501    0 -0.27010601982E+02 -0.44454753865E+02 -0.24755558746E+03  0.25296159124E+03  0.00000000000E+00 0.  1.
</event>
<event>
 5    1  0.4419198E-005  0.3687511E+02  0.7818608E-02  0.1356912E+00
         21   -1    0    0  501  502  0.00000000000E+00  0.00000000000E+00  0.26731400380E+03  0.26731400380E+03  0.00000000000E+00 0.  1.
         -4   -1    0    0    0  501 -0.00000000000E+00 -0.00000000000E+00 -0.15872828257E+03  0.15872828257E+03  0.00000000000E+00 0. -1.
        -13    1    1    2    0    0 -0.46518118146E+02 -0.25830784740E+02  0.11817655700E+03  0.12960275670E+03  0.10566000000E+00 0.  1.
         13    1    1    2    0    0  0.28883030224E+02  0.22473556142E+02 -0.15024833688E+03  0.15464108141E+03  0.10566000000E+00 0. -1.
         -4    1    1    2    0  502  0.17635087922E+02  0.33572285978E+01  0.14065750111E+03  0.14179844826E+03  0.00000000000E+00 0. -1.
</event>
<event>
 5    1  0.4419198E-005  0.4766261E+03  0.7818608E-02  0.9588045E-01
         -4   -1    0    0    0  501 -0.00000000000E+00  0.00000000000E+00  0.30512227509E+04  0.30512227509E+04  0.00000000000E+00 0. -1.
         21   -1    0    0  501  502  0.00000000000E+00 -0.00000000000E+00 -0.17596234792E+03  0.17596234792E+03  0.00000000000E+00 0. -1.
        -13    1    1    2    0    0 -0.15275388690E+03 -0.35669480680E+03  0.10506604883E+04  0.11200233962E+04  0.10566000000E+00 0.  1.
         13    1    1    2    0    0 -0.74655767269E+01 -0.33505424427E+03  0.71765748808E+03  0.79205388882E+03  0.10566000000E+00 0. -1.
         -4    1    1    2    0  502  0.16021946363E+03  0.69174905106E+03  0.11069424266E+04  0.13151078138E+04  0.00000000000E+00 0. -1.
</event>
<event>
 5    1  0.4419198E-005  0.5050543E+03  0.7818608E-02  0.9466962E-01
          4   -1    0    0  502    0 -0.00000000000E+00  0.00000000000E+00  0.91778171640E+03  0.91778171640E+03  0.00000000000E+00 0.  1.
         21   -1    0    0  501  502  0.00000000000E+00 -0.00000000000E+00 -0.89835902730E+03  0.89835902730E+03  0.00000000000E+00 0. -1.
        -13    1    1    2    0    0 -0.50936769697E+03  0.15375952236E+03  0.62364378715E+03  0.81977376504E+03  0.10566000000E+00 0.  1.
         13    1    1    2    0    0  0.42216108071E+03  0.16905743306E+03 -0.39142080567E+03  0.60000887661E+03  0.10566000000E+00 0. -1.
          4    1    1    2  501    0  0.87206616261E+02 -0.32281695542E+03 -0.21280029238E+03  0.39635810205E+03  0.00000000000E+00 0.  1.
</event>
<event>
 5    1  0.4419198E-005  0.3579097E+03  0.7818608E-02  0.9933800E-01
         21   -1    0    0  501  502  0.00000000000E+00  0.00000000000E+00  0.34899112053E+03  0.34899112053E+03  0.00000000000E+00 0. -1.
         -4   -1    0    0    0  501 -0.00000000000E+00 -0.00000000000E+00 -0.12132764877E+04  0.12132764877E+04  0.00000000000E+00 0. -1.
        -13    1    1    2    0    0  0.64610670198E+02  0.27118425966E+03 -0.28896389814E+03  0.40151660860E+03  0.10566000000E+00 0.  1.
         13    1    1    2    0    0  0.25980699935E+03 -0.39894466467E+03 -0.64849335328E+03  0.80448751562E+03  0.10566000000E+00 0. -1.
         -4    1    1    2    0  502 -0.32441766954E+03  0.12776040501E+03  0.73171884247E+02  0.35626348402E+03  0.00000000000E+00 0. -1.
</event>
<event>
 5    1  0.4419198E-005  0.3813063E+03  0.7818608E-02  0.9784641E-01
         21   -1    0    0  501  502  0.00000000000E+00  0.00000000000E+00  0.36562406864E+03  0.36562406864E+03  0.00000000000E+00 0.  1.
          4   -1    0    0  502    0 -0.00000000000E+00 -0.00000000000E+00 -0.19120656477E+04  0.19120656477E+04  0.00000000000E+00 0.  1.
        -13    1    1    2    0    0  0.26449733315E+03  0.58905575143E+03 -0.88549612387E+02  0.65175652091E+03  0.10566000000E+00 0.  1.
         13    1    1    2    0    0 -0.60616643467E+02 -0.35072128974E+03 -0.10668228799E+04  0.11246292139E+04  0.10566000000E+00 0. -1.
          4    1    1    2  501    0 -0.20388068968E+03 -0.23833446169E+03 -0.39106908676E+03  0.50130398150E+03  0.00000000000E+00 0.  1.
</event>
<event>
 5    1  0.4419198E-005  0.4422061E+03  0.7818608E-02  0.9782425E-01
         21   -1    0    0  501  502  0.00000000000E+00  0.00000000000E+00  0.48722021862E+03  0.48722021862E+03  0.00000000000E+00 0. -1.
         -4   -1    0    0    0  501 -0.00000000000E+00 -0.00000000000E+00 -0.92902494364E+03  0.92902494364E+03  0.00000000000E+00 0. -1.
        -13    1    1    2    0    0  0.90473321963E+02  0.22911474306E+03 -0.37944918683E+03  0.45239438991E+03  0.10566000000E+00 0.  1.
         13    1    1    2    0    0  0.30130396709E+03  0.10620964732E+03 -0.25967979152E+03  0.41170156067E+03  0.10566000000E+00 0. -1.
         -4    1    1    2    0  502 -0.39177728905E+03 -0.33532439038E+03  0.19732425333E+03  0.55214921168E+03  0.00000000000E+00 0. -1.
</event>
<event>
 5    1  0.4419198E-005  0.2025650E+03  0.7818608E-02  0.1077674E+00
         21   -1    0    0  501  502  0.00000000000E+00  0.00000000000E+00  0.39459073440E+03  0.39459073440E+03  0.00000000000E+00 0. -1.
         -4   -1    0    0    0  501 -0.00000000000E+00 -0.00000000000E+00 -0.38244983661E+03  0.38244983661E+03  0.00000000000E+00 0. -1.
        -13    1    1    2    0    0 -0.19261020807E+03  0.71737494711E+02 -0.19739958293E+03  0.28497643219E+03  0.10566000000E+00 0.  1.
         13    1    1    2    0    0  0.65328343878E+02  0.85843899843E+02 -0.83088998082E+02  0.13616446093E+03  0.10566000000E+00 0. -1.
         -4    1    1    2    0  502  0.12728186419E+03 -0.15758139455E+03  0.29262947880E+03  0.35589967789E+03  0.00000000000E+00 0. -1.
</event>
<event>
 5    1  0.4419198E-005  0.4654414E+03  0.7818608E-02  0.1002744E+00
         -4   -1    0    0    0  501 -0.00000000000E+00  0.00000000000E+00  0.32899525368E+04  0.32899525368E+04  0.00000000000E+00 0. -1.
         21   -1    0    0  501  502  0.00000000000E+00 -0.00000000000E+00 -0.88873804077E+02  0.88873804077E+02  0.00000000000E+00 0. -1.
        -13    1    1    2    0    0  0.85551104306E+02 -0.36840502318E+02  0.26057374866E+03  0.27672170806E+03  0.10566000000E+00 0.  1.
         13    1    1    2    0    0 -0.21273600663E+02  0.48847657589E+03  0.19694103341E+04  0.20291966407E+04  0.10566000000E+00 0. -1.
         -4    1    1    2    0  502 -0.64277503643E+02 -0.45163607357E+03  0.97109464999E+03  0.10729079922E+04  0.00000000000E+00 0. -1.
</event>
<event>
 5    1  0.4419198E-005  0.2471483E+03  0.7818608E-02  0.1031881E+00
         21   -1    0    0  501  502  0.00000000000E+00  0.00000000000E+00  0.35975615423E+03  0.35975615423E+03  0.00000000000E+00 0. -1.
         -4   -1    0    0    0  501 -0.00000000000E+00 -0.00000000000E+00 -0.27435326790E+03  0.27435326790E+03  0.00000000000E+00 0. -1.
        -13    1    1    2    0    0 -0.23078762475E+03  0.74437117516E+02  0.14517199048E+03  0.28262825440E+03  0.10566000000E+00 0.  1.
         13    1    1    2    0    0  0.23386681850E+03 -0.84991684287E+02 -0.12975922667E+03  0.28063275515E+03  0.10566000000E+00 0. -1.
         -4    1    1    2    0  502 -0.30791937573E+01  0.10554566771E+02  0.69990122523E+02  0.70848412577E+02  0.00000000000E+00 0. -1.
</event>
<event>
 5    1  0.4419198E-005  0.7725586E+02  0.7818608E-02  0.1260513E+00
         21   -1    0    0  501  502  0.00000000000E+00  0.00000000000E+00  0.19181393518E+03  0.19181393518E+03  0.00000000000E+00 0.  1.
          4   -1    0    0  502    0 -0.00000000000E+00 -0.00000000000E+00 -0.20743254967E+03  0.20743254967E+03  0.00000000000E+00 0.  1.
        -13    1    1    2    0    0 -0.46882658432E+02 -0.61760451588E+02  0.17002059497E+03  0.18686720130E+03  0.10566000000E+00 0.  1.
         13    1    1    2    0    0 -0.16062052674E+02  0.19728446400E+02 -0.30166874377E+02  0.39462040079E+02  0.10566000000E+00 0. -1.
          4    1    1    2  501    0  0.62944711106E+02  0.42032005187E+02 -0.15547233508E+03  0.17291724348E+03  0.00000000000E+00 0.  1.
</event>
<event>
 5    1  0.4419198E-005  0.5025576E+03  0.7818608E-02  0.9514730E-01
          4   -1    0    0  502    0 -0.00000000000E+00  0.00000000000E+00  0.11218918003E+04  0.11218918003E+04  0.00000000000E+00 0.  1.
         21   -1    0    0  501  502  0.00000000000E+00 -0.00000000000E+00 -0.55353254045E+03  0.55353254045E+03  0.00000000000E+00 0.  1.
        -13    1    1    2    0    0 -0.30610586868E+03  0.41627137210E+03  0.28517900734E+03  0.59017771515E+03  0.10566000000E+00 0.  1.
         13    1    1    2    0    0  0.40898153391E+03  0.13536780054E+03  0.29812503547E+03  0.52389778053E+03  0.10566000000E+00 0. -1.
          4    1    1    2  501    0 -0.10287566523E+03 -0.55163917264E+03 -0.14944782992E+02  0.56134884504E+03  0.00000000000E+00 0.  1.
</event>
<event>
 5    1  0.4419198E-005  0.1236272E+03  0.7818608E-02  0.1130483E+00
         21   -1    0    0  501  502  0.00000000000E+00  0.00000000000E+00  0.19219976370E+03  0.19219976370E+03  0.00000000000E+00 0.  1.
         -4   -1    0    0    0  501 -0.00000000000E+00 -0.00000000000E+00 -0.13190943428E+03  0.13190943428E+03  0.00000000000E+00 0. -1.
        -13    1    1    2    0    0 -0.10769497817E+03  0.14792515755E+02  0.66746003408E+02  0.12756201230E+03  0.10566000000E+00 0.  1.
         13    1    1    2    0    0  0.13102182578E+03  0.15847559416E+02 -0.47501247160E+02  0.14026490515E+03  0.10566000000E+00 0. -1.
         -4    1    1    2    0  502 -0.23326847606E+02 -0.30640075171E+02  0.41045573169E+02  0.56282280537E+02  0.00000000000E+00 0. -1.
</event>
<event>
 5    1  0.4419198E-005  0.1037303E+03  0.7818608E-02  0.1158527E+00
         -4   -1    0    0    0  501 -0.00000000000E+00  0.00000000000E+00  0.64627590209E+02  0.64627590209E+02  0.00000000000E+00 0. -1.
         21   -1    0    0  501  502  0.00000000000E+00 -0.00000000000E+00 -0.36711834268E+03  0.36711834268E+03  0.00000000000E+00 0.  1.
        -13    1    1    2    0    0  0.10377274472E+03 -0.57139183829E+02 -0.16161796113E+03  0.20038474343E+03  0.10566000000E+00 0.  1.
         13    1    1    2    0    0 -0.82744320766E+02  0.54898887596E+02 -0.11147965508E+02  0.99923964979E+02  0.10566000000E+00 0. -1.
         -4    1    1    2    0  502 -0.21028423958E+02  0.22402962330E+01 -0.12972482583E+03  0.13143722448E+03  0.00000000000E+00 0. -1.
</event>
<event>
 5    1  0.4419198E-005  0.2034334E+03  0.7818608E-02  0.1057807E+00
         -4   -1    0    0    0  501 -0.00000000000E+00  0.00000000000E+00  0.19570985839E+03  0.19570985839E+03  0.00000000000E+00 0. -1.
         21   -1    0    0  501  502  0.00000000000E+00 -0.00000000000E+00 -0.64703883094E+03  0.64703883094E+03  0.00000000000E+00 0.  1.
        -13    1    1    2    0    0  0.74461232612E+02  0.18626299785E+03  0.62829580923E+02  0.21020453595E+03  0.10566000000E+00 0.  1.
         13    1    1    2    0    0 -0.93795675902E+02 -0.18922749952E+03 -0.13023925221E+03  0.24812688160E+03  0.10566000000E+00 0. -1.
         -4    1    1    2    0  502  0.19334443290E+02  0.29645016686E+01 -0.38391930126E+03  0.38441727179E+03  0.00000000000E+00 0. -1.
</event>
<event>
 5    1  0.4419198E-005  0.4986707E+03  0.7818608E-02  0.9637441E-01
          4   -1    0    0  502    0 -0.00000000000E+00  0.00000000000E+00  0.48409441911E+03  0.48409441911E+03  0.00000000000E+00 0.  1.
         21   -1    0    0  501  502  0.00000000000E+00 -0.00000000000E+00 -0.90219850171E+03  0.90219850171E+03  0.00000000000E+00 0.  1.
        -13    1    1    2    0    0 -0.20891841986E+03  0.50866700149E+03 -0.19358804728E+03  0.58297973188E+03  0.10566000000E+00 0.  1.
         13    1    1    2    0    0 -0.18152078695E+03 -0.21886628633E+03 -0.99617600189E+02  0.30129043267E+03  0.10566000000E+00 0. -1.
          4    1    1    2  501    0  0.39043920681E+03 -0.28980071516E+03 -0.12489843513E+03  0.50202275628E+03  0.00000000000E+00 0.  1.
</event>
<event>
 5    1  0.4419198E-005  0.4775330E+03  0.7818608E-02  0.9528623E-01
         -4   -1    0    0    0  501 -0.00000000000E+00  0.00000000000E+00  0.59605729827E+03  0.59605729827E+03  0.00000000000E+00 0. -1.
         21   -1    0    0  501  502  0.00000000000E+00 -0.00000000000E+00 -0.59615228885E+03  0.59615228885E+03  0.00000000000E+00 0.  1.
        -13    1    1    2    0    0  0.43619050918E+03 -0.21790828402E+03 -0.11046388929E+03  0.49994845989E+03  0.10566000000E+00 0.  1.
         13    1    1    2    0    0 -0.41728458659E+03  0.22268913173E+03  0.26110354805E+03  0.54027025604E+03  0.10566000000E+00 0. -1.
         -4    1    1    2    0  502 -0.18905922594E+02 -0.47808477107E+01 -0.15073464933E+03  0.15199087119E+03  0.00000000000E+00 0. -1.
</event>
<event>
 5    1  0.4419198E-005  0.3813335E+03  0.7818608E-02  0.9784558E-01
         21   -1    0    0  501  502  0.00000000000E+00  0.00000000000E+00  0.37944810095E+03  0.37944810095E+03  0.00000000000E+00 0.  1.
          4   -1    0    0  502    0 -0.00000000000E+00 -0.00000000000E+00 -0.21519673896E+04  0.21519673896E+04  0.00000000000E+00 0.  1.
        -13    1    1    2    0    0  0.23532852373E+03 -0.26726113280E+03 -0.13290973514E+04  0.13759752206E+04  0.10566000000E+00 0.  1.
         13    1    1    2    0    0 -0.54335400221E+03  0.17357263666E+03 -0.57288307640E+03  0.80842814294E+03  0.10566000000E+00 0. -1.
          4    1    1    2  501    0  0.30802547847E+03  0.93688496140E+02  0.12946113915E+03  0.34701212695E+03  0.00000000000E+00 0.  1.
</event>
<event>
 5    1  0.4419198E-005  0.6438020E+02  0.7818608E-02  0.1266061E+00
         21   -1    0    0  501  502  0.00000000000E+00  0.00000000000E+00  0.19935662423E+03  0.19935662423E+03  0.00000000000E+00 0. -1.
         -4   -1    0    0    0  501 -0.00000000000E+00 -0.00000000000E+00 -0.10763418585E+03  0.10763418585E+03  0.00000000000E+00 0. -1.
        -13    1    1    2    0    0 -0.26836038789E+02  0.28608590850E+02  0.32639880924E+02  0.51029378195E+02  0.10566000000E+00 0.  1.
         13    1    1    2    0    0  0.82423726829E+02  0.23196452981E+01 -0.72507926539E+02  0.10980192199E+03  0.10566000000E+00 0. -1.
         -4    1    1    2    0  502 -0.55587688040E+02 -0.30928236148E+02  0.13159048400E+03  0.14615950989E+03  0.00000000000E+00 0. -1.
</event>
<event>
 5    1  0.4419198E-005  0.2188357E+03  0.7818608E-02  0.1047938E+00
         21   -1    0    0  501  502  0.00000000000E+00  0.00000000000E+00  0.40361340230E+03  0.40361340230E+03  0.00000000000E+00 0.  1.
          4   -1    0    0  502    0 -0.00000000000E+00 -0.00000000000E+00 -0.29365207495E+03  0.29365207495E+03  0.00000000000E+00 0.  1.
        -13    1    1    2    0    0 -0.18913429468E+03 -0.16845379758E+03 -0.77489308072E+02  0.26486424329E+03  0.10566000000E+00 0.  1.
         13    1    1    2    0    0  0.16694892389E+03  0.94684937058E+02 -0.36678592988E+02  0.19540345658E+03  0.10566000000E+00 0. -1.
          4    1    1    2  501    0  0.22185370786E+02  0.73768860521E+02  0.22412922840E+03  0.23699777738E+03  0.00000000000E+00 0.  1.
</event>
<event>
 5    1  0.4419198E-005  0.2320030E+03  0.7818608E-02  0.1077597E+00
         21   -1    0    0  501  502  0.00000000000E+00  0.00000000000E+00  0.13247629116E+03  0.13247629116E+03  0.00000000000E+00 0. -1.
         -4   -1    0    0    0  501 -0.00000000000E+00 -0.00000000000E+00 -0.11602183136E+04  0.11602183136E+04  0.00000000000E+00 0. -1.
        -13    1    1    2    0    0  0.30797931464E+02  0.71266099151E+02 -0.12740799989E+02  0.78674701264E+02  0.10566000000E+00 0.  1.
         13    1    1    2    0    0  0.50818749912E+02 -0.27981413743E+03 -0.93324234888E+03  0.97561252029E+03  0.10566000000E+00 0. -1.
         -4    1    1    2    0  502 -0.81616681376E+02  0.20854803828E+03 -0.81758873551E+02  0.23840738317E+03  0.00000000000E+00 0. -1.
</event>
<event>
 5    1  0.4419198E-005  0.3310620E+03  0.7818608E-02  0.1002030E+00
         -4   -1    0    0    0  501 -0.00000000000E+00  0.00000000000E+00  0.15706299777E+04  0.15706299777E+04  0.00000000000E+00 0. -1.
         21   -1    0    0  501  502  0.00000000000E+00 -0.00000000000E+00 -0.35194889777E+03  0.35194889777E+03  0.00000000000E+00 0. -1.
        -13    1    1    2    0    0 -0.25500010742E+03  0.71884760203E+02  0.76473870151E+03  0.80933167878E+03  0.10566000000E+00 0.  1.
         13    1    1    2    0    0  0.21963753904E+01 -0.31038475298E+03  0.64560979655E+03  0.71634875550E+03  0.10566000000E+00 0. -1.
         -4    1    1    2    0  502  0.25280373203E+03  0.23849999278E+03 -0.19166741809E+03  0.39689844122E+03  0.00000000000E+00 0. -1.
</event>
<event>
 5    1  0.4419198E-005  0.2206860E+03  0.7818608E-02  0.1107514E+00
         21   -1    0    0  501  502  0.00000000000E+00  0.00000000000E+00  0.38580212066E+03  0.38580212066E+03  0.00000000000E+00 0. -1.
         -4   -1    0    0    0  501 -0.00000000000E+00 -0.00000000000E+00 -0.18674022249E+03  0.18674022249E+03  0.00000000000E+00 0. -1.
        -13    1    1    2    0    0 -0.74733063287E+00 -0.39647995583E+02 -0.17121276050E+02  0.43193417489E+02  0.10566000000E+00 0.  1.
         13    1    1    2    0    0 -0.21555991365E+03  0.72589985706E+02  0.84025212098E+01  0.22760930545E+03  0.10566000000E+00 0. -1.
         -4    1    1    2    0  502  0.21630724429E+03 -0.32941990124E+02  0.20778065301E+03  0.30173962022E+03  0.00000000000E+00 0. -1.
</event>
<event>
 5    1  0.4419198E-005  0.4413704E+03  0.7818608E-02  0.9616657E-01
          4   -1    0    0  502    0 -0.00000000000E+00  0.00000000000E+00  0.14974634383E+04  0.14974634383E+04  0.00000000000E+00 0.  1.
         21   -1    0    0  501  502  0.00000000000E+00 -0.00000000000E+00 -0.33442223158E+03  0.33442223158E+03  0.00000000000E+00 0.  1.
        -13    1    1    2    0    0  0.37796170583E+03  0.30051545325E+03  0.54623039092E+03  0.72906257608E+03  0.10566000000E+00 0.  1.
         13    1    1    2    0    0 -0.26626720790E+03 -0.32652225276E+03  0.78986955831E+03  0.89521446473E+03  0.10566000000E+00 0. -1.
          4    1    1    2  501    0 -0.11169449794E+03  0.26006799513E+02 -0.17305874253E+03  0.20760862905E+03  0.00000000000E+00 0.  1.
</event>
<event>
 5    1  0.4419198E-005  0.4287775E+03  0.7818608E-02  0.9709729E-01
          4   -1    0    0  502    0 -0.00000000000E+00  0.00000000000E+00  0.76913460247E+03  0.76913460247E+03  0.00000000000E+00 0.  1.
         21   -1    0    0  501  502  0.00000000000E+00 -0.00000000000E+00 -0.66921753134E+03  0.66921753134E+03  0.00000000000E+00 0.  1.
        -13    1    1    2    0    0  0.37123347576E+03  0.50617127228E+03  0.13368669444E+03  0.64179108270E+03  0.10566000000E+00 0.  1.
         13    1    1    2    0    0 -0.32336917801E+03 -0.12656372600E+03  0.14242514551E+03  0.37532777044E+03  0.10566000000E+00 0. -1.
          4    1    1    2  501    0 -0.47864297757E+02 -0.37960754627E+03 -0.17619476882E+03  0.42123328067E+03  0.00000000000E+00 0.  1.
</event>
<event>
 5    1  0.4419198E-005  0.1118448E+03  0.7818608E-02  0.1146319E+00
         -4   -1    0    0    0  501 -0.00000000000E+00  0.00000000000E+00  0.12279310409E+03  0.12279310409E+03  0.00000000000E+00 0. -1.
         21   -1    0    0  501  502  0.00000000000E+00 -0.00000000000E+00 -0.44393257121E+03  0.44393257121E+03  0.00000000000E+00 0.  1.
        -13    1    1    2    0    0 -0.61395613639E+01 -0.11832692482E+03 -0.23823501798E+03  0.26607309203E+03  0.10566000000E+00 0.  1.
         13    1    1    2    0    0  0.15740387602E+02  0.11002426436E+03  0.80197513254E+02  0.13705747278E+03  0.10566000000E+00 0. -1.
         -4    1    1    2    0  502 -0.96008262384E+01  0.83026604601E+01 -0.16310196240E+03  0.16359511048E+03  0.00000000000E+00 0. -1.
</event>
<event>
 5    1  0.4419198E-005  0.4667743E+03  0.7818608E-02  0.9902567E-01
         -4   -1    0    0    0  501 -0.00000000000E+00  0.00000000000E+00  0.16327376196E+04  0.16327376196E+04  0.00000000000E+00 0. -1.
         21   -1    0    0  501  502  0.00000000000E+00 -0.00000000000E+00 -0.23058996553E+03  0.23058996553E+03  0.00000000000E+00 0. -1.
        -13    1    1    2    0    0  0.82078053308E+02  0.11275400326E+03  0.50461755902E+03  0.52353525585E+03  0.10566000000E+00 0.  1.
         13    1    1    2    0    0 -0.14731719311E+02  0.42817647884E+03  0.26065991922E+03  0.50149349472E+03  0.10566000000E+00 0. -1.
         -4    1    1    2    0  502 -0.67346333997E+02 -0.54093048211E+03  0.63687017581E+03  0.83829883455E+03  0.00000000000E+00 0. -1.
</event>
<event>
 5    1  0.4419198E-005  0.1858570E+03  0.7818608E-02  0.1070289E+00
         -4   -1    0    0    0  501 -0.00000000000E+00  0.00000000000E+00  0.19426449084E+04  0.19426449084E+04  0.00000000000E+00 0. -1.
         21   -1    0    0  501  502  0.00000000000E+00 -0.00000000000E+00 -0.20570361339E+03  0.20570361339E+03  0.00000000000E+00 0. -1.
        -13    1    1    2    0    0  0.75915245218E+02  0.11981032721E+03  0.65987566717E+03  0.67494706922E+03  0.10566000000E+00 0.  1.
         13    1    1    2    0    0 -0.16726090287E+03 -0.21733124796E+03  0.12358290407E+04  0.12658919819E+04  0.10566000000E+00 0. -1.
         -4    1    1    2    0  502  0.91345657653E+02  0.97520920751E+02 -0.15876341283E+03  0.20750947065E+03  0.00000000000E+00 0. -1.
</event>
<event>
 5    1  0.4419198E-005  0.4241419E+03  0.7818608E-02  0.1017144E+00
         21   -1    0    0  501  502  0.00000000000E+00  0.00000000000E+00  0.19643488739E+03  0.19643488739E+03  0.00000000000E+00 0.  1.
          4   -1    0    0  502    0 -0.00000000000E+00 -0.00000000000E+00 -0.15321722048E+04  0.15321722048E+04  0.00000000000E+00 0.  1.
        -13    1    1    2    0    0  0.25483542426E+03  0.33736248291E+03 -0.17011728220E+03  0.45573505373E+03  0.10566000000E+00 0.  1.
         13    1    1    2    0    0  0.64238256678E+02 -0.43335291258E+02 -0.18117376667E+03  0.19704934911E+03  0.10566000000E+00 0. -1.
          4    1    1    2  501    0 -0.31907368093E+03 -0.29402719165E+03 -0.98444626851E+03  0.10758226893E+04  0.00000000000E+00 0.  1.
</event>
<event>
 5    1  0.4419198E-005  0.4313717E+03  0.7818608E-02  0.1009824E+00
         -4   -1    0    0    0  501 -0.00000000000E+00  0.00000000000E+00  0.21015089530E+04  0.21015089530E+04  0.00000000000E+00 0. -1.
         21   -1    0    0  501  502  0.00000000000E+00 -0.00000000000E+00 -0.15873064967E+03  0.15873064967E+03  0.00000000000E+00 0. -1.
        -13    1    1    2    0    0  0.77454111254E+02 -0.51555045505E+02  0.54352870821E+03  0.55143497339E+03  0.10566000000E+00 0.  1.
         13    1    1    2    0    0  0.83511552412E+02 -0.37004216536E+03  0.11093849520E+04  0.11724505816E+04  0.10566000000E+00 0. -1.
         -4    1    1    2    0  502 -0.16096566367E+03  0.42159721087E+03  0.28986464318E+03  0.53635404767E+03  0.00000000000E+00 0. -1.
</event>
<event>
 5    1  0.4419198E-005  0.3619974E+03  0.7818608E-02  0.1001117E+00
         -4   -1    0    0    0  501 -0.00000000000E+00  0.00000000000E+00  0.31108220875E+04  0.31108220875E+04  0.00000000000E+00 0. -1.
         21   -1    0    0  501  502  0.00000000000E+00 -0.00000000000E+00 -0.11750723675E+03  0.11750723675E+03  0.00000000000E+00 0. -1.
        -13    1    1    2    0    0 -0.74994985580E+02 -0.19485199231E+03  0.49263988428E+03  0.53505664515E+03  0.10566000000E+00 0.  1.
         13    1    1    2    0    0 -0.12971351473E+03  0.46955466924E+03  0.21442849710E+04  0.21989236529E+04  0.10566000000E+00 0. -1.
         -4    1    1    2    0  502  0.20470850031E+03 -0.27470267693E+03  0.35638999540E+03  0.49434902613E+03  0.00000000000E+00 0. -1.
</event>
<event>
 5    1  0.4419198E-005  0.4318714E+03  0.7818608E-02  0.9641272E-01
          4   -1    0    0  502    0 -0.00000000000E+00  0.00000000000E+00  0.28003067133E+04  0.28003067133E+04  0.00000000000E+00 0.  1.
         21   -1    0    0  501  502  0.00000000000E+00 -0.00000000000E+00 -0.30412169960E+03  0.30412169960E+03  0.00000000000E+00 0.  1.
        -13    1    1    2    0    0 -0.21251695424E+03  0.42902957772E+03 -0.36301462697E+02  0.48015376886E+03  0.10566000000E+00 0.  1.
         13    1    1    2    0    0  0.36740958182E+03 -0.23036603878E+03  0.17056676234E+04  0.17599319207E+04  0.10566000000E+00 0. -1.
          4    1    1    2  501    0 -0.15489262759E+03 -0.19866353894E+03  0.82681885297E+03  0.86434272335E+03  0.00000000000E+00 0.  1.
</event>
<event>
 5    1  0.4419198E-005  0.4977011E+03  0.7818608E-02  0.9641176E-01
         21   -1    0    0  501  502  0.00000000000E+00  0.00000000000E+00  0.34919756523E+03  0.34919756523E+03  0.00000000000E+00 0.  1.
          4   -1    0    0  502    0 -0.00000000000E+00 -0.00000000000E+00 -0.13729668385E+04  0.13729668385E+04  0.00000000000E+00 0.  1.
        -13    1    1    2    0    0  0.49073180079E+03  0.17338315052E+03 -0.30412658887E+03  0.60280379097E+03  0.10566000000E+00 0.  1.
         13    1    1    2    0    0  0.12042265101E+02 -0.28200958753E+03 -0.46847248274E+03  0.54693774952E+03  0.10566000000E+00 0. -1.
          4    1    1    2  501    0 -0.50277406589E+03  0.10862643701E+03 -0.25117020165E+03  0.57242286323E+03  0.00000000000E+00 0.  1.
</event>
<event>
 5    1  0.4419198E-005  0.5089447E+03  0.7818608E-02  0.9458580E-01
         -4   -1    0    0    0  501 -0.00000000000E+00  0.00000000000E+00  0.38280997771E+04  0.38280997771E+04  0.00000000000E+00 0. -1.
         21   -1    0    0  501  502  0.00000000000E+00 -0.00000000000E+00 -0.15978276756E+03  0.15978276756E+03  0.00000000000E+00 0. -1.
        -13    1    1    2    0    0 -0.15003171767E+03 -0.43908619623E+03  0.16842634465E+04  0.17470116120E+04  0.10566000000E+00 0.  1.
         13    1    1    2    0    0  0.36948828642E+03  0.46137812009E+03  0.19232849053E+04  0.20120676434E+04  0.10566000000E+00 0. -1.
         -4    1    1    2    0  502 -0.21945656875E+03 -0.22291923861E+02  0.60768657796E+02  0.22880328933E+03  0.00000000000E+00 0. -1.
</event>
<event>
 5    1  0.4419198E-005  0.4505524E+03  0.7818608E-02  0.9649332E-01
          4   -1    0    0  502    0 -0.00000000000E+00  0.00000000000E+00  0.26651425393E+04  0.26651425393E+04  0.00000000000E+00 0.  1.
         21   -1    0    0  501  502  0.00000000000E+00 -0.00000000000E+00 -0.23569094128E+03  0.23569094128E+03  0.00000000000E+00 0. -1.
        -13    1    1    2    0    0 -0.13342395437E+03 -0.42195207322E+03  0.26355320422E+03  0.51507844676E+03  0.10566000000E+00 0.  1.
         13    1    1    2    0    0 -0.34675832483E+03  0.12820647120E+03  0.13113629846E+04  0.13624797700E+04  0.10566000000E+00 0. -1.
          4    1    1    2  501    0  0.48018227920E+03  0.29374560202E+03  0.85453540913E+03  0.10232752638E+04  0.00000000000E+00 0.  1.
</event>
<event>
 5    1  0.4419198E-005  0.3219233E+03  0.7818608E-02  0.1013608E+00
         21   -1    0    0  501  502  0.00000000000E+00  0.00000000000E+00  0.12946989932E+04  0.12946989932E+04  0.00000000000E+00 0. -1.
         -4   -1    0    0    0  501 -0.00000000000E+00 -0.00000000000E+00 -0.16270779174E+03  0.16270779174E+03  0.00000000000E+00 0. -1.
        -13    1    1    2    0    0 -0.18868845480E+03 -0.61033752486E+02  0.94690713249E+02  0.21976076596E+03  0.10566000000E+00 0.  1.
         13    1    1    2    0    0  0.16919029476E+03  0.34714260362E+03  0.64370792640E+03  0.75066187380E+03  0.10566000000E+00 0. -1.
         -4    1    1    2    0  502  0.19498160042E+02 -0.28610885114E+03  0.39359256176E+03  0.48698414514E+03  0.00000000000E+00 0. -1.
</event>
<event>
 5    1  0.4419198E-005  0.2574051E+02  0.7818608E-02  0.1442781E+00
         21   -1    0    0  501  502  0.00000000000E+00  0.00000000000E+00  0.26159496624E+03  0.26159496624E+03  0.00000000000E+00 0.  1.
          4   -1    0    0  502    0 -0.00000000000E+00 -0.00000000000E+00 -0.79889265161E+01  0.79889265161E+01  0.00000000000E+00 0.  1.
        -13    1    1    2    0    0  0.25757705965E+02  0.47218044747E+01  0.30373264697E+02  0.40103631089E+02  0.10566000000E+00 0.  1.
         13    1    1    2    0    0 -0.18110311170E+02 -0.24618043485E+02  0.10567432712E+03  0.11000502722E+03  0.10566000000E+00 0. -1.
          4    1    1    2  501    0 -0.76473947946E+01  0.19896239011E+02  0.11755844790E+03  0.11947523445E+03  0.00000000000E+00 0.  1.
</event>
<event>
 5    1  0.4419198E-005  0.1312974E+03  0.7818608E-02  0.1127111E+00
         21   -1    0    0  501  502  0.00000000000E+00  0.00000000000E+00  0.26396490260E+03  0.26396490260E+03  0.00000000000E+00 0.  1.
          4   -1    0    0  502    0 -0.00000000000E+00 -0.00000000000E+00 -0.11724247937E+04  0.11724247937E+04  0.00000000000E+00 0.  1.
        -13    1    1    2    0    0  0.56912812948E+02 -0.20939798823E+03 -0.99160013924E+03  0.10150652359E+04  0.10566000000E+00 0.  1.
         13    1    1    2    0    0  0.26326836402E+02  0.10943416543E+03 -0.12979347394E+03  0.17180016275E+03  0.10566000000E+00 0. -1.
          4    1    1    2  501    0 -0.83239649350E+02  0.99963822791E+02  0.21293372213E+03  0.24952429763E+03  0.00000000000E+00 0.  1.
</event>
<event>
 5    1  0.8859860E-005  0.3640299E+03  0.7818608E-02  0.1028417E+00
         21   -1    0    0  501  502  0.00000000000E+00  0.00000000000E+00  0.24255135691E+04  0.24255135691E+04  0.00000000000E+00 0.  1.
          4   -1    0    0  502    0 -0.00000000000E+00 -0.00000000000E+00 -0.15703508571E+03  0.15703508571E+03  0.00000000000E+00 0.  1.
        -13    1    1    2    0    0 -0.44251684307E+01 -0.33670553864E+03  0.23245171654E+03  0.40917479585E+03  0.10566000000E+00 0.  1.
         13    1    1    2    0    0  0.82196873039E+02 -0.25552391840E+02 -0.16525085327E+02  0.87648960491E+02  0.10566000000E+00 0. -1.
          4    1    1    2  501    0 -0.77771704608E+02  0.36225793048E+03  0.20525518522E+04  0.20857248985E+04  0.00000000000E+00 0.  1.
</event>
<event>
 5    1  0.1246634E-004  0.3600771E+03  0.7818608E-02  0.1047431E+00
         21   -1    0    0  501  502  0.00000000000E+00  0.00000000000E+00  0.80577762043E+03  0.80577762043E+03  0.00000000000E+00 0. -1.
          4   -1    0    0  502    0 -0.00000000000E+00 -0.00000000000E+00 -0.21486385922E+04  0.21486385922E+04  0.00000000000E+00 0.  1.
        -13    1    1    2    0    0 -0.13161791782E+03 -0.41097380037E+01  0.29034190042E+03  0.31880808732E+03  0.10566000000E+00 0.  1.
         13    1    1    2    0    0 -0.22016362659E+02 -0.96727158361E+03 -0.12486801132E+04  0.15796522000E+04  0.10566000000E+00 0. -1.
          4    1    1    2  501    0  0.15363428047E+03  0.97138132161E+03 -0.38452275904E+03  0.10559559254E+04  0.00000000000E+00 0.  1.
</event>
<event>
 5    1  0.4419198E-005  0.4704639E+03  0.7818608E-02  0.9656392E-01
         21   -1    0    0  501  502  0.00000000000E+00  0.00000000000E+00  0.13149274365E+04  0.13149274365E+04  0.00000000000E+00 0.  1.
          4   -1    0    0  502    0 -0.00000000000E+00 -0.00000000000E+00 -0.38971502784E+03  0.38971502784E+03  0.00000000000E+00 0.  1.
        -13    1    1    2    0    0  0.10130684813E+03 -0.43131864974E+03  0.12411200029E+03  0.46011156786E+03  0.10566000000E+00 0.  1.
         13    1    1    2    0    0 -0.31458843621E+03 -0.36979433283E+02  0.30914264001E+02  0.31825943122E+03  0.10566000000E+00 0. -1.
          4    1    1    2  501    0  0.21328158808E+03  0.46829808303E+03  0.77018614439E+03  0.92627146528E+03  0.00000000000E+00 0.  1.
</event>
<event>
 5    1  0.4419198E-005  0.4815267E+03  0.7818608E-02  0.9570083E-01
         -4   -1    0    0    0  501 -0.00000000000E+00  0.00000000000E+00  0.26475142107E+04  0.26475142107E+04  0.00000000000E+00 0. -1.
         21   -1    0    0  501  502  0.00000000000E+00 -0.00000000000E+00 -0.20883927347E+03  0.20883927347E+03  0.00000000000E+00 0.  1.
        -13    1    1    2    0    0  0.39656731167E+03 -0.61078578546E+02  0.62174119508E+03  0.73997185775E+03  0.10566000000E+00 0.  1.
         13    1    1    2    0    0 -0.36441634484E+02  0.49185395418E+03  0.60392988233E+03  0.77973047837E+03  0.10566000000E+00 0. -1.
         -4    1    1    2    0  502 -0.36012567718E+03 -0.43077537563E+03  0.12130038598E+04  0.13366511480E+04  0.00000000000E+00 0. -1.
</event>
<event>
 5    1  0.4419198E-005  0.5536535E+02  0.7818608E-02  0.1271362E+00
         -4   -1    0    0    0  501 -0.00000000000E+00  0.00000000000E+00  0.70396597087E+02  0.70396597087E+02  0.00000000000E+00 0. -1.
         21   -1    0    0  501  502  0.00000000000E+00 -0.00000000000E+00 -0.51456099350E+03  0.51456099350E+03  0.00000000000E+00 0. -1.
        -13    1    1    2    0    0 -0.39923480830E+02 -0.36123638782E+02 -0.57353457630E+02  0.78665315525E+02  0.10566000000E+00 0.  1.
         13    1    1    2    0    0  0.50667585834E+02  0.23941208421E+02  0.46413107579E+02  0.72763819540E+02  0.10566000000E+00 0. -1.
         -4    1    1    2    0  502 -0.10744105004E+02  0.12182430361E+02 -0.43322404636E+03  0.43352845552E+03  0.00000000000E+00 0. -1.
</event>
<event>
 5    1  0.4419198E-005  0.1742310E+03  0.7818608E-02  0.1094332E+00
          4   -1    0    0  502    0 -0.00000000000E+00  0.00000000000E+00  0.63568131138E+03  0.63568131138E+03  0.00000000000E+00 0.  1.
         21   -1    0    0  501  502  0.00000000000E+00 -0.00000000000E+00 -0.32393787039E+03  0.32393787039E+03  0.00000000000E+00 0.  1.
        -13    1    1    2    0    0 -0.17331224210E+03 -0.14872791704E+03 -0.96811087580E+01  0.22858447366E+03  0.10566000000E+00 0.  1.
         13    1    1    2    0    0  0.11503538975E+03 -0.41066721601E+01  0.48573556367E+03  0.49918839593E+03  0.10566000000E+00 0. -1.
          4    1    1    2  501    0  0.58276852356E+02  0.15283458920E+03 -0.16431101392E+03  0.23184631218E+03  0.00000000000E+00 0.  1.
</event>
<event>
 5    1  0.4884879E-005  0.4759842E+03  0.7818608E-02  0.9777736E-01
         21   -1    0    0  501  502  0.00000000000E+00  0.00000000000E+00  0.47229399831E+03  0.47229399831E+03  0.00000000000E+00 0. -1.
         -4   -1    0    0    0  501 -0.00000000000E+00 -0.00000000000E+00 -0.79374952651E+03  0.79374952651E+03  0.00000000000E+00 0. -1.
        -13    1    1    2    0    0 -0.17503950692E+03 -0.98237041686E+02 -0.85667867062E+02  0.21823918061E+03  0.10566000000E+00 0.  1.
         13    1    1    2    0    0 -0.41458756057E+03  0.63727605623E+02 -0.23282108525E+02  0.42010251230E+03  0.10566000000E+00 0. -1.
         -4    1    1    2    0  502  0.58962706749E+03  0.34509436063E+02 -0.21250555261E+03  0.62770183191E+03  0.00000000000E+00 0. -1.
</event>
<event>
 5    1  0.4419198E-005  0.3070844E+03  0.7818608E-02  0.1036660E+00
         21   -1    0    0  501  502  0.00000000000E+00  0.00000000000E+00  0.17096178219E+04  0.17096178219E+04  0.00000000000E+00 0. -1.
         -4   -1    0    0    0  501 -0.00000000000E+00 -0.00000000000E+00 -0.22074126062E+03  0.22074126062E+03  0.00000000000E+00 0. -1.
        -13    1    1    2    0    0 -0.47005598661E+02 -0.10087934221E+03 -0.25079416489E+02  0.11408398786E+03  0.10566000000E+00 0.  1.
         13    1    1    2    0    0 -0.20912643395E+03 -0.20942621415E+03  0.13495521605E+04  0.13816237728E+04  0.10566000000E+00 0. -1.
         -4    1    1    2    0  502  0.25613203261E+03  0.31030555636E+03  0.16440381726E+03  0.43465132183E+03  0.00000000000E+00 0. -1.
</event>
<event>
 5    1  0.4419198E-005  0.4907451E+03  0.7818608E-02  0.9607735E-01
         21   -1    0    0  501  502  0.00000000000E+00  0.00000000000E+00  0.19312492363E+04  0.19312492363E+04  0.00000000000E+00 0. -1.
         -4   -1    0    0    0  501 -0.00000000000E+00 -0.00000000000E+00 -0.54510818914E+03  0.54510818914E+03  0.00000000000E+00 0. -1.
        -13    1    1    2    0    0 -0.32423627845E+03 -0.68683074441E+02 -0.32536513554E+03  0.46444484233E+03  0.10566000000E+00 0.  1.
         13    1    1    2    0    0 -0.27523820782E+03  0.30713434824E+03  0.65941883366E+03  0.77776653841E+03  0.10566000000E+00 0. -1.
         -4    1    1    2    0  502  0.59947448628E+03 -0.23845127380E+03  0.10520873490E+04  0.12341460447E+04  0.00000000000E+00 0. -1.
</event>
<event>
 5    1  0.4419198E-005  0.6604043E+02  0.7818608E-02  0.1283637E+00
         21   -1    0    0  501  502  0.00000000000E+00  0.00000000000E+00  0.83834602959E+02  0.83834602959E+02  0.00000000000E+00 0.  1.
          4   -1    0    0  502    0 -0.00000000000E+00 -0.00000000000E+00 -0.12225166919E+03  0.12225166919E+03  0.00000000000E+00 0.  1.
        -13    1    1    2    0    0 -0.97504152209E+01  0.72222006737E+02 -0.77958653276E+02  0.10671762572E+03  0.10566000000E+00 0.  1.
         13    1    1    2    0    0  0.24013483198E+02 -0.85638666639E+01  0.15535220279E+02  0.29855341577E+02  0.10566000000E+00 0. -1.
          4    1    1    2  501    0 -0.14263067977E+02 -0.63658140074E+02  0.24006366770E+02  0.69513304850E+02  0.00000000000E+00 0.  1.
</event>
<event>
 5    1  0.4419198E-005  0.4598241E+03  0.7818608E-02  0.9659667E-01
         21   -1    0    0  501  502  0.00000000000E+00  0.00000000000E+00  0.21328187244E+03  0.21328187244E+03  0.00000000000E+00 0.  1.
          4   -1    0    0  502    0 -0.00000000000E+00 -0.00000000000E+00 -0.23157045935E+04  0.23157045935E+04  0.00000000000E+00 0.  1.
        -13    1    1    2    0    0  0.88925599172E+02  0.20704369279E+03 -0.11737511179E+04  0.11951847350E+04  0.10566000000E+00 0.  1.
         13    1    1    2    0    0  0.61077767525E+02  0.32976527630E+03 -0.59826919142E+03  0.68585834376E+03  0.10566000000E+00 0. -1.
          4    1    1    2  501    0 -0.15000336670E+03 -0.53680896909E+03 -0.33040241182E+03  0.64794338723E+03  0.00000000000E+00 0.  1.
</event>
<event>
 5    1  0.4419198E-005  0.2214352E+03  0.7818608E-02  0.1053070E+00
         21   -1    0    0  501  502  0.00000000000E+00  0.00000000000E+00  0.18928978966E+03  0.18928978966E+03  0.00000000000E+00 0. -1.
         -4   -1    0    0    0  501 -0.00000000000E+00 -0.00000000000E+00 -0.19282599571E+04  0.19282599571E+04  0.00000000000E+00 0. -1.
        -13    1    1    2    0    0  0.11477011240E+03 -0.14040774549E+03 -0.26056945616E+03  0.31746333070E+03  0.10566000000E+00 0.  1.
         13    1    1    2    0    0 -0.19117505228E+03  0.33892156538E+03 -0.15320676780E+04  0.15807109506E+04  0.10566000000E+00 0. -1.
         -4    1    1    2    0  502  0.76404939886E+02 -0.19851381989E+03  0.53666966760E+02  0.21937546546E+03  0.00000000000E+00 0. -1.
</event>
<event>
 5    1  0.4419198E-005  0.3438542E+02  0.7818608E-02  0.1372802E+00
          4   -1    0    0  502    0 -0.00000000000E+00  0.00000000000E+00  0.62169959658E+02  0.62169959658E+02  0.00000000000E+00 0.  1.
         21   -1    0    0  501  502  0.00000000000E+00 -0.00000000000E+00 -0.71325424364E+02  0.71325424364E+02  0.00000000000E+00 0. -1.
        -13    1    1    2    0    0  0.26792435712E+02 -0.20379397316E+02  0.45735023988E+02  0.56787833464E+02  0.10566000000E+00 0.  1.
         13    1    1    2    0    0 -0.37921078932E+02  0.18386476576E+02 -0.45411657801E+02  0.61954019858E+02  0.10566000000E+00 0. -1.
          4    1    1    2  501    0  0.11128643220E+02  0.19929207395E+01 -0.94788308928E+01  0.14753530699E+02  0.00000000000E+00 0.  1.
</event>
<event>
 5    1  0.4419198E-005  0.4172371E+02  0.7818608E-02  0.1366081E+00
         21   -1    0    0  501  502  0.00000000000E+00  0.00000000000E+00  0.24180218144E+03  0.24180218144E+03  0.00000000000E+00 0.  1.
          4   -1    0    0  502    0 -0.00000000000E+00 -0.00000000000E+00 -0.10391339175E+03  0.10391339175E+03  0.00000000000E+00 0.  1.
        -13    1    1    2    0    0 -0.49800452743E+02  0.11550282107E+02 -0.92616571966E+02  0.10578910472E+03  0.10566000000E+00 0.  1.
         13    1    1    2    0    0  0.16744474297E+02  0.13716977540E+02  0.46727419520E+02  0.51497531896E+02  0.10566000000E+00 0. -1.
          4    1    1    2  501    0  0.33055978446E+02 -0.25267259646E+02  0.18377794214E+03  0.18842893658E+03  0.00000000000E+00 0.  1.
</event>
<event>
 5    1  0.4419198E-005  0.2778161E+03  0.7818608E-02  0.1016907E+00
         21   -1    0    0  501  502  0.00000000000E+00  0.00000000000E+00  0.15342785826E+03  0.15342785826E+03  0.00000000000E+00 0. -1.
          4   -1    0    0  502    0 -0.00000000000E+00 -0.00000000000E+00 -0.79499959525E+03  0.79499959525E+03  0.00000000000E+00 0.  1.
        -13    1    1    2    0    0  0.18751721150E+03 -0.18898556123E+03 -0.42221790954E+03  0.49914549107E+03  0.10566000000E+00 0.  1.
         13    1    1    2    0    0 -0.16196504435E+03  0.26123982825E+03 -0.20957252153E+03  0.37202093543E+03  0.10566000000E+00 0. -1.
          4    1    1    2  501    0 -0.25552167147E+02 -0.72254267020E+02 -0.97813059202E+01  0.77261027006E+02  0.00000000000E+00 0.  1.
</event>
<event>
 5    1  0.4419198E-005  0.3401106E+03  0.7818608E-02  0.9920023E-01
         -4   -1    0    0    0  501 -0.00000000000E+00  0.00000000000E+00  0.25494881808E+04  0.25494881808E+04  0.00000000000E+00 0. -1.
         21   -1    0    0  501  502  0.00000000000E+00 -0.00000000000E+00 -0.25586044934E+03  0.25586044934E+03  0.00000000000E+00 0. -1.
        -13    1    1    2    0    0 -0.26166491551E+03 -0.15871902770E+03  0.14563548140E+04  0.14881631676E+04  0.10566000000E+00 0.  1.
         13    1    1    2    0    0  0.39340914406E+03  0.19543969334E+03  0.10073358491E+04  0.10989508417E+04  0.10566000000E+00 0. -1.
         -4    1    1    2    0  502 -0.13174422855E+03 -0.36720665638E+02 -0.17006293166E+03  0.21823462092E+03  0.00000000000E+00 0. -1.
</event>
<event>
 5    1  0.4419198E-005  0.3413717E+03  0.7818608E-02  0.1011874E+00
         21   -1    0    0  501  502  0.00000000000E+00  0.00000000000E+00  0.13185410626E+04  0.13185410626E+04  0.00000000000E+00 0.  1.
          4   -1    0    0  502    0 -0.00000000000E+00 -0.00000000000E+00 -0.55736660529E+03  0.55736660529E+03  0.00000000000E+00 0.  1.
        -13    1    1    2    0    0  0.20565970775E+03  0.13392606223E+03  0.84027768596E+03  0.87538489033E+03  0.10566000000E+00 0.  1.
         13    1    1    2    0    0  0.22836458287E+03 -0.41731308094E+03 -0.78683909285E+02  0.48217399244E+03  0.10566000000E+00 0. -1.
          4    1    1    2  501    0 -0.43402429062E+03  0.28338701871E+03 -0.41931933846E+00  0.51834878514E+03  0.00000000000E+00 0.  1.
</event>
<event>
 5    1  0.4419198E-005  0.4195957E+03  0.7818608E-02  0.9842994E-01
         21   -1    0    0  501  502  0.00000000000E+00  0.00000000000E+00  0.77824288370E+03  0.77824288370E+03  0.00000000000E+00 0.  1.
          4   -1    0    0  502    0 -0.00000000000E+00 -0.00000000000E+00 -0.50077593711E+03  0.50077593711E+03  0.00000000000E+00 0.  1.
        -13    1    1    2    0    0 -0.16054868168E+03 -0.33268530059E+03  0.27726536855E+03  0.46187821358E+03  0.10566000000E+00 0.  1.
         13    1    1    2    0    0 -0.19910044945E+03 -0.12407914232E+03 -0.19817998547E+02  0.23543446383E+03  0.10566000000E+00 0. -1.
          4    1    1    2  501    0  0.35964913112E+03  0.45676444291E+03  0.20019576585E+02  0.58170614341E+03  0.00000000000E+00 0.  1.
</event>
<event>
 5    1  0.4419198E-005  0.3120962E+03  0.7818608E-02  0.1007398E+00
         21   -1    0    0  501  502  0.00000000000E+00  0.00000000000E+00  0.21232330883E+03  0.21232330883E+03  0.00000000000E+00 0.  1.
          4   -1    0    0  502    0 -0.00000000000E+00 -0.00000000000E+00 -0.21816226466E+04  0.21816226466E+04  0.00000000000E+00 0.  1.
        -13    1    1    2    0    0 -0.37224133603E+03  0.10689988715E+03 -0.13675058684E+04  0.14212893827E+04  0.10566000000E+00 0.  1.
         13    1    1    2    0    0  0.21037710682E+03  0.16221647841E+03 -0.60265761709E+03  0.65861136306E+03  0.10566000000E+00 0. -1.
          4    1    1    2  501    0  0.16186422921E+03 -0.26911636556E+03  0.86414780436E+00  0.31404520958E+03  0.00000000000E+00 0.  1.
</event>
<event>
 5    1  0.4419198E-005  0.1996283E+03  0.7818608E-02  0.1060391E+00
         21   -1    0    0  501  502  0.00000000000E+00  0.00000000000E+00  0.45243635579E+03  0.45243635579E+03  0.00000000000E+00 0.  1.
          4   -1    0    0  502    0 -0.00000000000E+00 -0.00000000000E+00 -0.63331105022E+03  0.63331105022E+03  0.00000000000E+00 0.  1.
        -13    1    1    2    0    0  0.52448621809E+02  0.19672168834E+03 -0.56498664112E+03  0.60054991167E+03  0.10566000000E+00 0.  1.
         13    1    1    2    0    0 -0.94882752734E+02 -0.14363338145E+03  0.11352705779E+03  0.20620787824E+03  0.10566000000E+00 0. -1.
          4    1    1    2  501    0  0.42434130925E+02 -0.53088306890E+02  0.27058488890E+03  0.27898961611E+03  0.00000000000E+00 0.  1.
</event>
<event>
 5    1  0.4419198E-005  0.3943396E+03  0.7818608E-02  0.9745537E-01
         -4   -1    0    0    0  501 -0.00000000000E+00  0.00000000000E+00  0.98489603567E+03  0.98489603567E+03  0.00000000000E+00 0. -1.
         21   -1    0    0  501  502  0.00000000000E+00 -0.00000000000E+00 -0.99215861235E+03  0.99215861235E+03  0.00000000000E+00 0. -1.
        -13    1    1    2    0    0  0.33358580847E+03  0.15983250120E+03  0.63423475186E+03  0.73422043807E+03  0.10566000000E+00 0.  1.
         13    1    1    2    0    0 -0.62716370546E+03 -0.22569129402E+02 -0.13562944647E+03  0.64205843735E+03  0.10566000000E+00 0. -1.
         -4    1    1    2    0  502  0.29357789699E+03 -0.13726337180E+03 -0.50586788207E+03  0.60077577260E+03  0.00000000000E+00 0. -1.
</event>
<event>
 5    1  0.4419198E-005  0.4499652E+03  0.7818608E-02  0.9720694E-01
         -4   -1    0    0    0  501 -0.00000000000E+00  0.00000000000E+00  0.21787554813E+04  0.21787554813E+04  0.00000000000E+00 0. -1.
         21   -1    0    0  501  502  0.00000000000E+00 -0.00000000000E+00 -0.20101600008E+03  0.20101600008E+03  0.00000000000E+00 0. -1.
        -13    1    1    2    0    0  0.18489411526E+03  0.22244070237E+03  0.56831052786E+03  0.63768531986E+03  0.10566000000E+00 0.  1.
         13    1    1    2    0    0  0.29634390765E+03 -0.30117310399E+03  0.10630758269E+04  0.11439646739E+04  0.10566000000E+00 0. -1.
         -4    1    1    2    0  502 -0.48123802291E+03  0.78732401623E+02  0.34635312640E+03  0.59812148760E+03  0.00000000000E+00 0. -1.
</event>
<event>
 5    1  0.4419198E-005  0.6113754E+03  0.7818608E-02  0.9441426E-01
         21   -1    0    0  501  502  0.00000000000E+00  0.00000000000E+00  0.82579616924E+03  0.82579616924E+03  0.00000000000E+00 0. -1.
         -4   -1    0    0    0  501 -0.00000000000E+00 -0.00000000000E+00 -0.10367967854E+04  0.10367967854E+04  0.00000000000E+00 0. -1.
        -13    1    1    2    0    0 -0.24617448640E+03  0.19279683776E+03 -0.37445312512E+03  0.48783978157E+03  0.10566000000E+00 0.  1.
         13    1    1    2    0    0 -0.52689231154E+03 -0.16637821659E+03  0.22974865701E+03  0.59839926093E+03  0.10566000000E+00 0. -1.
         -4    1    1    2    0  502  0.77306679794E+03 -0.26418621166E+02 -0.66296148020E+02  0.77635391212E+03  0.00000000000E+00 0. -1.
</event>
<event>
 5    1  0.4419198E-005  0.3725966E+03  0.7818608E-02  0.9910255E-01
          4   -1    0    0  502    0 -0.00000000000E+00  0.00000000000E+00  0.20843493439E+04  0.20843493439E+04  0.00000000000E+00 0.  1.
         21   -1    0    0  501  502  0.00000000000E+00 -0.00000000000E+00 -0.38941739293E+03  0.38941739293E+03  0.00000000000E+00 0.  1.
        -13    1    1    2    0    0 -0.51497995159E+03 -0.12904494069E+03  0.48038726075E+03  0.71598106031E+03  0.10566000000E+00 0.  1.
         13    1    1    2    0    0  0.24872152305E+03 -0.97766785479E+02  0.13548284022E+04  0.13809347382E+04  0.10566000000E+00 0. -1.
          4    1    1    2  501    0  0.26625842854E+03  0.22681172617E+03 -0.14028371201E+03  0.37685093837E+03  0.00000000000E+00 0.  1.
</event>
<event>
 5    1  0.4419198E-005  0.1064019E+04  0.7818608E-02  0.8716660E-01
          4   -1    0    0  502    0 -0.00000000000E+00  0.00000000000E+00  0.24524874466E+04  0.24524874466E+04  0.00000000000E+00 0.  1.
         21   -1    0    0  501  502  0.00000000000E+00 -0.00000000000E+00 -0.57729979632E+03  0.57729979632E+03  0.00000000000E+00 0. -1.
        -13    1    1    2    0    0 -0.27983210310E+03  0.11157172153E+04  0.11452297284E+04  0.16231703707E+04  0.10566000000E+00 0.  1.
         13    1    1    2    0    0  0.35530010665E+03 -0.90719587356E+03  0.64844738640E+03  0.11703531702E+04  0.10566000000E+00 0. -1.
          4    1    1    2  501    0 -0.75468003555E+02 -0.20852134171E+03  0.81510535474E+02  0.23626370205E+03  0.00000000000E+00 0.  1.
</event>
<event>
 5    1  0.4419198E-005  0.4867329E+03  0.7818608E-02  0.1024929E+00
         -4   -1    0    0    0  501 -0.00000000000E+00  0.00000000000E+00  0.78986658954E+03  0.78986658954E+03  0.00000000000E+00 0. -1.
         21   -1    0    0  501  502  0.00000000000E+00 -0.00000000000E+00 -0.37365046403E+03  0.37365046403E+03  0.00000000000E+00 0. -1.
        -13    1    1    2    0    0  0.39978356077E+02 -0.35761065732E+01  0.11917590951E+03  0.12575359265E+03  0.10566000000E+00 0.  1.
         13    1    1    2    0    0 -0.25352619803E+03  0.42626706608E+03  0.36625151685E+02  0.49731333947E+03  0.10566000000E+00 0. -1.
         -4    1    1    2    0  502  0.21354784196E+03 -0.42269095951E+03  0.26041506431E+03  0.54045012145E+03  0.00000000000E+00 0. -1.
</event>
<event>
 5    1  0.4419198E-005  0.4019756E+03  0.7818608E-02  0.9723358E-01
         21   -1    0    0  501  502  0.00000000000E+00  0.00000000000E+00  0.60113930114E+03  0.60113930114E+03  0.00000000000E+00 0. -1.
         -4   -1    0    0    0  501 -0.00000000000E+00 -0.00000000000E+00 -0.16837151485E+04  0.16837151485E+04  0.00000000000E+00 0. -1.
        -13    1    1    2    0    0 -0.17983433675E+02  0.41527256493E+03 -0.11177769689E+04  0.11925603005E+04  0.10566000000E+00 0.  1.
         13    1    1    2    0    0  0.33418935582E+02 -0.20250622621E+03  0.52194806438E+03  0.56085237807E+03  0.10566000000E+00 0. -1.
         -4    1    1    2    0  502 -0.15435501908E+02 -0.21276633873E+03 -0.48674694282E+03  0.53144177100E+03  0.00000000000E+00 0. -1.
</event>
<event>
 5    1  0.4419198E-005  0.4951124E+03  0.7818608E-02  0.9775115E-01
         21   -1    0    0  501  502  0.00000000000E+00  0.00000000000E+00  0.30140368078E+03  0.30140368078E+03  0.00000000000E+00 0.  1.
          4   -1    0    0  502    0 -0.00000000000E+00 -0.00000000000E+00 -0.11757244925E+04  0.11757244925E+04  0.00000000000E+00 0.  1.
        -13    1    1    2    0    0  0.43679229844E+03  0.25964036041E+03 -0.35602153311E+03  0.62044497897E+03  0.10566000000E+00 0.  1.
         13    1    1    2    0    0 -0.12564449311E+03  0.12883135710E+03 -0.96059062937E+02  0.20398875449E+03  0.10566000000E+00 0. -1.
          4    1    1    2  501    0 -0.31114780532E+03 -0.38847171751E+03 -0.42224021570E+03  0.65269443985E+03  0.00000000000E+00 0.  1.
</event>
<event>
 5    1  0.4419198E-005  0.7916056E+02  0.7818608E-02  0.1204555E+00
         21   -1    0    0  501  502  0.00000000000E+00  0.00000000000E+00  0.55964805379E+03  0.55964805379E+03  0.00000000000E+00 0.  1.
         -4   -1    0    0    0  501 -0.00000000000E+00 -0.00000000000E+00 -0.16265286069E+02  0.16265286069E+02  0.00000000000E+00 0. -1.
        -13    1    1    2    0    0  0.74539787059E+02 -0.38662720261E+02  0.30019600411E+03  0.31171884422E+03  0.10566000000E+00 0.  1.
         13    1    1    2    0    0 -0.73520772252E+02  0.23513767332E+02  0.13976012566E+03  0.15965934077E+03  0.10566000000E+00 0. -1.
         -4    1    1    2    0  502 -0.10190148067E+01  0.15148952930E+02  0.10342663795E+03  0.10453515487E+03  0.00000000000E+00 0. -1.
</event>
<event>
 5    1  0.4419198E-005  0.2326448E+03  0.7818608E-02  0.1039801E+00
         21   -1    0    0  501  502  0.00000000000E+00  0.00000000000E+00  0.43566677276E+02  0.43566677276E+02  0.00000000000E+00 0.  1.
         -4   -1    0    0    0  501 -0.00000000000E+00 -0.00000000000E+00 -0.14797141765E+04  0.14797141765E+04  0.00000000000E+00 0. -1.
        -13    1    1    2    0    0  0.21358855090E+03 -0.10173057502E+03 -0.80846342666E+03  0.84236708292E+03  0.10566000000E+00 0.  1.
         13    1    1    2    0    0 -0.19703709721E+03  0.11540740562E+03 -0.61488763190E+03  0.65591866719E+03  0.10566000000E+00 0. -1.
         -4    1    1    2    0  502 -0.16551453686E+02 -0.13676830603E+02 -0.12796440704E+02  0.24995103703E+02  0.00000000000E+00 0. -1.
</event>
<event>
 5    1  0.4419198E-005  0.4958997E+03  0.7818608E-02  0.9819136E-01
         21   -1    0    0  501  502  0.00000000000E+00  0.00000000000E+00  0.77476625362E+03  0.77476625362E+03  0.00000000000E+00 0.  1.
          4   -1    0    0  502    0 -0.00000000000E+00 -0.00000000000E+00 -0.70778932180E+03  0.70778932180E+03  0.00000000000E+00 0.  1.
        -13    1    1    2    0    0 -0.50446274929E+03 -0.31298769663E+02  0.21444742572E+03  0.54904461382E+03  0.10566000000E+00 0.  1.
         13    1    1    2    0    0  0.39867788068E+02 -0.14884916797E+03 -0.36014344499E+03  0.39172544909E+03  0.10566000000E+00 0. -1.
          4    1    1    2  501    0  0.46459496122E+03  0.18014793764E+03  0.21267295110E+03  0.54178551250E+03  0.00000000000E+00 0.  1.
</event>
<event>
 5    1  0.4419198E-005  0.4874414E+03  0.7818608E-02  0.9560576E-01
         -4   -1    0    0    0  501 -0.00000000000E+00  0.00000000000E+00  0.12688073785E+04  0.12688073785E+04  0.00000000000E+00 0. -1.
         21   -1    0    0  501  502  0.00000000000E+00 -0.00000000000E+00 -0.44817827441E+03  0.44817827441E+03  0.00000000000E+00 0.  1.
        -13    1    1    2    0    0  0.34856259692E+03  0.19666862164E+03  0.11000096633E+03  0.41505982035E+03  0.10566000000E+00 0.  1.
         13    1    1    2    0    0  0.14724018946E+03 -0.44306172746E+03  0.55811769913E+03  0.72765290144E+03  0.10566000000E+00 0. -1.
         -4    1    1    2    0  502 -0.49580278637E+03  0.24639310582E+03  0.15251043868E+03  0.57427293117E+03  0.00000000000E+00 0. -1.
</event>
<event>
 5    1  0.4419198E-005  0.2469513E+03  0.7818608E-02  0.1031985E+00
         21   -1    0    0  501  502  0.00000000000E+00  0.00000000000E+00  0.87518073421E+02  0.87518073421E+02  0.00000000000E+00 0. -1.
          4   -1    0    0  502    0 -0.00000000000E+00 -0.00000000000E+00 -0.13984282009E+04  0.13984282009E+04  0.00000000000E+00 0.  1.
        -13    1    1    2    0    0  0.11856338798E+03 -0.24002868418E+03 -0.26341638955E+03  0.37557855590E+03  0.10566000000E+00 0.  1.
         13    1    1    2    0    0 -0.99382886967E+02  0.22055664582E+03 -0.10547109891E+04  0.10820986433E+04  0.10566000000E+00 0. -1.
          4    1    1    2  501    0 -0.19180501016E+02  0.19472038365E+02  0.72172510897E+01  0.28269075163E+02  0.00000000000E+00 0.  1.
</event>
<event>
 5    1  0.4419198E-005  0.2742953E+03  0.7818608E-02  0.1062631E+00
          4   -1    0    0  502    0 -0.00000000000E+00  0.00000000000E+00  0.97474085254E+03  0.97474085254E+03  0.00000000000E+00 0.  1.
         21   -1    0    0  501  502  0.00000000000E+00 -0.00000000000E+00 -0.18583824029E+03  0.18583824029E+03  0.00000000000E+00 0.  1.
        -13    1    1    2    0    0 -0.28533947472E+03  0.11130551776E+03  0.69797488836E+03  0.76221813811E+03  0.10566000000E+00 0.  1.
         13    1    1    2    0    0  0.60981553900E+02  0.38461636397E+02  0.10599073341E+03  0.12818773000E+03  0.10566000000E+00 0. -1.
          4    1    1    2  501    0  0.22435792082E+03 -0.14976715416E+03 -0.15063009525E+02  0.27017322472E+03  0.00000000000E+00 0.  1.
</event>
<event>
 5    1  0.4419198E-005  0.5007588E+03  0.7818608E-02  0.9683144E-01
         -4   -1    0    0    0  501 -0.00000000000E+00  0.00000000000E+00  0.20702539655E+04  0.20702539655E+04  0.00000000000E+00 0. -1.
         21   -1    0    0  501  502  0.00000000000E+00 -0.00000000000E+00 -0.19931549954E+03  0.19931549954E+03  0.00000000000E+00 0. -1.
        -13    1    1    2    0    0  0.66154351947E+02  0.22983253101E+03  0.44783598687E+03  0.50769722561E+03  0.10566000000E+00 0.  1.
         13    1    1    2    0    0  0.39054948693E+03  0.12930083700E+03  0.85726452868E+03  0.95086807260E+03  0.10566000000E+00 0. -1.
         -4    1    1    2    0  502 -0.45670383888E+03 -0.35913336801E+03  0.56583795038E+03  0.81100416680E+03  0.00000000000E+00 0. -1.
</event>
<event>
 5    1  0.4419198E-005  0.4679695E+03  0.7818608E-02  0.9787361E-01
         21   -1    0    0  501  502  0.00000000000E+00  0.00000000000E+00  0.76489603714E+03  0.76489603714E+03  0.00000000000E+00 0.  1.
          4   -1    0    0  502    0 -0.00000000000E+00 -0.00000000000E+00 -0.63693923426E+03  0.63693923426E+03  0.00000000000E+00 0.  1.
        -13    1    1    2    0    0  0.34805123360E+03 -0.22203094409E+03  0.24365490334E+03  0.47937993745E+03  0.10566000000E+00 0.  1.
         13    1    1    2    0    0  0.64336292637E+02 -0.19397024786E+03 -0.24858671412E+03  0.32180581289E+03  0.10566000000E+00 0. -1.
          4    1    1    2  501    0 -0.41238752624E+03  0.41600119196E+03  0.13288861366E+03  0.60064952106E+03  0.00000000000E+00 0.  1.
</event>
<event>
 5    1  0.4419198E-005  0.3085902E+03  0.7818608E-02  0.1005544E+00
         21   -1    0    0  501  502  0.00000000000E+00  0.00000000000E+00  0.42507920602E+03  0.42507920602E+03  0.00000000000E+00 0. -1.
          4   -1    0    0  502    0 -0.00000000000E+00 -0.00000000000E+00 -0.17770449871E+04  0.17770449871E+04  0.00000000000E+00 0.  1.
        -13    1    1    2    0    0  0.27027132630E+03  0.77442972085E+02 -0.13237431365E+04  0.13532700789E+04  0.10566000000E+00 0.  1.
         13    1    1    2    0    0 -0.32909508464E+03 -0.38037478776E+03 -0.13758583599E+03  0.52145798232E+03  0.10566000000E+00 0. -1.
          4    1    1    2  501    0  0.58823758337E+02  0.30293181568E+03  0.10936319150E+03  0.32739613185E+03  0.00000000000E+00 0.  1.
</event>
<event>
 5    1  0.4419198E-005  0.4871552E+03  0.7818608E-02  0.9589410E-01
         -4   -1    0    0    0  501 -0.00000000000E+00  0.00000000000E+00  0.27952710827E+04  0.27952710827E+04  0.00000000000E+00 0. -1.
         21   -1    0    0  501  502  0.00000000000E+00 -0.00000000000E+00 -0.26308098515E+03  0.26308098515E+03  0.00000000000E+00 0. -1.
        -13    1    1    2    0    0  0.27948726400E+03 -0.22950376566E+03  0.16373869807E+04  0.16768486053E+04  0.10566000000E+00 0.  1.
         13    1    1    2    0    0 -0.21604289788E+03 -0.35018139905E+03  0.60145086916E+03  0.72872814214E+03  0.10566000000E+00 0. -1.
         -4    1    1    2    0  502 -0.63444366118E+02  0.57968516470E+03  0.29335224765E+03  0.65277532044E+03  0.00000000000E+00 0. -1.
</event>
<event>
 5    1  0.4419198E-005  0.5047323E+03  0.7818608E-02  0.9987049E-01
          4   -1    0    0  502    0 -0.00000000000E+00  0.00000000000E+00  0.78321505138E+03  0.78321505138E+03  0.00000000000E+00 0.  1.
         21   -1    0    0  501  502  0.00000000000E+00 -0.00000000000E+00 -0.48008522911E+03  0.48008522911E+03  0.00000000000E+00 0.  1.
        -13    1    1    2    0    0  0.46316078266E+03 -0.16163877797E+03  0.56460594717E+02  0.49379430440E+03  0.10566000000E+00 0.  1.
         13    1    1    2    0    0 -0.28447377712E+01 -0.83315200766E+02  0.23346811507E+03  0.24790499617E+03  0.10566000000E+00 0. -1.
          4    1    1    2  501    0 -0.46031604489E+03  0.24495397874E+03  0.13201112492E+02  0.52160097992E+03  0.00000000000E+00 0.  1.
</event>
<event>
 5    1  0.4419198E-005  0.2268364E+03  0.7818608E-02  0.1068967E+00
          4   -1    0    0  502    0 -0.00000000000E+00  0.00000000000E+00  0.94700047196E+03  0.94700047196E+03  0.00000000000E+00 0.  1.
         21   -1    0    0  501  502  0.00000000000E+00 -0.00000000000E+00 -0.13437204102E+03  0.13437204102E+03  0.00000000000E+00 0.  1.
        -13    1    1    2    0    0 -0.48677445170E+02  0.29147040736E+03  0.34811612066E+03  0.45662822587E+03  0.10566000000E+00 0.  1.
         13    1    1    2    0    0  0.60006217562E+02 -0.87594124766E+02  0.39503793603E+03  0.40905801411E+03  0.10566000000E+00 0. -1.
          4    1    1    2  501    0 -0.11328772392E+02 -0.20387628259E+03  0.69474374252E+02  0.21568627301E+03  0.00000000000E+00 0.  1.
</event>
<event>
 5    1  0.4419198E-005  0.4388140E+03  0.7818608E-02  0.9798731E-01
         21   -1    0    0  501  502  0.00000000000E+00  0.00000000000E+00  0.45334159913E+03  0.45334159913E+03  0.00000000000E+00 0. -1.
          4   -1    0    0  502    0 -0.00000000000E+00 -0.00000000000E+00 -0.23727816367E+04  0.23727816367E+04  0.00000000000E+00 0.  1.
        -13    1    1    2    0    0  0.12464258724E+03  0.24018507647E+03 -0.75188043949E+03  0.79909251777E+03  0.10566000000E+00 0.  1.
         13    1    1    2    0    0 -0.70949903041E+03 -0.12902271396E+03 -0.12327104771E+04  0.14281494552E+04  0.10566000000E+00 0. -1.
          4    1    1    2  501    0  0.58485644317E+03 -0.11116236251E+03  0.65150879028E+02  0.59888126285E+03  0.00000000000E+00 0.  1.
</event>
<event>
 5    1  0.4419198E-005  0.1909534E+03  0.7818608E-02  0.1066521E+00
          4   -1    0    0  502    0 -0.00000000000E+00  0.00000000000E+00  0.10659412432E+03  0.10659412432E+03  0.00000000000E+00 0.  1.
         21   -1    0    0  501  502  0.00000000000E+00 -0.00000000000E+00 -0.44971140915E+03  0.44971140915E+03  0.00000000000E+00 0. -1.
        -13    1    1    2    0    0  0.19472262855E+03  0.91427308606E+01 -0.78083329676E+02  0.20999406928E+03  0.10566000000E+00 0.  1.
         13    1    1    2    0    0 -0.18513647913E+03 -0.16767473398E+01 -0.17271767223E+03  0.25319899852E+03  0.10566000000E+00 0. -1.
          4    1    1    2  501    0 -0.95861494181E+01 -0.74659835208E+01 -0.92316282921E+02  0.93112465669E+02  0.00000000000E+00 0.  1.
</event>
<event>
 5    1  0.4419198E-005  0.1918327E+03  0.7818608E-02  0.1083436E+00
          4   -1    0    0  502    0 -0.00000000000E+00  0.00000000000E+00  0.58861375251E+03  0.58861375251E+03  0.00000000000E+00 0.  1.
         21   -1    0    0  501  502  0.00000000000E+00 -0.00000000000E+00 -0.15813807288E+03  0.15813807288E+03  0.00000000000E+00 0.  1.
        -13    1    1    2    0    0 -0.66611494470E+02 -0.20436596801E+03  0.13507365889E+03  0.25386501249E+03  0.10566000000E+00 0.  1.
         13    1    1    2    0    0  0.11491515717E+03  0.19551015765E+02  0.27754628465E+03  0.30103103968E+03  0.10566000000E+00 0. -1.
          4    1    1    2  501    0 -0.48303662704E+02  0.18481495224E+03  0.17855736092E+02  0.19185577321E+03  0.00000000000E+00 0.  1.
</event>
<event>
 5    1  0.4419198E-005  0.3420197E+03  0.7818608E-02  0.9913308E-01
          4   -1    0    0  502    0 -0.00000000000E+00  0.00000000000E+00  0.22430164126E+04  0.22430164126E+04  0.00000000000E+00 0.  1.
         21   -1    0    0  501  502  0.00000000000E+00 -0.00000000000E+00 -0.30324508882E+03  0.30324508882E+03  0.00000000000E+00 0.  1.
        -13    1    1    2    0    0  0.31574570737E+03 -0.22645687409E+03  0.89022114369E+03  0.97132474662E+03  0.10566000000E+00 0.  1.
         13    1    1    2    0    0 -0.33422708774E+03  0.27785437352E+02  0.12487439145E+04  0.12929969651E+04  0.10566000000E+00 0. -1.
          4    1    1    2  501    0  0.18481380376E+02  0.19867143674E+03 -0.19919373438E+03  0.28193978969E+03  0.00000000000E+00 0.  1.
</event>
<event>
 5    1  0.4419198E-005  0.4942091E+03  0.7818608E-02  0.1031866E+00
          4   -1    0    0  502    0 -0.00000000000E+00  0.00000000000E+00  0.26929355679E+04  0.26929355679E+04  0.00000000000E+00 0.  1.
         21   -1    0    0  501  502  0.00000000000E+00 -0.00000000000E+00 -0.98166456720E+02  0.98166456720E+02  0.00000000000E+00 0.  1.
        -13    1    1    2    0    0  0.48014778081E+03  0.73366444844E+02  0.14300847177E+04  0.15103201110E+04  0.10566000000E+00 0.  1.
         13    1    1    2    0    0  0.10524707359E+02  0.29078161642E+02  0.54004636717E+02  0.62231992580E+02  0.10566000000E+00 0. -1.
          4    1    1    2  501    0 -0.49067248817E+03 -0.10244460649E+03  0.11106797567E+04  0.12185499210E+04  0.00000000000E+00 0.  1.
</event>
<event>
 5    1  0.4419198E-005  0.8240592E+02  0.7818608E-02  0.1202435E+00
         -4   -1    0    0    0  501 -0.00000000000E+00  0.00000000000E+00  0.54140834392E+03  0.54140834392E+03  0.00000000000E+00 0. -1.
         21   -1    0    0  501  502  0.00000000000E+00 -0.00000000000E+00 -0.35936367163E+02  0.35936367163E+02  0.00000000000E+00 0.  1.
        -13    1    1    2    0    0 -0.80905588373E+02  0.48012294170E+02  0.12702626189E+03  0.15807143004E+03  0.10566000000E+00 0.  1.
         13    1    1    2    0    0  0.75321578405E+02  0.38991936506E+02  0.12339439736E+03  0.14973276111E+03  0.10566000000E+00 0. -1.
         -4    1    1    2    0  502  0.55840099682E+01 -0.87004230677E+02  0.25505131750E+03  0.26954051993E+03  0.00000000000E+00 0. -1.
</event>
<event>
 5    1  0.4419198E-005  0.9142805E+02  0.7818608E-02  0.1195462E+00
         -4   -1    0    0    0  501 -0.00000000000E+00  0.00000000000E+00  0.18308161105E+03  0.18308161105E+03  0.00000000000E+00 0. -1.
         21   -1    0    0  501  502  0.00000000000E+00 -0.00000000000E+00 -0.29590485585E+03  0.29590485585E+03  0.00000000000E+00 0. -1.
        -13    1    1    2    0    0  0.12349075675E+02 -0.61979825579E+02 -0.11307325400E+03  0.12953598104E+03  0.10566000000E+00 0.  1.
         13    1    1    2    0    0 -0.10027457784E+03  0.35762141199E+02  0.14389937887E+03  0.17899989974E+03  0.10566000000E+00 0. -1.
         -4    1    1    2    0  502  0.87925502168E+02  0.26217684380E+02 -0.14364936966E+03  0.17045058612E+03  0.00000000000E+00 0. -1.
</event>
<event>
 5    1  0.4419198E-005  0.4945972E+03  0.7818608E-02  0.9918285E-01
         21   -1    0    0  501  502  0.00000000000E+00  0.00000000000E+00  0.33149227648E+03  0.33149227648E+03  0.00000000000E+00 0.  1.
          4   -1    0    0  502    0 -0.00000000000E+00 -0.00000000000E+00 -0.10209420679E+04  0.10209420679E+04  0.00000000000E+00 0.  1.
        -13    1    1    2    0    0 -0.37215868052E+03  0.38983281396E+03 -0.10355316939E+03  0.54881233256E+03  0.10566000000E+00 0.  1.
         13    1    1    2    0    0  0.69540526231E+02 -0.86817827994E+02 -0.19134204054E+03  0.22132556944E+03  0.10566000000E+00 0. -1.
          4    1    1    2  501    0  0.30261815429E+03 -0.30301498596E+03 -0.39455458147E+03  0.58229644235E+03  0.00000000000E+00 0.  1.
</event>
<event>
 5    1  0.4419198E-005  0.3269547E+03  0.7818608E-02  0.1015498E+00
         -4   -1    0    0    0  501 -0.00000000000E+00  0.00000000000E+00  0.74187072736E+03  0.74187072736E+03  0.00000000000E+00 0. -1.
         21   -1    0    0  501  502  0.00000000000E+00 -0.00000000000E+00 -0.70600477497E+03  0.70600477497E+03  0.00000000000E+00 0. -1.
        -13    1    1    2    0    0 -0.17761084176E+03  0.14901381043E+02  0.33379009599E+03  0.37839595876E+03  0.10566000000E+00 0.  1.
         13    1    1    2    0    0  0.31082519453E+03 -0.15319041822E+03 -0.61087566862E+03  0.70231666608E+03  0.10566000000E+00 0. -1.
         -4    1    1    2    0  502 -0.13321435277E+03  0.13828903717E+03  0.31295152503E+03  0.36716287749E+03  0.00000000000E+00 0. -1.
</event>
<event>
 5    1  0.4419198E-005  0.7051891E+02  0.7818608E-02  0.1225372E+00
         21   -1    0    0  501  502  0.00000000000E+00  0.00000000000E+00  0.40248114016E+03  0.40248114016E+03  0.00000000000E+00 0.  1.
         -4   -1    0    0    0  501 -0.00000000000E+00 -0.00000000000E+00 -0.33720977116E+02  0.33720977116E+02  0.00000000000E+00 0. -1.
        -13    1    1    2    0    0  0.59631969439E+02 -0.19789678509E+02  0.20767340903E+03  0.21696971940E+03  0.10566000000E+00 0.  1.
         13    1    1    2    0    0 -0.70086555128E+02  0.17289034061E+02  0.16245749518E+02  0.73993050011E+02  0.10566000000E+00 0. -1.
         -4    1    1    2    0  502  0.10454585689E+02  0.25006444478E+01  0.14484100450E+03  0.14523934787E+03  0.00000000000E+00 0. -1.
</event>
<event>
 5    1  0.4419198E-005  0.3870758E+03  0.7818608E-02  0.9768533E-01
          4   -1    0    0  502    0 -0.00000000000E+00  0.00000000000E+00  0.30695800081E+04  0.30695800081E+04  0.00000000000E+00 0.  1.
         21   -1    0    0  501  502  0.00000000000E+00 -0.00000000000E+00 -0.15990965685E+03  0.15990965685E+03  0.00000000000E+00 0.  1.
        -13    1    1    2    0    0 -0.11059622237E+02  0.41691111612E+03  0.14870590278E+04  0.15444357408E+04  0.10566000000E+00 0.  1.
         13    1    1    2    0    0  0.34793150306E+03 -0.16533220059E+03  0.10669309981E+04  0.11343424674E+04  0.10566000000E+00 0. -1.
          4    1    1    2  501    0 -0.33687188082E+03 -0.25157891554E+03  0.35568032529E+03  0.55071145678E+03  0.00000000000E+00 0.  1.
</event>
<event>
 5    1  0.4419198E-005  0.8147315E+02  0.7818608E-02  0.1239662E+00
         -4   -1    0    0    0  501 -0.00000000000E+00  0.00000000000E+00  0.54558482945E+03  0.54558482945E+03  0.00000000000E+00 0. -1.
         21   -1    0    0  501  502  0.00000000000E+00 -0.00000000000E+00 -0.97649418159E+02  0.97649418159E+02  0.00000000000E+00 0. -1.
        -13    1    1    2    0    0  0.28370629097E+02 -0.17993094342E+02  0.37517720007E+02  0.50361041669E+02  0.10566000000E+00 0.  1.
         13    1    1    2    0    0 -0.10451209167E+03 -0.86765055438E+01  0.47692367407E+03  0.48831778701E+03  0.10566000000E+00 0. -1.
         -4    1    1    2    0  502  0.76141462577E+02  0.26669599886E+02 -0.66505982788E+02  0.10455541893E+03  0.00000000000E+00 0. -1.
</event>
<event>
 5    1  0.4419198E-005  0.1254699E+03  0.7818608E-02  0.1128181E+00
         21   -1    0    0  501  502  0.00000000000E+00  0.00000000000E+00  0.20936956747E+02  0.20936956747E+02  0.00000000000E+00 0.  1.
          4   -1    0    0  502    0 -0.00000000000E+00 -0.00000000000E+00 -0.12604512466E+04  0.12604512466E+04  0.00000000000E+00 0.  1.
        -13    1    1    2    0    0 -0.13074961116E+03  0.66382587382E+01 -0.67859451110E+03  0.69110784177E+03  0.10566000000E+00 0.  1.
         13    1    1    2    0    0  0.11925902254E+03  0.23084550445E+02 -0.53664447890E+03  0.55022079097E+03  0.10566000000E+00 0. -1.
          4    1    1    2  501    0  0.11490588615E+02 -0.29722809183E+02 -0.24275299816E+02  0.40059570562E+02  0.00000000000E+00 0.  1.
</event>
<event>
 5    1  0.4419198E-005  0.3194742E+03  0.7818608E-02  0.9995758E-01
         21   -1    0    0  501  502  0.00000000000E+00  0.00000000000E+00  0.14065869619E+03  0.14065869619E+03  0.00000000000E+00 0. -1.
          4   -1    0    0  502    0 -0.00000000000E+00 -0.00000000000E+00 -0.90796748206E+03  0.90796748206E+03  0.00000000000E+00 0.  1.
        -13    1    1    2    0    0  0.19815123081E+03 -0.24732881681E+03 -0.37739059903E+03  0.49280739574E+03  0.10566000000E+00 0.  1.
         13    1    1    2    0    0 -0.19072459041E+03  0.25950013333E+03 -0.41600159491E+03  0.52609269784E+03  0.10566000000E+00 0. -1.
          4    1    1    2  501    0 -0.74266404024E+01 -0.12171316520E+02  0.26083408075E+02  0.29726084678E+02  0.00000000000E+00 0.  1.
</event>
<event>
 5    1  0.4419198E-005  0.4753982E+03  0.7818608E-02  0.9788781E-01
          4   -1    0    0  502    0 -0.00000000000E+00  0.00000000000E+00  0.20861034916E+04  0.20861034916E+04  0.00000000000E+00 0.  1.
         21   -1    0    0  501  502  0.00000000000E+00 -0.00000000000E+00 -0.29445013574E+03  0.29445013574E+03  0.00000000000E+00 0.  1.
        -13    1    1    2    0    0  0.43365352203E+03 -0.26544799540E+03  0.58251953662E+03  0.77320568877E+03  0.10566000000E+00 0.  1.
         13    1    1    2    0    0 -0.15520994083E+03 -0.11636270820E+03  0.11070150158E+04  0.11238828506E+04  0.10566000000E+00 0. -1.
          4    1    1    2  501    0 -0.27844358120E+03  0.38181070360E+03  0.10211880352E+03  0.48346508801E+03  0.00000000000E+00 0.  1.
</event>
<event>
 5    1  0.4419198E-005  0.4601276E+03  0.7818608E-02  0.9569926E-01
         21   -1    0    0  501  502  0.00000000000E+00  0.00000000000E+00  0.46089261348E+03  0.46089261348E+03  0.00000000000E+00 0. -1.
         -4   -1    0    0    0  501 -0.00000000000E+00 -0.00000000000E+00 -0.18095752789E+04  0.18095752789E+04  0.00000000000E+00 0. -1.
        -13    1    1    2    0    0  0.46158016794E+02 -0.46497887466E+03 -0.10184510252E+04  0.11205259561E+04  0.10566000000E+00 0.  1.
         13    1    1    2    0    0 -0.44847465115E+03  0.34731408286E+03  0.68574657511E+02  0.57136597702E+03  0.10566000000E+00 0. -1.
         -4    1    1    2    0  502  0.40231663436E+03  0.11766479179E+03 -0.39880629772E+03  0.57857595924E+03  0.00000000000E+00 0. -1.
</event>
<event>
 5    1  0.4419198E-005  0.2777955E+03  0.7818608E-02  0.1016916E+00
         21   -1    0    0  501  502  0.00000000000E+00  0.00000000000E+00  0.38408219886E+03  0.38408219886E+03  0.00000000000E+00 0. -1.
          4   -1    0    0  502    0 -0.00000000000E+00 -0.00000000000E+00 -0.27627309659E+03  0.27627309659E+03  0.00000000000E+00 0.  1.
        -13    1    1    2    0    0  0.21187957410E+03 -0.16940066922E+03 -0.37488346961E+02  0.27385201838E+03  0.10566000000E+00 0.  1.
         13    1    1    2    0    0 -0.19267183027E+03  0.21783270273E+03  0.77437283170E+02  0.30094860782E+03  0.10566000000E+00 0. -1.
          4    1    1    2  501    0 -0.19207743826E+02 -0.48432033515E+02  0.67860166063E+02  0.85554669255E+02  0.00000000000E+00 0.  1.
</event>
<event>
 5    1  0.4419198E-005  0.1358481E+03  0.7818608E-02  0.1120701E+00
         -4   -1    0    0    0  501 -0.00000000000E+00  0.00000000000E+00  0.63503868518E+02  0.63503868518E+02  0.00000000000E+00 0. -1.
         21   -1    0    0  501  502  0.00000000000E+00 -0.00000000000E+00 -0.78981314937E+03  0.78981314937E+03  0.00000000000E+00 0.  1.
        -13    1    1    2    0    0 -0.13643051483E+02 -0.11923798384E+03 -0.13741292026E+03  0.18244492720E+03  0.10566000000E+00 0.  1.
         13    1    1    2    0    0 -0.10443861081E+03  0.15793134142E+03 -0.28090095171E+03  0.33875520346E+03  0.10566000000E+00 0. -1.
         -4    1    1    2    0  502  0.11808166229E+03 -0.38693357586E+02 -0.30799540888E+03  0.33211688723E+03  0.00000000000E+00 0. -1.
</event>
<event>
 5    1  0.4419198E-005  0.8213953E+02  0.7818608E-02  0.1198051E+00
         21   -1    0    0  501  502  0.00000000000E+00  0.00000000000E+00  0.14120759511E+03  0.14120759511E+03  0.00000000000E+00 0. -1.
         -4   -1    0    0    0  501 -0.00000000000E+00 -0.00000000000E+00 -0.12200835155E+03  0.12200835155E+03  0.00000000000E+00 0. -1.
        -13    1    1    2    0    0  0.54724065974E+02  0.55847888459E+02  0.39340040051E+02  0.87529194886E+02  0.10566000000E+00 0.  1.
         13    1    1    2    0    0 -0.46796349247E+02 -0.69210631192E+02 -0.78896367104E+02  0.11491152109E+03  0.10566000000E+00 0. -1.
         -4    1    1    2    0  502 -0.79277167276E+01  0.13362742732E+02  0.58755570622E+02  0.60775230686E+02  0.00000000000E+00 0. -1.
</event>
<event>
 5    1  0.4419198E-005  0.1115130E+03  0.7818608E-02  0.1146796E+00
          4   -1    0    0  502    0 -0.00000000000E+00  0.00000000000E+00  0.54683294778E+02  0.54683294778E+02  0.00000000000E+00 0.  1.
         21   -1    0    0  501  502  0.00000000000E+00 -0.00000000000E+00 -0.65932657715E+03  0.65932657715E+03  0.00000000000E+00 0. -1.
        -13    1    1    2    0    0  0.10284015865E+03  0.26175211545E+02 -0.30396926779E+02  0.11038670324E+03  0.10566000000E+00 0.  1.
         13    1    1    2    0    0 -0.14054003798E+03 -0.39045286564E+02 -0.43602967056E+03  0.45978029693E+03  0.10566000000E+00 0. -1.
          4    1    1    2  501    0  0.37699879336E+02  0.12870075019E+02 -0.13821668504E+03  0.14384287176E+03  0.00000000000E+00 0.  1.
</event>
<event>
 5    1  0.4419198E-005  0.4921813E+03  0.7818608E-02  0.9938802E-01
         21   -1    0    0  501  502  0.00000000000E+00  0.00000000000E+00  0.28777956242E+03  0.28777956242E+03  0.00000000000E+00 0.  1.
          4   -1    0    0  502    0 -0.00000000000E+00 -0.00000000000E+00 -0.11487795510E+04  0.11487795510E+04  0.00000000000E+00 0.  1.
        -13    1    1    2    0    0 -0.87840670835E+02  0.52835038117E+03 -0.20302915237E+03  0.57279224559E+03  0.10566000000E+00 0.  1.
         13    1    1    2    0    0  0.44440987775E+02 -0.95611451543E+02 -0.23278175340E+03  0.25554629119E+03  0.10566000000E+00 0. -1.
          4    1    1    2  501    0  0.43399683060E+02 -0.43273892962E+03 -0.42518908278E+03  0.60822057661E+03  0.00000000000E+00 0.  1.
</event>
<event>
 5    1  0.4419198E-005  0.2624608E+03  0.7818608E-02  0.1030171E+00
         -4   -1    0    0    0  501 -0.00000000000E+00  0.00000000000E+00  0.71098990428E+03  0.71098990428E+03  0.00000000000E+00 0. -1.
         21   -1    0    0  501  502  0.00000000000E+00 -0.00000000000E+00 -0.70906524850E+03  0.70906524850E+03  0.00000000000E+00 0. -1.
        -13    1    1    2    0    0  0.19435044461E+03  0.21292601861E+03  0.21705936857E+03  0.36086613220E+03  0.10566000000E+00 0.  1.
         13    1    1    2    0    0  0.22197898866E+03 -0.61954410061E+02 -0.48753477111E+03  0.53926170320E+03  0.10566000000E+00 0. -1.
         -4    1    1    2    0  502 -0.41632943326E+03 -0.15097160855E+03  0.27240005832E+03  0.51992731739E+03  0.00000000000E+00 0. -1.
</event>
<event>
 5    1  0.4419198E-005  0.4861589E+02  0.7818608E-02  0.1342912E+00
         21   -1    0    0  501  502  0.00000000000E+00  0.00000000000E+00  0.94051017093E+01  0.94051017093E+01  0.00000000000E+00 0.  1.
          4   -1    0    0  502    0 -0.00000000000E+00 -0.00000000000E+00 -0.40067149878E+03  0.40067149878E+03  0.00000000000E+00 0.  1.
        -13    1    1    2    0    0 -0.14708032790E+02  0.47921306876E+02 -0.12635985927E+03  0.13593970384E+03  0.10566000000E+00 0.  1.
         13    1    1    2    0    0 -0.17461032584E+02 -0.11116814680E+02 -0.59632488701E+02  0.63123023536E+02  0.10566000000E+00 0. -1.
          4    1    1    2  501    0  0.32169065374E+02 -0.36804492196E+02 -0.20527404910E+03  0.21101387311E+03  0.00000000000E+00 0.  1.
</event>
<event>
 5    1  0.4419198E-005  0.1686537E+03  0.7818608E-02  0.1084043E+00
         21   -1    0    0  501  502  0.00000000000E+00  0.00000000000E+00  0.51574184679E+02  0.51574184679E+02  0.00000000000E+00 0.  1.
         -4   -1    0    0    0  501 -0.00000000000E+00 -0.00000000000E+00 -0.11516240120E+04  0.11516240120E+04  0.00000000000E+00 0. -1.
        -13    1    1    2    0    0  0.70957463014E+02  0.13511545155E+03 -0.10954778014E+03  0.18786131614E+03  0.10566000000E+00 0.  1.
         13    1    1    2    0    0 -0.71739542134E+02 -0.15607184193E+03 -0.97293137279E+03  0.98797795981E+03  0.10566000000E+00 0. -1.
         -4    1    1    2    0  502  0.78207911993E+00  0.20956390380E+02 -0.17570674427E+02  0.27358920763E+02  0.00000000000E+00 0. -1.
</event>
<event>
 5    1  0.4419198E-005  0.1027968E+04  0.7818608E-02  0.8748748E-01
         21   -1    0    0  501  502  0.00000000000E+00  0.00000000000E+00  0.51948188352E+03  0.51948188352E+03  0.00000000000E+00 0.  1.
         -4   -1    0    0    0  501 -0.00000000000E+00 -0.00000000000E+00 -0.24402736697E+04  0.24402736697E+04  0.00000000000E+00 0. -1.
        -13    1    1    2    0    0 -0.47171227709E+03  0.89441338181E+03 -0.93605780020E+03  0.13779303271E+04  0.10566000000E+00 0.  1.
         13    1    1    2    0    0  0.64445805955E+03 -0.83593716309E+03 -0.83527466950E+03  0.13460315434E+04  0.10566000000E+00 0. -1.
         -4    1    1    2    0  502 -0.17274578247E+03 -0.58476218715E+02 -0.14945931646E+03  0.23579368268E+03  0.00000000000E+00 0. -1.
</event>
<event>
 5    1  0.4419198E-005  0.5069439E+03  0.7818608E-02  0.9713106E-01
          4   -1    0    0  502    0 -0.00000000000E+00  0.00000000000E+00  0.16115815795E+04  0.16115815795E+04  0.00000000000E+00 0.  1.
         21   -1    0    0  501  502  0.00000000000E+00 -0.00000000000E+00 -0.25446481768E+03  0.25446481768E+03  0.00000000000E+00 0.  1.
        -13    1    1    2    0    0  0.36183530824E+03  0.22489685011E+03  0.40077748980E+03  0.58491537078E+03  0.10566000000E+00 0.  1.
         13    1    1    2    0    0  0.19813792447E+03  0.62186770652E+02  0.35178023812E+03  0.40850358463E+03  0.10566000000E+00 0. -1.
          4    1    1    2  501    0 -0.55997323270E+03 -0.28708362076E+03  0.60455903386E+03  0.87262744174E+03  0.00000000000E+00 0.  1.
</event>
<event>
 5    1  0.4419198E-005  0.1604159E+03  0.7818608E-02  0.1091270E+00
         21   -1    0    0  501  502  0.00000000000E+00  0.00000000000E+00  0.34879839992E+03  0.34879839992E+03  0.00000000000E+00 0.  1.
         -4   -1    0    0    0  501 -0.00000000000E+00 -0.00000000000E+00 -0.15164656516E+03  0.15164656516E+03  0.00000000000E+00 0. -1.
        -13    1    1    2    0    0  0.17404550193E+03  0.21787541714E+02  0.12450105882E+03  0.21509778829E+03  0.10566000000E+00 0.  1.
         13    1    1    2    0    0 -0.14847139265E+03 -0.47867068104E+02 -0.44836848645E+02  0.16231255283E+03  0.10566000000E+00 0. -1.
         -4    1    1    2    0  502 -0.25574109277E+02  0.26079526390E+02  0.11748762459E+03  0.12303462396E+03  0.00000000000E+00 0. -1.
</event>
<event>
 5    1  0.4419198E-005  0.3680645E+03  0.7818608E-02  0.1002061E+00
          4   -1    0    0  502    0 -0.00000000000E+00  0.00000000000E+00  0.26585279779E+04  0.26585279779E+04  0.00000000000E+00 0.  1.
         21   -1    0    0  501  502  0.00000000000E+00 -0.00000000000E+00 -0.16114350782E+03  0.16114350782E+03  0.00000000000E+00 0.  1.
        -13    1    1    2    0    0  0.35095186992E+03 -0.15241162533E+03  0.14183295717E+03  0.40806018851E+03  0.10566000000E+00 0.  1.
         13    1    1    2    0    0 -0.16150399060E+03 -0.10493631422E+03  0.73233614505E+03  0.75723933438E+03  0.10566000000E+00 0. -1.
          4    1    1    2  501    0 -0.18944787932E+03  0.25734793955E+03  0.16232153679E+04  0.16543719629E+04  0.00000000000E+00 0.  1.
</event>
<event>
 5    1  0.4419198E-005  0.4811057E+03  0.7818608E-02  0.9769000E-01
         21   -1    0    0  501  502  0.00000000000E+00  0.00000000000E+00  0.20306183842E+03  0.20306183842E+03  0.00000000000E+00 0.  1.
          4   -1    0    0  502    0 -0.00000000000E+00 -0.00000000000E+00 -0.20909212177E+04  0.20909212177E+04  0.00000000000E+00 0.  1.
        -13    1    1    2    0    0 -0.33634755686E+03  0.15940215717E+03 -0.91624727999E+03  0.98896300031E+03  0.10566000000E+00 0.  1.
         13    1    1    2    0    0 -0.81785887807E+02  0.18283826086E+03 -0.64099389787E+03  0.67155934164E+03  0.10566000000E+00 0. -1.
          4    1    1    2  501    0  0.41813344467E+03 -0.34224041803E+03 -0.33061820143E+03  0.63346071417E+03  0.00000000000E+00 0.  1.
</event>
<event>
 5    1  0.4419198E-005  0.2955625E+03  0.7818608E-02  0.1009154E+00
          4   -1    0    0  502    0 -0.00000000000E+00  0.00000000000E+00  0.18338408239E+04  0.18338408239E+04  0.00000000000E+00 0.  1.
         21   -1    0    0  501  502  0.00000000000E+00 -0.00000000000E+00 -0.21150676653E+03  0.21150676653E+03  0.00000000000E+00 0.  1.
        -13    1    1    2    0    0 -0.24838778151E+03 -0.16007033060E+03  0.16125334306E+04  0.16393849690E+04  0.10566000000E+00 0.  1.
         13    1    1    2    0    0  0.24231397238E+03  0.17050230849E+03  0.10171272457E+03  0.31326121355E+03  0.10566000000E+00 0. -1.
          4    1    1    2  501    0  0.60738091308E+01 -0.10431977892E+02 -0.91912097725E+02  0.92701407909E+02  0.00000000000E+00 0.  1.
</event>
<event>
 5    1  0.4419198E-005  0.1369684E+03  0.7818608E-02  0.1114726E+00
         21   -1    0    0  501  502  0.00000000000E+00  0.00000000000E+00  0.79324561371E+03  0.79324561371E+03  0.00000000000E+00 0. -1.
         -4   -1    0    0    0  501 -0.00000000000E+00 -0.00000000000E+00 -0.43917158292E+02  0.43917158292E+02  0.00000000000E+00 0. -1.
        -13    1    1    2    0    0  0.70383170009E+02 -0.99748546860E+02  0.27681705053E+03  0.30254132586E+03  0.10566000000E+00 0.  1.
         13    1    1    2    0    0 -0.10774860375E+03  0.10049158474E+03  0.15109783545E+03  0.21104238260E+03  0.10566000000E+00 0. -1.
         -4    1    1    2    0  502  0.37365433738E+02 -0.74303788496E+00  0.32141356944E+03  0.32357906354E+03  0.00000000000E+00 0. -1.
</event>
<event>
 5    1  0.4419198E-005  0.5081908E+03  0.7818608E-02  0.9743381E-01
          4   -1    0    0  502    0 -0.00000000000E+00  0.00000000000E+00  0.17258557946E+04  0.17258557946E+04  0.00000000000E+00 0.  1.
         21   -1    0    0  501  502  0.00000000000E+00 -0.00000000000E+00 -0.21836302315E+03  0.21836302315E+03  0.00000000000E+00 0.  1.
        -13    1    1    2    0    0  0.42666481222E+03  0.75648744836E+02  0.55471388974E+03  0.70389850491E+03  0.10566000000E+00 0.  1.
         13    1    1    2    0    0  0.17985531593E+03 -0.45915806752E+02  0.25314934319E+03  0.31391208499E+03  0.10566000000E+00 0. -1.
          4    1    1    2  501    0 -0.60652012815E+03 -0.29732938084E+02  0.69962953848E+03  0.92640822782E+03  0.00000000000E+00 0.  1.
</event>
<event>
 5    1  0.4419198E-005  0.8900430E+02  0.7818608E-02  0.1184153E+00
         21   -1    0    0  501  502  0.00000000000E+00  0.00000000000E+00  0.62094977153E+02  0.62094977153E+02  0.00000000000E+00 0.  1.
         -4   -1    0    0    0  501 -0.00000000000E+00 -0.00000000000E+00 -0.38845382807E+03  0.38845382807E+03  0.00000000000E+00 0. -1.
        -13    1    1    2    0    0  0.99706966830E+02 -0.44989845815E+02 -0.18540549077E+03  0.21526907031E+03  0.10566000000E+00 0.  1.
         13    1    1    2    0    0 -0.70244985645E+02  0.33147982005E+02 -0.17332584657E+03  0.18993421749E+03  0.10566000000E+00 0. -1.
         -4    1    1    2    0  502 -0.29461981185E+02  0.11841863810E+02  0.32372486420E+02  0.45345517428E+02  0.00000000000E+00 0. -1.
</event>
<event>
 5    1  0.4419198E-005  0.6764922E+02  0.7818608E-02  0.1233034E+00
         21   -1    0    0  501  502  0.00000000000E+00  0.00000000000E+00  0.47200280983E+02  0.47200280983E+02  0.00000000000E+00 0.  1.
         -4   -1    0    0    0  501 -0.00000000000E+00 -0.00000000000E+00 -0.33353266502E+03  0.33353266502E+03  0.00000000000E+00 0. -1.
        -13    1    1    2    0    0  0.73167437068E+02 -0.28545085037E+02 -0.14872425017E+02  0.79934322521E+02  0.10566000000E+00 0.  1.
         13    1    1    2    0    0 -0.60951838338E+02  0.26214483904E+02 -0.27864542710E+03  0.28643605041E+03  0.10566000000E+00 0. -1.
         -4    1    1    2    0  502 -0.12215598731E+02  0.23306011327E+01  0.71854680782E+01  0.14362573080E+02  0.00000000000E+00 0. -1.
</event>
<event>
 5    1  0.4419198E-005  0.5251585E+03  0.7818608E-02  0.1019444E+00
          4   -1    0    0  502    0 -0.00000000000E+00  0.00000000000E+00  0.63250267459E+03  0.63250267459E+03  0.00000000000E+00 0.  1.
         21   -1    0    0  501  502  0.00000000000E+00 -0.00000000000E+00 -0.70424403613E+03  0.70424403613E+03  0.00000000000E+00 0.  1.
        -13    1    1    2    0    0  0.65256711706E+02  0.51499097723E+03 -0.36281941222E+02  0.52037537939E+03  0.10566000000E+00 0.  1.
         13    1    1    2    0    0  0.37663780042E+02  0.47205581494E+01  0.22347562214E+03  0.22667644088E+03  0.10566000000E+00 0. -1.
          4    1    1    2  501    0 -0.10292049175E+03 -0.51971153538E+03 -0.25893504245E+03  0.58969489046E+03  0.00000000000E+00 0.  1.
</event>
<event>
 5    1  0.4419198E-005  0.4918619E+03  0.7818608E-02  0.9716191E-01
         -4   -1    0    0    0  501 -0.00000000000E+00  0.00000000000E+00  0.36267909771E+03  0.36267909771E+03  0.00000000000E+00 0. -1.
         21   -1    0    0  501  502  0.00000000000E+00 -0.00000000000E+00 -0.15188468438E+04  0.15188468438E+04  0.00000000000E+00 0. -1.
        -13    1    1    2    0    0 -0.20671357966E+03  0.88698777533E+02  0.33953782796E+02  0.22748812647E+03  0.10566000000E+00 0.  1.
         13    1    1    2    0    0  0.61943684302E+03  0.92239938488E+02 -0.39600450880E+03  0.74096544514E+03  0.10566000000E+00 0. -1.
         -4    1    1    2    0  502 -0.41272326335E+03 -0.18093871602E+03 -0.79411702005E+03  0.91307236986E+03  0.00000000000E+00 0. -1.
</event>
<event>
 5    1  0.4419198E-005  0.1861336E+03  0.7818608E-02  0.1105031E+00
         21   -1    0    0  501  502  0.00000000000E+00  0.00000000000E+00  0.31218463188E+03  0.31218463188E+03  0.00000000000E+00 0. -1.
          4   -1    0    0  502    0 -0.00000000000E+00 -0.00000000000E+00 -0.33714836875E+03  0.33714836875E+03  0.00000000000E+00 0.  1.
        -13    1    1    2    0    0 -0.15453249346E+02 -0.20535555287E+03 -0.22342812442E+03  0.30385826294E+03  0.10566000000E+00 0.  1.
         13    1    1    2    0    0  0.64662569730E+02  0.28431797226E+02  0.13285577733E+03  0.15046688590E+03  0.10566000000E+00 0. -1.
          4    1    1    2  501    0 -0.49209320384E+02  0.17692375564E+03  0.65608610218E+02  0.19500785179E+03  0.00000000000E+00 0.  1.
</event>
<event>
 5    1  0.4419198E-005  0.3751128E+03  0.7818608E-02  0.9803807E-01
          4   -1    0    0  502    0 -0.00000000000E+00  0.00000000000E+00  0.63239283968E+03  0.63239283968E+03  0.00000000000E+00 0.  1.
         21   -1    0    0  501  502  0.00000000000E+00 -0.00000000000E+00 -0.12887129634E+04  0.12887129634E+04  0.00000000000E+00 0.  1.
        -13    1    1    2    0    0  0.35796532226E+02  0.27070688151E+03 -0.11608416631E+04  0.11925254653E+04  0.10566000000E+00 0.  1.
         13    1    1    2    0    0  0.11805209460E+02 -0.38352730498E+03  0.28776198363E+03  0.47962436033E+03  0.10566000000E+00 0. -1.
          4    1    1    2  501    0 -0.47601741686E+02  0.11282042348E+03  0.21675955568E+03  0.24895597752E+03  0.00000000000E+00 0.  1.
</event>
<event>
 5    1  0.4419198E-005  0.3080616E+02  0.7818608E-02  0.1398550E+00
         21   -1    0    0  501  502  0.00000000000E+00  0.00000000000E+00  0.29437759499E+02  0.29437759499E+02  0.00000000000E+00 0.  1.
          4   -1    0    0  502    0 -0.00000000000E+00 -0.00000000000E+00 -0.66549699661E+02  0.66549699661E+02  0.00000000000E+00 0.  1.
        -13    1    1    2    0    0  0.13753046626E+02 -0.35926144708E+02 -0.31675610926E+02  0.49831613025E+02  0.10566000000E+00 0.  1.
         13    1    1    2    0    0 -0.18231746916E+02  0.16962373394E+02 -0.87413764927E+01  0.26392073313E+02  0.10566000000E+00 0. -1.
          4    1    1    2  501    0  0.44787002895E+01  0.18963771314E+02  0.33050472568E+01  0.19763772821E+02  0.00000000000E+00 0.  1.
</event>
<event>
 5    1  0.4419198E-005  0.2943540E+03  0.7818608E-02  0.1009664E+00
         -4   -1    0    0    0  501 -0.00000000000E+00  0.00000000000E+00  0.27442025933E+04  0.27442025933E+04  0.00000000000E+00 0. -1.
         21   -1    0    0  501  502  0.00000000000E+00 -0.00000000000E+00 -0.36528953255E+02  0.36528953255E+02  0.00000000000E+00 0. -1.
        -13    1    1    2    0    0 -0.24906419268E+03  0.16163661986E+03  0.15020817660E+04  0.15311463065E+04  0.10566000000E+00 0.  1.
         13    1    1    2    0    0  0.24902409453E+03 -0.15125783902E+03  0.12043962837E+04  0.12391377457E+04  0.10566000000E+00 0. -1.
         -4    1    1    2    0  502  0.40098145733E-01 -0.10378780842E+02  0.11955902247E+01  0.10447494227E+02  0.00000000000E+00 0. -1.
</event>
<event>
 5    1  0.4419198E-005  0.2480595E+03  0.7818608E-02  0.1031403E+00
         -4   -1    0    0    0  501 -0.00000000000E+00  0.00000000000E+00  0.20901553638E+03  0.20901553638E+03  0.00000000000E+00 0. -1.
         21   -1    0    0  501  502  0.00000000000E+00 -0.00000000000E+00 -0.90459123741E+03  0.90459123741E+03  0.00000000000E+00 0.  1.
        -13    1    1    2    0    0  0.27902039120E+03  0.59073762277E+02 -0.57538675775E+03  0.64219313314E+03  0.10566000000E+00 0.  1.
         13    1    1    2    0    0 -0.23755727781E+03 -0.50534934975E+02  0.88484562084E+02  0.25848939782E+03  0.10566000000E+00 0. -1.
         -4    1    1    2    0  502 -0.41463113392E+02 -0.85388273010E+01 -0.20867350537E+03  0.21292424284E+03  0.00000000000E+00 0. -1.
</event>
<event>
 5    1  0.4419198E-005  0.4165841E+03  0.7818608E-02  0.9682334E-01
         21   -1    0    0  501  502  0.00000000000E+00  0.00000000000E+00  0.19126023762E+03  0.19126023762E+03  0.00000000000E+00 0. -1.
         -4   -1    0    0    0  501 -0.00000000000E+00 -0.00000000000E+00 -0.27359815351E+04  0.27359815351E+04  0.00000000000E+00 0. -1.
        -13    1    1    2    0    0 -0.31955904215E+03  0.12667499847E+03 -0.93424951790E+03  0.99548315381E+03  0.10566000000E+00 0.  1.
         13    1    1    2    0    0  0.38569384973E+03 -0.40925898259E+03 -0.15307602453E+04  0.16307910965E+04  0.10566000000E+00 0. -1.
         -4    1    1    2    0  502 -0.66134807579E+02  0.28258398411E+03 -0.79711534222E+02  0.30096752240E+03  0.00000000000E+00 0. -1.
</event>
<event>
 5    1  0.4419198E-005  0.1705099E+03  0.7818608E-02  0.1082476E+00
         -4   -1    0    0    0  501 -0.00000000000E+00  0.00000000000E+00  0.44179098963E+03  0.44179098963E+03  0.00000000000E+00 0. -1.
         21   -1    0    0  501  502  0.00000000000E+00 -0.00000000000E+00 -0.16817615566E+03  0.16817615566E+03  0.00000000000E+00 0.  1.
        -13    1    1    2    0    0  0.19681062127E+03  0.84391081700E+02  0.25691923850E+02  0.21567652035E+03  0.10566000000E+00 0.  1.
         13    1    1    2    0    0 -0.14682001188E+03 -0.65703813923E+02  0.28641295478E+03  0.32848972417E+03  0.10566000000E+00 0. -1.
         -4    1    1    2    0  502 -0.49990609392E+02 -0.18687267777E+02 -0.38490044666E+02  0.65800900775E+02  0.00000000000E+00 0. -1.
</event>
<event>
 5    1  0.4419198E-005  0.4591578E+02  0.7818608E-02  0.1309374E+00
         21   -1    0    0  501  502  0.00000000000E+00  0.00000000000E+00  0.13613486912E+03  0.13613486912E+03  0.00000000000E+00 0. -1.
          4   -1    0    0  502    0 -0.00000000000E+00 -0.00000000000E+00 -0.76217314476E+02  0.76217314476E+02  0.00000000000E+00 0.  1.
        -13    1    1    2    0    0  0.45809143048E+01 -0.47333882389E+02 -0.60653902630E+02  0.77073914304E+02  0.10566000000E+00 0.  1.
         13    1    1    2    0    0  0.22232490995E+00  0.36475003331E+02  0.41212548187E+02  0.55035993572E+02  0.10566000000E+00 0. -1.
          4    1    1    2  501    0 -0.48032392148E+01  0.10858879058E+02  0.79358909089E+02  0.80242275723E+02  0.00000000000E+00 0.  1.
</event>
<event>
 5    1  0.4419198E-005  0.4414328E+03  0.7818608E-02  0.9768444E-01
         21   -1    0    0  501  502  0.00000000000E+00  0.00000000000E+00  0.97016208264E+02  0.97016208264E+02  0.00000000000E+00 0. -1.
         -4   -1    0    0    0  501 -0.00000000000E+00 -0.00000000000E+00 -0.43177357064E+04  0.43177357064E+04  0.00000000000E+00 0. -1.
        -13    1    1    2    0    0  0.24627495511E+03 -0.82716215563E+02 -0.10668473583E+04  0.10980239628E+04  0.10566000000E+00 0.  1.
         13    1    1    2    0    0 -0.38177418049E+03 -0.28680824894E+03 -0.81185879737E+03  0.94187324762E+03  0.10566000000E+00 0. -1.
         -4    1    1    2    0  502  0.13549922538E+03  0.36952446450E+03 -0.23420133425E+04  0.23748547042E+04  0.00000000000E+00 0. -1.
</event>
<event>
 5    1  0.4419198E-005  0.4078858E+03  0.7818608E-02  0.9706544E-01
         21   -1    0    0  501  502  0.00000000000E+00  0.00000000000E+00  0.35417595316E+03  0.35417595316E+03  0.00000000000E+00 0.  1.
          4   -1    0    0  502    0 -0.00000000000E+00 -0.00000000000E+00 -0.14026165143E+04  0.14026165143E+04  0.00000000000E+00 0.  1.
        -13    1    1    2    0    0 -0.18482108352E+03 -0.36474412786E+03 -0.79403815982E+03  0.89313701196E+03  0.10566000000E+00 0.  1.
         13    1    1    2    0    0  0.37856522708E+03  0.23915974201E+03 -0.39178944795E+03  0.59498571079E+03  0.10566000000E+00 0. -1.
          4    1    1    2  501    0 -0.19374414356E+03  0.12558438585E+03  0.13738704663E+03  0.26866974470E+03  0.00000000000E+00 0.  1.
</event>
<event>
 5    1  0.4419198E-005  0.8196504E+02  0.7818608E-02  0.1218859E+00
         21   -1    0    0  501  502  0.00000000000E+00  0.00000000000E+00  0.38466007250E+03  0.38466007250E+03  0.00000000000E+00 0. -1.
         -4   -1    0    0    0  501 -0.00000000000E+00 -0.00000000000E+00 -0.46498336673E+02  0.46498336673E+02  0.00000000000E+00 0. -1.
        -13    1    1    2    0    0 -0.45566225656E+02 -0.24658861490E+02  0.16199276616E+03  0.17007647639E+03  0.10566000000E+00 0.  1.
         13    1    1    2    0    0  0.83855378249E+02  0.82755220723E+02  0.80107315136E+02  0.14246874787E+03  0.10566000000E+00 0. -1.
         -4    1    1    2    0  502 -0.38289152593E+02 -0.58096359233E+02  0.96061654540E+02  0.11861318491E+03  0.00000000000E+00 0. -1.
</event>
<event>
 5    1  0.4419198E-005  0.3463490E+03  0.7818608E-02  0.1026953E+00
         21   -1    0    0  501  502  0.00000000000E+00  0.00000000000E+00  0.12725181432E+04  0.12725181432E+04  0.00000000000E+00 0. -1.
         -4   -1    0    0    0  501 -0.00000000000E+00 -0.00000000000E+00 -0.33642655922E+03  0.33642655922E+03  0.00000000000E+00 0. -1.
        -13    1    1    2    0    0 -0.32015968886E+02 -0.99571152873E+02 -0.11672269221E+03  0.15672790048E+03  0.10566000000E+00 0.  1.
         13    1    1    2    0    0  0.30089519022E+03  0.19327011372E+03  0.11061536900E+04  0.11625262360E+04  0.10566000000E+00 0. -1.
         -4    1    1    2    0  502 -0.26887922133E+03 -0.93698960851E+02 -0.53339413794E+02  0.28969056594E+03  0.00000000000E+00 0. -1.
</event>
<event>
 5    1  0.4419198E-005  0.4406612E+03  0.7818608E-02  0.9806271E-01
          4   -1    0    0  502    0 -0.00000000000E+00  0.00000000000E+00  0.75368065758E+03  0.75368065758E+03  0.00000000000E+00 0.  1.
         21   -1    0    0  501  502  0.00000000000E+00 -0.00000000000E+00 -0.71622801063E+03  0.71622801063E+03  0.00000000000E+00 0.  1.
        -13    1    1    2    0    0  0.39408194943E+03 -0.82721718643E+02 -0.29513783636E+03  0.49924925560E+03  0.10566000000E+00 0.  1.
         13    1    1    2    0    0  0.16891583009E+03  0.15528513385E+03  0.33130880803E+03  0.40300318596E+03  0.10566000000E+00 0. -1.
          4    1    1    2  501    0 -0.56299777952E+03 -0.72563415204E+02  0.12816752775E+01  0.56765622665E+03  0.00000000000E+00 0.  1.
</event>
<event>
 5    1  0.4419198E-005  0.1167210E+03  0.7818608E-02  0.1139517E+00
         -4   -1    0    0    0  501 -0.00000000000E+00  0.00000000000E+00  0.16672808562E+03  0.16672808562E+03  0.00000000000E+00 0. -1.
         21   -1    0    0  501  502  0.00000000000E+00 -0.00000000000E+00 -0.15593521493E+03  0.15593521493E+03  0.00000000000E+00 0. -1.
        -13    1    1    2    0    0  0.99187761939E+02  0.50430142522E+02  0.16567626079E+02  0.11249848351E+03  0.10566000000E+00 0.  1.
         13    1    1    2    0    0 -0.11439063702E+03 -0.40314350092E+02  0.64629037367E+02  0.13743139487E+03  0.10566000000E+00 0. -1.
         -4    1    1    2    0  502  0.15202875081E+02 -0.10115792430E+02 -0.70403792753E+02  0.72733422175E+02  0.00000000000E+00 0. -1.
</event>
<event>
 5    1  0.4419198E-005  0.4832645E+03  0.7818608E-02  0.9599744E-01
          4   -1    0    0  502    0 -0.00000000000E+00  0.00000000000E+00  0.64026350531E+03  0.64026350531E+03  0.00000000000E+00 0.  1.
         21   -1    0    0  501  502  0.00000000000E+00 -0.00000000000E+00 -0.11032210540E+04  0.11032210540E+04  0.00000000000E+00 0.  1.
        -13    1    1    2    0    0 -0.35913760593E+03 -0.18648831322E+03 -0.30055938932E+03  0.50407704632E+03  0.10566000000E+00 0.  1.
         13    1    1    2    0    0 -0.17907878407E+02 -0.35661196707E+03  0.27152891297E+03  0.44857635795E+03  0.10566000000E+00 0. -1.
          4    1    1    2  501    0  0.37704548434E+03  0.54310028029E+03 -0.43392707237E+03  0.79083115508E+03  0.00000000000E+00 0.  1.
</event>
<event>
 5    1  0.4419198E-005  0.4211413E+03  0.7818608E-02  0.9719316E-01
         -4   -1    0    0    0  501 -0.00000000000E+00  0.00000000000E+00  0.20126922565E+04  0.20126922565E+04  0.00000000000E+00 0. -1.
         21   -1    0    0  501  502  0.00000000000E+00 -0.00000000000E+00 -0.29108693398E+03  0.29108693398E+03  0.00000000000E+00 0. -1.
        -13    1    1    2    0    0  0.28166989538E+03  0.21522974986E+03  0.90617139299E+03  0.97304079042E+03  0.10566000000E+00 0.  1.
         13    1    1    2    0    0 -0.43020480500E+03  0.16179517255E+03  0.47022187861E+02  0.46202267198E+03  0.10566000000E+00 0. -1.
         -4    1    1    2    0  502  0.14853490962E+03 -0.37702492242E+03  0.76841174171E+03  0.86871572812E+03  0.00000000000E+00 0. -1.
</event>
<event>
 5    1  0.4419198E-005  0.4242666E+03  0.7818608E-02  0.9876477E-01
          4   -1    0    0  502    0 -0.00000000000E+00  0.00000000000E+00  0.97258955711E+03  0.97258955711E+03  0.00000000000E+00 0.  1.
         21   -1    0    0  501  502  0.00000000000E+00 -0.00000000000E+00 -0.68396473989E+03  0.68396473989E+03  0.00000000000E+00 0.  1.
        -13    1    1    2    0    0 -0.38720929309E+03 -0.66741500490E+02  0.51451150862E+03  0.64738517762E+03  0.10566000000E+00 0.  1.
         13    1    1    2    0    0  0.43058470845E+02 -0.19807453852E+03  0.27795777994E+03  0.34401757705E+03  0.10566000000E+00 0. -1.
          4    1    1    2  501    0  0.34415082224E+03  0.26481603901E+03 -0.50384447134E+03  0.66515154233E+03  0.00000000000E+00 0.  1.
</event>
<event>
 5    1  0.4419198E-005  0.1222409E+03  0.7818608E-02  0.1132244E+00
         21   -1    0    0  501  502  0.00000000000E+00  0.00000000000E+00  0.19173075434E+03  0.19173075434E+03  0.00000000000E+00 0.  1.
          4   -1    0    0  502    0 -0.00000000000E+00 -0.00000000000E+00 -0.27843145545E+03  0.27843145545E+03  0.00000000000E+00 0.  1.
        -13    1    1    2    0    0 -0.13324071729E+03  0.29402318301E+02 -0.22014829620E+03  0.25900360721E+03  0.10566000000E+00 0.  1.
         13    1    1    2    0    0  0.79040923469E+02 -0.27189226023E+02  0.20807824182E+02  0.86137670655E+02  0.10566000000E+00 0. -1.
          4    1    1    2  501    0  0.54199793818E+02 -0.22130922781E+01  0.11263977091E+03  0.12502093192E+03  0.00000000000E+00 0.  1.
</event>
<event>
 5    1  0.4419198E-005  0.7229167E+02  0.7818608E-02  0.1220840E+00
          4   -1    0    0  502    0 -0.00000000000E+00  0.00000000000E+00  0.52428815934E+02  0.52428815934E+02  0.00000000000E+00 0.  1.
         21   -1    0    0  501  502  0.00000000000E+00 -0.00000000000E+00 -0.19935146852E+03  0.19935146852E+03  0.00000000000E+00 0.  1.
        -13    1    1    2    0    0 -0.88461501434E+02  0.25817255925E+02 -0.46704426542E+02  0.10331158000E+03  0.10566000000E+00 0.  1.
         13    1    1    2    0    0  0.40187523661E+02 -0.42151234704E+02 -0.59256287314E+02  0.83084790397E+02  0.10566000000E+00 0. -1.
          4    1    1    2  501    0  0.48273977773E+02  0.16333978779E+02 -0.40961938726E+02  0.65383914054E+02  0.00000000000E+00 0.  1.
</event>
<event>
 5    1  0.4419198E-005  0.2943719E+03  0.7818608E-02  0.1010746E+00
          4   -1    0    0  502    0 -0.00000000000E+00  0.00000000000E+00  0.47334325138E+03  0.47334325138E+03  0.00000000000E+00 0.  1.
         21   -1    0    0  501  502  0.00000000000E+00 -0.00000000000E+00 -0.96637229303E+03  0.96637229303E+03  0.00000000000E+00 0.  1.
        -13    1    1    2    0    0  0.23227840393E+03 -0.16035061021E+03 -0.47866646263E+03  0.55568621427E+03  0.10566000000E+00 0.  1.
         13    1    1    2    0    0 -0.51377703481E+02 -0.27955705510E+03 -0.22627568030E+03  0.36330773475E+03  0.10566000000E+00 0. -1.
          4    1    1    2  501    0 -0.18090070045E+03  0.43990766530E+03  0.21191310127E+03  0.52072159539E+03  0.00000000000E+00 0.  1.
</event>
<event>
 5    1  0.4419198E-005  0.4760758E+03  0.7818608E-02  0.9626976E-01
          4   -1    0    0  502    0 -0.00000000000E+00  0.00000000000E+00  0.16970924182E+04  0.16970924182E+04  0.00000000000E+00 0.  1.
         21   -1    0    0  501  502  0.00000000000E+00 -0.00000000000E+00 -0.31278102843E+03  0.31278102843E+03  0.00000000000E+00 0.  1.
        -13    1    1    2    0    0 -0.36517990659E+03 -0.76278022216E+02  0.79314371527E+03  0.87649966634E+03  0.10566000000E+00 0.  1.
         13    1    1    2    0    0 -0.12339356692E+03  0.31584272279E+03  0.46376982347E+03  0.57451288778E+03  0.10566000000E+00 0. -1.
          4    1    1    2  501    0  0.48857347351E+03 -0.23956470057E+03  0.12739785107E+03  0.55886089257E+03  0.00000000000E+00 0.  1.
</event>
<event>
 5    1  0.4419198E-005  0.4168138E+03  0.7818608E-02  0.9772944E-01
          4   -1    0    0  502    0 -0.00000000000E+00  0.00000000000E+00  0.12043881166E+04  0.12043881166E+04  0.00000000000E+00 0.  1.
         21   -1    0    0  501  502  0.00000000000E+00 -0.00000000000E+00 -0.35830464217E+03  0.35830464217E+03  0.00000000000E+00 0.  1.
        -13    1    1    2    0    0 -0.53294066405E+03 -0.33830860853E+03  0.59745086217E+03  0.86915246642E+03  0.10566000000E+00 0.  1.
         13    1    1    2    0    0  0.28673057858E+03  0.10060973850E+03  0.94679776509E+02  0.31827820443E+03  0.10566000000E+00 0. -1.
          4    1    1    2  501    0  0.24621008547E+03  0.23769887003E+03  0.15395283577E+03  0.37526208794E+03  0.00000000000E+00 0.  1.
</event>
<event>
 5    1  0.4419198E-005  0.3186401E+03  0.7818608E-02  0.9998947E-01
         21   -1    0    0  501  502  0.00000000000E+00  0.00000000000E+00  0.13141585006E+03  0.13141585006E+03  0.00000000000E+00 0.  1.
         -4   -1    0    0    0  501 -0.00000000000E+00 -0.00000000000E+00 -0.14254560580E+04  0.14254560580E+04  0.00000000000E+00 0. -1.
        -13    1    1    2    0    0 -0.27250515037E+03  0.13979213100E+03 -0.69712531831E+03  0.76143589189E+03  0.10566000000E+00 0.  1.
         13    1    1    2    0    0  0.29678783928E+03 -0.15351222604E+03 -0.65259344595E+03  0.73316249355E+03  0.10566000000E+00 0. -1.
         -4    1    1    2    0  502 -0.24282688907E+02  0.13720095040E+02  0.55678556306E+02  0.62273522630E+02  0.00000000000E+00 0. -1.
</event>
<event>
 5    1  0.4419198E-005  0.2068881E+03  0.7818608E-02  0.1055514E+00
         -4   -1    0    0    0  501 -0.00000000000E+00  0.00000000000E+00  0.69956051868E+02  0.69956051868E+02  0.00000000000E+00 0. -1.
         21   -1    0    0  501  502  0.00000000000E+00 -0.00000000000E+00 -0.10852925178E+04  0.10852925178E+04  0.00000000000E+00 0. -1.
        -13    1    1    2    0    0 -0.16898363378E+03 -0.97975365051E+02 -0.33881310459E+03  0.39108691060E+03  0.10566000000E+00 0.  1.
         13    1    1    2    0    0  0.19619765813E+03  0.89829342566E+02 -0.22501471613E+03  0.31176026925E+03  0.10566000000E+00 0. -1.
         -4    1    1    2    0  502 -0.27214024349E+02  0.81460224848E+01 -0.45150864524E+03  0.45240138984E+03  0.00000000000E+00 0. -1.
</event>
<event>
 5    1  0.4419198E-005  0.4852505E+03  0.7818608E-02  0.9510899E-01
          4   -1    0    0  502    0 -0.00000000000E+00  0.00000000000E+00  0.21724886706E+03  0.21724886706E+03  0.00000000000E+00 0.  1.
         21   -1    0    0  501  502  0.00000000000E+00 -0.00000000000E+00 -0.17384064462E+04  0.17384064462E+04  0.00000000000E+00 0. -1.
        -13    1    1    2    0    0  0.44012597785E+03 -0.17912232252E+03 -0.22067400245E+03  0.52392051814E+03  0.10566000000E+00 0.  1.
         13    1    1    2    0    0 -0.48306469578E+03  0.17356764436E+03 -0.96093697834E+03  0.10894388992E+04  0.10566000000E+00 0. -1.
          4    1    1    2  501    0  0.42938717926E+02  0.55546781614E+01 -0.33954659833E+03  0.34229589595E+03  0.00000000000E+00 0.  1.
</event>
<event>
 5    1  0.4419198E-005  0.5546646E+03  0.7818608E-02  0.9365585E-01
         21   -1    0    0  501  502  0.00000000000E+00  0.00000000000E+00  0.26421994542E+03  0.26421994542E+03  0.00000000000E+00 0.  1.
          4   -1    0    0  502    0 -0.00000000000E+00 -0.00000000000E+00 -0.21744011687E+04  0.21744011687E+04  0.00000000000E+00 0.  1.
        -13    1    1    2    0    0 -0.28587630520E+01  0.71805143141E+03 -0.11369406550E+04  0.13447081820E+04  0.10566000000E+00 0.  1.
         13    1    1    2    0    0 -0.14129915633E+03 -0.40700560325E+03 -0.44025940940E+03  0.61599299622E+03  0.10566000000E+00 0. -1.
          4    1    1    2  501    0  0.14415791938E+03 -0.31104582816E+03 -0.33298115891E+03  0.47791993589E+03  0.00000000000E+00 0.  1.
</event>
<event>
 5    1  0.4419198E-005  0.3531974E+03  0.7818608E-02  0.1007285E+00
          4   -1    0    0  502    0 -0.00000000000E+00  0.00000000000E+00  0.24591644070E+03  0.24591644070E+03  0.00000000000E+00 0.  1.
         21   -1    0    0  501  502  0.00000000000E+00 -0.00000000000E+00 -0.15553032018E+04  0.15553032018E+04  0.00000000000E+00 0.  1.
        -13    1    1    2    0    0 -0.11318521172E+03  0.32685485317E+03 -0.11029821986E+04  0.11559475459E+04  0.10566000000E+00 0.  1.
         13    1    1    2    0    0  0.15598946851E+03  0.97514767840E+02 -0.46382075565E+02  0.18971861356E+03  0.10566000000E+00 0. -1.
          4    1    1    2  501    0 -0.42804256789E+02 -0.42436962101E+03 -0.16002248695E+03  0.45555348310E+03  0.00000000000E+00 0.  1.
</event>
<event>
 5    1  0.4419198E-005  0.5179819E+03  0.7818608E-02  0.9439407E-01
         -4   -1    0    0    0  501 -0.00000000000E+00  0.00000000000E+00  0.29961580804E+04  0.29961580804E+04  0.00000000000E+00 0. -1.
         21   -1    0    0  501  502  0.00000000000E+00 -0.00000000000E+00 -0.20597393068E+03  0.20597393068E+03  0.00000000000E+00 0. -1.
        -13    1    1    2    0    0 -0.27206778063E+03  0.37902998386E+03  0.73805037022E+03  0.87315689660E+03  0.10566000000E+00 0.  1.
         13    1    1    2    0    0  0.50787511311E+03 -0.25853004558E+03  0.19714161010E+04  0.20521345885E+04  0.10566000000E+00 0. -1.
         -4    1    1    2    0  502 -0.23580733248E+03 -0.12049993829E+03  0.80717678465E+02  0.27684052593E+03  0.00000000000E+00 0. -1.
</event>
<event>
 5    1  0.4419198E-005  0.5008054E+03  0.7818608E-02  0.9546345E-01
         -4   -1    0    0    0  501 -0.00000000000E+00  0.00000000000E+00  0.68848652507E+03  0.68848652507E+03  0.00000000000E+00 0. -1.
         21   -1    0    0  501  502  0.00000000000E+00 -0.00000000000E+00 -0.13585198276E+04  0.13585198276E+04  0.00000000000E+00 0. -1.
        -13    1    1    2    0    0  0.38295836341E+03  0.64697684846E+02  0.38046077720E+03  0.54368493881E+03  0.10566000000E+00 0.  1.
         13    1    1    2    0    0  0.20516003336E+03 -0.32721501956E+03 -0.19544277308E+03  0.43284893096E+03  0.10566000000E+00 0. -1.
         -4    1    1    2    0  502 -0.58811839678E+03  0.26251733472E+03 -0.85505130664E+03  0.10704724829E+04  0.00000000000E+00 0. -1.
</event>
<event>
 5    1  0.4419198E-005  0.4551126E+03  0.7818608E-02  0.1009908E+00
         21   -1    0    0  501  502  0.00000000000E+00  0.00000000000E+00  0.12838427133E+03  0.12838427133E+03  0.00000000000E+00 0. -1.
         -4   -1    0    0    0  501 -0.00000000000E+00 -0.00000000000E+00 -0.24721252544E+04  0.24721252544E+04  0.00000000000E+00 0. -1.
        -13    1    1    2    0    0  0.52614934274E+02  0.58951366389E+02 -0.45277588892E+03  0.45961898531E+03  0.10566000000E+00 0.  1.
         13    1    1    2    0    0 -0.45928061007E+03  0.83151143713E+02 -0.49667662815E+03  0.68157206193E+03  0.10566000000E+00 0. -1.
         -4    1    1    2    0  502  0.40666567580E+03 -0.14210251010E+03 -0.13942884660E+04  0.14593184785E+04  0.00000000000E+00 0. -1.
</event>
<event>
 5    1  0.4419198E-005  0.7038436E+02  0.7818608E-02  0.1275060E+00
         21   -1    0    0  501  502  0.00000000000E+00  0.00000000000E+00  0.24822566256E+03  0.24822566256E+03  0.00000000000E+00 0. -1.
         -4   -1    0    0    0  501 -0.00000000000E+00 -0.00000000000E+00 -0.98087294219E+02  0.98087294219E+02  0.00000000000E+00 0. -1.
        -13    1    1    2    0    0 -0.22808251970E+02 -0.10252717410E+02  0.10750143049E+03  0.11037165983E+03  0.10566000000E+00 0.  1.
         13    1    1    2    0    0  0.45542171389E+02  0.74943400276E+02 -0.64415534812E+02  0.10881164877E+03  0.10566000000E+00 0. -1.
         -4    1    1    2    0  502 -0.22733919418E+02 -0.64690682866E+02  0.10705247266E+03  0.12712964817E+03  0.00000000000E+00 0. -1.
</event>
<event>
 5    1  0.4419198E-005  0.4133197E+03  0.7818608E-02  0.1027146E+00
         -4   -1    0    0    0  501 -0.00000000000E+00  0.00000000000E+00  0.80583587764E+03  0.80583587764E+03  0.00000000000E+00 0. -1.
         21   -1    0    0  501  502  0.00000000000E+00 -0.00000000000E+00 -0.28398425611E+03  0.28398425611E+03  0.00000000000E+00 0. -1.
        -13    1    1    2    0    0  0.59288168342E+02  0.15081065512E+02  0.53840386843E+02  0.81494317972E+02  0.10566000000E+00 0.  1.
         13    1    1    2    0    0  0.24128251873E+03 -0.32613671812E+03  0.53449778738E+02  0.40919347839E+03  0.10566000000E+00 0. -1.
         -4    1    1    2    0  502 -0.30057068707E+03  0.31105565260E+03  0.41456145595E+03  0.59913233739E+03  0.00000000000E+00 0. -1.
</event>
<event>
 5    1  0.4419198E-005  0.4431700E+03  0.7818608E-02  0.9877837E-01
          4   -1    0    0  502    0 -0.00000000000E+00  0.00000000000E+00  0.49256069365E+03  0.49256069365E+03  0.00000000000E+00 0.  1.
         21   -1    0    0  501  502  0.00000000000E+00 -0.00000000000E+00 -0.92732959719E+03  0.92732959719E+03  0.00000000000E+00 0.  1.
        -13    1    1    2    0    0 -0.31554032232E+03 -0.37461019729E+03 -0.69039365199E+03  0.84648798030E+03  0.10566000000E+00 0.  1.
         13    1    1    2    0    0  0.83282067330E+02  0.15622974036E+03  0.16490523033E+03  0.24194499513E+03  0.10566000000E+00 0. -1.
          4    1    1    2  501    0  0.23225825499E+03  0.21838045693E+03  0.90719518107E+02  0.33145731542E+03  0.00000000000E+00 0.  1.
</event>
<event>
 5    1  0.4419198E-005  0.6086608E+02  0.7818608E-02  0.1252950E+00
         21   -1    0    0  501  502  0.00000000000E+00  0.00000000000E+00  0.11562501417E+03  0.11562501417E+03  0.00000000000E+00 0. -1.
         -4   -1    0    0    0  501 -0.00000000000E+00 -0.00000000000E+00 -0.59408986442E+02  0.59408986442E+02  0.00000000000E+00 0. -1.
        -13    1    1    2    0    0 -0.37636155445E+02 -0.30699263573E+02  0.22594184595E+02  0.53567091784E+02  0.10566000000E+00 0.  1.
         13    1    1    2    0    0  0.54630364895E+02  0.44706252988E+02 -0.11249940259E+02  0.71482152630E+02  0.10566000000E+00 0. -1.
         -4    1    1    2    0  502 -0.16994209450E+02 -0.14006989415E+02  0.44871783392E+02  0.49984756197E+02  0.00000000000E+00 0. -1.
</event>
<event>
 5    1  0.4419198E-005  0.4986749E+03  0.7818608E-02  0.9810655E-01
         21   -1    0    0  501  502  0.00000000000E+00  0.00000000000E+00  0.63768269529E+03  0.63768269529E+03  0.00000000000E+00 0. -1.
          4   -1    0    0  502    0 -0.00000000000E+00 -0.00000000000E+00 -0.56122262596E+03  0.56122262596E+03  0.00000000000E+00 0.  1.
        -13    1    1    2    0    0 -0.35097393053E+03 -0.21903770771E+03 -0.15115165969E+03  0.44046231700E+03  0.10566000000E+00 0.  1.
         13    1    1    2    0    0 -0.95540875482E+02 -0.12328918819E+03  0.86593582858E+02  0.17840051168E+03  0.10566000000E+00 0. -1.
          4    1    1    2  501    0  0.44651480601E+03  0.34232689590E+03  0.14101814616E+03  0.58004249257E+03  0.00000000000E+00 0.  1.
</event>
<event>
 5    1  0.4419198E-005  0.1882499E+03  0.7818608E-02  0.1068504E+00
         21   -1    0    0  501  502  0.00000000000E+00  0.00000000000E+00  0.32492704867E+03  0.32492704867E+03  0.00000000000E+00 0.  1.
          4   -1    0    0  502    0 -0.00000000000E+00 -0.00000000000E+00 -0.30543881719E+03  0.30543881719E+03  0.00000000000E+00 0.  1.
        -13    1    1    2    0    0  0.16862929822E+03 -0.12296743058E+03 -0.12661548900E+03  0.24410719453E+03  0.10566000000E+00 0.  1.
         13    1    1    2    0    0 -0.10316858663E+03  0.13548008164E+03 -0.51347830984E+02  0.17786292671E+03  0.10566000000E+00 0. -1.
          4    1    1    2  501    0 -0.65460711592E+02 -0.12512651060E+02  0.19745155146E+03  0.20839574461E+03  0.00000000000E+00 0.  1.
</event>
<event>
 5    1  0.4419198E-005  0.3507841E+03  0.7818608E-02  0.1005253E+00
         -4   -1    0    0    0  501 -0.00000000000E+00  0.00000000000E+00  0.26443118526E+04  0.26443118526E+04  0.00000000000E+00 0. -1.
         21   -1    0    0  501  502  0.00000000000E+00 -0.00000000000E+00 -0.13617236543E+03  0.13617236543E+03  0.00000000000E+00 0. -1.
        -13    1    1    2    0    0 -0.12971088337E+03 -0.15295504554E+03  0.67430441264E+03  0.70349599238E+03  0.10566000000E+00 0.  1.
         13    1    1    2    0    0  0.45131529352E+03  0.20413009950E+03  0.16030990842E+04  0.16778799947E+04  0.10566000000E+00 0. -1.
         -4    1    1    2    0  502 -0.32160441015E+03 -0.51175053953E+02  0.23073599029E+03  0.39910823092E+03  0.00000000000E+00 0. -1.
</event>
<event>
 5    1  0.4419198E-005  0.4916471E+03  0.7818608E-02  0.9819669E-01
         -4   -1    0    0    0  501 -0.00000000000E+00  0.00000000000E+00  0.26890872000E+03  0.26890872000E+03  0.00000000000E+00 0. -1.
         21   -1    0    0  501  502  0.00000000000E+00 -0.00000000000E+00 -0.13281952020E+04  0.13281952020E+04  0.00000000000E+00 0. -1.
        -13    1    1    2    0    0 -0.12165271050E+03  0.10057308357E+03 -0.61469207932E+02  0.16938949731E+03  0.10566000000E+00 0.  1.
         13    1    1    2    0    0 -0.10301807806E+03 -0.52004264373E+03 -0.40272967529E+03  0.66576893757E+03  0.10566000000E+00 0. -1.
         -4    1    1    2    0  502  0.22467078856E+03  0.41946956016E+03 -0.59508759877E+03  0.76194548712E+03  0.00000000000E+00 0. -1.
</event>
<event>
 5    1  0.4419198E-005  0.2090658E+02  0.7818608E-02  0.1497622E+00
          4   -1    0    0  502    0 -0.00000000000E+00  0.00000000000E+00  0.12584692981E+02  0.12584692981E+02  0.00000000000E+00 0.  1.
         21   -1    0    0  501  502  0.00000000000E+00 -0.00000000000E+00 -0.36850445983E+03  0.36850445983E+03  0.00000000000E+00 0.  1.
        -13    1    1    2    0    0 -0.14325508561E+02 -0.12019971091E+02 -0.92144393492E+02  0.94022871242E+02  0.10566000000E+00 0.  1.
         13    1    1    2    0    0  0.21558643337E+02 -0.33687358220E+01  0.90597503535E+00  0.21839309475E+02  0.10566000000E+00 0. -1.
          4    1    1    2  501    0 -0.72331347757E+01  0.15388706913E+02 -0.26468134839E+03  0.26522697209E+03  0.00000000000E+00 0.  1.
</event>
<event>
 5    1  0.4419198E-005  0.9436862E+02  0.7818608E-02  0.1174225E+00
         -4   -1    0    0    0  501 -0.00000000000E+00  0.00000000000E+00  0.11705020279E+03  0.11705020279E+03  0.00000000000E+00 0. -1.
         21   -1    0    0  501  502  0.00000000000E+00 -0.00000000000E+00 -0.16957950456E+03  0.16957950456E+03  0.00000000000E+00 0. -1.
        -13    1    1    2    0    0  0.64513218976E+02  0.51480530000E+02  0.23276179308E+02  0.85755420115E+02  0.10566000000E+00 0.  1.
         13    1    1    2    0    0 -0.11561812995E+03 -0.50061149456E+02 -0.24318147332E+02  0.12831622700E+03  0.10566000000E+00 0. -1.
         -4    1    1    2    0  502  0.51104910976E+02 -0.14193805438E+01 -0.51487333747E+02  0.72558060224E+02  0.00000000000E+00 0. -1.
</event>
<event>
 5    1  0.4419198E-005  0.1460970E+03  0.7818608E-02  0.1105026E+00
          4   -1    0    0  502    0 -0.00000000000E+00  0.00000000000E+00  0.32557496675E+02  0.32557496675E+02  0.00000000000E+00 0.  1.
         21   -1    0    0  501  502  0.00000000000E+00 -0.00000000000E+00 -0.28357266293E+04  0.28357266293E+04  0.00000000000E+00 0. -1.
        -13    1    1    2    0    0 -0.15064407310E+03  0.80921791350E+02 -0.31342081825E+03  0.35703584351E+03  0.10566000000E+00 0.  1.
         13    1    1    2    0    0  0.94371997069E+02 -0.75864582171E+02 -0.34279744796E+03  0.36355413648E+03  0.10566000000E+00 0. -1.
          4    1    1    2  501    0  0.56272076028E+02 -0.50572091786E+01 -0.21469508664E+04  0.21476941460E+04  0.00000000000E+00 0.  1.
</event>
<event>
 5    1  0.4419198E-005  0.4418321E+03  0.7818608E-02  0.9810219E-01
          4   -1    0    0  502    0 -0.00000000000E+00  0.00000000000E+00  0.58869589400E+03  0.58869589400E+03  0.00000000000E+00 0.  1.
         21   -1    0    0  501  502  0.00000000000E+00 -0.00000000000E+00 -0.69053746038E+03  0.69053746038E+03  0.00000000000E+00 0.  1.
        -13    1    1    2    0    0  0.92159898810E+02  0.46572085867E+03  0.16453903464E+03  0.50245643615E+03  0.10566000000E+00 0.  1.
         13    1    1    2    0    0  0.18905058716E+03 -0.12123819587E+03  0.51176429236E+02  0.23034292418E+03  0.10566000000E+00 0. -1.
          4    1    1    2  501    0 -0.28121048597E+03 -0.34448266280E+03 -0.31755703026E+03  0.54643399405E+03  0.00000000000E+00 0.  1.
</event>
<event>
 5    1  0.4419198E-005  0.3382661E+03  0.7818608E-02  0.9926556E-01
          4   -1    0    0  502    0 -0.00000000000E+00  0.00000000000E+00  0.67041935337E+03  0.67041935337E+03  0.00000000000E+00 0.  1.
         21   -1    0    0  501  502  0.00000000000E+00 -0.00000000000E+00 -0.50357114168E+03  0.50357114168E+03  0.00000000000E+00 0. -1.
        -13    1    1    2    0    0  0.28993670905E+03 -0.18220091217E+03  0.50605288431E+03  0.61102373156E+03  0.10566000000E+00 0.  1.
         13    1    1    2    0    0 -0.27976458959E+03  0.15592836672E+03 -0.12010470760E+03  0.34206290809E+03  0.10566000000E+00 0. -1.
          4    1    1    2  501    0 -0.10172119461E+02  0.26272545454E+02 -0.21909996502E+03  0.22090385540E+03  0.00000000000E+00 0.  1.
</event>
<event>
 5    1  0.4419198E-005  0.1913797E+02  0.7818608E-02  0.1546779E+00
         21   -1    0    0  501  502  0.00000000000E+00  0.00000000000E+00  0.77147854384E+02  0.77147854384E+02  0.00000000000E+00 0.  1.
         -4   -1    0    0    0  501 -0.00000000000E+00 -0.00000000000E+00 -0.68010199041E+02  0.68010199041E+02  0.00000000000E+00 0. -1.
        -13    1    1    2    0    0 -0.25962344041E+01 -0.13342845961E+02  0.50569636793E+02  0.52364790660E+02  0.10566000000E+00 0.  1.
         13    1    1    2    0    0 -0.16540025316E+02  0.14975801849E+02 -0.61254991785E+02  0.65192271483E+02  0.10566000000E+00 0. -1.
         -4    1    1    2    0  502  0.19136259720E+02 -0.16329558877E+01  0.19823010335E+02  0.27600991282E+02  0.00000000000E+00 0. -1.
</event>
<event>
 5    1  0.4419198E-005  0.4788197E+03  0.7818608E-02  0.9677789E-01
         -4   -1    0    0    0  501 -0.00000000000E+00  0.00000000000E+00  0.14585763895E+04  0.14585763895E+04  0.00000000000E+00 0. -1.
         21   -1    0    0  501  502  0.00000000000E+00 -0.00000000000E+00 -0.36854455412E+03  0.36854455412E+03  0.00000000000E+00 0. -1.
        -13    1    1    2    0    0  0.32765623398E+02  0.27680715067E+03  0.66548112431E+03  0.72149908019E+03  0.10566000000E+00 0.  1.
         13    1    1    2    0    0  0.43545094800E+03 -0.31679739656E+03  0.31221571752E+03  0.62246026701E+03  0.10566000000E+00 0. -1.
         -4    1    1    2    0  502 -0.46821657140E+03  0.39990245886E+02  0.11233499359E+03  0.48316159645E+03  0.00000000000E+00 0. -1.
</event>
<event>
 5    1  0.4419198E-005  0.5230096E+02  0.7818608E-02  0.1282694E+00
         -4   -1    0    0    0  501 -0.00000000000E+00  0.00000000000E+00  0.12269317291E+03  0.12269317291E+03  0.00000000000E+00 0. -1.
         21   -1    0    0  501  502  0.00000000000E+00 -0.00000000000E+00 -0.22091019715E+03  0.22091019715E+03  0.00000000000E+00 0. -1.
        -13    1    1    2    0    0 -0.26356560646E+02 -0.25715947621E+02 -0.97090242177E+02  0.10383883927E+03  0.10566000000E+00 0.  1.
         13    1    1    2    0    0  0.22263844536E+02  0.48505674668E+02  0.11212006121E+03  0.12417487080E+03  0.10566000000E+00 0. -1.
         -4    1    1    2    0  502  0.40927161090E+01 -0.22789727047E+02 -0.11324684328E+03  0.11558965999E+03  0.00000000000E+00 0. -1.
</event>
<event>
 5    1  0.4419198E-005  0.4892800E+03  0.7818608E-02  0.9507301E-01
         21   -1    0    0  501  502  0.00000000000E+00  0.00000000000E+00  0.14006184124E+04  0.14006184124E+04  0.00000000000E+00 0. -1.
         -4   -1    0    0    0  501 -0.00000000000E+00 -0.00000000000E+00 -0.45968038985E+03  0.45968038985E+03  0.00000000000E+00 0. -1.
        -13    1    1    2    0    0  0.42460474511E+03 -0.25288304875E+03  0.26002354711E+03  0.55843646203E+03  0.10566000000E+00 0.  1.
         13    1    1    2    0    0  0.14447718486E+02  0.55406786898E+03  0.21544802925E+03  0.59465772044E+03  0.10566000000E+00 0. -1.
         -4    1    1    2    0  502 -0.43905246359E+03 -0.30118482023E+03  0.46546644623E+03  0.70720461982E+03  0.00000000000E+00 0. -1.
</event>
<event>
 5    1  0.4419198E-005  0.8669557E+02  0.7818608E-02  0.1216769E+00
         -4   -1    0    0    0  501 -0.00000000000E+00  0.00000000000E+00  0.23504241705E+04  0.23504241705E+04  0.00000000000E+00 0. -1.
         21   -1    0    0  501  502  0.00000000000E+00 -0.00000000000E+00 -0.15407980751E+03  0.15407980751E+03  0.00000000000E+00 0. -1.
        -13    1    1    2    0    0 -0.11705318702E+03 -0.22565355365E+02  0.70145858637E+03  0.71151584902E+03  0.10566000000E+00 0.  1.
         13    1    1    2    0    0 -0.39620170428E+02 -0.48558541312E+02 -0.13773641564E+03  0.15132422541E+03  0.10566000000E+00 0. -1.
         -4    1    1    2    0  502  0.15667335745E+03  0.71123896676E+02  0.16326221923E+04  0.16416639036E+04  0.00000000000E+00 0. -1.
</event>
<event>
 5    1  0.4419198E-005  0.2979004E+02  0.7818608E-02  0.1406603E+00
          4   -1    0    0  502    0 -0.00000000000E+00  0.00000000000E+00  0.11156548058E+03  0.11156548058E+03  0.00000000000E+00 0.  1.
         21   -1    0    0  501  502  0.00000000000E+00 -0.00000000000E+00 -0.11517715293E+03  0.11517715293E+03  0.00000000000E+00 0.  1.
        -13    1    1    2    0    0  0.28221470668E+02 -0.65232790187E+01  0.93808010903E+02  0.98178198443E+02  0.10566000000E+00 0.  1.
         13    1    1    2    0    0 -0.44219773968E+02  0.26541536205E+02 -0.38644208475E+02  0.64445539540E+02  0.10566000000E+00 0. -1.
          4    1    1    2  501    0  0.15998303300E+02 -0.20018257186E+02 -0.58775474773E+02  0.64118895531E+02  0.00000000000E+00 0.  1.
</event>
<event>
 5    1  0.4419198E-005  0.5008453E+03  0.7818608E-02  0.9581960E-01
          4   -1    0    0  502    0 -0.00000000000E+00  0.00000000000E+00  0.11726985599E+04  0.11726985599E+04  0.00000000000E+00 0.  1.
         21   -1    0    0  501  502  0.00000000000E+00 -0.00000000000E+00 -0.48912145209E+03  0.48912145209E+03  0.00000000000E+00 0. -1.
        -13    1    1    2    0    0  0.35407438528E+03  0.42378374932E+03  0.91525349705E+02  0.55976623452E+03  0.10566000000E+00 0.  1.
         13    1    1    2    0    0 -0.33195586679E+03  0.81251131609E+02  0.47155027710E+03  0.58237111783E+03  0.10566000000E+00 0. -1.
          4    1    1    2  501    0 -0.22118518497E+02 -0.50503488093E+03  0.12050148102E+03  0.51968265965E+03  0.00000000000E+00 0.  1.
</event>
<event>
 5    1  0.4419198E-005  0.2305170E+03  0.7818608E-02  0.1041015E+00
          4   -1    0    0  502    0 -0.00000000000E+00  0.00000000000E+00  0.19919349950E+04  0.19919349950E+04  0.00000000000E+00 0.  1.
         21   -1    0    0  501  502  0.00000000000E+00 -0.00000000000E+00 -0.59766697526E+02  0.59766697526E+02  0.00000000000E+00 0. -1.
        -13    1    1    2    0    0  0.23342791156E+03  0.14980579133E+03  0.93854640769E+03  0.97867243528E+03  0.10566000000E+00 0.  1.
         13    1    1    2    0    0 -0.18553082950E+03 -0.89390495459E+02  0.97111675295E+03  0.99271350772E+03  0.10566000000E+00 0. -1.
          4    1    1    2  501    0 -0.47897082061E+02 -0.60415295870E+02  0.22505136878E+02  0.80315749582E+02  0.00000000000E+00 0.  1.
</event>
<event>
 5    1  0.4419198E-005  0.1864760E+03  0.7818608E-02  0.1088203E+00
         21   -1    0    0  501  502  0.00000000000E+00  0.00000000000E+00  0.12492947352E+03  0.12492947352E+03  0.00000000000E+00 0. -1.
         -4   -1    0    0    0  501 -0.00000000000E+00 -0.00000000000E+00 -0.50778434832E+03  0.50778434832E+03  0.00000000000E+00 0. -1.
        -13    1    1    2    0    0 -0.63002341367E+02 -0.91566627343E+02 -0.85650817507E+02  0.14032040466E+03  0.10566000000E+00 0.  1.
         13    1    1    2    0    0  0.93541588804E+01  0.23665846944E+03 -0.16204671214E+03  0.28697365650E+03  0.10566000000E+00 0. -1.
         -4    1    1    2    0  502  0.53648182486E+02 -0.14509184210E+03 -0.13515734515E+03  0.20541976068E+03  0.00000000000E+00 0. -1.
</event>
<event>
 5    1  0.4419198E-005  0.5047977E+03  0.7818608E-02  0.9628714E-01
          4   -1    0    0  502    0 -0.00000000000E+00  0.00000000000E+00  0.55221978712E+03  0.55221978712E+03  0.00000000000E+00 0.  1.
         21   -1    0    0  501  502  0.00000000000E+00 -0.00000000000E+00 -0.95746427900E+03  0.95746427900E+03  0.00000000000E+00 0.  1.
        -13    1    1    2    0    0 -0.48385357373E+03 -0.89194993155E+02 -0.11657808539E+01  0.49200751806E+03  0.10566000000E+00 0.  1.
         13    1    1    2    0    0  0.85776279567E+02 -0.26937090956E+03  0.81922099655E+02  0.29432889533E+03  0.10566000000E+00 0. -1.
          4    1    1    2  501    0  0.39807729416E+03  0.35856590271E+03 -0.48600081068E+03  0.72334765272E+03  0.00000000000E+00 0.  1.
</event>
<event>
 5    1  0.4419198E-005  0.4973595E+03  0.7818608E-02  0.9546931E-01
         21   -1    0    0  501  502  0.00000000000E+00  0.00000000000E+00  0.35443490098E+03  0.35443490098E+03  0.00000000000E+00 0. -1.
         -4   -1    0    0    0  501 -0.00000000000E+00 -0.00000000000E+00 -0.15191365389E+04  0.15191365389E+04  0.00000000000E+00 0. -1.
        -13    1    1    2    0    0 -0.82196562379E+02  0.38704529326E+03 -0.28262184243E+03  0.48624628624E+03  0.10566000000E+00 0.  1.
         13    1    1    2    0    0 -0.37646628668E+03 -0.46056357560E+03 -0.39381724864E+03  0.71339870246E+03  0.10566000000E+00 0. -1.
         -4    1    1    2    0  502  0.45866284906E+03  0.73518282348E+02 -0.48826254685E+03  0.67392645118E+03  0.00000000000E+00 0. -1.
</event>
<event>
 5    1  0.4419198E-005  0.7868940E+02  0.7818608E-02  0.1205613E+00
         21   -1    0    0  501  502  0.00000000000E+00  0.00000000000E+00  0.11625168783E+03  0.11625168783E+03  0.00000000000E+00 0. -1.
         -4   -1    0    0    0  501 -0.00000000000E+00 -0.00000000000E+00 -0.76176730179E+02  0.76176730179E+02  0.00000000000E+00 0. -1.
        -13    1    1    2    0    0 -0.33282283694E+02  0.60156147659E+02  0.24954739363E+02  0.73138380415E+02  0.10566000000E+00 0.  1.
         13    1    1    2    0    0  0.35242034069E+02 -0.79067963848E+02 -0.10699482816E+02  0.87225191138E+02  0.10566000000E+00 0. -1.
         -4    1    1    2    0  502 -0.19597503758E+01  0.18911816189E+02  0.25819701101E+02  0.32064846453E+02  0.00000000000E+00 0. -1.
</event>
<event>
 5    1  0.4419198E-005  0.4891633E+03  0.7818608E-02  0.9801408E-01
          4   -1    0    0  502    0 -0.00000000000E+00  0.00000000000E+00  0.95045870085E+03  0.95045870085E+03  0.00000000000E+00 0.  1.
         21   -1    0    0  501  502  0.00000000000E+00 -0.00000000000E+00 -0.56254172969E+03  0.56254172969E+03  0.00000000000E+00 0.  1.
        -13    1    1    2    0    0  0.12213203093E+03 -0.38941662039E+03  0.52886758538E+02  0.41153196426E+03  0.10566000000E+00 0.  1.
         13    1    1    2    0    0 -0.22896464126E+02 -0.16900142120E+03  0.48558138037E+03  0.51466009808E+03  0.10566000000E+00 0. -1.
          4    1    1    2  501    0 -0.99235566801E+02  0.55841804158E+03 -0.15055116774E+03  0.58680836820E+03  0.00000000000E+00 0.  1.
</event>
<event>
 5    1  0.4419198E-005  0.4120466E+03  0.7818608E-02  0.9825407E-01
         21   -1    0    0  501  502  0.00000000000E+00  0.00000000000E+00  0.83855942940E+03  0.83855942940E+03  0.00000000000E+00 0. -1.
         -4   -1    0    0    0  501 -0.00000000000E+00 -0.00000000000E+00 -0.56828574294E+03  0.56828574294E+03  0.00000000000E+00 0. -1.
        -13    1    1    2    0    0 -0.16653177701E+03 -0.20349717469E+03 -0.13928010140E+03  0.29756157458E+03  0.10566000000E+00 0.  1.
         13    1    1    2    0    0  0.36570547209E+03 -0.20319189167E+03  0.49535369918E+03  0.64838471266E+03  0.10566000000E+00 0. -1.
         -4    1    1    2    0  502 -0.19917369508E+03  0.40668906636E+03 -0.85799911328E+02  0.46089888510E+03  0.00000000000E+00 0. -1.
</event>
<event>
 5    1  0.4419198E-005  0.1355117E+03  0.7818608E-02  0.1117824E+00
         -4   -1    0    0    0  501 -0.00000000000E+00  0.00000000000E+00  0.12299240937E+04  0.12299240937E+04  0.00000000000E+00 0. -1.
         21   -1    0    0  501  502  0.00000000000E+00 -0.00000000000E+00 -0.81218342718E+02  0.81218342718E+02  0.00000000000E+00 0. -1.
        -13    1    1    2    0    0 -0.31736117738E+02  0.12644213316E+03  0.71046915898E+03  0.72233041694E+03  0.10566000000E+00 0.  1.
         13    1    1    2    0    0  0.15074731123E+03 -0.51835893072E+02  0.41740959688E+03  0.44681371330E+03  0.10566000000E+00 0. -1.
         -4    1    1    2    0  502 -0.11901119349E+03 -0.74606240090E+02  0.20826995130E+02  0.14199830620E+03  0.00000000000E+00 0. -1.
</event>
<event>
 5    1  0.4419198E-005  0.4760540E+03  0.7818608E-02  0.1001278E+00
          4   -1    0    0  502    0 -0.00000000000E+00  0.00000000000E+00  0.12797929925E+04  0.12797929925E+04  0.00000000000E+00 0.  1.
         21   -1    0    0  501  502  0.00000000000E+00 -0.00000000000E+00 -0.22695726928E+03  0.22695726928E+03  0.00000000000E+00 0.  1.
        -13    1    1    2    0    0  0.41997078093E+03 -0.92684686802E+02  0.63462504227E+03  0.76662563448E+03  0.10566000000E+00 0.  1.
         13    1    1    2    0    0  0.82897967250E+02  0.38303077789E+02  0.12718973691E+03  0.15657726234E+03  0.10566000000E+00 0. -1.
          4    1    1    2  501    0 -0.50286874818E+03  0.54381609012E+02  0.29102094406E+03  0.58354736498E+03  0.00000000000E+00 0.  1.
</event>
<event>
 5    1  0.4419198E-005  0.4714626E+02  0.7818608E-02  0.1303865E+00
          4   -1    0    0  502    0 -0.00000000000E+00  0.00000000000E+00  0.26714568412E+02  0.26714568412E+02  0.00000000000E+00 0.  1.
         21   -1    0    0  501  502  0.00000000000E+00 -0.00000000000E+00 -0.27699655879E+03  0.27699655879E+03  0.00000000000E+00 0. -1.
        -13    1    1    2    0    0  0.40282348838E+02  0.28936462144E+02 -0.29140825163E+01  0.49683895884E+02  0.10566000000E+00 0.  1.
         13    1    1    2    0    0 -0.29203620992E+02 -0.22334004676E+02 -0.10845788870E+03  0.11451979754E+03  0.10566000000E+00 0. -1.
          4    1    1    2  501    0 -0.11078727846E+02 -0.66024574677E+01 -0.13891001916E+03  0.13950743378E+03  0.00000000000E+00 0.  1.
</event>
<event>
 5    1  0.4419198E-005  0.4708271E+03  0.7818608E-02  0.9903905E-01
         21   -1    0    0  501  502  0.00000000000E+00  0.00000000000E+00  0.99257751858E+03  0.99257751858E+03  0.00000000000E+00 0.  1.
          4   -1    0    0  502    0 -0.00000000000E+00 -0.00000000000E+00 -0.50596250575E+03  0.50596250575E+03  0.00000000000E+00 0.  1.
        -13    1    1    2    0    0  0.19759664173E+03  0.37954261213E+03  0.44113746788E+03  0.61457245624E+03  0.10566000000E+00 0.  1.
         13    1    1    2    0    0  0.22738686357E+02  0.13336269458E+03 -0.22586729431E+03  0.26328445068E+03  0.10566000000E+00 0. -1.
          4    1    1    2  501    0 -0.22033532809E+03 -0.51290530671E+03  0.27134483926E+03  0.62068311742E+03  0.00000000000E+00 0.  1.
</event>
<event>
 5    1  0.4419198E-005  0.6441152E+02  0.7818608E-02  0.1242200E+00
          4   -1    0    0  502    0 -0.00000000000E+00  0.00000000000E+00  0.18129277211E+03  0.18129277211E+03  0.00000000000E+00 0.  1.
         21   -1    0    0  501  502  0.00000000000E+00 -0.00000000000E+00 -0.96917113297E+02  0.96917113297E+02  0.00000000000E+00 0. -1.
        -13    1    1    2    0    0  0.23751231130E+01 -0.63930000167E+02  0.13878877247E+03  0.15282349511E+03  0.10566000000E+00 0.  1.
         13    1    1    2    0    0 -0.12603255114E+02  0.65844899766E+02  0.29323896518E+01  0.67104418169E+02  0.10566000000E+00 0. -1.
          4    1    1    2  501    0  0.10228132001E+02 -0.19148995993E+01 -0.57345503309E+02  0.58281972123E+02  0.00000000000E+00 0.  1.
</event>
<event>
 5    1  0.4419198E-005  0.5092069E+03  0.7818608E-02  0.9525724E-01
         21   -1    0    0  501  502  0.00000000000E+00  0.00000000000E+00  0.65481773003E+03  0.65481773003E+03  0.00000000000E+00 0. -1.
         -4   -1    0    0    0  501 -0.00000000000E+00 -0.00000000000E+00 -0.10893206294E+04  0.10893206294E+04  0.00000000000E+00 0. -1.
        -13    1    1    2    0    0 -0.36973198273E+03 -0.14730623423E+03  0.23473164663E+03  0.46206041032E+03  0.10566000000E+00 0.  1.
         13    1    1    2    0    0  0.44460665466E+03 -0.36490516127E+03 -0.32906585492E+03  0.66265768096E+03  0.10566000000E+00 0. -1.
         -4    1    1    2    0  502 -0.74874671939E+02  0.51221139550E+03 -0.34016869106E+03  0.61942026812E+03  0.00000000000E+00 0. -1.
</event>
<event>
 5    1  0.4419198E-005  0.2897575E+02  0.7818608E-02  0.1455728E+00
         -4   -1    0    0    0  501 -0.00000000000E+00  0.00000000000E+00  0.47008848454E+01  0.47008848454E+01  0.00000000000E+00 0. -1.
         21   -1    0    0  501  502  0.00000000000E+00 -0.00000000000E+00 -0.11601491570E+04  0.11601491570E+04  0.00000000000E+00 0. -1.
        -13    1    1    2    0    0 -0.14463964598E+02 -0.28597435994E+01 -0.44993074311E+02  0.47347357955E+02  0.10566000000E+00 0.  1.
         13    1    1    2    0    0  0.42238992294E+02  0.73009119498E+01 -0.13499869136E+03  0.14164072020E+03  0.10566000000E+00 0. -1.
         -4    1    1    2    0  502 -0.27775027696E+02 -0.44411683504E+01 -0.97545650645E+03  0.97586196366E+03  0.00000000000E+00 0. -1.
</event>
<event>
 5    1  0.4419198E-005  0.3736828E+03  0.7818608E-02  0.9808287E-01
         21   -1    0    0  501  502  0.00000000000E+00  0.00000000000E+00  0.10858631653E+03  0.10858631653E+03  0.00000000000E+00 0.  1.
         -4   -1    0    0    0  501 -0.00000000000E+00 -0.00000000000E+00 -0.19021999139E+04  0.19021999139E+04  0.00000000000E+00 0. -1.
        -13    1    1    2    0    0 -0.27942872670E+02  0.32100498302E+03 -0.36015635204E+03  0.48325729413E+03  0.10566000000E+00 0.  1.
         13    1    1    2    0    0  0.60505275933E+02 -0.39292821692E+03 -0.13691516722E+04  0.14257032597E+04  0.10566000000E+00 0. -1.
         -4    1    1    2    0  502 -0.32562403263E+02  0.71923233901E+02 -0.64305573144E+02  0.10182567662E+03  0.00000000000E+00 0. -1.
</event>
<event>
 5    1  0.4419198E-005  0.3311251E+03  0.7818608E-02  0.1029908E+00
         21   -1    0    0  501  502  0.00000000000E+00  0.00000000000E+00  0.15938806391E+03  0.15938806391E+03  0.00000000000E+00 0.  1.
          4   -1    0    0  502    0 -0.00000000000E+00 -0.00000000000E+00 -0.12070816629E+04  0.12070816629E+04  0.00000000000E+00 0.  1.
        -13    1    1    2    0    0  0.42579882677E+01  0.29886513945E+03 -0.49575762380E+03  0.57889043416E+03  0.10566000000E+00 0.  1.
         13    1    1    2    0    0 -0.10155040066E+03  0.40196723585E+02 -0.37957710792E+03  0.39497728097E+03  0.10566000000E+00 0. -1.
          4    1    1    2  501    0  0.97292412397E+02 -0.33906186303E+03 -0.17235886731E+03  0.39260201173E+03  0.00000000000E+00 0.  1.
</event>
<event>
 5    1  0.4419198E-005  0.4208082E+03  0.7818608E-02  0.9937604E-01
         21   -1    0    0  501  502  0.00000000000E+00  0.00000000000E+00  0.15959026177E+03  0.15959026177E+03  0.00000000000E+00 0. -1.
         -4   -1    0    0    0  501 -0.00000000000E+00 -0.00000000000E+00 -0.21192668246E+04  0.21192668246E+04  0.00000000000E+00 0. -1.
        -13    1    1    2    0    0 -0.36250967489E+02 -0.16544414976E+03 -0.27111284507E+03  0.31966871173E+03  0.10566000000E+00 0.  1.
         13    1    1    2    0    0  0.46999431278E+02 -0.37861593208E+03 -0.36445866626E+03  0.52762591023E+03  0.10566000000E+00 0. -1.
         -4    1    1    2    0  502 -0.10748463789E+02  0.54406008184E+03 -0.13241050515E+04  0.14315624644E+04  0.00000000000E+00 0. -1.
</event>
<event>
 5    1  0.4419198E-005  0.3596633E+03  0.7818608E-02  0.9853370E-01
          4   -1    0    0  502    0 -0.00000000000E+00  0.00000000000E+00  0.73528618150E+03  0.73528618150E+03  0.00000000000E+00 0.  1.
         21   -1    0    0  501  502  0.00000000000E+00 -0.00000000000E+00 -0.93134525979E+03  0.93134525979E+03  0.00000000000E+00 0.  1.
        -13    1    1    2    0    0  0.47858394846E+03 -0.14483332636E+03  0.72225451560E+02  0.50520868476E+03  0.10566000000E+00 0.  1.
         13    1    1    2    0    0 -0.32257558890E+03  0.18800688351E+02  0.37066738735E+03  0.49173448084E+03  0.10566000000E+00 0. -1.
          4    1    1    2  501    0 -0.15600835955E+03  0.12603263801E+03 -0.63895191720E+03  0.66968827568E+03  0.00000000000E+00 0.  1.
</event>
<event>
 5    1  0.4419198E-005  0.4970506E+03  0.7818608E-02  0.9840367E-01
         21   -1    0    0  501  502  0.00000000000E+00  0.00000000000E+00  0.13333841337E+03  0.13333841337E+03  0.00000000000E+00 0. -1.
         -4   -1    0    0    0  501 -0.00000000000E+00 -0.00000000000E+00 -0.24928419606E+04  0.24928419606E+04  0.00000000000E+00 0. -1.
        -13    1    1    2    0    0 -0.15203657951E+02 -0.14157612318E+03 -0.21146198068E+03  0.25493358019E+03  0.10566000000E+00 0.  1.
         13    1    1    2    0    0 -0.48159575556E+03 -0.15540855946E+02 -0.10959309924E+04  0.11971803295E+04  0.10566000000E+00 0. -1.
         -4    1    1    2    0  502  0.49679941351E+03  0.15711697912E+03 -0.10521105741E+04  0.11740664643E+04  0.00000000000E+00 0. -1.
</event>
<event>
 5    1  0.4419198E-005  0.1276089E+03  0.7818608E-02  0.1125562E+00
         21   -1    0    0  501  502  0.00000000000E+00  0.00000000000E+00  0.16177129790E+03  0.16177129790E+03  0.00000000000E+00 0.  1.
         -4   -1    0    0    0  501 -0.00000000000E+00 -0.00000000000E+00 -0.13588783540E+03  0.13588783540E+03  0.00000000000E+00 0. -1.
        -13    1    1    2    0    0  0.86242537402E+02  0.81088436963E+02  0.42143906724E+02  0.12565520246E+03  0.10566000000E+00 0.  1.
         13    1    1    2    0    0 -0.96675125018E+02 -0.91143067878E+02 -0.44620041875E+02  0.14015740409E+03  0.10566000000E+00 0. -1.
         -4    1    1    2    0  502  0.10432587616E+02  0.10054630915E+02  0.28359597657E+02  0.31846526757E+02  0.00000000000E+00 0. -1.
</event>
<event>
 5    1  0.4419198E-005  0.1812221E+03  0.7818608E-02  0.1125685E+00
         21   -1    0    0  501  502  0.00000000000E+00  0.00000000000E+00  0.45562614225E+03  0.45562614225E+03  0.00000000000E+00 0. -1.
         -4   -1    0    0    0  501 -0.00000000000E+00 -0.00000000000E+00 -0.17229382007E+03  0.17229382007E+03  0.00000000000E+00 0. -1.
        -13    1    1    2    0    0 -0.27529298689E+02  0.34851557245E+02 -0.34470830725E+00  0.44414224260E+02  0.10566000000E+00 0.  1.
         13    1    1    2    0    0  0.11846458271E+03 -0.18392637796E+03 -0.33608346857E+02  0.22134204754E+03  0.10566000000E+00 0. -1.
         -4    1    1    2    0  502 -0.90935284020E+02  0.14907482071E+03  0.31728537735E+03  0.36216369052E+03  0.00000000000E+00 0. -1.
</event>
<event>
 5    1  0.4419198E-005  0.4195354E+03  0.7818608E-02  0.9674263E-01
         21   -1    0    0  501  502  0.00000000000E+00  0.00000000000E+00  0.36269776270E+03  0.36269776270E+03  0.00000000000E+00 0. -1.
         -4   -1    0    0    0  501 -0.00000000000E+00 -0.00000000000E+00 -0.21205335419E+04  0.21205335419E+04  0.00000000000E+00 0. -1.
        -13    1    1    2    0    0 -0.28845362580E+03 -0.25346910122E+03 -0.12426165307E+04  0.13005952226E+04  0.10566000000E+00 0.  1.
         13    1    1    2    0    0  0.37682666964E+03  0.59865020813E+03 -0.36438199427E+03  0.79571016053E+03  0.10566000000E+00 0. -1.
         -4    1    1    2    0  502 -0.88373043841E+02 -0.34518110691E+03 -0.15083725422E+03  0.38692592147E+03  0.00000000000E+00 0. -1.
</event>
<event>
 5    1  0.4419198E-005  0.3152386E+03  0.7818608E-02  0.1001206E+00
          4   -1    0    0  502    0 -0.00000000000E+00  0.00000000000E+00  0.19964791812E+04  0.19964791812E+04  0.00000000000E+00 0.  1.
         21   -1    0    0  501  502  0.00000000000E+00 -0.00000000000E+00 -0.86497769377E+02  0.86497769377E+02  0.00000000000E+00 0. -1.
        -13    1    1    2    0    0  0.41381294204E+02  0.29965422920E+03  0.11795815038E+04  0.12177510435E+04  0.10566000000E+00 0.  1.
         13    1    1    2    0    0 -0.95274746806E+02 -0.32973154681E+03  0.72636979175E+03  0.80337616088E+03  0.10566000000E+00 0. -1.
          4    1    1    2  501    0  0.53893452602E+02  0.30077317611E+02  0.40301162405E+01  0.61849746199E+02  0.00000000000E+00 0.  1.
</event>
<event>
 5    1  0.4419198E-005  0.1986888E+02  0.7818608E-02  0.1549788E+00
         21   -1    0    0  501  502  0.00000000000E+00  0.00000000000E+00  0.53510287461E+02  0.53510287461E+02  0.00000000000E+00 0. -1.
         -4   -1    0    0    0  501 -0.00000000000E+00 -0.00000000000E+00 -0.18050199512E+02  0.18050199512E+02  0.00000000000E+00 0. -1.
        -13    1    1    2    0    0 -0.11657473380E+02 -0.83467218332E-01  0.10373365575E+01  0.11704310469E+02  0.10566000000E+00 0.  1.
         13    1    1    2    0    0  0.18103990777E+01  0.18574636034E+02 -0.10135101824E+01  0.18690452524E+02  0.10566000000E+00 0. -1.
         -4    1    1    2    0  502  0.98470743020E+01 -0.18491168815E+02  0.35436261575E+02  0.41165723981E+02  0.00000000000E+00 0. -1.
</event>
<event>
 5    1  0.7984396E-005  0.3892820E+03  0.7818608E-02  0.1043632E+00
         21   -1    0    0  501  502  0.00000000000E+00  0.00000000000E+00  0.14711763559E+03  0.14711763559E+03  0.00000000000E+00 0.  1.
          4   -1    0    0  502    0 -0.00000000000E+00 -0.00000000000E+00 -0.18702121671E+04  0.18702121671E+04  0.00000000000E+00 0.  1.
        -13    1    1    2    0    0 -0.76812260991E+02 -0.37560505394E+03 -0.21323603471E+03  0.43868997897E+03  0.10566000000E+00 0.  1.
         13    1    1    2    0    0 -0.36827064008E+02 -0.24498615005E+02 -0.12061994840E+03  0.12847411372E+03  0.10566000000E+00 0. -1.
          4    1    1    2  501    0  0.11363932500E+03  0.40010366895E+03 -0.13892385484E+04  0.14501657100E+04  0.00000000000E+00 0.  1.
</event>
<event>
 5    1  0.4419198E-005  0.1442891E+03  0.7818608E-02  0.1106884E+00
         21   -1    0    0  501  502  0.00000000000E+00  0.00000000000E+00  0.15225424761E+03  0.15225424761E+03  0.00000000000E+00 0. -1.
          4   -1    0    0  502    0 -0.00000000000E+00 -0.00000000000E+00 -0.23657588400E+03  0.23657588400E+03  0.00000000000E+00 0.  1.
        -13    1    1    2    0    0  0.11581145649E+03  0.12864091421E+03 -0.91997630355E+02  0.19602130858E+03  0.10566000000E+00 0.  1.
         13    1    1    2    0    0 -0.77230271178E+02 -0.91143880748E+02 -0.34612469784E+02  0.12437747390E+03  0.10566000000E+00 0. -1.
          4    1    1    2  501    0 -0.38581185315E+02 -0.37497033461E+02  0.42288463747E+02  0.68431349137E+02  0.00000000000E+00 0.  1.
</event>
<event>
 5    1  0.4419198E-005  0.3130650E+03  0.7818608E-02  0.1002053E+00
         21   -1    0    0  501  502  0.00000000000E+00  0.00000000000E+00  0.76754933940E+03  0.76754933940E+03  0.00000000000E+00 0. -1.
         -4   -1    0    0    0  501 -0.00000000000E+00 -0.00000000000E+00 -0.13874735777E+04  0.13874735777E+04  0.00000000000E+00 0. -1.
        -13    1    1    2    0    0  0.57350163549E+02  0.31477603805E+03 -0.61658825937E+03  0.69466113188E+03  0.10566000000E+00 0.  1.
         13    1    1    2    0    0 -0.44898563601E+02 -0.30414716322E+03 -0.69945983512E+03  0.76404545023E+03  0.10566000000E+00 0. -1.
         -4    1    1    2    0  502 -0.12451599948E+02 -0.10628874825E+02  0.69612385615E+03  0.69631633503E+03  0.00000000000E+00 0. -1.
</event>
<event>
 5    1  0.4419198E-005  0.2230756E+03  0.7818608E-02  0.1045373E+00
         21   -1    0    0  501  502  0.00000000000E+00  0.00000000000E+00  0.29339396396E+03  0.29339396396E+03  0.00000000000E+00 0. -1.
          4   -1    0    0  502    0 -0.00000000000E+00 -0.00000000000E+00 -0.66376879914E+03  0.66376879914E+03  0.00000000000E+00 0.  1.
        -13    1    1    2    0    0  0.82514133802E+02  0.20863321325E+03 -0.59145528286E+03  0.63257866130E+03  0.10566000000E+00 0.  1.
         13    1    1    2    0    0 -0.73684558025E+02 -0.19622268610E+03  0.16581720626E+03  0.26726038556E+03  0.10566000000E+00 0. -1.
          4    1    1    2  501    0 -0.88295757772E+01 -0.12410527147E+02  0.55263241421E+02  0.57323716251E+02  0.00000000000E+00 0.  1.
</event>
<event>
 5    1  0.4419198E-005  0.6239354E+03  0.7818608E-02  0.9637340E-01
         -4   -1    0    0    0  501 -0.00000000000E+00  0.00000000000E+00  0.11304391014E+04  0.11304391014E+04  0.00000000000E+00 0. -1.
         21   -1    0    0  501  502  0.00000000000E+00 -0.00000000000E+00 -0.94940525443E+03  0.94940525443E+03  0.00000000000E+00 0.  1.
        -13    1    1    2    0    0 -0.70489503210E+03 -0.11532872798E+03 -0.28564299831E+03  0.76926565985E+03  0.10566000000E+00 0.  1.
         13    1    1    2    0    0  0.80960710189E+02  0.11418801355E+03  0.64631417734E+03  0.66129839409E+03  0.10566000000E+00 0. -1.
         -4    1    1    2    0  502  0.62393432192E+03  0.11407144308E+01 -0.17963733210E+03  0.64928030185E+03  0.00000000000E+00 0. -1.
</event>
<event>
 5    1  0.4419198E-005  0.4842204E+03  0.7818608E-02  0.9784632E-01
         -4   -1    0    0    0  501 -0.00000000000E+00  0.00000000000E+00  0.36289924038E+03  0.36289924038E+03  0.00000000000E+00 0. -1.
         21   -1    0    0  501  502  0.00000000000E+00 -0.00000000000E+00 -0.99704269742E+03  0.99704269742E+03  0.00000000000E+00 0. -1.
        -13    1    1    2    0    0  0.16553081647E+03 -0.85264920423E+02 -0.25853749936E+02  0.18798666284E+03  0.10566000000E+00 0.  1.
         13    1    1    2    0    0 -0.29225900926E+03 -0.39413162247E+03 -0.40427544367E+03  0.63576230608E+03  0.10566000000E+00 0. -1.
         -4    1    1    2    0  502  0.12672819278E+03  0.47939654289E+03 -0.20401426345E+03  0.53619296887E+03  0.00000000000E+00 0. -1.
</event>
<event>
 5    1  0.4419198E-005  0.4977298E+03  0.7818608E-02  0.9686558E-01
          4   -1    0    0  502    0 -0.00000000000E+00  0.00000000000E+00  0.13857225741E+04  0.13857225741E+04  0.00000000000E+00 0.  1.
         21   -1    0    0  501  502  0.00000000000E+00 -0.00000000000E+00 -0.33521036756E+03  0.33521036756E+03  0.00000000000E+00 0.  1.
        -13    1    1    2    0    0  0.14381907317E+03 -0.40122140317E+03  0.31468697555E+03  0.52980226869E+03  0.10566000000E+00 0.  1.
         13    1    1    2    0    0  0.23634427328E+03 -0.45424061829E+02  0.50759744176E+03  0.56176252541E+03  0.10566000000E+00 0. -1.
          4    1    1    2  501    0 -0.38016334645E+03  0.44664546500E+03  0.22822778924E+03  0.62936814757E+03  0.00000000000E+00 0.  1.
</event>
<event>
 5    1  0.4419198E-005  0.3650124E+03  0.7818608E-02  0.9835916E-01
         -4   -1    0    0    0  501 -0.00000000000E+00  0.00000000000E+00  0.20620417134E+04  0.20620417134E+04  0.00000000000E+00 0. -1.
         21   -1    0    0  501  502  0.00000000000E+00 -0.00000000000E+00 -0.22957698975E+03  0.22957698975E+03  0.00000000000E+00 0. -1.
        -13    1    1    2    0    0 -0.12743990087E+03  0.26039662273E+03  0.71336702192E+03  0.77002587528E+03  0.10566000000E+00 0.  1.
         13    1    1    2    0    0  0.35505343804E+03 -0.39782504994E+03  0.11362599682E+04  0.12551551461E+04  0.10566000000E+00 0. -1.
         -4    1    1    2    0  502 -0.22761353717E+03  0.13742842721E+03 -0.17162266446E+02  0.26643768183E+03  0.00000000000E+00 0. -1.
</event>
<event>
 5    1  0.4419198E-005  0.3009455E+03  0.7818608E-02  0.1006916E+00
         21   -1    0    0  501  502  0.00000000000E+00  0.00000000000E+00  0.30702810282E+03  0.30702810282E+03  0.00000000000E+00 0.  1.
          4   -1    0    0  502    0 -0.00000000000E+00 -0.00000000000E+00 -0.62654124682E+03  0.62654124682E+03  0.00000000000E+00 0.  1.
        -13    1    1    2    0    0  0.20276635958E+03 -0.26507371820E+03 -0.22103917380E+03  0.40029564096E+03  0.10566000000E+00 0.  1.
         13    1    1    2    0    0 -0.22058299710E+03  0.17417555611E+03 -0.23631314506E+03  0.36720280043E+03  0.10566000000E+00 0. -1.
          4    1    1    2  501    0  0.17816637520E+02  0.90898162093E+02  0.13783917485E+03  0.16607090825E+03  0.00000000000E+00 0.  1.
</event>
<event>
 5    1  0.4419198E-005  0.2255945E+03  0.7818608E-02  0.1043878E+00
          4   -1    0    0  502    0 -0.00000000000E+00  0.00000000000E+00  0.17167845259E+03  0.17167845259E+03  0.00000000000E+00 0.  1.
         21   -1    0    0  501  502  0.00000000000E+00 -0.00000000000E+00 -0.68277254848E+03  0.68277254848E+03  0.00000000000E+00 0. -1.
        -13    1    1    2    0    0 -0.19340843082E+03  0.33508140195E+02 -0.18075178062E+03  0.26683484393E+03  0.10566000000E+00 0.  1.
         13    1    1    2    0    0  0.24239968212E+03  0.10714451779E+02  0.81268879070E+01  0.24277245074E+03  0.10566000000E+00 0. -1.
          4    1    1    2  501    0 -0.48991251297E+02 -0.44222591974E+02 -0.33846920318E+03  0.34484370640E+03  0.00000000000E+00 0.  1.
</event>
<event>
 5    1  0.4419198E-005  0.2772536E+03  0.7818608E-02  0.1017163E+00
          4   -1    0    0  502    0 -0.00000000000E+00  0.00000000000E+00  0.25925837215E+03  0.25925837215E+03  0.00000000000E+00 0.  1.
         21   -1    0    0  501  502  0.00000000000E+00 -0.00000000000E+00 -0.67488171134E+03  0.67488171134E+03  0.00000000000E+00 0. -1.
        -13    1    1    2    0    0 -0.30895464880E+03  0.42342424776E+02 -0.34044033497E+03  0.46167682288E+03  0.10566000000E+00 0.  1.
         13    1    1    2    0    0  0.26839455874E+03  0.37902301535E+02  0.88981046159E+02  0.28528908385E+03  0.10566000000E+00 0. -1.
          4    1    1    2  501    0  0.40560090056E+02 -0.80244726311E+02 -0.16416405039E+03  0.18717417676E+03  0.00000000000E+00 0.  1.
</event>
<event>
 5    1  0.4419198E-005  0.5004290E+03  0.7818608E-02  0.9477032E-01
         21   -1    0    0  501  502  0.00000000000E+00  0.00000000000E+00  0.51030070011E+03  0.51030070011E+03  0.00000000000E+00 0. -1.
          4   -1    0    0  502    0 -0.00000000000E+00 -0.00000000000E+00 -0.11511496913E+04  0.11511496913E+04  0.00000000000E+00 0.  1.
        -13    1    1    2    0    0  0.41298336450E+03 -0.59859454841E+03 -0.90003744433E+02  0.73278330897E+03  0.10566000000E+00 0.  1.
         13    1    1    2    0    0 -0.27443337639E+03  0.31023670433E+03 -0.22224958337E+03  0.47005891042E+03  0.10566000000E+00 0. -1.
          4    1    1    2  501    0 -0.13854998811E+03  0.28835784408E+03 -0.32859566338E+03  0.45860817201E+03  0.00000000000E+00 0.  1.
</event>
<event>
 5    1  0.4419198E-005  0.8709180E+02  0.7818608E-02  0.1187883E+00
         21   -1    0    0  501  502  0.00000000000E+00  0.00000000000E+00  0.41173611136E+03  0.41173611136E+03  0.00000000000E+00 0. -1.
         -4   -1    0    0    0  501 -0.00000000000E+00 -0.00000000000E+00 -0.26545980224E+03  0.26545980224E+03  0.00000000000E+00 0. -1.
        -13    1    1    2    0    0 -0.13116114335E+02  0.91876016073E+02  0.14074138317E+02  0.93868670589E+02  0.10566000000E+00 0.  1.
         13    1    1    2    0    0  0.33601274598E+02 -0.79829404082E+02 -0.21682902636E+03  0.23348793812E+03  0.10566000000E+00 0. -1.
         -4    1    1    2    0  502 -0.20485160263E+02 -0.12046611990E+02  0.34903119716E+03  0.34983930489E+03  0.00000000000E+00 0. -1.
</event>
<event>
 5    1  0.4419198E-005  0.6838297E+02  0.7818608E-02  0.1231035E+00
         -4   -1    0    0    0  501 -0.00000000000E+00  0.00000000000E+00  0.55912537306E+03  0.55912537306E+03  0.00000000000E+00 0. -1.
         21   -1    0    0  501  502  0.00000000000E+00 -0.00000000000E+00 -0.12554860205E+02  0.12554860205E+02  0.00000000000E+00 0.  1.
        -13    1    1    2    0    0  0.20652853607E+02 -0.58325090733E+02  0.11056327631E+03  0.12669887846E+03  0.10566000000E+00 0.  1.
         13    1    1    2    0    0 -0.29515420517E+02  0.64415106071E+02  0.41834634597E+03  0.42430430388E+03  0.10566000000E+00 0. -1.
         -4    1    1    2    0  502  0.88625669103E+01 -0.60900153389E+01  0.17660890577E+02  0.20677050927E+02  0.00000000000E+00 0. -1.
</event>
<event>
 5    1  0.4419198E-005  0.1561737E+03  0.7818608E-02  0.1095178E+00
         -4   -1    0    0    0  501 -0.00000000000E+00  0.00000000000E+00  0.65633889359E+03  0.65633889359E+03  0.00000000000E+00 0. -1.
         21   -1    0    0  501  502  0.00000000000E+00 -0.00000000000E+00 -0.12141076177E+03  0.12141076177E+03  0.00000000000E+00 0.  1.
        -13    1    1    2    0    0 -0.57308379462E+01  0.12692776555E+03 -0.42685434335E+02  0.13403565809E+03  0.10566000000E+00 0.  1.
         13    1    1    2    0    0  0.43346802511E+02 -0.15417403914E+03  0.57533705065E+03  0.59721127974E+03  0.10566000000E+00 0. -1.
         -4    1    1    2    0  502 -0.37615964565E+02  0.27246273590E+02  0.22765154981E+01  0.46502717528E+02  0.00000000000E+00 0. -1.
</event>
<event>
 5    1  0.4419198E-005  0.2631282E+02  0.7818608E-02  0.1437217E+00
         21   -1    0    0  501  502  0.00000000000E+00  0.00000000000E+00  0.12971928102E+02  0.12971928102E+02  0.00000000000E+00 0.  1.
         -4   -1    0    0    0  501 -0.00000000000E+00 -0.00000000000E+00 -0.26937728365E+03  0.26937728365E+03  0.00000000000E+00 0. -1.
        -13    1    1    2    0    0 -0.21452403644E+02 -0.10619123456E+02 -0.72087028213E+02  0.75957370977E+02  0.10566000000E+00 0.  1.
         13    1    1    2    0    0  0.29536912965E+02 -0.91708539385E+01 -0.18231593912E+03  0.18492064950E+03  0.10566000000E+00 0. -1.
         -4    1    1    2    0  502 -0.80845093203E+01  0.19789977394E+02 -0.20023882116E+01  0.21471191275E+02  0.00000000000E+00 0. -1.
</event>
<event>
 5    1  0.4419198E-005  0.1122353E+03  0.7818608E-02  0.1145760E+00
          4   -1    0    0  502    0 -0.00000000000E+00  0.00000000000E+00  0.43912650004E+02  0.43912650004E+02  0.00000000000E+00 0.  1.
         21   -1    0    0  501  502  0.00000000000E+00 -0.00000000000E+00 -0.10591449789E+04  0.10591449789E+04  0.00000000000E+00 0.  1.
        -13    1    1    2    0    0 -0.89766136936E+02 -0.64703212005E+02 -0.53056282239E+02  0.12271693132E+03  0.10566000000E+00 0.  1.
         13    1    1    2    0    0  0.11220470311E+03  0.48545663810E+02 -0.41926931695E+03  0.43673029225E+03  0.10566000000E+00 0. -1.
          4    1    1    2  501    0 -0.22438566174E+02  0.16157548195E+02 -0.54290672968E+03  0.54361040529E+03  0.00000000000E+00 0.  1.
</event>
<event>
 5    1  0.4419198E-005  0.3481188E+03  0.7818608E-02  0.1019312E+00
         -4   -1    0    0    0  501 -0.00000000000E+00  0.00000000000E+00  0.19088395977E+04  0.19088395977E+04  0.00000000000E+00 0. -1.
         21   -1    0    0  501  502  0.00000000000E+00 -0.00000000000E+00 -0.56130924936E+03  0.56130924936E+03  0.00000000000E+00 0. -1.
        -13    1    1    2    0    0  0.73604990096E+03 -0.17634047733E+03  0.23761666229E+03  0.79330139923E+03  0.10566000000E+00 0.  1.
         13    1    1    2    0    0 -0.17477982389E+03  0.90541125377E+02  0.10911342123E+04  0.11087468433E+04  0.10566000000E+00 0. -1.
         -4    1    1    2    0  502 -0.56127007708E+03  0.85799351953E+02  0.18779473775E+02  0.56810060452E+03  0.00000000000E+00 0. -1.
</event>
<event>
 5    1  0.4419198E-005  0.4670675E+03  0.7818608E-02  0.9727257E-01
          4   -1    0    0  502    0 -0.00000000000E+00  0.00000000000E+00  0.11954014680E+04  0.11954014680E+04  0.00000000000E+00 0.  1.
         21   -1    0    0  501  502  0.00000000000E+00 -0.00000000000E+00 -0.35256254161E+03  0.35256254161E+03  0.00000000000E+00 0.  1.
        -13    1    1    2    0    0  0.31421091857E+03 -0.50840187713E+03  0.46318236323E+03  0.75613416984E+03  0.10566000000E+00 0.  1.
         13    1    1    2    0    0  0.14760954834E+02  0.25237704739E+03  0.24932851158E+03  0.35507291883E+03  0.10566000000E+00 0. -1.
          4    1    1    2  501    0 -0.32897187341E+03  0.25602482974E+03  0.13032805153E+03  0.43675692090E+03  0.00000000000E+00 0.  1.
</event>
<event>
 5    1  0.4419198E-005  0.7387208E+02  0.7818608E-02  0.1273780E+00
         -4   -1    0    0    0  501 -0.00000000000E+00  0.00000000000E+00  0.49334917023E+02  0.49334917023E+02  0.00000000000E+00 0. -1.
         21   -1    0    0  501  502  0.00000000000E+00 -0.00000000000E+00 -0.51777453472E+03  0.51777453472E+03  0.00000000000E+00 0. -1.
        -13    1    1    2    0    0 -0.22057993272E+02  0.24630233392E+01 -0.20568482809E+02  0.30260456049E+02  0.10566000000E+00 0.  1.
         13    1    1    2    0    0  0.92590094450E+02 -0.18765226764E+02 -0.12261292851E+02  0.95264945243E+02  0.10566000000E+00 0. -1.
         -4    1    1    2    0  502 -0.70532101177E+02  0.16302203424E+02 -0.43560984204E+03  0.44158405045E+03  0.00000000000E+00 0. -1.
</event>
<event>
 5    1  0.4419198E-005  0.4039841E+03  0.7818608E-02  0.9747744E-01
         21   -1    0    0  501  502  0.00000000000E+00  0.00000000000E+00  0.36073547165E+03  0.36073547165E+03  0.00000000000E+00 0.  1.
          4   -1    0    0  502    0 -0.00000000000E+00 -0.00000000000E+00 -0.15932112144E+04  0.15932112144E+04  0.00000000000E+00 0.  1.
        -13    1    1    2    0    0 -0.31877990993E+03 -0.20924992123E+03  0.11166352316E+02  0.38148507061E+03  0.10566000000E+00 0.  1.
         13    1    1    2    0    0 -0.26343994386E+03  0.25116382012E+03 -0.61468968490E+03  0.71437195385E+03  0.10566000000E+00 0. -1.
          4    1    1    2  501    0  0.58221985379E+03 -0.41913898893E+02 -0.62895241011E+03  0.85808966155E+03  0.00000000000E+00 0.  1.
</event>
<event>
 5    1  0.4419198E-005  0.9463992E+02  0.7818608E-02  0.1173742E+00
          4   -1    0    0  502    0 -0.00000000000E+00  0.00000000000E+00  0.54496585576E+03  0.54496585576E+03  0.00000000000E+00 0.  1.
         21   -1    0    0  501  502  0.00000000000E+00 -0.00000000000E+00 -0.82882473646E+02  0.82882473646E+02  0.00000000000E+00 0.  1.
        -13    1    1    2    0    0 -0.54898436252E+02  0.92254479664E+02  0.31705665596E+03  0.33473819855E+03  0.10566000000E+00 0.  1.
         13    1    1    2    0    0  0.53855253415E+02 -0.63951550641E+02  0.20793833525E+03  0.22411727194E+03  0.10566000000E+00 0. -1.
          4    1    1    2  501    0  0.10431828369E+01 -0.28302929023E+02 -0.62911609096E+02  0.68992858911E+02  0.00000000000E+00 0.  1.
</event>
<event>
 5    1  0.4419198E-005  0.2224473E+03  0.7818608E-02  0.1045749E+00
          4   -1    0    0  502    0 -0.00000000000E+00  0.00000000000E+00  0.31371869388E+03  0.31371869388E+03  0.00000000000E+00 0.  1.
         21   -1    0    0  501  502  0.00000000000E+00 -0.00000000000E+00 -0.17611124659E+03  0.17611124659E+03  0.00000000000E+00 0. -1.
        -13    1    1    2    0    0 -0.19564992278E+03 -0.10003736160E+03  0.11023975419E+03  0.24584381336E+03  0.10566000000E+00 0.  1.
         13    1    1    2    0    0  0.19509908121E+03  0.11541775286E+03  0.28911239173E+02  0.22851866462E+03  0.10566000000E+00 0. -1.
          4    1    1    2  501    0  0.55084157234E+00 -0.15380391257E+02 -0.15435460702E+01  0.15467462498E+02  0.00000000000E+00 0.  1.
</event>
<event>
 5    1  0.4419198E-005  0.4913383E+03  0.7818608E-02  0.9624790E-01
         21   -1    0    0  501  502  0.00000000000E+00  0.00000000000E+00  0.26836896848E+03  0.26836896848E+03  0.00000000000E+00 0. -1.
         -4   -1    0    0    0  501 -0.00000000000E+00 -0.00000000000E+00 -0.23430244869E+04  0.23430244869E+04  0.00000000000E+00 0. -1.
        -13    1    1    2    0    0 -0.16837633675E+03  0.26130835240E+03 -0.12405683903E+04  0.12789224323E+04  0.10566000000E+00 0.  1.
         13    1    1    2    0    0  0.54950128778E+03 -0.23289240601E+03 -0.27968192721E+03  0.65909978730E+03  0.10566000000E+00 0. -1.
         -4    1    1    2    0  502 -0.38112495103E+03 -0.28415946385E+02 -0.55440520096E+03  0.67337123576E+03  0.00000000000E+00 0. -1.
</event>
<event>
 5    1  0.4419198E-005  0.3495064E+03  0.7818608E-02  0.1011052E+00
         21   -1    0    0  501  502  0.00000000000E+00  0.00000000000E+00  0.15901230429E+03  0.15901230429E+03  0.00000000000E+00 0. -1.
         -4   -1    0    0    0  501 -0.00000000000E+00 -0.00000000000E+00 -0.23398444961E+04  0.23398444961E+04  0.00000000000E+00 0. -1.
        -13    1    1    2    0    0  0.10593155788E+03  0.13061045741E+03 -0.12793670318E+03  0.21130167468E+03  0.10566000000E+00 0.  1.
         13    1    1    2    0    0  0.18200136585E+03 -0.33043706431E+03 -0.18382726937E+04  0.18765819082E+04  0.10566000000E+00 0. -1.
         -4    1    1    2    0  502 -0.28793292373E+03  0.19982660690E+03 -0.21462279490E+03  0.41097321748E+03  0.00000000000E+00 0. -1.
</event>
<event>
 5    1  0.4419198E-005  0.5856625E+03  0.7818608E-02  0.9307724E-01
         21   -1    0    0  501  502  0.00000000000E+00  0.00000000000E+00  0.15251731464E+04  0.15251731464E+04  0.00000000000E+00 0.  1.
          4   -1    0    0  502    0 -0.00000000000E+00 -0.00000000000E+00 -0.69182430245E+03  0.69182430245E+03  0.00000000000E+00 0.  1.
        -13    1    1    2    0    0 -0.68973835247E+03 -0.35673758941E+03  0.95453791333E+03  0.12305053197E+04  0.10566000000E+00 0.  1.
         13    1    1    2    0    0  0.37097868694E+03  0.42228988103E+03 -0.27589977931E+03  0.62615862940E+03  0.10566000000E+00 0. -1.
          4    1    1    2  501    0  0.31875966553E+03 -0.65552291621E+02  0.15471070994E+03  0.36033349980E+03  0.00000000000E+00 0.  1.
</event>
<event>
 5    1  0.4419198E-005  0.1913300E+03  0.7818608E-02  0.1066248E+00
         21   -1    0    0  501  502  0.00000000000E+00  0.00000000000E+00  0.14335751249E+04  0.14335751249E+04  0.00000000000E+00 0.  1.
          4   -1    0    0  502    0 -0.00000000000E+00 -0.00000000000E+00 -0.38517086322E+02  0.38517086322E+02  0.00000000000E+00 0.  1.
        -13    1    1    2    0    0 -0.14886152437E+03  0.17220118926E+03  0.59644337869E+03  0.63840247350E+03  0.10566000000E+00 0.  1.
         13    1    1    2    0    0  0.10495865593E+03 -0.12651807412E+03  0.44389678943E+03  0.47335770128E+03  0.10566000000E+00 0. -1.
          4    1    1    2  501    0  0.43902868443E+02 -0.45683115138E+02  0.35471787041E+03  0.36033203640E+03  0.00000000000E+00 0.  1.
</event>
<event>
 5    1  0.4419198E-005  0.3404323E+03  0.7818608E-02  0.9918888E-01
         21   -1    0    0  501  502  0.00000000000E+00  0.00000000000E+00  0.65810423849E+03  0.65810423849E+03  0.00000000000E+00 0. -1.
         -4   -1    0    0    0  501 -0.00000000000E+00 -0.00000000000E+00 -0.97862047819E+03  0.97862047819E+03  0.00000000000E+00 0. -1.
        -13    1    1    2    0    0 -0.32491700418E+03  0.46955583919E+02 -0.27213935857E+02  0.32941842076E+03  0.10566000000E+00 0.  1.
         13    1    1    2    0    0  0.34221648492E+03 -0.29670825832E+02 -0.76311299745E+03  0.83685956916E+03  0.10566000000E+00 0. -1.
         -4    1    1    2    0  502 -0.17299480744E+02 -0.17284758086E+02  0.46981069361E+03  0.47044672676E+03  0.00000000000E+00 0. -1.
</event>
<event>
 5    1  0.4419198E-005  0.1370107E+03  0.7818608E-02  0.1114679E+00
         21   -1    0    0  501  502  0.00000000000E+00  0.00000000000E+00  0.26046929144E+03  0.26046929144E+03  0.00000000000E+00 0.  1.
         -4   -1    0    0    0  501 -0.00000000000E+00 -0.00000000000E+00 -0.10212404144E+03  0.10212404144E+03  0.00000000000E+00 0. -1.
        -13    1    1    2    0    0  0.32508638307E+02  0.13649666550E+03  0.13156099131E+03  0.19234463044E+03  0.10566000000E+00 0.  1.
         13    1    1    2    0    0 -0.40737197394E+02 -0.12952883426E+03 -0.58192901033E+01  0.13590847456E+03  0.10566000000E+00 0. -1.
         -4    1    1    2    0  502  0.82285590872E+01 -0.69678312488E+01  0.32603548797E+02  0.34340227884E+02  0.00000000000E+00 0. -1.
</event>
<event>
 5    1  0.4419198E-005  0.3002532E+03  0.7818608E-02  0.1007201E+00
         21   -1    0    0  501  502  0.00000000000E+00  0.00000000000E+00  0.16189123477E+03  0.16189123477E+03  0.00000000000E+00 0. -1.
         -4   -1    0    0    0  501 -0.00000000000E+00 -0.00000000000E+00 -0.27558588775E+04  0.27558588775E+04  0.00000000000E+00 0. -1.
        -13    1    1    2    0    0 -0.15172007423E+03 -0.18264504975E+03 -0.95124575995E+03  0.98043189570E+03  0.10566000000E+00 0.  1.
         13    1    1    2    0    0  0.14350434245E+03  0.41318089815E+03 -0.16495307346E+04  0.17065355567E+04  0.10566000000E+00 0. -1.
         -4    1    1    2    0  502  0.82157317786E+01 -0.23053584841E+03  0.68088517450E+01  0.23078265990E+03  0.00000000000E+00 0. -1.
</event>
<event>
 5    1  0.4419198E-005  0.1592804E+03  0.7818608E-02  0.1124482E+00
         -4   -1    0    0    0  501 -0.00000000000E+00  0.00000000000E+00  0.45714950277E+03  0.45714950277E+03  0.00000000000E+00 0. -1.
         21   -1    0    0  501  502  0.00000000000E+00 -0.00000000000E+00 -0.15226764431E+03  0.15226764431E+03  0.00000000000E+00 0. -1.
        -13    1    1    2    0    0  0.63184636931E+02  0.23698290945E+02  0.13048544348E+03  0.14690258494E+03  0.10566000000E+00 0.  1.
         13    1    1    2    0    0 -0.17187324116E+02 -0.17498958534E+03  0.23471558835E+03  0.29327150844E+03  0.10566000000E+00 0. -1.
         -4    1    1    2    0  502 -0.45997312814E+02  0.15129129439E+03 -0.60319173370E+02  0.16924305369E+03  0.00000000000E+00 0. -1.
</event>
<event>
 5    1  0.4419198E-005  0.1805898E+03  0.7818608E-02  0.1074324E+00
          4   -1    0    0  502    0 -0.00000000000E+00  0.00000000000E+00  0.51997311156E+03  0.51997311156E+03  0.00000000000E+00 0.  1.
         21   -1    0    0  501  502  0.00000000000E+00 -0.00000000000E+00 -0.36788109819E+03  0.36788109819E+03  0.00000000000E+00 0. -1.
        -13    1    1    2    0    0  0.68908484091E+02  0.16584185061E+03  0.46558508699E+03  0.49902042342E+03  0.10566000000E+00 0.  1.
         13    1    1    2    0    0 -0.84244707382E+02 -0.17767541291E+03 -0.22757554398E+03  0.30075964233E+03  0.10566000000E+00 0. -1.
          4    1    1    2  501    0  0.15336223291E+02  0.11833562297E+02 -0.85917529649E+02  0.88074144007E+02  0.00000000000E+00 0.  1.
</event>
<event>
 5    1  0.4419198E-005  0.4320176E+03  0.7818608E-02  0.9658488E-01
         21   -1    0    0  501  502  0.00000000000E+00  0.00000000000E+00  0.18336858094E+03  0.18336858094E+03  0.00000000000E+00 0. -1.
          4   -1    0    0  502    0 -0.00000000000E+00 -0.00000000000E+00 -0.29461610739E+04  0.29461610739E+04  0.00000000000E+00 0.  1.
        -13    1    1    2    0    0  0.37942078564E+03 -0.91547691297E+02 -0.64039564770E+03  0.74996513860E+03  0.10566000000E+00 0.  1.
         13    1    1    2    0    0  0.17791126617E+03  0.36501753854E+03 -0.51086028685E+03  0.65258598354E+03  0.10566000000E+00 0. -1.
          4    1    1    2  501    0 -0.55733205181E+03 -0.27346984724E+03 -0.16115365584E+04  0.17269785327E+04  0.00000000000E+00 0.  1.
</event>
<event>
 5    1  0.4419198E-005  0.1404452E+03  0.7818608E-02  0.1110937E+00
          4   -1    0    0  502    0 -0.00000000000E+00  0.00000000000E+00  0.65308435827E+02  0.65308435827E+02  0.00000000000E+00 0.  1.
         21   -1    0    0  501  502  0.00000000000E+00 -0.00000000000E+00 -0.42727138425E+03  0.42727138425E+03  0.00000000000E+00 0. -1.
        -13    1    1    2    0    0  0.76193516702E+02 -0.12073992500E+03 -0.54242268060E+02  0.15272791587E+03  0.10566000000E+00 0.  1.
         13    1    1    2    0    0 -0.75520970761E+02  0.11032272315E+03 -0.28871869792E+03  0.31817136571E+03  0.10566000000E+00 0. -1.
          4    1    1    2  501    0 -0.67254594071E+00  0.10417201859E+02 -0.19001982440E+02  0.21680538492E+02  0.00000000000E+00 0.  1.
</event>
<event>
 5    1  0.4419198E-005  0.3090814E+03  0.7818608E-02  0.1003626E+00
         21   -1    0    0  501  502  0.00000000000E+00  0.00000000000E+00  0.59902484448E+03  0.59902484448E+03  0.00000000000E+00 0. -1.
          4   -1    0    0  502    0 -0.00000000000E+00 -0.00000000000E+00 -0.28483231667E+03  0.28483231667E+03  0.00000000000E+00 0.  1.
        -13    1    1    2    0    0 -0.26036655567E+03  0.12009692311E+03  0.76743405873E+02  0.29682246506E+03  0.10566000000E+00 0.  1.
         13    1    1    2    0    0  0.27854526198E+03 -0.17538285907E+03 -0.13488539062E+02  0.32943673456E+03  0.10566000000E+00 0. -1.
          4    1    1    2  501    0 -0.18178706308E+02  0.55285935963E+02  0.25093766100E+03  0.25759796153E+03  0.00000000000E+00 0.  1.
</event>
<event>
 5    1  0.4419198E-005  0.3474260E+03  0.7818608E-02  0.1005316E+00
         -4   -1    0    0    0  501 -0.00000000000E+00  0.00000000000E+00  0.77507102680E+03  0.77507102680E+03  0.00000000000E+00 0. -1.
         21   -1    0    0  501  502  0.00000000000E+00 -0.00000000000E+00 -0.57652656495E+03  0.57652656495E+03  0.00000000000E+00 0. -1.
        -13    1    1    2    0    0 -0.18522530613E+03 -0.90151233395E+02  0.26370413819E+03  0.33462746835E+03  0.10566000000E+00 0.  1.
         13    1    1    2    0    0  0.18543902669E+03 -0.26910434941E+03  0.34263323941E+03  0.47350008596E+03  0.10566000000E+00 0. -1.
         -4    1    1    2    0  502 -0.21372055660E+00  0.35925558281E+03 -0.40779291575E+03  0.54347003743E+03  0.00000000000E+00 0. -1.
</event>
<event>
 5    1  0.4419198E-005  0.4008069E+02  0.7818608E-02  0.1338439E+00
         21   -1    0    0  501  502  0.00000000000E+00  0.00000000000E+00  0.34122587415E+02  0.34122587415E+02  0.00000000000E+00 0. -1.
          4   -1    0    0  502    0 -0.00000000000E+00 -0.00000000000E+00 -0.63678882549E+02  0.63678882549E+02  0.00000000000E+00 0.  1.
        -13    1    1    2    0    0  0.15097907296E+02 -0.42850998914E+02 -0.21363949593E+02  0.50205422206E+02  0.10566000000E+00 0.  1.
         13    1    1    2    0    0 -0.10399356102E+02  0.33708856272E+02 -0.10979819400E+02  0.36945922598E+02  0.10566000000E+00 0. -1.
          4    1    1    2  501    0 -0.46985511932E+01  0.91421426422E+01  0.27874738589E+01  0.10650125160E+02  0.00000000000E+00 0.  1.
</event>
<event>
 5    1  0.4419198E-005  0.1526682E+03  0.7818608E-02  0.1098510E+00
          4   -1    0    0  502    0 -0.00000000000E+00  0.00000000000E+00  0.20497277677E+03  0.20497277677E+03  0.00000000000E+00 0.  1.
         21   -1    0    0  501  502  0.00000000000E+00 -0.00000000000E+00 -0.20898379779E+03  0.20898379779E+03  0.00000000000E+00 0. -1.
        -13    1    1    2    0    0 -0.88325715053E+02 -0.12961056842E+03  0.12957965849E+03  0.20344834834E+03  0.10566000000E+00 0.  1.
         13    1    1    2    0    0  0.75672126531E+02  0.11522141169E+03 -0.94973139623E+02  0.16739818655E+03  0.10566000000E+00 0. -1.
          4    1    1    2  501    0  0.12653588521E+02  0.14389156732E+02 -0.38617539885E+02  0.43110039674E+02  0.00000000000E+00 0.  1.
</event>
<event>
 5    1  0.4419198E-005  0.3802629E+03  0.7818608E-02  0.1015178E+00
         21   -1    0    0  501  502  0.00000000000E+00  0.00000000000E+00  0.60086964603E+03  0.60086964603E+03  0.00000000000E+00 0.  1.
          4   -1    0    0  502    0 -0.00000000000E+00 -0.00000000000E+00 -0.61145004792E+03  0.61145004792E+03  0.00000000000E+00 0.  1.
        -13    1    1    2    0    0 -0.84366172851E+02 -0.39764994978E+03 -0.24093176558E+03  0.47253704670E+03  0.10566000000E+00 0.  1.
         13    1    1    2    0    0  0.11246976598E+03  0.21216669265E+02 -0.16002925514E+03  0.19674595035E+03  0.10566000000E+00 0. -1.
          4    1    1    2  501    0 -0.28103593132E+02  0.37643328051E+03  0.39038061882E+03  0.54303669689E+03  0.00000000000E+00 0.  1.
</event>
<event>
 5    1  0.6304059E-005  0.2787976E+03  0.7818608E-02  0.1040745E+00
          4   -1    0    0  502    0 -0.00000000000E+00  0.00000000000E+00  0.20159096757E+04  0.20159096757E+04  0.00000000000E+00 0.  1.
         21   -1    0    0  501  502  0.00000000000E+00 -0.00000000000E+00 -0.16526830872E+03  0.16526830872E+03  0.00000000000E+00 0.  1.
        -13    1    1    2    0    0  0.17066309745E+03 -0.21821816251E+03  0.14936275211E+04  0.15191011297E+04  0.10566000000E+00 0.  1.
         13    1    1    2    0    0 -0.11769742816E+03 -0.58348948184E+02  0.35708613940E+03  0.38048364809E+03  0.10566000000E+00 0. -1.
          4    1    1    2  501    0 -0.52965669298E+02  0.27656711070E+03 -0.72293431079E-01  0.28159320672E+03  0.00000000000E+00 0.  1.
</event>
<event>
 5    1  0.4419198E-005  0.3878398E+03  0.7818608E-02  0.1009675E+00
         21   -1    0    0  501  502  0.00000000000E+00  0.00000000000E+00  0.14960454498E+03  0.14960454498E+03  0.00000000000E+00 0.  1.
          4   -1    0    0  502    0 -0.00000000000E+00 -0.00000000000E+00 -0.25106193510E+04  0.25106193510E+04  0.00000000000E+00 0.  1.
        -13    1    1    2    0    0  0.15990888587E+03 -0.32741874478E+03 -0.22422603188E+03  0.42784484425E+03  0.10566000000E+00 0.  1.
         13    1    1    2    0    0  0.29337499140E+02 -0.12524521194E+03 -0.75937593131E+03  0.77019404580E+03  0.10566000000E+00 0. -1.
          4    1    1    2  501    0 -0.18924638501E+03  0.45266395672E+03 -0.13774128428E+04  0.14621850059E+04  0.00000000000E+00 0.  1.
</event>
<event>
 5    1  0.4419198E-005  0.4561708E+03  0.7818608E-02  0.9584790E-01
         -4   -1    0    0    0  501 -0.00000000000E+00  0.00000000000E+00  0.18338325849E+04  0.18338325849E+04  0.00000000000E+00 0. -1.
         21   -1    0    0  501  502  0.00000000000E+00 -0.00000000000E+00 -0.30705617804E+03  0.30705617804E+03  0.00000000000E+00 0. -1.
        -13    1    1    2    0    0  0.43293202910E+03  0.11431824100E+03  0.39325391792E+03  0.59594249485E+03  0.10566000000E+00 0.  1.
         13    1    1    2    0    0 -0.18808324123E+03  0.37455233154E+03  0.80367182424E+03  0.90639570108E+03  0.10566000000E+00 0. -1.
         -4    1    1    2    0  502 -0.24484878787E+03 -0.48887057254E+03  0.32985066466E+03  0.63855056698E+03  0.00000000000E+00 0. -1.
</event>
<event>
 5    1  0.4419198E-005  0.1485367E+03  0.7818608E-02  0.1102564E+00
         21   -1    0    0  501  502  0.00000000000E+00  0.00000000000E+00  0.67951650653E+03  0.67951650653E+03  0.00000000000E+00 0. -1.
          4   -1    0    0  502    0 -0.00000000000E+00 -0.00000000000E+00 -0.36242702218E+03  0.36242702218E+03  0.00000000000E+00 0.  1.
        -13    1    1    2    0    0  0.68427509848E+02  0.13181825842E+03 -0.33469140453E+03  0.36616488743E+03  0.10566000000E+00 0.  1.
         13    1    1    2    0    0 -0.91748233131E+02 -0.12027027645E+03  0.52521814532E+03  0.54656819247E+03  0.10566000000E+00 0. -1.
          4    1    1    2  501    0  0.23320723284E+02 -0.11547981969E+02  0.12656274357E+03  0.12921044881E+03  0.00000000000E+00 0.  1.
</event>
<event>
 5    1  0.4419198E-005  0.4635808E+03  0.7818608E-02  0.1012683E+00
         21   -1    0    0  501  502  0.00000000000E+00  0.00000000000E+00  0.66099918752E+03  0.66099918752E+03  0.00000000000E+00 0. -1.
         -4   -1    0    0    0  501 -0.00000000000E+00 -0.00000000000E+00 -0.44712145370E+03  0.44712145370E+03  0.00000000000E+00 0. -1.
        -13    1    1    2    0    0 -0.67551188080E+02  0.10745775550E+02 -0.40445051259E+02  0.79463501298E+02  0.10566000000E+00 0.  1.
         13    1    1    2    0    0  0.49875370625E+03 -0.10683967441E+03 -0.16748027110E+02  0.51034349521E+03  0.10566000000E+00 0. -1.
         -4    1    1    2    0  502 -0.43120251817E+03  0.96093898860E+02  0.27107081219E+03  0.51831364471E+03  0.00000000000E+00 0. -1.
</event>
<event>
 5    1  0.4419198E-005  0.1951993E+03  0.7818608E-02  0.1063478E+00
         21   -1    0    0  501  502  0.00000000000E+00  0.00000000000E+00  0.10730816631E+04  0.10730816631E+04  0.00000000000E+00 0. -1.
         -4   -1    0    0    0  501 -0.00000000000E+00 -0.00000000000E+00 -0.37561974075E+03  0.37561974075E+03  0.00000000000E+00 0. -1.
        -13    1    1    2    0    0  0.58749624220E+02  0.14312862283E+03  0.18354328444E+03  0.24005305548E+03  0.10566000000E+00 0.  1.
         13    1    1    2    0    0 -0.16804190352E+03 -0.11612200172E+03 -0.31319047722E+03  0.37391267270E+03  0.10566000000E+00 0. -1.
         -4    1    1    2    0  502  0.10929227930E+03 -0.27006621106E+02  0.82710911510E+03  0.83473567564E+03  0.00000000000E+00 0. -1.
</event>
<event>
 5    1  0.4419198E-005  0.4268425E+03  0.7818608E-02  0.9676229E-01
         -4   -1    0    0    0  501 -0.00000000000E+00  0.00000000000E+00  0.63754189548E+03  0.63754189548E+03  0.00000000000E+00 0. -1.
         21   -1    0    0  501  502  0.00000000000E+00 -0.00000000000E+00 -0.12160566534E+04  0.12160566534E+04  0.00000000000E+00 0. -1.
        -13    1    1    2    0    0 -0.37822810333E+03 -0.23133295019E+03  0.23857003113E+03  0.50347502710E+03  0.10566000000E+00 0.  1.
         13    1    1    2    0    0  0.17006996902E+02 -0.12693025366E+03  0.18575032418E+03  0.22561853056E+03  0.10566000000E+00 0. -1.
         -4    1    1    2    0  502  0.36122110643E+03  0.35826320385E+03 -0.10028351132E+04  0.11245049912E+04  0.00000000000E+00 0. -1.
</event>
<event>
 5    1  0.4419198E-005  0.3023283E+03  0.7818608E-02  0.1032126E+00
         -4   -1    0    0    0  501 -0.00000000000E+00  0.00000000000E+00  0.10774565022E+04  0.10774565022E+04  0.00000000000E+00 0. -1.
         21   -1    0    0  501  502  0.00000000000E+00 -0.00000000000E+00 -0.31333691203E+03  0.31333691203E+03  0.00000000000E+00 0. -1.
        -13    1    1    2    0    0  0.63627562583E+02  0.11793753297E+03  0.31816477854E+02  0.13773172412E+03  0.10566000000E+00 0.  1.
         13    1    1    2    0    0  0.42785416979E+02 -0.39144099930E+03  0.85006637067E+03  0.93684016435E+03  0.10566000000E+00 0. -1.
         -4    1    1    2    0  502 -0.10641297956E+03  0.27350346633E+03 -0.11776325837E+03  0.31622152573E+03  0.00000000000E+00 0. -1.
</event>
<event>
 5    1  0.4419198E-005  0.3569899E+03  0.7818608E-02  0.9862214E-01
          4   -1    0    0  502    0 -0.00000000000E+00  0.00000000000E+00  0.32605207935E+03  0.32605207935E+03  0.00000000000E+00 0.  1.
         21   -1    0    0  501  502  0.00000000000E+00 -0.00000000000E+00 -0.10970197002E+04  0.10970197002E+04  0.00000000000E+00 0.  1.
        -13    1    1    2    0    0 -0.19584461878E+03 -0.51690302421E+03 -0.62890592947E+03  0.83729715778E+03  0.10566000000E+00 0.  1.
         13    1    1    2    0    0  0.46033620878E+02  0.30474300040E+03 -0.66620928667E+02  0.31531848954E+03  0.10566000000E+00 0. -1.
          4    1    1    2  501    0  0.14981099790E+03  0.21216002381E+03 -0.75440762758E+02  0.27045613227E+03  0.00000000000E+00 0.  1.
</event>
<event>
 5    1  0.4419198E-005  0.1903247E+03  0.7818608E-02  0.1066979E+00
         21   -1    0    0  501  502  0.00000000000E+00  0.00000000000E+00  0.50560792069E+02  0.50560792069E+02  0.00000000000E+00 0.  1.
         -4   -1    0    0    0  501 -0.00000000000E+00 -0.00000000000E+00 -0.14489039602E+04  0.14489039602E+04  0.00000000000E+00 0. -1.
        -13    1    1    2    0    0  0.12236450490E+03 -0.15691278085E+03 -0.33168447815E+03  0.38679361042E+03  0.10566000000E+00 0.  1.
         13    1    1    2    0    0 -0.11647852701E+03  0.14728696039E+03 -0.10794233738E+04  0.10956347599E+04  0.10566000000E+00 0. -1.
         -4    1    1    2    0  502 -0.58859778885E+01  0.96258204546E+01  0.12764683868E+02  0.17036381933E+02  0.00000000000E+00 0. -1.
</event>
<event>
 5    1  0.4419198E-005  0.4987650E+03  0.7818608E-02  0.9723219E-01
         21   -1    0    0  501  502  0.00000000000E+00  0.00000000000E+00  0.44627861909E+03  0.44627861909E+03  0.00000000000E+00 0. -1.
         -4   -1    0    0    0  501 -0.00000000000E+00 -0.00000000000E+00 -0.11114420304E+04  0.11114420304E+04  0.00000000000E+00 0. -1.
        -13    1    1    2    0    0 -0.87243265305E+02  0.19160580201E+03 -0.43668194478E+03  0.48478376908E+03  0.10566000000E+00 0.  1.
         13    1    1    2    0    0 -0.43759303940E+03 -0.20290543798E+03 -0.25826036923E+03  0.54713500562E+03  0.10566000000E+00 0. -1.
         -4    1    1    2    0  502  0.52483630470E+03  0.11299635962E+02  0.29778902682E+02  0.52580187481E+03  0.00000000000E+00 0. -1.
</event>
<event>
 5    1  0.4419198E-005  0.5487307E+03  0.7818608E-02  0.9377116E-01
         21   -1    0    0  501  502  0.00000000000E+00  0.00000000000E+00  0.13892075095E+04  0.13892075095E+04  0.00000000000E+00 0.  1.
          4   -1    0    0  502    0 -0.00000000000E+00 -0.00000000000E+00 -0.18997126935E+04  0.18997126935E+04  0.00000000000E+00 0.  1.
        -13    1    1    2    0    0  0.42131806541E+03  0.35119236030E+03 -0.14032445396E+04  0.15066320836E+04  0.10566000000E+00 0.  1.
         13    1    1    2    0    0 -0.41161349595E+03 -0.36433405040E+03 -0.27485369968E+03  0.61458078210E+03  0.10566000000E+00 0. -1.
          4    1    1    2  501    0 -0.97045694526E+01  0.13141690098E+02  0.11675930553E+04  0.11677073373E+04  0.00000000000E+00 0.  1.
</event>
<event>
 5    1  0.4419198E-005  0.4907149E+03  0.7818608E-02  0.9850064E-01
         21   -1    0    0  501  502  0.00000000000E+00  0.00000000000E+00  0.17990392920E+04  0.17990392920E+04  0.00000000000E+00 0. -1.
         -4   -1    0    0    0  501 -0.00000000000E+00 -0.00000000000E+00 -0.31110410710E+03  0.31110410710E+03  0.00000000000E+00 0. -1.
        -13    1    1    2    0    0  0.11178110915E+03 -0.89507597038E+02 -0.13066131529E+03  0.19385308037E+03  0.10566000000E+00 0.  1.
         13    1    1    2    0    0  0.23007059315E+03  0.44194567871E+03  0.10684084948E+04  0.11788745411E+04  0.10566000000E+00 0. -1.
         -4    1    1    2    0  502 -0.34185170230E+03 -0.35243808167E+03  0.55018800534E+03  0.73741577756E+03  0.00000000000E+00 0. -1.
</event>
<event>
 5    1  0.4419198E-005  0.3140608E+03  0.7818608E-02  0.1001664E+00
         21   -1    0    0  501  502  0.00000000000E+00  0.00000000000E+00  0.36709033330E+03  0.36709033330E+03  0.00000000000E+00 0. -1.
          4   -1    0    0  502    0 -0.00000000000E+00 -0.00000000000E+00 -0.12371908454E+04  0.12371908454E+04  0.00000000000E+00 0.  1.
        -13    1    1    2    0    0  0.51274990379E+03  0.16041433948E+03  0.35826818130E+02  0.53845036559E+03  0.10566000000E+00 0.  1.
         13    1    1    2    0    0 -0.24822915705E+03 -0.11933940464E+03 -0.32373982362E+03  0.42504951767E+03  0.10566000000E+00 0. -1.
          4    1    1    2  501    0 -0.26452074674E+03 -0.41074934835E+02 -0.58218750657E+03  0.64078129540E+03  0.00000000000E+00 0.  1.
</event>
<event>
 5    1  0.4419198E-005  0.4921319E+03  0.7818608E-02  0.9872937E-01
          4   -1    0    0  502    0 -0.00000000000E+00  0.00000000000E+00  0.33703361136E+03  0.33703361136E+03  0.00000000000E+00 0.  1.
         21   -1    0    0  501  502  0.00000000000E+00 -0.00000000000E+00 -0.11693750495E+04  0.11693750495E+04  0.00000000000E+00 0.  1.
        -13    1    1    2    0    0 -0.52271341697E+03 -0.10311573649E+03 -0.73026888209E+03  0.90396616237E+03  0.10566000000E+00 0.  1.
         13    1    1    2    0    0  0.12273425116E+03 -0.47014017885E+02  0.61327451581E+02  0.14503476055E+03  0.10566000000E+00 0. -1.
          4    1    1    2  501    0  0.39997916580E+03  0.15012975437E+03 -0.16340000760E+03  0.45740773792E+03  0.00000000000E+00 0.  1.
</event>
<event>
 5    1  0.4419198E-005  0.4004534E+03  0.7818608E-02  0.1010115E+00
         21   -1    0    0  501  502  0.00000000000E+00  0.00000000000E+00  0.20106187509E+03  0.20106187509E+03  0.00000000000E+00 0. -1.
         -4   -1    0    0    0  501 -0.00000000000E+00 -0.00000000000E+00 -0.16332650831E+04  0.16332650831E+04  0.00000000000E+00 0. -1.
        -13    1    1    2    0    0  0.11506401590E+03  0.59602220775E+01 -0.69832503757E+02  0.13472877105E+03  0.10566000000E+00 0.  1.
         13    1    1    2    0    0  0.25726425441E+03  0.19010466508E+03 -0.12107899152E+04  0.12523325877E+04  0.10566000000E+00 0. -1.
         -4    1    1    2    0  502 -0.37232827032E+03 -0.19606488716E+03 -0.15158078907E+03  0.44726559947E+03  0.00000000000E+00 0. -1.
</event>
<event>
 5    1  0.4419198E-005  0.4846024E+03  0.7818608E-02  0.9695036E-01
         -4   -1    0    0    0  501 -0.00000000000E+00  0.00000000000E+00  0.19484790310E+04  0.19484790310E+04  0.00000000000E+00 0. -1.
         21   -1    0    0  501  502  0.00000000000E+00 -0.00000000000E+00 -0.52195115260E+03  0.52195115260E+03  0.00000000000E+00 0. -1.
        -13    1    1    2    0    0  0.18124094443E+03  0.17675630445E+03  0.14061017273E+04  0.14287103100E+04  0.10566000000E+00 0.  1.
         13    1    1    2    0    0 -0.12618115125E+03  0.37117638728E+03  0.22763614986E+03  0.45333411662E+03  0.10566000000E+00 0. -1.
         -4    1    1    2    0  502 -0.55059793176E+02 -0.54793269174E+03 -0.20720999874E+03  0.58838575703E+03  0.00000000000E+00 0. -1.
</event>
<event>
 5    1  0.4419198E-005  0.3554621E+03  0.7818608E-02  0.9867305E-01
         21   -1    0    0  501  502  0.00000000000E+00  0.00000000000E+00  0.20075417842E+04  0.20075417842E+04  0.00000000000E+00 0. -1.
         -4   -1    0    0    0  501 -0.00000000000E+00 -0.00000000000E+00 -0.32615813047E+03  0.32615813047E+03  0.00000000000E+00 0. -1.
        -13    1    1    2    0    0  0.22052740644E+03 -0.28682929050E+03  0.85680359460E+01  0.36190717219E+03  0.10566000000E+00 0.  1.
         13    1    1    2    0    0 -0.17591561700E+03  0.30255579536E+03  0.56174820996E+02  0.35446006162E+03  0.10566000000E+00 0. -1.
         -4    1    1    2    0  502 -0.44611789444E+02 -0.15726504860E+02  0.16166407967E+04  0.16173326808E+04  0.00000000000E+00 0. -1.
</event>
<event>
 5    1  0.4419198E-005  0.3879112E+03  0.7818608E-02  0.9764622E-01
          4   -1    0    0  502    0 -0.00000000000E+00  0.00000000000E+00  0.21570012854E+04  0.21570012854E+04  0.00000000000E+00 0.  1.
         21   -1    0    0  501  502  0.00000000000E+00 -0.00000000000E+00 -0.33459397993E+03  0.33459397993E+03  0.00000000000E+00 0.  1.
        -13    1    1    2    0    0 -0.18566035613E+03  0.55816099243E+01 -0.24850001386E+03  0.31024698268E+03  0.10566000000E+00 0.  1.
         13    1    1    2    0    0  0.36556209296E+03 -0.20014743154E+03  0.11557514039E+04  0.12285991848E+04  0.10566000000E+00 0. -1.
          4    1    1    2  501    0 -0.17990173684E+03  0.19456582161E+03  0.91515591543E+03  0.95274909782E+03  0.00000000000E+00 0.  1.
</event>
<event>
 5    1  0.4419198E-005  0.5724727E+03  0.7818608E-02  0.9331870E-01
          4   -1    0    0  502    0 -0.00000000000E+00  0.00000000000E+00  0.15655325959E+04  0.15655325959E+04  0.00000000000E+00 0.  1.
         21   -1    0    0  501  502  0.00000000000E+00 -0.00000000000E+00 -0.52469637001E+03  0.52469637001E+03  0.00000000000E+00 0.  1.
        -13    1    1    2    0    0 -0.58002567194E+03 -0.20125964602E+03  0.17710624485E+03  0.63898502201E+03  0.10566000000E+00 0.  1.
         13    1    1    2    0    0  0.29188871088E+03  0.54078956677E+03  0.18924114236E+03  0.64301212756E+03  0.10566000000E+00 0. -1.
          4    1    1    2  501    0  0.28813696106E+03 -0.33952992076E+03  0.67448883871E+03  0.80823181635E+03  0.00000000000E+00 0.  1.
</event>
<event>
 5    1  0.4419198E-005  0.2084643E+03  0.7818608E-02  0.1054483E+00
         21   -1    0    0  501  502  0.00000000000E+00  0.00000000000E+00  0.26478285646E+03  0.26478285646E+03  0.00000000000E+00 0.  1.
         -4   -1    0    0    0  501 -0.00000000000E+00 -0.00000000000E+00 -0.21604747678E+03  0.21604747678E+03  0.00000000000E+00 0. -1.
        -13    1    1    2    0    0 -0.19891230246E+03  0.16078005051E+02  0.11354992706E+03  0.22960444990E+03  0.10566000000E+00 0.  1.
         13    1    1    2    0    0  0.20946694599E+03 -0.36427281425E+02 -0.75913097817E+02  0.22575685566E+03  0.10566000000E+00 0. -1.
         -4    1    1    2    0  502 -0.10554643528E+02  0.20349276373E+02  0.11098550441E+02  0.25469027677E+02  0.00000000000E+00 0. -1.
</event>
<event>
 5    1  0.4419198E-005  0.1247059E+03  0.7818608E-02  0.1129130E+00
         21   -1    0    0  501  502  0.00000000000E+00  0.00000000000E+00  0.23456340675E+03  0.23456340675E+03  0.00000000000E+00 0.  1.
          4   -1    0    0  502    0 -0.00000000000E+00 -0.00000000000E+00 -0.23528832786E+03  0.23528832786E+03  0.00000000000E+00 0.  1.
        -13    1    1    2    0    0 -0.10389588233E+03 -0.66930510085E+02 -0.17135750958E+03  0.21127577902E+03  0.10566000000E+00 0.  1.
         13    1    1    2    0    0  0.12382333443E+03  0.48000768907E+02  0.62075681677E+02  0.14659363350E+03  0.10566000000E+00 0. -1.
          4    1    1    2  501    0 -0.19927452092E+02  0.18929741178E+02  0.10855690679E+03  0.11198232209E+03  0.00000000000E+00 0.  1.
</event>
<event>
 5    1  0.4419198E-005  0.1359585E+03  0.7818608E-02  0.1139555E+00
          4   -1    0    0  502    0 -0.00000000000E+00  0.00000000000E+00  0.10530493927E+04  0.10530493927E+04  0.00000000000E+00 0.  1.
         21   -1    0    0  501  502  0.00000000000E+00 -0.00000000000E+00 -0.62478128130E+03  0.62478128130E+03  0.00000000000E+00 0.  1.
        -13    1    1    2    0    0  0.50709328716E+02 -0.84650537369E+02 -0.56421161611E+03  0.57277561786E+03  0.10566000000E+00 0.  1.
         13    1    1    2    0    0 -0.14410722869E+02 -0.18399404445E+03  0.60233749126E+03  0.62997773125E+03  0.10566000000E+00 0. -1.
          4    1    1    2  501    0 -0.36298605848E+02  0.26864458182E+03  0.39014223628E+03  0.47507732493E+03  0.00000000000E+00 0.  1.
</event>
<event>
 5    1  0.4419198E-005  0.3909099E+02  0.7818608E-02  0.1343926E+00
         21   -1    0    0  501  502  0.00000000000E+00  0.00000000000E+00  0.13839739487E+03  0.13839739487E+03  0.00000000000E+00 0. -1.
          4   -1    0    0  502    0 -0.00000000000E+00 -0.00000000000E+00 -0.13527938432E+03  0.13527938432E+03  0.00000000000E+00 0.  1.
        -13    1    1    2    0    0 -0.23428466308E+02  0.31791857161E+02 -0.12661124003E+03  0.13262741979E+03  0.10566000000E+00 0.  1.
         13    1    1    2    0    0  0.92835441988E+01 -0.32302699917E+02  0.51142647189E+02  0.61198285436E+02  0.10566000000E+00 0. -1.
          4    1    1    2  501    0  0.14144922109E+02  0.51084275694E+00  0.78586603389E+02  0.79851073969E+02  0.00000000000E+00 0.  1.
</event>
<event>
 5    1  0.4419198E-005  0.3515739E+03  0.7818608E-02  0.1023321E+00
         21   -1    0    0  501  502  0.00000000000E+00  0.00000000000E+00  0.63843441150E+03  0.63843441150E+03  0.00000000000E+00 0.  1.
          4   -1    0    0  502    0 -0.00000000000E+00 -0.00000000000E+00 -0.54326155355E+03  0.54326155355E+03  0.00000000000E+00 0.  1.
        -13    1    1    2    0    0  0.30854908425E+03 -0.70825553923E+02 -0.39173114987E+03  0.50365871522E+03  0.10566000000E+00 0.  1.
         13    1    1    2    0    0  0.49785365694E+02  0.10032317367E+03  0.12651517810E+03  0.16896574584E+03  0.10566000000E+00 0. -1.
          4    1    1    2  501    0 -0.35833444995E+03 -0.29497619746E+02  0.36038882971E+03  0.50907150398E+03  0.00000000000E+00 0.  1.
</event>
<event>
 5    1  0.4419198E-005  0.4829747E+03  0.7818608E-02  0.9783996E-01
         21   -1    0    0  501  502  0.00000000000E+00  0.00000000000E+00  0.38741375932E+03  0.38741375932E+03  0.00000000000E+00 0.  1.
          4   -1    0    0  502    0 -0.00000000000E+00 -0.00000000000E+00 -0.13680972213E+04  0.13680972213E+04  0.00000000000E+00 0.  1.
        -13    1    1    2    0    0 -0.30814528663E+03 -0.41534753363E+03 -0.32594760682E+02  0.51819834133E+03  0.10566000000E+00 0.  1.
         13    1    1    2    0    0  0.18681196689E+03 -0.21578160844E+02 -0.69081407880E+03  0.71595281313E+03  0.10566000000E+00 0. -1.
          4    1    1    2  501    0  0.12133331974E+03  0.43692569447E+03 -0.25727462253E+03  0.52135982619E+03  0.00000000000E+00 0.  1.
</event>
<event>
 5    1  0.4419198E-005  0.3277445E+02  0.7818608E-02  0.1383923E+00
         -4   -1    0    0    0  501 -0.00000000000E+00  0.00000000000E+00  0.13108575272E+03  0.13108575272E+03  0.00000000000E+00 0. -1.
         21   -1    0    0  501  502  0.00000000000E+00 -0.00000000000E+00 -0.63760287084E+02  0.63760287084E+02  0.00000000000E+00 0.  1.
        -13    1    1    2    0    0  0.35796925485E+02  0.39949798555E+01  0.15354147596E+02  0.39155341279E+02  0.10566000000E+00 0.  1.
         13    1    1    2    0    0 -0.26624233797E+02  0.21271024554E+02  0.97242579389E+02  0.10304094682E+03  0.10566000000E+00 0. -1.
         -4    1    1    2    0  502 -0.91726916878E+01 -0.25266004410E+02 -0.45271261344E+02  0.52649751712E+02  0.00000000000E+00 0. -1.
</event>
<event>
 5    1  0.4419198E-005  0.4894299E+03  0.7818608E-02  0.9586376E-01
         21   -1    0    0  501  502  0.00000000000E+00  0.00000000000E+00  0.25403560023E+03  0.25403560023E+03  0.00000000000E+00 0. -1.
         -4   -1    0    0    0  501 -0.00000000000E+00 -0.00000000000E+00 -0.20829093502E+04  0.20829093502E+04  0.00000000000E+00 0. -1.
        -13    1    1    2    0    0 -0.31478650649E+03  0.17570456109E+03 -0.29548339489E+03  0.46612561105E+03  0.10566000000E+00 0.  1.
         13    1    1    2    0    0  0.20234054351E+03 -0.59865621605E+03 -0.96422510064E+03  0.11528490866E+04  0.10566000000E+00 0. -1.
         -4    1    1    2    0  502  0.11244596298E+03  0.42295165496E+03 -0.56916525444E+03  0.71797025278E+03  0.00000000000E+00 0. -1.
</event>
<event>
 5    1  0.4419198E-005  0.4724449E+02  0.7818608E-02  0.1303433E+00
          4   -1    0    0  502    0 -0.00000000000E+00  0.00000000000E+00  0.23244269493E+03  0.23244269493E+03  0.00000000000E+00 0.  1.
         21   -1    0    0  501  502  0.00000000000E+00 -0.00000000000E+00 -0.30867115101E+02  0.30867115101E+02  0.00000000000E+00 0.  1.
        -13    1    1    2    0    0  0.52276905471E+02 -0.23045749814E+02  0.10392042523E+03  0.11858940667E+03  0.10566000000E+00 0.  1.
         13    1    1    2    0    0 -0.37473689337E+02  0.19410699610E+02  0.11448371672E+03  0.12201469259E+03  0.10566000000E+00 0. -1.
          4    1    1    2  501    0 -0.14803216134E+02  0.36350502035E+01 -0.16828562125E+02  0.22705710760E+02  0.00000000000E+00 0.  1.
</event>
<event>
 5    1  0.4419198E-005  0.2875684E+03  0.7818608E-02  0.1012764E+00
         21   -1    0    0  501  502  0.00000000000E+00  0.00000000000E+00  0.14082120290E+03  0.14082120290E+03  0.00000000000E+00 0.  1.
          4   -1    0    0  502    0 -0.00000000000E+00 -0.00000000000E+00 -0.24657321045E+04  0.24657321045E+04  0.00000000000E+00 0.  1.
        -13    1    1    2    0    0 -0.38552353167E+02 -0.38006654717E+03 -0.16478050870E+04  0.16915077534E+04  0.10566000000E+00 0.  1.
         13    1    1    2    0    0  0.23302158885E+03  0.16550317435E+03 -0.49906126268E+03  0.57511087337E+03  0.10566000000E+00 0. -1.
          4    1    1    2  501    0 -0.19446923568E+03  0.21456337281E+03 -0.17804455195E+03  0.33993468058E+03  0.00000000000E+00 0.  1.
</event>
<event>
 5    1  0.4419198E-005  0.4847122E+03  0.7818608E-02  0.9512124E-01
         21   -1    0    0  501  502  0.00000000000E+00  0.00000000000E+00  0.39819484852E+03  0.39819484852E+03  0.00000000000E+00 0. -1.
         -4   -1    0    0    0  501 -0.00000000000E+00 -0.00000000000E+00 -0.15933676772E+04  0.15933676772E+04  0.00000000000E+00 0. -1.
        -13    1    1    2    0    0  0.46452755610E+03  0.61806732685E+02 -0.51337493228E+03  0.69509693916E+03  0.10566000000E+00 0.  1.
         13    1    1    2    0    0 -0.50475460266E+03  0.39394730103E+03 -0.33697446551E+03  0.72354922877E+03  0.10566000000E+00 0. -1.
         -4    1    1    2    0  502  0.40227046561E+02 -0.45575403372E+03 -0.34482343092E+03  0.57291635780E+03  0.00000000000E+00 0. -1.
</event>
<event>
 5    1  0.4419198E-005  0.8971714E+02  0.7818608E-02  0.1182790E+00
          4   -1    0    0  502    0 -0.00000000000E+00  0.00000000000E+00  0.65599617636E+03  0.65599617636E+03  0.00000000000E+00 0.  1.
         21   -1    0    0  501  502  0.00000000000E+00 -0.00000000000E+00 -0.23534377439E+02  0.23534377439E+02  0.00000000000E+00 0. -1.
        -13    1    1    2    0    0  0.20531906747E+02  0.81055614007E+02  0.35479188661E+03  0.36451181837E+03  0.10566000000E+00 0.  1.
         13    1    1    2    0    0 -0.33432225001E+02 -0.95473087530E+02  0.27782895830E+03  0.29567171888E+03  0.10566000000E+00 0. -1.
          4    1    1    2  501    0  0.12900318254E+02  0.14417473522E+02 -0.15904599569E+00  0.19347016552E+02  0.00000000000E+00 0.  1.
</event>
<event>
 5    1  0.4419198E-005  0.2763391E+03  0.7818608E-02  0.1017580E+00
         21   -1    0    0  501  502  0.00000000000E+00  0.00000000000E+00  0.25472869760E+03  0.25472869760E+03  0.00000000000E+00 0. -1.
          4   -1    0    0  502    0 -0.00000000000E+00 -0.00000000000E+00 -0.80562098732E+03  0.80562098732E+03  0.00000000000E+00 0.  1.
        -13    1    1    2    0    0 -0.52316546789E+02 -0.27494932522E+03 -0.62485471720E+03  0.68467333911E+03  0.10566000000E+00 0.  1.
         13    1    1    2    0    0  0.51109228012E+02  0.25771251343E+03 -0.35267572090E+02  0.26508810908E+03  0.10566000000E+00 0. -1.
          4    1    1    2  501    0  0.12073187764E+01  0.17236811786E+02  0.10922999957E+03  0.11058823674E+03  0.00000000000E+00 0.  1.
</event>
<event>
 5    1  0.4419198E-005  0.2876455E+03  0.7818608E-02  0.1025018E+00
         21   -1    0    0  501  502  0.00000000000E+00  0.00000000000E+00  0.14291022739E+04  0.14291022739E+04  0.00000000000E+00 0. -1.
         -4   -1    0    0    0  501 -0.00000000000E+00 -0.00000000000E+00 -0.87946927391E+03  0.87946927391E+03  0.00000000000E+00 0. -1.
        -13    1    1    2    0    0  0.80235145527E+02 -0.17655455151E+03 -0.66071015730E+03  0.68858340915E+03  0.10566000000E+00 0.  1.
         13    1    1    2    0    0 -0.35301513638E+03  0.23153288470E+03  0.48103513349E+02  0.42490130898E+03  0.10566000000E+00 0. -1.
         -4    1    1    2    0  502  0.27277999085E+03 -0.54978333196E+02  0.11622396439E+04  0.11950868296E+04  0.00000000000E+00 0. -1.
</event>
<event>
 5    1  0.4419198E-005  0.6697889E+03  0.7818608E-02  0.9167994E-01
         -4   -1    0    0    0  501 -0.00000000000E+00  0.00000000000E+00  0.22520948953E+04  0.22520948953E+04  0.00000000000E+00 0. -1.
         21   -1    0    0  501  502  0.00000000000E+00 -0.00000000000E+00 -0.47097761071E+03  0.47097761071E+03  0.00000000000E+00 0. -1.
        -13    1    1    2    0    0  0.10883339246E+03  0.77572233849E+03  0.55404446148E+03  0.95945564264E+03  0.10566000000E+00 0.  1.
         13    1    1    2    0    0  0.42193021563E+03 -0.54153739247E+03  0.67647029147E+03  0.96379454279E+03  0.10566000000E+00 0. -1.
         -4    1    1    2    0  502 -0.53076360809E+03 -0.23418494602E+03  0.55060253160E+03  0.79982232052E+03  0.00000000000E+00 0. -1.
</event>
<event>
 5    1  0.4419198E-005  0.8748418E+02  0.7818608E-02  0.1187109E+00
          4   -1    0    0  502    0 -0.00000000000E+00  0.00000000000E+00  0.65938864423E+02  0.65938864423E+02  0.00000000000E+00 0.  1.
         21   -1    0    0  501  502  0.00000000000E+00 -0.00000000000E+00 -0.32973621161E+03  0.32973621161E+03  0.00000000000E+00 0. -1.
        -13    1    1    2    0    0 -0.61604097951E+02  0.63619100961E+02  0.26055639971E+02  0.92311225914E+02  0.10566000000E+00 0.  1.
         13    1    1    2    0    0  0.52157198559E+02 -0.59585372942E+02 -0.25270894992E+03  0.26482563049E+03  0.10566000000E+00 0. -1.
          4    1    1    2  501    0  0.94468993919E+01 -0.40337280195E+01 -0.37144037238E+02  0.38538219629E+02  0.00000000000E+00 0.  1.
</event>
<event>
 5    1  0.4419198E-005  0.4795979E+03  0.7818608E-02  0.9755697E-01
         -4   -1    0    0    0  501 -0.00000000000E+00  0.00000000000E+00  0.36588575037E+04  0.36588575037E+04  0.00000000000E+00 0. -1.
         21   -1    0    0  501  502  0.00000000000E+00 -0.00000000000E+00 -0.29166582914E+03  0.29166582914E+03  0.00000000000E+00 0. -1.
        -13    1    1    2    0    0  0.78306012834E+02 -0.72016127883E+03  0.18853075557E+04  0.20196902460E+04  0.10566000000E+00 0.  1.
         13    1    1    2    0    0  0.28739402590E+03  0.97703804194E+02  0.10422897530E+04  0.10855916819E+04  0.10566000000E+00 0. -1.
         -4    1    1    2    0  502 -0.36570003874E+03  0.62245747463E+03  0.43959436587E+03  0.84524140491E+03  0.00000000000E+00 0. -1.
</event>
<event>
 5    1  0.4419198E-005  0.1316731E+03  0.7818608E-02  0.1120737E+00
          4   -1    0    0  502    0 -0.00000000000E+00  0.00000000000E+00  0.32893372235E+03  0.32893372235E+03  0.00000000000E+00 0.  1.
         21   -1    0    0  501  502  0.00000000000E+00 -0.00000000000E+00 -0.89543910947E+02  0.89543910947E+02  0.00000000000E+00 0. -1.
        -13    1    1    2    0    0  0.12789314490E+03  0.20306382268E+02  0.20873572998E+03  0.24564124615E+03  0.10566000000E+00 0.  1.
         13    1    1    2    0    0 -0.13650186904E+03 -0.14907106262E+02  0.53863341016E+02  0.14750000928E+03  0.10566000000E+00 0. -1.
          4    1    1    2  501    0  0.86087241383E+01 -0.53992760064E+01 -0.23209259595E+02  0.25336377871E+02  0.00000000000E+00 0.  1.
</event>
<event>
 5    1  0.4419198E-005  0.4857058E+03  0.7818608E-02  0.9788907E-01
         -4   -1    0    0    0  501 -0.00000000000E+00  0.00000000000E+00  0.13236758722E+04  0.13236758722E+04  0.00000000000E+00 0. -1.
         21   -1    0    0  501  502  0.00000000000E+00 -0.00000000000E+00 -0.28440951876E+03  0.28440951876E+03  0.00000000000E+00 0. -1.
        -13    1    1    2    0    0 -0.14902600935E+03  0.10415742762E+03  0.31048376112E+03  0.35980230443E+03  0.10566000000E+00 0.  1.
         13    1    1    2    0    0 -0.40117087387E+03 -0.19945676423E+03  0.25195766896E+03  0.51400753783E+03  0.10566000000E+00 0. -1.
         -4    1    1    2    0  502  0.55019688322E+03  0.95299336611E+02  0.47682492332E+03  0.73427554866E+03  0.00000000000E+00 0. -1.
</event>
<event>
 5    1  0.4419198E-005  0.1852369E+03  0.7818608E-02  0.1072344E+00
         21   -1    0    0  501  502  0.00000000000E+00  0.00000000000E+00  0.10608080753E+04  0.10608080753E+04  0.00000000000E+00 0.  1.
          4   -1    0    0  502    0 -0.00000000000E+00 -0.00000000000E+00 -0.41846646720E+03  0.41846646720E+03  0.00000000000E+00 0.  1.
        -13    1    1    2    0    0  0.20322131492E+03 -0.34046351618E+02 -0.22141936354E+03  0.30246421707E+03  0.10566000000E+00 0.  1.
         13    1    1    2    0    0 -0.11745526901E+03 -0.13245753809E+03 -0.94321545012E+02  0.20059238428E+03  0.10566000000E+00 0. -1.
          4    1    1    2  501    0 -0.85766045906E+02  0.16650388971E+03  0.95808251666E+03  0.97621794117E+03  0.00000000000E+00 0.  1.
</event>
<event>
 5    1  0.4419198E-005  0.2219286E+03  0.7818608E-02  0.1046061E+00
         21   -1    0    0  501  502  0.00000000000E+00  0.00000000000E+00  0.12506127942E+03  0.12506127942E+03  0.00000000000E+00 0.  1.
         -4   -1    0    0    0  501 -0.00000000000E+00 -0.00000000000E+00 -0.73331383912E+03  0.73331383912E+03  0.00000000000E+00 0. -1.
        -13    1    1    2    0    0  0.89748784522E+02 -0.20848041392E+03 -0.44698366081E+02  0.23133716175E+03  0.10566000000E+00 0.  1.
         13    1    1    2    0    0 -0.10573320761E+03  0.19403713136E+03 -0.56373137842E+03  0.60549401130E+03  0.10566000000E+00 0. -1.
         -4    1    1    2    0  502  0.15984423088E+02  0.14443282562E+02  0.17718480652E+00  0.21543945485E+02  0.00000000000E+00 0. -1.
</event>
<event>
 5    1  0.4419198E-005  0.2944748E+03  0.7818608E-02  0.1009613E+00
          4   -1    0    0  502    0 -0.00000000000E+00  0.00000000000E+00  0.29184414468E+04  0.29184414468E+04  0.00000000000E+00 0.  1.
         21   -1    0    0  501  502  0.00000000000E+00 -0.00000000000E+00 -0.13564882496E+03  0.13564882496E+03  0.00000000000E+00 0.  1.
        -13    1    1    2    0    0  0.36196931495E+03  0.24710050324E+03  0.34215122448E+03  0.55601071504E+03  0.10566000000E+00 0.  1.
         13    1    1    2    0    0 -0.27630118895E+03 -0.22723919456E+02  0.10072657968E+04  0.10447215515E+04  0.10566000000E+00 0. -1.
          4    1    1    2  501    0 -0.85668125999E+02 -0.22437658379E+03  0.14333756006E+04  0.14533580053E+04  0.00000000000E+00 0.  1.
</event>
<event>
 5    1  0.4419198E-005  0.3173161E+02  0.7818608E-02  0.1391521E+00
         21   -1    0    0  501  502  0.00000000000E+00  0.00000000000E+00  0.18994105791E+03  0.18994105791E+03  0.00000000000E+00 0. -1.
         -4   -1    0    0    0  501 -0.00000000000E+00 -0.00000000000E+00 -0.12204624231E+02  0.12204624231E+02  0.00000000000E+00 0. -1.
        -13    1    1    2    0    0 -0.13173834704E+02  0.25556423422E+02  0.30413611775E+02  0.41853072100E+02  0.10566000000E+00 0.  1.
         13    1    1    2    0    0  0.58273961001E+01 -0.42882999774E+02  0.11522768382E+03  0.12308671942E+03  0.10566000000E+00 0. -1.
         -4    1    1    2    0  502  0.73464386042E+01  0.17326576353E+02  0.32095138081E+02  0.37205890619E+02  0.00000000000E+00 0. -1.
</event>
<event>
 5    1  0.4419198E-005  0.1099106E+03  0.7818608E-02  0.1149124E+00
          4   -1    0    0  502    0 -0.00000000000E+00  0.00000000000E+00  0.31907977937E+03  0.31907977937E+03  0.00000000000E+00 0.  1.
         21   -1    0    0  501  502  0.00000000000E+00 -0.00000000000E+00 -0.14424484191E+03  0.14424484191E+03  0.00000000000E+00 0.  1.
        -13    1    1    2    0    0  0.74517694504E+02  0.12489690708E+03  0.10400607658E+03  0.17879988625E+03  0.10566000000E+00 0.  1.
         13    1    1    2    0    0 -0.76055792423E+02 -0.62296604214E+02  0.15260240831E+03  0.18152921705E+03  0.10566000000E+00 0. -1.
          4    1    1    2  501    0  0.15380979192E+01 -0.62600302866E+02 -0.81773547437E+02  0.10299551798E+03  0.00000000000E+00 0.  1.
</event>
<event>
 5    1  0.4419198E-005  0.4336615E+03  0.7818608E-02  0.9636583E-01
         21   -1    0    0  501  502  0.00000000000E+00  0.00000000000E+00  0.52994013454E+03  0.52994013454E+03  0.00000000000E+00 0.  1.
          4   -1    0    0  502    0 -0.00000000000E+00 -0.00000000000E+00 -0.15649946925E+04  0.15649946925E+04  0.00000000000E+00 0.  1.
        -13    1    1    2    0    0  0.40303243255E+03 -0.47229247762E+03 -0.38091008823E+03  0.72841460212E+03  0.10566000000E+00 0.  1.
         13    1    1    2    0    0 -0.35375018052E+03  0.18000192096E+03 -0.89856786648E+03  0.98232586426E+03  0.10566000000E+00 0. -1.
          4    1    1    2  501    0 -0.49282252029E+02  0.29229055666E+03  0.24442339675E+03  0.38419436065E+03  0.00000000000E+00 0.  1.
</event>
<event>
 5    1  0.4419198E-005  0.3434805E+03  0.7818608E-02  0.1012140E+00
         21   -1    0    0  501  502  0.00000000000E+00  0.00000000000E+00  0.16291878954E+04  0.16291878954E+04  0.00000000000E+00 0. -1.
         -4   -1    0    0    0  501 -0.00000000000E+00 -0.00000000000E+00 -0.24757782793E+03  0.24757782793E+03  0.00000000000E+00 0. -1.
        -13    1    1    2    0    0 -0.13093120810E+03  0.11015648920E+03  0.83142147464E+02  0.19023685557E+03  0.10566000000E+00 0.  1.
         13    1    1    2    0    0  0.49914392150E+02  0.24008004201E+03 -0.83135399741E+02  0.25892350023E+03  0.10566000000E+00 0. -1.
         -4    1    1    2    0  502  0.81016815950E+02 -0.35023653121E+03  0.13816033197E+04  0.14276053675E+04  0.00000000000E+00 0. -1.
</event>
<event>
 5    1  0.4419198E-005  0.3898113E+03  0.7818608E-02  0.9758941E-01
          4   -1    0    0  502    0 -0.00000000000E+00  0.00000000000E+00  0.98972351923E+03  0.98972351923E+03  0.00000000000E+00 0.  1.
         21   -1    0    0  501  502  0.00000000000E+00 -0.00000000000E+00 -0.23017300661E+03  0.23017300661E+03  0.00000000000E+00 0. -1.
        -13    1    1    2    0    0  0.40322489311E+03  0.13192778130E+03  0.40612588298E+03  0.58731039315E+03  0.10566000000E+00 0.  1.
         13    1    1    2    0    0 -0.31230724278E+03 -0.13589090175E+03  0.87686544733E+02  0.35169744435E+03  0.10566000000E+00 0. -1.
          4    1    1    2  501    0 -0.90917650336E+02  0.39631204467E+01  0.26573808491E+03  0.28088868834E+03  0.00000000000E+00 0.  1.
</event>
<event>
 5    1  0.4419198E-005  0.4332078E+02  0.7818608E-02  0.1321662E+00
          4   -1    0    0  502    0 -0.00000000000E+00  0.00000000000E+00  0.83259366737E+02  0.83259366737E+02  0.00000000000E+00 0.  1.
         21   -1    0    0  501  502  0.00000000000E+00 -0.00000000000E+00 -0.19008775277E+03  0.19008775277E+03  0.00000000000E+00 0. -1.
        -13    1    1    2    0    0  0.38979015072E+02  0.19111858528E+02  0.73506483921E+02  0.85368853189E+02  0.10566000000E+00 0.  1.
         13    1    1    2    0    0 -0.32322818356E+02 -0.27366025003E+02 -0.13933257853E+03  0.14562706656E+03  0.10566000000E+00 0. -1.
          4    1    1    2  501    0 -0.66561967158E+01  0.82541664755E+01 -0.41002291433E+02  0.42351199767E+02  0.00000000000E+00 0.  1.
</event>
<event>
 5    1  0.4419198E-005  0.5051519E+03  0.7818608E-02  0.9587935E-01
         21   -1    0    0  501  502  0.00000000000E+00  0.00000000000E+00  0.57507053593E+03  0.57507053593E+03  0.00000000000E+00 0. -1.
         -4   -1    0    0    0  501 -0.00000000000E+00 -0.00000000000E+00 -0.89808479155E+03  0.89808479155E+03  0.00000000000E+00 0. -1.
        -13    1    1    2    0    0 -0.22553314901E+03 -0.23547949680E+03 -0.23090447574E+03  0.39954058968E+03  0.10566000000E+00 0.  1.
         13    1    1    2    0    0 -0.36858942627E+03  0.22938626479E+03 -0.18560489606E+03  0.47214977733E+03  0.10566000000E+00 0. -1.
         -4    1    1    2    0  502  0.59412257527E+03  0.60932320148E+01  0.93495116185E+02  0.60146496047E+03  0.00000000000E+00 0. -1.
</event>
<event>
 5    1  0.4419198E-005  0.1372925E+03  0.7818608E-02  0.1114368E+00
         -4   -1    0    0    0  501 -0.00000000000E+00  0.00000000000E+00  0.82188884140E+02  0.82188884140E+02  0.00000000000E+00 0. -1.
         21   -1    0    0  501  502  0.00000000000E+00 -0.00000000000E+00 -0.28744599625E+03  0.28744599625E+03  0.00000000000E+00 0.  1.
        -13    1    1    2    0    0  0.13125356535E+03 -0.56134797716E+02 -0.50918763481E+02  0.15156300858E+03  0.10566000000E+00 0.  1.
         13    1    1    2    0    0 -0.11882556682E+03  0.52631199663E+02 -0.10501385505E+03  0.16708524599E+03  0.10566000000E+00 0. -1.
         -4    1    1    2    0  502 -0.12427998525E+02  0.35035980532E+01 -0.49324493574E+02  0.50986625825E+02  0.00000000000E+00 0. -1.
</event>
<event>
 5    1  0.4419198E-005  0.7971912E+03  0.7818608E-02  0.8992797E-01
          4   -1    0    0  502    0 -0.00000000000E+00  0.00000000000E+00  0.15913366687E+04  0.15913366687E+04  0.00000000000E+00 0.  1.
         21   -1    0    0  501  502  0.00000000000E+00 -0.00000000000E+00 -0.63320151557E+03  0.63320151557E+03  0.00000000000E+00 0. -1.
        -13    1    1    2    0    0  0.30691012760E+03  0.79635033877E+03  0.66811388082E+03  0.10838560132E+04  0.10566000000E+00 0.  1.
         13    1    1    2    0    0 -0.70302832572E+02 -0.74980480352E+03  0.42458484748E+03  0.86453573409E+03  0.10566000000E+00 0. -1.
          4    1    1    2  501    0 -0.23660729502E+03 -0.46545535250E+02 -0.13456357514E+03  0.27614643700E+03  0.00000000000E+00 0.  1.
</event>
<event>
 5    1  0.4419198E-005  0.1224308E+03  0.7818608E-02  0.1132001E+00
          4   -1    0    0  502    0 -0.00000000000E+00  0.00000000000E+00  0.11591973222E+03  0.11591973222E+03  0.00000000000E+00 0.  1.
         21   -1    0    0  501  502  0.00000000000E+00 -0.00000000000E+00 -0.19045222638E+03  0.19045222638E+03  0.00000000000E+00 0. -1.
        -13    1    1    2    0    0  0.76652691373E+02 -0.96399919425E+02  0.31892456856E+02  0.12722310925E+03  0.10566000000E+00 0.  1.
         13    1    1    2    0    0 -0.90877743338E+02  0.81277515854E+02 -0.81235069462E+02  0.14650578996E+03  0.10566000000E+00 0. -1.
          4    1    1    2  501    0  0.14225051965E+02  0.15122403571E+02 -0.25189881557E+02  0.32643059385E+02  0.00000000000E+00 0.  1.
</event>
<event>
 5    1  0.4419198E-005  0.1762207E+03  0.7818608E-02  0.1077786E+00
         21   -1    0    0  501  502  0.00000000000E+00  0.00000000000E+00  0.39427083020E+03  0.39427083020E+03  0.00000000000E+00 0. -1.
          4   -1    0    0  502    0 -0.00000000000E+00 -0.00000000000E+00 -0.16558138438E+03  0.16558138438E+03  0.00000000000E+00 0.  1.
        -13    1    1    2    0    0  0.66267649038E+02 -0.13140463609E+03  0.21652342588E+02  0.14875286485E+03  0.10566000000E+00 0.  1.
         13    1    1    2    0    0 -0.91660248085E+02  0.19973215950E+03  0.32755440019E+02  0.22218790839E+03  0.10566000000E+00 0. -1.
          4    1    1    2  501    0  0.25392599047E+02 -0.68327523409E+02  0.17428166321E+03  0.18891144135E+03  0.00000000000E+00 0.  1.
</event>
<event>
 5    1  0.4419198E-005  0.4974709E+03  0.7818608E-02  0.9947287E-01
         -4   -1    0    0    0  501 -0.00000000000E+00  0.00000000000E+00  0.43897262949E+03  0.43897262949E+03  0.00000000000E+00 0. -1.
         21   -1    0    0  501  502  0.00000000000E+00 -0.00000000000E+00 -0.78761169951E+03  0.78761169951E+03  0.00000000000E+00 0. -1.
        -13    1    1    2    0    0  0.91679455697E+02  0.38082776176E+02  0.78611103203E+02  0.12662992201E+03  0.10566000000E+00 0.  1.
         13    1    1    2    0    0 -0.94712122402E+02  0.47357461387E+03 -0.10183084612E+03  0.49357150791E+03  0.10566000000E+00 0. -1.
         -4    1    1    2    0  502  0.30326667050E+01 -0.51165739004E+03 -0.32541932710E+03  0.60638289908E+03  0.00000000000E+00 0. -1.
</event>
<event>
 5    1  0.4419198E-005  0.4968168E+03  0.7818608E-02  0.9518242E-01
         21   -1    0    0  501  502  0.00000000000E+00  0.00000000000E+00  0.76702192123E+03  0.76702192123E+03  0.00000000000E+00 0.  1.
          4   -1    0    0  502    0 -0.00000000000E+00 -0.00000000000E+00 -0.13778079932E+04  0.13778079932E+04  0.00000000000E+00 0.  1.
        -13    1    1    2    0    0  0.27538981230E+03  0.50410923140E+03  0.22311189052E+03  0.61623420284E+03  0.10566000000E+00 0.  1.
         13    1    1    2    0    0 -0.43958925341E+03 -0.24568582135E+02 -0.91486785571E+03  0.10152957852E+04  0.10566000000E+00 0. -1.
          4    1    1    2  501    0  0.16419944111E+03 -0.47954064926E+03  0.80969893256E+02  0.51329992633E+03  0.00000000000E+00 0.  1.
</event>
<event>
 5    1  0.4419198E-005  0.2449408E+03  0.7818608E-02  0.1033048E+00
          4   -1    0    0  502    0 -0.00000000000E+00  0.00000000000E+00  0.15980366860E+04  0.15980366860E+04  0.00000000000E+00 0.  1.
         21   -1    0    0  501  502  0.00000000000E+00 -0.00000000000E+00 -0.43299114417E+03  0.43299114417E+03  0.00000000000E+00 0.  1.
        -13    1    1    2    0    0  0.12331466024E+03  0.25671362825E+03  0.57886172052E+03  0.64512734790E+03  0.10566000000E+00 0.  1.
         13    1    1    2    0    0  0.97751440442E+02 -0.23729747976E+03  0.93659964259E+03  0.97112529556E+03  0.10566000000E+00 0. -1.
          4    1    1    2  501    0 -0.22106610069E+03 -0.19416148490E+02 -0.35041582129E+03  0.41477518670E+03  0.00000000000E+00 0.  1.
</event>
<event>
 5    1  0.4419198E-005  0.1269601E+03  0.7818608E-02  0.1126351E+00
          4   -1    0    0  502    0 -0.00000000000E+00  0.00000000000E+00  0.19835198570E+03  0.19835198570E+03  0.00000000000E+00 0.  1.
         21   -1    0    0  501  502  0.00000000000E+00 -0.00000000000E+00 -0.17074281668E+03  0.17074281668E+03  0.00000000000E+00 0. -1.
        -13    1    1    2    0    0  0.12380732270E+03 -0.20410759218E+02 -0.88534407281E+02  0.15356824113E+03  0.10566000000E+00 0.  1.
         13    1    1    2    0    0 -0.12107557108E+03  0.40060314915E+02  0.13670452967E+03  0.18695524154E+03  0.10566000000E+00 0. -1.
          4    1    1    2  501    0 -0.27317516215E+01 -0.19649555696E+02 -0.20560953378E+02  0.28571319707E+02  0.00000000000E+00 0.  1.
</event>
<event>
 5    1  0.4419198E-005  0.4754421E+03  0.7818608E-02  0.9703478E-01
         21   -1    0    0  501  502  0.00000000000E+00  0.00000000000E+00  0.22090361465E+03  0.22090361465E+03  0.00000000000E+00 0.  1.
         -4   -1    0    0    0  501 -0.00000000000E+00 -0.00000000000E+00 -0.19265883701E+04  0.19265883701E+04  0.00000000000E+00 0. -1.
        -13    1    1    2    0    0  0.15192641253E+03  0.21137693476E+03 -0.55705361013E+03  0.61487444173E+03  0.10566000000E+00 0.  1.
         13    1    1    2    0    0  0.29637944011E+03 -0.40213887655E+03 -0.75960678074E+03  0.90915285902E+03  0.10566000000E+00 0. -1.
         -4    1    1    2    0  502 -0.44830585264E+03  0.19076194179E+03 -0.38902436455E+03  0.62346468397E+03  0.00000000000E+00 0. -1.
</event>
<event>
 5    1  0.4419198E-005  0.4441308E+03  0.7818608E-02  0.9974027E-01
         21   -1    0    0  501  502  0.00000000000E+00  0.00000000000E+00  0.14299847936E+03  0.14299847936E+03  0.00000000000E+00 0.  1.
          4   -1    0    0  502    0 -0.00000000000E+00 -0.00000000000E+00 -0.23828496528E+04  0.23828496528E+04  0.00000000000E+00 0.  1.
        -13    1    1    2    0    0 -0.44395898563E+03  0.25726312474E+03 -0.13040826079E+04  0.14013976437E+04  0.10566000000E+00 0.  1.
         13    1    1    2    0    0  0.46973465694E+02 -0.11876155158E+03 -0.51124376432E+03  0.52695446704E+03  0.10566000000E+00 0. -1.
          4    1    1    2  501    0  0.39698551994E+03 -0.13850157316E+03 -0.42452480123E+03  0.59749602147E+03  0.00000000000E+00 0.  1.
</event>
<event>
 5    1  0.4419198E-005  0.5046237E+02  0.7818608E-02  0.1289918E+00
         -4   -1    0    0    0  501 -0.00000000000E+00  0.00000000000E+00  0.27338455569E+03  0.27338455569E+03  0.00000000000E+00 0. -1.
         21   -1    0    0  501  502  0.00000000000E+00 -0.00000000000E+00 -0.25543354706E+02  0.25543354706E+02  0.00000000000E+00 0.  1.
        -13    1    1    2    0    0  0.11971057452E+02 -0.64357070804E+02  0.14610215674E+03  0.16009681492E+03  0.10566000000E+00 0.  1.
         13    1    1    2    0    0  0.80674017963E+00  0.42131335554E+02  0.10485477422E+03  0.11300546494E+03  0.10566000000E+00 0. -1.
         -4    1    1    2    0  502 -0.12777797632E+02  0.22225735250E+02 -0.31157299702E+01  0.25825630543E+02  0.00000000000E+00 0. -1.
</event>
<event>
 5    1  0.4419198E-005  0.1935798E+03  0.7818608E-02  0.1098694E+00
          4   -1    0    0  502    0 -0.00000000000E+00  0.00000000000E+00  0.21919064373E+03  0.21919064373E+03  0.00000000000E+00 0.  1.
         21   -1    0    0  501  502  0.00000000000E+00 -0.00000000000E+00 -0.62139235523E+03  0.62139235523E+03  0.00000000000E+00 0.  1.
        -13    1    1    2    0    0 -0.10958498932E+03  0.13351708674E+03  0.14607965425E+03  0.22621882965E+03  0.10566000000E+00 0.  1.
         13    1    1    2    0    0 -0.63480433462E+02 -0.39018618388E+02 -0.10068295817E+03  0.12525688502E+03  0.10566000000E+00 0. -1.
          4    1    1    2  501    0  0.17306542278E+03 -0.94498468354E+02 -0.44759840758E+03  0.48910728430E+03  0.00000000000E+00 0.  1.
</event>
<event>
 5    1  0.4419198E-005  0.1684049E+03  0.7818608E-02  0.1084255E+00
         21   -1    0    0  501  502  0.00000000000E+00  0.00000000000E+00  0.99253236483E+02  0.99253236483E+02  0.00000000000E+00 0. -1.
          4   -1    0    0  502    0 -0.00000000000E+00 -0.00000000000E+00 -0.38812201716E+03  0.38812201716E+03  0.00000000000E+00 0.  1.
        -13    1    1    2    0    0  0.16052047890E+03  0.51093338039E+02 -0.24694899191E+03  0.29893338574E+03  0.10566000000E+00 0.  1.
         13    1    1    2    0    0 -0.16468628201E+03 -0.36797802315E+02 -0.40049002281E+02  0.17343466633E+03  0.10566000000E+00 0. -1.
          4    1    1    2  501    0  0.41658031073E+01 -0.14295535724E+02 -0.18707864870E+01  0.15007201579E+02  0.00000000000E+00 0.  1.
</event>
<event>
 5    1  0.4419198E-005  0.4535994E+03  0.7818608E-02  0.9648274E-01
         -4   -1    0    0    0  501 -0.00000000000E+00  0.00000000000E+00  0.22801108948E+04  0.22801108948E+04  0.00000000000E+00 0. -1.
         21   -1    0    0  501  502  0.00000000000E+00 -0.00000000000E+00 -0.20351338618E+03  0.20351338618E+03  0.00000000000E+00 0. -1.
        -13    1    1    2    0    0  0.20434460999E+03  0.30080906305E+03  0.72847600732E+03  0.81419906438E+03  0.10566000000E+00 0.  1.
         13    1    1    2    0    0  0.23880367585E+03 -0.45326262481E+03  0.77603083540E+03  0.92989142985E+03  0.10566000000E+00 0. -1.
         -4    1    1    2    0  502 -0.44314828584E+03  0.15245356176E+03  0.57209066587E+03  0.73953378673E+03  0.00000000000E+00 0. -1.
</event>
<event>
 5    1  0.4419198E-005  0.4051972E+03  0.7818608E-02  0.9930468E-01
          4   -1    0    0  502    0 -0.00000000000E+00  0.00000000000E+00  0.91305493450E+03  0.91305493450E+03  0.00000000000E+00 0.  1.
         21   -1    0    0  501  502  0.00000000000E+00 -0.00000000000E+00 -0.36733365426E+03  0.36733365426E+03  0.00000000000E+00 0.  1.
        -13    1    1    2    0    0  0.24185701580E+03 -0.38283244085E+03 -0.10620900740E+03  0.46511918717E+03  0.10566000000E+00 0.  1.
         13    1    1    2    0    0 -0.15839413243E+02  0.19361329795E+03  0.24083242022E+03  0.30941438549E+03  0.10566000000E+00 0. -1.
          4    1    1    2  501    0 -0.22601760256E+03  0.18921914291E+03  0.41109786742E+03  0.50585501610E+03  0.00000000000E+00 0.  1.
</event>
<event>
 5    1  0.4419198E-005  0.6242321E+02  0.7818608E-02  0.1257642E+00
         -4   -1    0    0    0  501 -0.00000000000E+00  0.00000000000E+00  0.14911716846E+03  0.14911716846E+03  0.00000000000E+00 0. -1.
         21   -1    0    0  501  502  0.00000000000E+00 -0.00000000000E+00 -0.19503044022E+03  0.19503044022E+03  0.00000000000E+00 0. -1.
        -13    1    1    2    0    0  0.50610275141E+02  0.75914944029E+01  0.83471850930E+02  0.97911142362E+02  0.10566000000E+00 0.  1.
         13    1    1    2    0    0 -0.95185652870E+02  0.30691713829E+02  0.44086625722E+01  0.10010862740E+03  0.10566000000E+00 0. -1.
         -4    1    1    2    0  502  0.44575377730E+02 -0.38283208232E+02 -0.13379378526E+03  0.14612783892E+03  0.00000000000E+00 0. -1.
</event>
<event>
 5    1  0.4419198E-005  0.4296156E+03  0.7818608E-02  0.9848860E-01
          4   -1    0    0  502    0 -0.00000000000E+00  0.00000000000E+00  0.16700871372E+04  0.16700871372E+04  0.00000000000E+00 0.  1.
         21   -1    0    0  501  502  0.00000000000E+00 -0.00000000000E+00 -0.58315658957E+03  0.58315658957E+03  0.00000000000E+00 0. -1.
        -13    1    1    2    0    0  0.59538649221E+01  0.20623756954E+03  0.12055343816E+04  0.12230627703E+04  0.10566000000E+00 0.  1.
         13    1    1    2    0    0 -0.31838398257E+03 -0.50112231733E+03 -0.67246464812E+02  0.59750651501E+03  0.10566000000E+00 0. -1.
          4    1    1    2  501    0  0.31243011765E+03  0.29488474780E+03 -0.51357369234E+02  0.43267444144E+03  0.00000000000E+00 0.  1.
</event>
<event>
 5    1  0.4419198E-005  0.4344328E+03  0.7818608E-02  0.9958578E-01
         21   -1    0    0  501  502  0.00000000000E+00  0.00000000000E+00  0.17836022453E+03  0.17836022453E+03  0.00000000000E+00 0.  1.
          4   -1    0    0  502    0 -0.00000000000E+00 -0.00000000000E+00 -0.19169551185E+04  0.19169551185E+04  0.00000000000E+00 0.  1.
        -13    1    1    2    0    0 -0.33719871381E+03  0.27088315720E+03 -0.12771928835E+04  0.13484444112E+04  0.10566000000E+00 0.  1.
         13    1    1    2    0    0 -0.77374221870E+02 -0.12096815652E+03 -0.14625015105E+03  0.20496141820E+03  0.10566000000E+00 0. -1.
          4    1    1    2  501    0  0.41457293568E+03 -0.14991500067E+03 -0.31515185948E+03  0.54190951362E+03  0.00000000000E+00 0.  1.
</event>
<event>
 5    1  0.4419198E-005  0.4951652E+03  0.7818608E-02  0.9931675E-01
          4   -1    0    0  502    0 -0.00000000000E+00  0.00000000000E+00  0.11237627495E+04  0.11237627495E+04  0.00000000000E+00 0.  1.
         21   -1    0    0  501  502  0.00000000000E+00 -0.00000000000E+00 -0.29438898098E+03  0.29438898098E+03  0.00000000000E+00 0.  1.
        -13    1    1    2    0    0  0.69975133203E+02 -0.53024492771E+03  0.34882024044E+03  0.63853878029E+03  0.10566000000E+00 0.  1.
         13    1    1    2    0    0 -0.84424107626E+02  0.64132200464E+02  0.22290680686E+03  0.24683562302E+03  0.10566000000E+00 0. -1.
          4    1    1    2  501    0  0.14448974423E+02  0.46611272725E+03  0.25764672119E+03  0.53277732713E+03  0.00000000000E+00 0.  1.
</event>
<event>
 5    1  0.4419198E-005  0.5053214E+03  0.7818608E-02  0.9854297E-01
         21   -1    0    0  501  502  0.00000000000E+00  0.00000000000E+00  0.15836877815E+03  0.15836877815E+03  0.00000000000E+00 0. -1.
         -4   -1    0    0    0  501 -0.00000000000E+00 -0.00000000000E+00 -0.23555464320E+04  0.23555464320E+04  0.00000000000E+00 0. -1.
        -13    1    1    2    0    0 -0.22013129855E+02  0.12738895102E+03 -0.62947797971E+03  0.64261579566E+03  0.10566000000E+00 0.  1.
         13    1    1    2    0    0  0.34242545705E+03 -0.45073558615E+03 -0.83870368693E+03  0.10118506055E+04  0.10566000000E+00 0. -1.
         -4    1    1    2    0  502 -0.32041232720E+03  0.32334663513E+03 -0.72899598724E+03  0.85944880899E+03  0.00000000000E+00 0. -1.
</event>
<event>
 5    1  0.4419198E-005  0.3144097E+03  0.7818608E-02  0.1001528E+00
         -4   -1    0    0    0  501 -0.00000000000E+00  0.00000000000E+00  0.24414272320E+04  0.24414272320E+04  0.00000000000E+00 0. -1.
         21   -1    0    0  501  502  0.00000000000E+00 -0.00000000000E+00 -0.14807110896E+03  0.14807110896E+03  0.00000000000E+00 0. -1.
        -13    1    1    2    0    0 -0.29220969541E+03  0.12151896210E+02  0.13698963039E+04  0.14007676714E+04  0.10566000000E+00 0.  1.
         13    1    1    2    0    0  0.35742618705E+03 -0.20566250604E+02  0.10148460575E+04  0.10761454277E+04  0.10566000000E+00 0. -1.
         -4    1    1    2    0  502 -0.65216491644E+02  0.84143543936E+01 -0.91386238334E+02  0.11258524192E+03  0.00000000000E+00 0. -1.
</event>
<event>
 5    1  0.4419198E-005  0.3648605E+03  0.7818608E-02  0.9836408E-01
          4   -1    0    0  502    0 -0.00000000000E+00  0.00000000000E+00  0.19094152354E+04  0.19094152354E+04  0.00000000000E+00 0.  1.
         21   -1    0    0  501  502  0.00000000000E+00 -0.00000000000E+00 -0.20007314097E+03  0.20007314097E+03  0.00000000000E+00 0.  1.
        -13    1    1    2    0    0 -0.10325571481E+03  0.35224310636E+03  0.13924045856E+04  0.14399748226E+04  0.10566000000E+00 0.  1.
         13    1    1    2    0    0  0.12185343005E+03 -0.33797587828E+03  0.42639529142E+03  0.55757412819E+03  0.10566000000E+00 0. -1.
          4    1    1    2  501    0 -0.18597715245E+02 -0.14267228079E+02 -0.10945778263E+03  0.11193942553E+03  0.00000000000E+00 0.  1.
</event>
<event>
 5    1  0.4419198E-005  0.7455229E+03  0.7818608E-02  0.9059433E-01
         -4   -1    0    0    0  501 -0.00000000000E+00  0.00000000000E+00  0.59429113984E+03  0.59429113984E+03  0.00000000000E+00 0. -1.
         21   -1    0    0  501  502  0.00000000000E+00 -0.00000000000E+00 -0.15631270594E+04  0.15631270594E+04  0.00000000000E+00 0. -1.
        -13    1    1    2    0    0  0.55770873119E+03  0.36946510302E+03 -0.60683926264E+03  0.90321503146E+03  0.10566000000E+00 0.  1.
         13    1    1    2    0    0 -0.43930237260E+03 -0.71082539382E+03 -0.29861891539E+03  0.88737398140E+03  0.10566000000E+00 0. -1.
         -4    1    1    2    0  502 -0.11840635859E+03  0.34136029079E+03 -0.63377741555E+02  0.36682918642E+03  0.00000000000E+00 0. -1.
</event>
<event>
 5    1  0.4419198E-005  0.9752299E+02  0.7818608E-02  0.1168720E+00
         21   -1    0    0  501  502  0.00000000000E+00  0.00000000000E+00  0.91858364625E+02  0.91858364625E+02  0.00000000000E+00 0.  1.
          4   -1    0    0  502    0 -0.00000000000E+00 -0.00000000000E+00 -0.54575544322E+03  0.54575544322E+03  0.00000000000E+00 0.  1.
        -13    1    1    2    0    0  0.67869556061E+02 -0.75722729406E+02 -0.13009341566E+03  0.16511970310E+03  0.10566000000E+00 0.  1.
         13    1    1    2    0    0 -0.42006388478E+02  0.87574142758E+02 -0.38922183910E+03  0.40115759790E+03  0.10566000000E+00 0. -1.
          4    1    1    2  501    0 -0.25863167583E+02 -0.11851413352E+02  0.65418176171E+02  0.71336506849E+02  0.00000000000E+00 0.  1.
</event>
<event>
 5    1  0.4419198E-005  0.1150408E+03  0.7818608E-02  0.1141819E+00
          4   -1    0    0  502    0 -0.00000000000E+00  0.00000000000E+00  0.55637348775E+03  0.55637348775E+03  0.00000000000E+00 0.  1.
         21   -1    0    0  501  502  0.00000000000E+00 -0.00000000000E+00 -0.87901085136E+02  0.87901085136E+02  0.00000000000E+00 0. -1.
        -13    1    1    2    0    0  0.97162561414E+02 -0.53937727411E+02  0.39302282656E+03  0.40843211816E+03  0.10566000000E+00 0.  1.
         13    1    1    2    0    0 -0.11596006941E+03  0.56240195477E+02  0.12699089842E+03  0.18093202240E+03  0.10566000000E+00 0. -1.
          4    1    1    2  501    0  0.18797507997E+02 -0.23024680660E+01 -0.51541322371E+02  0.54910432323E+02  0.00000000000E+00 0.  1.
</event>
<event>
 5    1  0.4419198E-005  0.3861444E+03  0.7818608E-02  0.1004914E+00
         21   -1    0    0  501  502  0.00000000000E+00  0.00000000000E+00  0.60940525142E+03  0.60940525142E+03  0.00000000000E+00 0. -1.
         -4   -1    0    0    0  501 -0.00000000000E+00 -0.00000000000E+00 -0.59727824668E+03  0.59727824668E+03  0.00000000000E+00 0. -1.
        -13    1    1    2    0    0  0.63396679217E+02  0.13815811684E+03 -0.20880235906E+02  0.15343663057E+03  0.10566000000E+00 0.  1.
         13    1    1    2    0    0  0.31483746089E+03 -0.23083387114E+03  0.37028675376E+03  0.53806987838E+03  0.10566000000E+00 0. -1.
         -4    1    1    2    0  502 -0.37823414011E+03  0.92675754299E+02 -0.33727951312E+03  0.51517698915E+03  0.00000000000E+00 0. -1.
</event>
<event>
 5    1  0.4419198E-005  0.9307317E+02  0.7818608E-02  0.1176554E+00
         21   -1    0    0  501  502  0.00000000000E+00  0.00000000000E+00  0.45690160229E+02  0.45690160229E+02  0.00000000000E+00 0.  1.
         -4   -1    0    0    0  501 -0.00000000000E+00 -0.00000000000E+00 -0.43301114713E+03  0.43301114713E+03  0.00000000000E+00 0. -1.
        -13    1    1    2    0    0  0.14926835780E+01 -0.84078722625E+02 -0.16013851770E+02  0.85603237760E+02  0.10566000000E+00 0.  1.
         13    1    1    2    0    0 -0.26853678338E+02  0.91420179817E+02 -0.33446497611E+03  0.34777234037E+03  0.10566000000E+00 0. -1.
         -4    1    1    2    0  502  0.25360994760E+02 -0.73414571926E+01 -0.36842159023E+02  0.45325729232E+02  0.00000000000E+00 0. -1.
</event>
<event>
 5    1  0.4419198E-005  0.6228750E+03  0.7818608E-02  0.9360904E-01
         21   -1    0    0  501  502  0.00000000000E+00  0.00000000000E+00  0.34379299589E+03  0.34379299589E+03  0.00000000000E+00 0. -1.
          4   -1    0    0  502    0 -0.00000000000E+00 -0.00000000000E+00 -0.37631619309E+04  0.37631619309E+04  0.00000000000E+00 0.  1.
        -13    1    1    2    0    0  0.31256846156E+03 -0.37444709940E+02 -0.51692698432E+03  0.60523934749E+03  0.10566000000E+00 0.  1.
         13    1    1    2    0    0  0.19061902769E+03 -0.75495826392E+03 -0.21870001660E+04  0.23214795565E+04  0.10566000000E+00 0. -1.
          4    1    1    2  501    0 -0.50318748925E+03  0.79240297386E+03 -0.71544178474E+03  0.11802360229E+04  0.00000000000E+00 0.  1.
</event>
<event>
 5    1  0.4419198E-005  0.2409298E+02  0.7818608E-02  0.1511785E+00
          4   -1    0    0  502    0 -0.00000000000E+00  0.00000000000E+00  0.10513431402E+03  0.10513431402E+03  0.00000000000E+00 0.  1.
         21   -1    0    0  501  502  0.00000000000E+00 -0.00000000000E+00 -0.12061034024E+02  0.12061034024E+02  0.00000000000E+00 0.  1.
        -13    1    1    2    0    0  0.18343628840E+02  0.11542799869E+02  0.71572658454E+02  0.74782227501E+02  0.10566000000E+00 0.  1.
         13    1    1    2    0    0  0.68907217006E+01 -0.87371339790E+01  0.56288374529E+01  0.12470546533E+02  0.10566000000E+00 0. -1.
          4    1    1    2  501    0 -0.25234350540E+02 -0.28056658903E+01  0.15871784094E+02  0.29942574014E+02  0.00000000000E+00 0.  1.
</event>
<event>
 5    1  0.4419198E-005  0.4902231E+03  0.7818608E-02  0.9683971E-01
         21   -1    0    0  501  502  0.00000000000E+00  0.00000000000E+00  0.29561890243E+03  0.29561890243E+03  0.00000000000E+00 0. -1.
         -4   -1    0    0    0  501 -0.00000000000E+00 -0.00000000000E+00 -0.22682345419E+04  0.22682345419E+04  0.00000000000E+00 0. -1.
        -13    1    1    2    0    0 -0.96257162513E+02  0.23525186619E+03 -0.13450250115E+04  0.13688320477E+04  0.10566000000E+00 0.  1.
         13    1    1    2    0    0 -0.24734527064E+03  0.25923774434E+03 -0.43340137766E+03  0.56233500364E+03  0.10566000000E+00 0. -1.
         -4    1    1    2    0  502  0.34360243315E+03 -0.49448961052E+03 -0.19418925024E+03  0.63268639300E+03  0.00000000000E+00 0. -1.
</event>
<event>
 5    1  0.4419198E-005  0.9610115E+02  0.7818608E-02  0.1198166E+00
         21   -1    0    0  501  502  0.00000000000E+00  0.00000000000E+00  0.43784426731E+03  0.43784426731E+03  0.00000000000E+00 0.  1.
          4   -1    0    0  502    0 -0.00000000000E+00 -0.00000000000E+00 -0.12416548322E+03  0.12416548322E+03  0.00000000000E+00 0.  1.
        -13    1    1    2    0    0 -0.84577813082E+02  0.11607519135E+03 -0.62806754319E+02  0.15675316923E+03  0.10566000000E+00 0.  1.
         13    1    1    2    0    0  0.34694313663E+02 -0.37591418224E+02  0.84074457281E+02  0.98414102931E+02  0.10566000000E+00 0. -1.
          4    1    1    2  501    0  0.49883499419E+02 -0.78483773128E+02  0.29241108113E+03  0.30684247836E+03  0.00000000000E+00 0.  1.
</event>
<event>
 5    1  0.4419198E-005  0.2425465E+03  0.7818608E-02  0.1037059E+00
         21   -1    0    0  501  502  0.00000000000E+00  0.00000000000E+00  0.25614872058E+03  0.25614872058E+03  0.00000000000E+00 0.  1.
          4   -1    0    0  502    0 -0.00000000000E+00 -0.00000000000E+00 -0.15312490302E+04  0.15312490302E+04  0.00000000000E+00 0.  1.
        -13    1    1    2    0    0 -0.21259404651E+03  0.24942463027E+03 -0.11960527735E+04  0.12401415738E+04  0.10566000000E+00 0.  1.
         13    1    1    2    0    0  0.22301483014E+03 -0.73650246174E+01 -0.17810794154E+03  0.28550360428E+03  0.10566000000E+00 0. -1.
          4    1    1    2  501    0 -0.10420783633E+02 -0.24205960565E+03  0.99060405421E+02  0.26175257275E+03  0.00000000000E+00 0.  1.
</event>
<event>
 5    1  0.4419198E-005  0.2194912E+02  0.7818608E-02  0.1529804E+00
         21   -1    0    0  501  502  0.00000000000E+00  0.00000000000E+00  0.19694553924E+01  0.19694553924E+01  0.00000000000E+00 0. -1.
          4   -1    0    0  502    0 -0.00000000000E+00 -0.00000000000E+00 -0.68176970474E+03  0.68176970474E+03  0.00000000000E+00 0.  1.
        -13    1    1    2    0    0 -0.16728492588E+02  0.16916052697E+02 -0.98814334841E+02  0.10163798127E+03  0.10566000000E+00 0.  1.
         13    1    1    2    0    0  0.68476169472E+01 -0.91133155800E+01 -0.67129846934E+02  0.68090894341E+02  0.10566000000E+00 0. -1.
          4    1    1    2  501    0  0.98808756406E+01 -0.78027371169E+01 -0.51385606757E+03  0.51401028452E+03  0.00000000000E+00 0.  1.
</event>
<event>
 5    1  0.4419198E-005  0.5036758E+03  0.7818608E-02  0.9893692E-01
          4   -1    0    0  502    0 -0.00000000000E+00  0.00000000000E+00  0.17103317386E+03  0.17103317386E+03  0.00000000000E+00 0.  1.
         21   -1    0    0  501  502  0.00000000000E+00 -0.00000000000E+00 -0.28495033499E+04  0.28495033499E+04  0.00000000000E+00 0.  1.
        -13    1    1    2    0    0 -0.22274958488E+03 -0.49190552159E+03 -0.11414379783E+04  0.12627228869E+04  0.10566000000E+00 0.  1.
         13    1    1    2    0    0  0.11274333147E+03  0.19090729639E+02  0.29248769403E+02  0.11802972687E+03  0.10566000000E+00 0. -1.
          4    1    1    2  501    0  0.11000625341E+03  0.47281479195E+03 -0.15662809672E+04  0.16397839100E+04  0.00000000000E+00 0.  1.
</event>
<event>
 5    1  0.4419198E-005  0.1434211E+03  0.7818608E-02  0.1107787E+00
          4   -1    0    0  502    0 -0.00000000000E+00  0.00000000000E+00  0.90642056877E+03  0.90642056877E+03  0.00000000000E+00 0.  1.
         21   -1    0    0  501  502  0.00000000000E+00 -0.00000000000E+00 -0.63749826949E+02  0.63749826949E+02  0.00000000000E+00 0. -1.
        -13    1    1    2    0    0 -0.13719213428E+03  0.34894399289E+02  0.71562431569E+03  0.72949124270E+03  0.10566000000E+00 0.  1.
         13    1    1    2    0    0  0.13957848092E+03 -0.78866707594E+02  0.97258340358E+02  0.18751348174E+03  0.10566000000E+00 0. -1.
          4    1    1    2  501    0 -0.23863466422E+01  0.43972308306E+02  0.29788085779E+02  0.53165671277E+02  0.00000000000E+00 0.  1.
</event>
<event>
 5    1  0.4419198E-005  0.8787122E+02  0.7818608E-02  0.1186350E+00
          4   -1    0    0  502    0 -0.00000000000E+00  0.00000000000E+00  0.10874563443E+03  0.10874563443E+03  0.00000000000E+00 0.  1.
         21   -1    0    0  501  502  0.00000000000E+00 -0.00000000000E+00 -0.10370150603E+03  0.10370150603E+03  0.00000000000E+00 0.  1.
        -13    1    1    2    0    0  0.92068757864E+02  0.17971517809E+02  0.40768729790E+02  0.10228260908E+03  0.10566000000E+00 0.  1.
         13    1    1    2    0    0 -0.73871338323E+02 -0.12276889620E+02 -0.46612998111E+02  0.88207025805E+02  0.10566000000E+00 0. -1.
          4    1    1    2  501    0 -0.18197419541E+02 -0.56946281889E+01  0.10888396724E+02  0.21957505582E+02  0.00000000000E+00 0.  1.
</event>
<event>
 5    1  0.4419198E-005  0.3347432E+03  0.7818608E-02  0.9939158E-01
          4   -1    0    0  502    0 -0.00000000000E+00  0.00000000000E+00  0.29787685740E+04  0.29787685740E+04  0.00000000000E+00 0.  1.
         21   -1    0    0  501  502  0.00000000000E+00 -0.00000000000E+00 -0.43786221469E+02  0.43786221469E+02  0.00000000000E+00 0. -1.
        -13    1    1    2    0    0 -0.32162459903E+03  0.62651189018E+02  0.10412481526E+04  0.10915884209E+04  0.10566000000E+00 0.  1.
         13    1    1    2    0    0  0.33403222583E+03 -0.57940628844E+02  0.18846114798E+04  0.19148616360E+04  0.10566000000E+00 0. -1.
          4    1    1    2  501    0 -0.12407626799E+02 -0.47105601739E+01  0.91227201835E+01  0.16104738541E+02  0.00000000000E+00 0.  1.
</event>
<event>
 5    1  0.4419198E-005  0.4137358E+03  0.7818608E-02  0.9797185E-01
          4   -1    0    0  502    0 -0.00000000000E+00  0.00000000000E+00  0.17345262285E+04  0.17345262285E+04  0.00000000000E+00 0.  1.
         21   -1    0    0  501  502  0.00000000000E+00 -0.00000000000E+00 -0.71123348312E+03  0.71123348312E+03  0.00000000000E+00 0.  1.
        -13    1    1    2    0    0 -0.55978299681E+03 -0.14599659780E+03  0.85751088184E+02  0.58482926600E+03  0.10566000000E+00 0.  1.
         13    1    1    2    0    0  0.26715509221E+03 -0.10196744933E+03  0.13012784806E+04  0.13323268740E+04  0.10566000000E+00 0. -1.
          4    1    1    2  501    0  0.29262790460E+03  0.24796404713E+03 -0.36373682339E+03  0.52860357161E+03  0.00000000000E+00 0.  1.
</event>
<event>
 5    1  0.4419198E-005  0.4346187E+03  0.7818608E-02  0.9634085E-01
         -4   -1    0    0    0  501 -0.00000000000E+00  0.00000000000E+00  0.10866361289E+04  0.10866361289E+04  0.00000000000E+00 0. -1.
         21   -1    0    0  501  502  0.00000000000E+00 -0.00000000000E+00 -0.59702132306E+03  0.59702132306E+03  0.00000000000E+00 0.  1.
        -13    1    1    2    0    0  0.47724649122E+03 -0.19971571276E+02  0.30582572641E+03  0.56717939238E+03  0.10566000000E+00 0.  1.
         13    1    1    2    0    0 -0.39016641294E+03  0.15786554014E+03  0.56343461542E+03  0.70328510262E+03  0.10566000000E+00 0. -1.
         -4    1    1    2    0  502 -0.87080078279E+02 -0.13789396886E+03 -0.37964553600E+03  0.41319295696E+03  0.00000000000E+00 0. -1.
</event>
<event>
 5    1  0.4419198E-005  0.4109619E+02  0.7818608E-02  0.1332993E+00
         21   -1    0    0  501  502  0.00000000000E+00  0.00000000000E+00  0.89096808667E+02  0.89096808667E+02  0.00000000000E+00 0.  1.
          4   -1    0    0  502    0 -0.00000000000E+00 -0.00000000000E+00 -0.76224379233E+02  0.76224379233E+02  0.00000000000E+00 0.  1.
        -13    1    1    2    0    0  0.25046902124E+02  0.43832680221E+02 -0.31026393006E+00  0.50485231396E+02  0.10566000000E+00 0.  1.
         13    1    1    2    0    0 -0.12763954660E+02 -0.36317104860E+02 -0.42487949719E+02  0.57333128986E+02  0.10566000000E+00 0. -1.
          4    1    1    2  501    0 -0.12282947463E+02 -0.75155753608E+01  0.55670643083E+02  0.57502827519E+02  0.00000000000E+00 0.  1.
</event>
<event>
 5    1  0.4419198E-005  0.4284904E+03  0.7818608E-02  0.1082645E+00
         -4   -1    0    0    0  501 -0.00000000000E+00  0.00000000000E+00  0.37374656000E+03  0.37374656000E+03  0.00000000000E+00 0. -1.
         21   -1    0    0  501  502  0.00000000000E+00 -0.00000000000E+00 -0.72349478063E+03  0.72349478063E+03  0.00000000000E+00 0. -1.
        -13    1    1    2    0    0  0.10318017049E+02  0.28070174252E+01  0.99778407990E+01  0.14625638232E+02  0.10566000000E+00 0.  1.
         13    1    1    2    0    0  0.40563494092E+03  0.10981636924E+03  0.12071207687E+03  0.43723078221E+03  0.10566000000E+00 0. -1.
         -4    1    1    2    0  502 -0.41595295796E+03 -0.11262338666E+03 -0.48043813831E+03  0.64538492018E+03  0.00000000000E+00 0. -1.
</event>
<event>
 5    1  0.4419198E-005  0.1728336E+03  0.7818608E-02  0.1080544E+00
         21   -1    0    0  501  502  0.00000000000E+00  0.00000000000E+00  0.19031594751E+03  0.19031594751E+03  0.00000000000E+00 0.  1.
         -4   -1    0    0    0  501 -0.00000000000E+00 -0.00000000000E+00 -0.17217540354E+03  0.17217540354E+03  0.00000000000E+00 0. -1.
        -13    1    1    2    0    0  0.56033695638E+02  0.15871549044E+03  0.44694698776E+02  0.17414938764E+03  0.10566000000E+00 0.  1.
         13    1    1    2    0    0 -0.64762977952E+02 -0.16363112171E+03 -0.28082712353E+02  0.17820784832E+03  0.10566000000E+00 0. -1.
         -4    1    1    2    0  502  0.87292823136E+01  0.49156312750E+01  0.15285575500E+01  0.10134115093E+02  0.00000000000E+00 0. -1.
</event>
<event>
 5    1  0.4419198E-005  0.4762140E+03  0.7818608E-02  0.1000892E+00
         -4   -1    0    0    0  501 -0.00000000000E+00  0.00000000000E+00  0.17469586358E+04  0.17469586358E+04  0.00000000000E+00 0. -1.
         21   -1    0    0  501  502  0.00000000000E+00 -0.00000000000E+00 -0.18768447603E+03  0.18768447603E+03  0.00000000000E+00 0. -1.
        -13    1    1    2    0    0 -0.89079355397E+02  0.24502566440E+02  0.45496423873E+03  0.46424990792E+03  0.10566000000E+00 0.  1.
         13    1    1    2    0    0  0.51226240688E+03  0.10826209120E+03  0.66189023917E+03  0.84393847747E+03  0.10566000000E+00 0. -1.
         -4    1    1    2    0  502 -0.42318305148E+03 -0.13276465764E+03  0.44241968190E+03  0.62645472646E+03  0.00000000000E+00 0. -1.
</event>
<event>
 5    1  0.4419198E-005  0.1303580E+03  0.7818608E-02  0.1141495E+00
          4   -1    0    0  502    0 -0.00000000000E+00  0.00000000000E+00  0.23932751180E+03  0.23932751180E+03  0.00000000000E+00 0.  1.
         21   -1    0    0  501  502  0.00000000000E+00 -0.00000000000E+00 -0.23035179327E+04  0.23035179327E+04  0.00000000000E+00 0. -1.
        -13    1    1    2    0    0 -0.97512123504E+02  0.24976719207E+02  0.20777368142E+03  0.23087304864E+03  0.10566000000E+00 0.  1.
         13    1    1    2    0    0  0.24507909362E+03  0.52572789065E+02 -0.10990116595E+04  0.11272330279E+04  0.10566000000E+00 0. -1.
          4    1    1    2  501    0 -0.14756697012E+03 -0.77549508272E+02 -0.11729524429E+04  0.11847393680E+04  0.00000000000E+00 0.  1.
</event>
<event>
 5    1  0.4419198E-005  0.2226186E+03  0.7818608E-02  0.1045646E+00
          4   -1    0    0  502    0 -0.00000000000E+00  0.00000000000E+00  0.12388742975E+04  0.12388742975E+04  0.00000000000E+00 0.  1.
         21   -1    0    0  501  502  0.00000000000E+00 -0.00000000000E+00 -0.59956935040E+02  0.59956935040E+02  0.00000000000E+00 0. -1.
        -13    1    1    2    0    0  0.18535523850E+03 -0.11968943791E+03  0.86876755197E+03  0.89634769845E+03  0.10566000000E+00 0.  1.
         13    1    1    2    0    0 -0.20285796571E+03  0.10592473491E+03  0.30168396935E+03  0.37866163292E+03  0.10566000000E+00 0. -1.
          4    1    1    2  501    0  0.17502727207E+02  0.13764702995E+02  0.84658410978E+01  0.23821901135E+02  0.00000000000E+00 0.  1.
</event>
<event>
 5    1  0.4419198E-005  0.3597600E+03  0.7818608E-02  0.9853052E-01
         21   -1    0    0  501  502  0.00000000000E+00  0.00000000000E+00  0.28236446043E+03  0.28236446043E+03  0.00000000000E+00 0. -1.
          4   -1    0    0  502    0 -0.00000000000E+00 -0.00000000000E+00 -0.13534372973E+04  0.13534372973E+04  0.00000000000E+00 0.  1.
        -13    1    1    2    0    0  0.35203168185E+03 -0.27579974540E+02 -0.99148768532E+03  0.10524898106E+04  0.10566000000E+00 0.  1.
         13    1    1    2    0    0 -0.38331272725E+03  0.25751786353E+02 -0.21777904726E+03  0.44161015156E+03  0.10566000000E+00 0. -1.
          4    1    1    2  501    0  0.31281045401E+02  0.18281881871E+01  0.13819389570E+03  0.14170179562E+03  0.00000000000E+00 0.  1.
</event>
<event>
 5    1  0.4419198E-005  0.5305648E+03  0.7818608E-02  0.9413384E-01
         21   -1    0    0  501  502  0.00000000000E+00  0.00000000000E+00  0.48636689182E+03  0.48636689182E+03  0.00000000000E+00 0.  1.
          4   -1    0    0  502    0 -0.00000000000E+00 -0.00000000000E+00 -0.22250614919E+04  0.22250614919E+04  0.00000000000E+00 0.  1.
        -13    1    1    2    0    0  0.23186789947E+02 -0.79499641627E+03 -0.22077680324E+03  0.82540858798E+03  0.10566000000E+00 0.  1.
         13    1    1    2    0    0 -0.10985250279E+03  0.48439372890E+03 -0.14802503139E+04  0.15613602595E+04  0.10566000000E+00 0. -1.
          4    1    1    2  501    0  0.86665712842E+02  0.31060268736E+03 -0.37667482909E+02  0.32465953620E+03  0.00000000000E+00 0.  1.
</event>
<event>
 5    1  0.4419198E-005  0.1137058E+03  0.7818608E-02  0.1143679E+00
         21   -1    0    0  501  502  0.00000000000E+00  0.00000000000E+00  0.82833123048E+02  0.82833123048E+02  0.00000000000E+00 0.  1.
         -4   -1    0    0    0  501 -0.00000000000E+00 -0.00000000000E+00 -0.59243895582E+03  0.59243895582E+03  0.00000000000E+00 0. -1.
        -13    1    1    2    0    0  0.52915253750E+02 -0.76106759887E+02  0.29575964879E+02  0.97298570609E+02  0.10566000000E+00 0.  1.
         13    1    1    2    0    0 -0.80960069862E+02  0.82892125474E+02 -0.53664143324E+03  0.54900790196E+03  0.10566000000E+00 0. -1.
         -4    1    1    2    0  502  0.28044816112E+02 -0.67853655869E+01 -0.25403644085E+01  0.28965606299E+02  0.00000000000E+00 0. -1.
</event>
<event>
 5    1  0.4419198E-005  0.4607859E+03  0.7818608E-02  0.9708145E-01
          4   -1    0    0  502    0 -0.00000000000E+00  0.00000000000E+00  0.72899334161E+03  0.72899334161E+03  0.00000000000E+00 0.  1.
         21   -1    0    0  501  502  0.00000000000E+00 -0.00000000000E+00 -0.66773503472E+03  0.66773503472E+03  0.00000000000E+00 0.  1.
        -13    1    1    2    0    0 -0.36665604649E+03  0.93679666516E+02 -0.11930772400E+03  0.39679576676E+03  0.10566000000E+00 0.  1.
         13    1    1    2    0    0 -0.27999121018E+03 -0.27563909470E+02  0.20713638641E+03  0.34937135060E+03  0.10566000000E+00 0. -1.
          4    1    1    2  501    0  0.64664725667E+03 -0.66115757046E+02 -0.26570355515E+02  0.65056125898E+03  0.00000000000E+00 0.  1.
</event>
<event>
 5    1  0.4419198E-005  0.4789244E+03  0.7818608E-02  0.9525401E-01
         -4   -1    0    0    0  501 -0.00000000000E+00  0.00000000000E+00  0.11123088516E+04  0.11123088516E+04  0.00000000000E+00 0. -1.
         21   -1    0    0  501  502  0.00000000000E+00 -0.00000000000E+00 -0.52508669906E+03  0.52508669906E+03  0.00000000000E+00 0. -1.
        -13    1    1    2    0    0  0.38002229396E+03 -0.15701718475E+03  0.40275410743E+03  0.57557121404E+03  0.10566000000E+00 0.  1.
         13    1    1    2    0    0 -0.60774498713E+03  0.38812222751E+03  0.13477203587E+03  0.73359140241E+03  0.10566000000E+00 0. -1.
         -4    1    1    2    0  502  0.22772269317E+03 -0.23110504276E+03  0.49696009257E+02  0.32823293423E+03  0.00000000000E+00 0. -1.
</event>
<event>
 5    1  0.4419198E-005  0.8655283E+02  0.7818608E-02  0.1188953E+00
         21   -1    0    0  501  502  0.00000000000E+00  0.00000000000E+00  0.36252975984E+03  0.36252975984E+03  0.00000000000E+00 0. -1.
         -4   -1    0    0    0  501 -0.00000000000E+00 -0.00000000000E+00 -0.13754479207E+03  0.13754479207E+03  0.00000000000E+00 0. -1.
        -13    1    1    2    0    0  0.48762624999E+02  0.34216407123E+02  0.24848488688E+03  0.25552554918E+03  0.10566000000E+00 0.  1.
         13    1    1    2    0    0 -0.64966021561E+02 -0.59597615727E+02 -0.11689843717E+03  0.14641624068E+03  0.10566000000E+00 0. -1.
         -4    1    1    2    0  502  0.16203396562E+02  0.25381208603E+02  0.93398518063E+02  0.98132762045E+02  0.00000000000E+00 0. -1.
</event>
<event>
 5    1  0.4419198E-005  0.9830285E+02  0.7818608E-02  0.1167394E+00
         -4   -1    0    0    0  501 -0.00000000000E+00  0.00000000000E+00  0.49363538874E+03  0.49363538874E+03  0.00000000000E+00 0. -1.
         21   -1    0    0  501  502  0.00000000000E+00 -0.00000000000E+00 -0.14404694836E+03  0.14404694836E+03  0.00000000000E+00 0. -1.
        -13    1    1    2    0    0 -0.61093559127E+02  0.89513740049E+02  0.57676481255E+02  0.12276693479E+03  0.10566000000E+00 0.  1.
         13    1    1    2    0    0  0.55434562764E+02 -0.79008559426E+02  0.39729934321E+03  0.40885464715E+03  0.10566000000E+00 0. -1.
         -4    1    1    2    0  502  0.56589963633E+01 -0.10505180624E+02 -0.10538738409E+03  0.10606075516E+03  0.00000000000E+00 0. -1.
</event>
<event>
 5    1  0.4419198E-005  0.2215184E+03  0.7818608E-02  0.1050108E+00
         -4   -1    0    0    0  501 -0.00000000000E+00  0.00000000000E+00  0.66683919759E+03  0.66683919759E+03  0.00000000000E+00 0. -1.
         21   -1    0    0  501  502  0.00000000000E+00 -0.00000000000E+00 -0.71535815728E+03  0.71535815728E+03  0.00000000000E+00 0. -1.
        -13    1    1    2    0    0  0.19592754209E+03 -0.11791790247E+03  0.22600948003E+03  0.32151598670E+03  0.10566000000E+00 0.  1.
         13    1    1    2    0    0 -0.13653679413E+01  0.22382334656E+03  0.34021705420E+03  0.40724244601E+03  0.10566000000E+00 0. -1.
         -4    1    1    2    0  502 -0.19456217415E+03 -0.10590544409E+03 -0.61474549392E+03  0.65343892216E+03  0.00000000000E+00 0. -1.
</event>
<event>
 5    1  0.4419198E-005  0.2359944E+03  0.7818608E-02  0.1037918E+00
          4   -1    0    0  502    0 -0.00000000000E+00  0.00000000000E+00  0.10192714334E+04  0.10192714334E+04  0.00000000000E+00 0.  1.
         21   -1    0    0  501  502  0.00000000000E+00 -0.00000000000E+00 -0.15776413662E+03  0.15776413662E+03  0.00000000000E+00 0. -1.
        -13    1    1    2    0    0 -0.12846566850E+03 -0.19807645091E+03  0.84149372653E+03  0.87398478896E+03  0.10566000000E+00 0.  1.
         13    1    1    2    0    0  0.14770291005E+03  0.18466441050E+03  0.71027417119E+02  0.24690483853E+03  0.10566000000E+00 0. -1.
          4    1    1    2  501    0 -0.19237241554E+02  0.13412040405E+02 -0.51013846862E+02  0.56145942526E+02  0.00000000000E+00 0.  1.
</event>
<event>
 5    1  0.4419198E-005  0.3437690E+03  0.7818608E-02  0.1016407E+00
         21   -1    0    0  501  502  0.00000000000E+00  0.00000000000E+00  0.89609502890E+03  0.89609502890E+03  0.00000000000E+00 0.  1.
          4   -1    0    0  502    0 -0.00000000000E+00 -0.00000000000E+00 -0.42619761126E+03  0.42619761126E+03  0.00000000000E+00 0.  1.
        -13    1    1    2    0    0  0.31142968870E+03  0.34393874059E+03 -0.55107401253E+02  0.46724634308E+03  0.10566000000E+00 0.  1.
         13    1    1    2    0    0 -0.61179245384E+02 -0.13583630730E+03 -0.79224779836E+02  0.16873345653E+03  0.10566000000E+00 0. -1.
          4    1    1    2  501    0 -0.25025044332E+03 -0.20810243329E+03  0.60422959873E+03  0.68631284055E+03  0.00000000000E+00 0.  1.
</event>
<event>
 5    1  0.4419198E-005  0.1451801E+03  0.7818608E-02  0.1105965E+00
         21   -1    0    0  501  502  0.00000000000E+00  0.00000000000E+00  0.36570068206E+03  0.36570068206E+03  0.00000000000E+00 0. -1.
         -4   -1    0    0    0  501 -0.00000000000E+00 -0.00000000000E+00 -0.24679536392E+03  0.24679536392E+03  0.00000000000E+00 0. -1.
        -13    1    1    2    0    0  0.13953784270E+03 -0.68083540709E+02 -0.34326253052E+02  0.15901094576E+03  0.10566000000E+00 0.  1.
         13    1    1    2    0    0 -0.93203697091E+02  0.10991190499E+03 -0.11104912770E+03  0.18193261373E+03  0.10566000000E+00 0. -1.
         -4    1    1    2    0  502 -0.46334145607E+02 -0.41828364285E+02  0.26428069889E+03  0.27155248648E+03  0.00000000000E+00 0. -1.
</event>
<event>
 5    1  0.4419198E-005  0.3301181E+03  0.7818608E-02  0.1011204E+00
          4   -1    0    0  502    0 -0.00000000000E+00  0.00000000000E+00  0.27505701862E+04  0.27505701862E+04  0.00000000000E+00 0.  1.
         21   -1    0    0  501  502  0.00000000000E+00 -0.00000000000E+00 -0.13564585477E+03  0.13564585477E+03  0.00000000000E+00 0.  1.
        -13    1    1    2    0    0  0.33648153163E+03  0.28013170979E+03  0.20368184976E+04  0.20833442345E+04  0.10566000000E+00 0.  1.
         13    1    1    2    0    0 -0.27943518530E+02 -0.19663094721E+03  0.37447322446E+03  0.42388061601E+03  0.10566000000E+00 0. -1.
          4    1    1    2  501    0 -0.30853801310E+03 -0.83500762574E+02  0.20363260938E+03  0.37899119051E+03  0.00000000000E+00 0.  1.
</event>
<event>
 5    1  0.4419198E-005  0.1485637E+03  0.7818608E-02  0.1102537E+00
         21   -1    0    0  501  502  0.00000000000E+00  0.00000000000E+00  0.73607266373E+03  0.73607266373E+03  0.00000000000E+00 0.  1.
         -4   -1    0    0    0  501 -0.00000000000E+00 -0.00000000000E+00 -0.80620252967E+02  0.80620252967E+02  0.00000000000E+00 0. -1.
        -13    1    1    2    0    0 -0.10735880273E+03  0.96550956516E+02  0.47238202483E+03  0.49395626150E+03  0.10566000000E+00 0.  1.
         13    1    1    2    0    0  0.10459183330E+03 -0.10653349143E+03  0.10292879916E+02  0.14964889217E+03  0.10566000000E+00 0. -1.
         -4    1    1    2    0  502  0.27669694348E+01  0.99825349102E+01  0.17277750602E+03  0.17308776302E+03  0.00000000000E+00 0. -1.
</event>
<event>
 5    1  0.4419198E-005  0.3612874E+03  0.7818608E-02  0.1007950E+00
         -4   -1    0    0    0  501 -0.00000000000E+00  0.00000000000E+00  0.14813225386E+04  0.14813225386E+04  0.00000000000E+00 0. -1.
         21   -1    0    0  501  502  0.00000000000E+00 -0.00000000000E+00 -0.30704228429E+03  0.30704228429E+03  0.00000000000E+00 0. -1.
        -13    1    1    2    0    0 -0.83598289147E+02 -0.14598639981E+03  0.55633333602E+03  0.58121209107E+03  0.10566000000E+00 0.  1.
         13    1    1    2    0    0  0.20533844683E+03 -0.28402159627E+03 -0.97329951056E+02  0.36373792135E+03  0.10566000000E+00 0. -1.
         -4    1    1    2    0  502 -0.12174015769E+03  0.43000799608E+03  0.71527686935E+03  0.84341481046E+03  0.00000000000E+00 0. -1.
</event>
<event>
 5    1  0.4419198E-005  0.4193899E+03  0.7818608E-02  0.9862016E-01
         21   -1    0    0  501  502  0.00000000000E+00  0.00000000000E+00  0.21760952836E+03  0.21760952836E+03  0.00000000000E+00 0. -1.
         -4   -1    0    0    0  501 -0.00000000000E+00 -0.00000000000E+00 -0.17823169512E+04  0.17823169512E+04  0.00000000000E+00 0. -1.
        -13    1    1    2    0    0 -0.21850746719E+03  0.28224248116E+02 -0.27422204549E+03  0.35176677330E+03  0.10566000000E+00 0.  1.
         13    1    1    2    0    0  0.13608477779E+02 -0.42424877361E+03 -0.19838275455E+03  0.46853808921E+03  0.10566000000E+00 0. -1.
         -4    1    1    2    0  502  0.20489898941E+03  0.39602452550E+03 -0.10921026228E+04  0.11796216170E+04  0.00000000000E+00 0. -1.
</event>
<event>
 5    1  0.4419198E-005  0.9357051E+02  0.7818608E-02  0.1175655E+00
         -4   -1    0    0    0  501 -0.00000000000E+00  0.00000000000E+00  0.56720846063E+02  0.56720846063E+02  0.00000000000E+00 0. -1.
         21   -1    0    0  501  502  0.00000000000E+00 -0.00000000000E+00 -0.21924085278E+03  0.21924085278E+03  0.00000000000E+00 0.  1.
        -13    1    1    2    0    0  0.66234125892E+02  0.50606305303E+02 -0.13490991122E+03  0.15858326797E+03  0.10566000000E+00 0.  1.
         13    1    1    2    0    0 -0.73887680348E+02 -0.63945270097E+02 -0.18340811608E+02  0.99422248061E+02  0.10566000000E+00 0. -1.
         -4    1    1    2    0  502  0.76535544562E+01  0.13338964794E+02 -0.92692838883E+01  0.17956182818E+02  0.00000000000E+00 0. -1.
</event>
<event>
 5    1  0.4419198E-005  0.4856607E+03  0.7818608E-02  0.1011817E+00
          4   -1    0    0  502    0 -0.00000000000E+00  0.00000000000E+00  0.38763861425E+03  0.38763861425E+03  0.00000000000E+00 0.  1.
         21   -1    0    0  501  502  0.00000000000E+00 -0.00000000000E+00 -0.12276715494E+04  0.12276715494E+04  0.00000000000E+00 0.  1.
        -13    1    1    2    0    0  0.40880832822E+03  0.21980700987E+03 -0.64638173183E+03  0.79576926632E+03  0.10566000000E+00 0.  1.
         13    1    1    2    0    0  0.52877458407E+02  0.30734284790E+02  0.16999622313E+03  0.18066363472E+03  0.10566000000E+00 0. -1.
          4    1    1    2  501    0 -0.46168578663E+03 -0.25054129466E+03 -0.36364742645E+03  0.63887726260E+03  0.00000000000E+00 0.  1.
</event>
<event>
 5    1  0.4419198E-005  0.4925756E+03  0.7818608E-02  0.9943776E-01
         21   -1    0    0  501  502  0.00000000000E+00  0.00000000000E+00  0.31942257741E+03  0.31942257741E+03  0.00000000000E+00 0.  1.
          4   -1    0    0  502    0 -0.00000000000E+00 -0.00000000000E+00 -0.97685790607E+03  0.97685790607E+03  0.00000000000E+00 0.  1.
        -13    1    1    2    0    0  0.18003729566E+02  0.51230795787E+03 -0.15537306859E+03  0.53565322698E+03  0.10566000000E+00 0.  1.
         13    1    1    2    0    0 -0.90552920808E+02 -0.50043169579E+02 -0.92316509633E+02  0.13865965312E+03  0.10566000000E+00 0. -1.
          4    1    1    2  501    0  0.72549191242E+02 -0.46226478829E+03 -0.40974575044E+03  0.62196760337E+03  0.00000000000E+00 0.  1.
</event>
<event>
 5    1  0.4419198E-005  0.6627547E+03  0.7818608E-02  0.9178832E-01
          4   -1    0    0  502    0 -0.00000000000E+00  0.00000000000E+00  0.34058207296E+04  0.34058207296E+04  0.00000000000E+00 0.  1.
         21   -1    0    0  501  502  0.00000000000E+00 -0.00000000000E+00 -0.32355885296E+03  0.32355885296E+03  0.00000000000E+00 0. -1.
        -13    1    1    2    0    0 -0.12749947174E+03 -0.65923391444E+03  0.19823072438E+04  0.20929375263E+04  0.10566000000E+00 0.  1.
         13    1    1    2    0    0 -0.33175738341E+03  0.67295023180E+03  0.63751348269E+03  0.98455493890E+03  0.10566000000E+00 0. -1.
          4    1    1    2  501    0  0.45925685515E+03 -0.13716317358E+02  0.46244115013E+03  0.65188711730E+03  0.00000000000E+00 0.  1.
</event>
<event>
 5    1  0.4419198E-005  0.7446137E+02  0.7818608E-02  0.1215486E+00
         -4   -1    0    0    0  501 -0.00000000000E+00  0.00000000000E+00  0.37825267153E+02  0.37825267153E+02  0.00000000000E+00 0. -1.
         21   -1    0    0  501  502  0.00000000000E+00 -0.00000000000E+00 -0.27141865729E+03  0.27141865729E+03  0.00000000000E+00 0.  1.
        -13    1    1    2    0    0  0.63899490570E+02 -0.16265637901E+01 -0.10622268017E+03  0.12397201116E+03  0.10566000000E+00 0.  1.
         13    1    1    2    0    0 -0.78344935031E+02  0.16889436782E+02 -0.29866802754E+02  0.85529053488E+02  0.10566000000E+00 0. -1.
         -4    1    1    2    0  502  0.14445444461E+02 -0.15262872992E+02 -0.97503907217E+02  0.99742859796E+02  0.00000000000E+00 0. -1.
</event>
<event>
 5    1  0.4419198E-005  0.4606886E+03  0.7818608E-02  0.9862624E-01
         21   -1    0    0  501  502  0.00000000000E+00  0.00000000000E+00  0.13176488299E+03  0.13176488299E+03  0.00000000000E+00 0.  1.
          4   -1    0    0  502    0 -0.00000000000E+00 -0.00000000000E+00 -0.26697790323E+04  0.26697790323E+04  0.00000000000E+00 0.  1.
        -13    1    1    2    0    0 -0.35091086751E+03 -0.55360105314E+02 -0.15673323749E+04  0.16070886606E+04  0.10566000000E+00 0.  1.
         13    1    1    2    0    0 -0.13146783591E+03 -0.10115952881E+03 -0.38809193137E+03  0.42205734268E+03  0.10566000000E+00 0. -1.
          4    1    1    2  501    0  0.48237870342E+03  0.15651963412E+03 -0.58258984301E+03  0.77239791206E+03  0.00000000000E+00 0.  1.
</event>
<event>
 5    1  0.4419198E-005  0.2782766E+03  0.7818608E-02  0.1016698E+00
         21   -1    0    0  501  502  0.00000000000E+00  0.00000000000E+00  0.15930022821E+03  0.15930022821E+03  0.00000000000E+00 0.  1.
         -4   -1    0    0    0  501 -0.00000000000E+00 -0.00000000000E+00 -0.53149816668E+03  0.53149816668E+03  0.00000000000E+00 0. -1.
        -13    1    1    2    0    0  0.24257552178E+03  0.13011353920E+03 -0.11915307692E+03  0.29994980205E+03  0.10566000000E+00 0.  1.
         13    1    1    2    0    0 -0.25161115672E+03 -0.12377145093E+03 -0.25570878960E+03  0.37949248016E+03  0.10566000000E+00 0. -1.
         -4    1    1    2    0  502  0.90356349493E+01 -0.63420882731E+01  0.26639280512E+01  0.11356112683E+02  0.00000000000E+00 0. -1.
</event>
<event>
 5    1  0.4419198E-005  0.4402569E+03  0.7818608E-02  0.9839195E-01
         -4   -1    0    0    0  501 -0.00000000000E+00  0.00000000000E+00  0.18132118322E+04  0.18132118322E+04  0.00000000000E+00 0. -1.
         21   -1    0    0  501  502  0.00000000000E+00 -0.00000000000E+00 -0.79066350178E+03  0.79066350178E+03  0.00000000000E+00 0.  1.
        -13    1    1    2    0    0 -0.25176272699E+03 -0.82147783647E+03  0.99681104241E+03  0.13159948981E+04  0.10566000000E+00 0.  1.
         13    1    1    2    0    0  0.40908719732E+02  0.21292733350E+03  0.46175336862E+03  0.51012523688E+03  0.10566000000E+00 0. -1.
         -4    1    1    2    0  502  0.21085400726E+03  0.60855050297E+03 -0.43601608057E+03  0.77775519899E+03  0.00000000000E+00 0. -1.
</event>
<event>
 5    1  0.4419198E-005  0.4696053E+03  0.7818608E-02  0.9664204E-01
         21   -1    0    0  501  502  0.00000000000E+00  0.00000000000E+00  0.16755429818E+03  0.16755429818E+03  0.00000000000E+00 0. -1.
          4   -1    0    0  502    0 -0.00000000000E+00 -0.00000000000E+00 -0.29797378463E+04  0.29797378463E+04  0.00000000000E+00 0.  1.
        -13    1    1    2    0    0 -0.37379654086E+03 -0.22176447751E+03 -0.12581444295E+04  0.13311013313E+04  0.10566000000E+00 0.  1.
         13    1    1    2    0    0  0.17612591474E+03 -0.25495536866E+03 -0.10501497001E+04  0.10949141435E+04  0.10566000000E+00 0. -1.
          4    1    1    2  501    0  0.19767062612E+03  0.47671984617E+03 -0.50388941851E+03  0.72127666970E+03  0.00000000000E+00 0.  1.
</event>
<event>
 5    1  0.4419198E-005  0.5073512E+03  0.7818608E-02  0.9577083E-01
         -4   -1    0    0    0  501 -0.00000000000E+00  0.00000000000E+00  0.11018407270E+04  0.11018407270E+04  0.00000000000E+00 0. -1.
         21   -1    0    0  501  502  0.00000000000E+00 -0.00000000000E+00 -0.46668349660E+03  0.46668349660E+03  0.00000000000E+00 0.  1.
        -13    1    1    2    0    0 -0.61299000089E+02  0.32889087048E+03  0.24882766325E+03  0.41694362839E+03  0.10566000000E+00 0.  1.
         13    1    1    2    0    0  0.42667802285E+03  0.17553193933E+03  0.14519567163E+03  0.48368108411E+03  0.10566000000E+00 0. -1.
         -4    1    1    2    0  502 -0.36537902276E+03 -0.50442280980E+03  0.24113389549E+03  0.66789951106E+03  0.00000000000E+00 0. -1.
</event>
<event>
 5    1  0.4419198E-005  0.4665038E+03  0.7818608E-02  0.9554574E-01
         -4   -1    0    0    0  501 -0.00000000000E+00  0.00000000000E+00  0.72977008671E+03  0.72977008671E+03  0.00000000000E+00 0. -1.
         21   -1    0    0  501  502  0.00000000000E+00 -0.00000000000E+00 -0.92272043246E+03  0.92272043246E+03  0.00000000000E+00 0. -1.
        -13    1    1    2    0    0 -0.41705511836E+03  0.20660198753E+03  0.12198557935E+03  0.48114430863E+03  0.10566000000E+00 0.  1.
         13    1    1    2    0    0  0.50107770183E+03  0.54677669579E+02  0.23544447119E+03  0.55632959745E+03  0.10566000000E+00 0. -1.
         -4    1    1    2    0  502 -0.84022583470E+02 -0.26127965710E+03 -0.55038039629E+03  0.61501661309E+03  0.00000000000E+00 0. -1.
</event>
<event>
 5    1  0.4419198E-005  0.5274267E+03  0.7818608E-02  0.9419803E-01
         21   -1    0    0  501  502  0.00000000000E+00  0.00000000000E+00  0.99542837381E+03  0.99542837381E+03  0.00000000000E+00 0.  1.
         -4   -1    0    0    0  501 -0.00000000000E+00 -0.00000000000E+00 -0.54810161857E+03  0.54810161857E+03  0.00000000000E+00 0. -1.
        -13    1    1    2    0    0 -0.45170156160E+03  0.13999785180E+02  0.27667893087E+02  0.45276463887E+03  0.10566000000E+00 0.  1.
         13    1    1    2    0    0  0.62047170309E+03 -0.94311230006E+02 -0.41074484596E+01  0.62761184242E+03  0.10566000000E+00 0. -1.
         -4    1    1    2    0  502 -0.16877014149E+03  0.80311444825E+02  0.42376631062E+03  0.46315351110E+03  0.00000000000E+00 0. -1.
</event>
<event>
 5    1  0.4419198E-005  0.4478558E+03  0.7818608E-02  0.9600226E-01
         21   -1    0    0  501  502  0.00000000000E+00  0.00000000000E+00  0.71991846929E+03  0.71991846929E+03  0.00000000000E+00 0. -1.
         -4   -1    0    0    0  501 -0.00000000000E+00 -0.00000000000E+00 -0.10493191430E+04  0.10493191430E+04  0.00000000000E+00 0. -1.
        -13    1    1    2    0    0 -0.35571049902E+03  0.19089901342E+03 -0.54845219370E+03  0.68100823224E+03  0.10566000000E+00 0.  1.
         13    1    1    2    0    0  0.59171031527E+03 -0.16784386230E+03 -0.16506289558E+03  0.63681899310E+03  0.10566000000E+00 0. -1.
         -4    1    1    2    0  502 -0.23599981626E+03 -0.23055151124E+02  0.38411441553E+03  0.45141038699E+03  0.00000000000E+00 0. -1.
</event>
<event>
 5    1  0.4419198E-005  0.2627507E+03  0.7818608E-02  0.1023989E+00
         21   -1    0    0  501  502  0.00000000000E+00  0.00000000000E+00  0.83631303860E+03  0.83631303860E+03  0.00000000000E+00 0.  1.
         -4   -1    0    0    0  501 -0.00000000000E+00 -0.00000000000E+00 -0.31531980397E+03  0.31531980397E+03  0.00000000000E+00 0. -1.
        -13    1    1    2    0    0 -0.21748977345E+03 -0.15450439296E+03  0.37213048419E+03  0.45788046194E+03  0.10566000000E+00 0.  1.
         13    1    1    2    0    0  0.84970435227E+02  0.25607050170E+03 -0.18041436565E+03  0.32456344711E+03  0.10566000000E+00 0. -1.
         -4    1    1    2    0  502  0.13251933823E+03 -0.10156610874E+03  0.32927711609E+03  0.36918893352E+03  0.00000000000E+00 0. -1.
</event>
<event>
 5    1  0.4419198E-005  0.1205722E+03  0.7818608E-02  0.1134397E+00
         21   -1    0    0  501  502  0.00000000000E+00  0.00000000000E+00  0.21007029054E+03  0.21007029054E+03  0.00000000000E+00 0.  1.
         -4   -1    0    0    0  501 -0.00000000000E+00 -0.00000000000E+00 -0.84253169848E+02  0.84253169848E+02  0.00000000000E+00 0. -1.
        -13    1    1    2    0    0  0.12560293904E+03  0.14013134339E+02  0.64816067384E+02  0.14203379874E+03  0.10566000000E+00 0.  1.
         13    1    1    2    0    0 -0.11462839403E+03 -0.20138464149E+02  0.32031791149E+02  0.12071152913E+03  0.10566000000E+00 0. -1.
         -4    1    1    2    0  502 -0.10974545003E+02  0.61253298100E+01  0.28969262162E+02  0.31578132521E+02  0.00000000000E+00 0. -1.
</event>
<event>
 5    1  0.4419198E-005  0.4643378E+03  0.7818608E-02  0.9639373E-01
          4   -1    0    0  502    0 -0.00000000000E+00  0.00000000000E+00  0.34750477780E+04  0.34750477780E+04  0.00000000000E+00 0.  1.
         21   -1    0    0  501  502  0.00000000000E+00 -0.00000000000E+00 -0.14479542203E+03  0.14479542203E+03  0.00000000000E+00 0. -1.
        -13    1    1    2    0    0  0.37339330481E+03  0.29094574946E+03  0.15355057579E+04  0.16068135962E+04  0.10566000000E+00 0.  1.
         13    1    1    2    0    0 -0.28505980582E+03  0.20274053214E+03  0.11130311016E+04  0.11667052158E+04  0.10566000000E+00 0. -1.
          4    1    1    2  501    0 -0.88333498985E+02 -0.49368628160E+03  0.68171549647E+03  0.84632438805E+03  0.00000000000E+00 0.  1.
</event>
<event>
 5    1  0.4419198E-005  0.9985116E+02  0.7818608E-02  0.1164802E+00
         21   -1    0    0  501  502  0.00000000000E+00  0.00000000000E+00  0.22602767449E+02  0.22602767449E+02  0.00000000000E+00 0. -1.
         -4   -1    0    0    0  501 -0.00000000000E+00 -0.00000000000E+00 -0.61241404529E+03  0.61241404529E+03  0.00000000000E+00 0. -1.
        -13    1    1    2    0    0  0.14480910756E+02  0.83844341171E+02 -0.14657819143E+03  0.16948376822E+03  0.10566000000E+00 0.  1.
         13    1    1    2    0    0 -0.32407349010E+02 -0.10730998194E+03 -0.33031074388E+03  0.34881351347E+03  0.10566000000E+00 0. -1.
         -4    1    1    2    0  502  0.17926438255E+02  0.23465640773E+02 -0.11292234252E+03  0.11671953104E+03  0.00000000000E+00 0. -1.
</event>
<event>
 5    1  0.4419198E-005  0.1059748E+03  0.7818608E-02  0.1155031E+00
         -4   -1    0    0    0  501 -0.00000000000E+00  0.00000000000E+00  0.59855642571E+02  0.59855642571E+02  0.00000000000E+00 0. -1.
         21   -1    0    0  501  502  0.00000000000E+00 -0.00000000000E+00 -0.33663502546E+03  0.33663502546E+03  0.00000000000E+00 0.  1.
        -13    1    1    2    0    0  0.88703867243E+02 -0.17821267524E+02 -0.10835033767E+03  0.14115870670E+03  0.10566000000E+00 0.  1.
         13    1    1    2    0    0 -0.11281194589E+03  0.26458133362E+02 -0.37304335325E+02  0.12172999858E+03  0.10566000000E+00 0. -1.
         -4    1    1    2    0  502  0.24108078642E+02 -0.86368658388E+01 -0.13112470989E+03  0.13360196275E+03  0.00000000000E+00 0. -1.
</event>
<event>
 5    1  0.4419198E-005  0.5267147E+03  0.7818608E-02  0.9583276E-01
         -4   -1    0    0    0  501 -0.00000000000E+00  0.00000000000E+00  0.15067189200E+04  0.15067189200E+04  0.00000000000E+00 0. -1.
         21   -1    0    0  501  502  0.00000000000E+00 -0.00000000000E+00 -0.32917737395E+03  0.32917737395E+03  0.00000000000E+00 0. -1.
        -13    1    1    2    0    0  0.29034232049E+03  0.35091230354E+02  0.30286972606E+03  0.42102273056E+03  0.10566000000E+00 0.  1.
         13    1    1    2    0    0  0.25872500093E+03  0.28119861605E+03  0.62756484717E+03  0.73474412985E+03  0.10566000000E+00 0. -1.
         -4    1    1    2    0  502 -0.54906732142E+03 -0.31628984640E+03  0.24710697287E+03  0.68012943359E+03  0.00000000000E+00 0. -1.
</event>
<event>
 5    1  0.4419198E-005  0.5569841E+03  0.7818608E-02  0.9361119E-01
          4   -1    0    0  502    0 -0.00000000000E+00  0.00000000000E+00  0.96026319228E+03  0.96026319228E+03  0.00000000000E+00 0.  1.
         21   -1    0    0  501  502  0.00000000000E+00 -0.00000000000E+00 -0.35519294801E+03  0.35519294801E+03  0.00000000000E+00 0. -1.
        -13    1    1    2    0    0 -0.28758433202E+03 -0.47410486080E+03  0.41323483442E+03  0.69155130438E+03  0.10566000000E+00 0.  1.
         13    1    1    2    0    0  0.30514266749E+03  0.47026626324E+03  0.20973322415E+03  0.59854025958E+03  0.10566000000E+00 0. -1.
          4    1    1    2  501    0 -0.17558335469E+02  0.38385975521E+01 -0.17897814296E+02  0.25364576326E+02  0.00000000000E+00 0.  1.
</event>
<event>
 5    1  0.4419198E-005  0.2041486E+03  0.7818608E-02  0.1057328E+00
         21   -1    0    0  501  502  0.00000000000E+00  0.00000000000E+00  0.22417743527E+03  0.22417743527E+03  0.00000000000E+00 0.  1.
          4   -1    0    0  502    0 -0.00000000000E+00 -0.00000000000E+00 -0.43847160084E+03  0.43847160084E+03  0.00000000000E+00 0.  1.
        -13    1    1    2    0    0  0.28154039222E+03  0.61207571662E+02 -0.13407935679E+03  0.31778710541E+03  0.10566000000E+00 0.  1.
         13    1    1    2    0    0 -0.16507030304E+03 -0.26502623953E+02 -0.13174759901E+03  0.21285684164E+03  0.10566000000E+00 0. -1.
          4    1    1    2  501    0 -0.11647008918E+03 -0.34704947710E+02  0.51532790243E+02  0.13200508907E+03  0.00000000000E+00 0.  1.
</event>
<event>
 5    1  0.4419198E-005  0.4078563E+03  0.7818608E-02  0.9890188E-01
          4   -1    0    0  502    0 -0.00000000000E+00  0.00000000000E+00  0.40262336733E+03  0.40262336733E+03  0.00000000000E+00 0.  1.
         21   -1    0    0  501  502  0.00000000000E+00 -0.00000000000E+00 -0.99139438901E+03  0.99139438901E+03  0.00000000000E+00 0.  1.
        -13    1    1    2    0    0  0.34268659229E+03 -0.29246391688E+03 -0.74259278560E+03  0.86856968609E+03  0.10566000000E+00 0.  1.
         13    1    1    2    0    0 -0.10970347635E+03  0.18827233840E+03 -0.16641151656E+02  0.21853664503E+03  0.10566000000E+00 0. -1.
          4    1    1    2  501    0 -0.23298311594E+03  0.10419157847E+03  0.17046291557E+03  0.30691142521E+03  0.00000000000E+00 0.  1.
</event>
<event>
 5    1  0.4419198E-005  0.4041563E+03  0.7818608E-02  0.9717119E-01
          4   -1    0    0  502    0 -0.00000000000E+00  0.00000000000E+00  0.90991491244E+03  0.90991491244E+03  0.00000000000E+00 0.  1.
         21   -1    0    0  501  502  0.00000000000E+00 -0.00000000000E+00 -0.53774451348E+03  0.53774451348E+03  0.00000000000E+00 0.  1.
        -13    1    1    2    0    0  0.34759232107E+03  0.40034929513E+03  0.43986713386E+03  0.68889991029E+03  0.10566000000E+00 0.  1.
         13    1    1    2    0    0 -0.24180621312E+03 -0.21176245031E+03  0.22681429589E+03  0.39339333504E+03  0.10566000000E+00 0. -1.
          4    1    1    2  501    0 -0.10578610794E+03 -0.18858684482E+03 -0.29451103079E+03  0.36536618060E+03  0.00000000000E+00 0.  1.
</event>
<event>
 5    1  0.4419198E-005  0.1406178E+03  0.7818608E-02  0.1110752E+00
          4   -1    0    0  502    0 -0.00000000000E+00  0.00000000000E+00  0.43703570283E+02  0.43703570283E+02  0.00000000000E+00 0.  1.
         21   -1    0    0  501  502  0.00000000000E+00 -0.00000000000E+00 -0.95954791471E+03  0.95954791471E+03  0.00000000000E+00 0. -1.
        -13    1    1    2    0    0 -0.13383902402E+03  0.40811906554E+02 -0.12232610558E+03  0.18585527525E+03  0.10566000000E+00 0.  1.
         13    1    1    2    0    0  0.14925130061E+03  0.33798186292E+01 -0.59755671820E+03  0.61592322293E+03  0.10566000000E+00 0. -1.
          4    1    1    2  501    0 -0.15412276587E+02 -0.44191725183E+02 -0.19596152065E+03  0.20147298682E+03  0.00000000000E+00 0.  1.
</event>
<event>
 5    1  0.4419198E-005  0.2371852E+02  0.7818608E-02  0.1463867E+00
          4   -1    0    0  502    0 -0.00000000000E+00  0.00000000000E+00  0.46065980771E+02  0.46065980771E+02  0.00000000000E+00 0.  1.
         21   -1    0    0  501  502  0.00000000000E+00 -0.00000000000E+00 -0.16840438885E+03  0.16840438885E+03  0.00000000000E+00 0.  1.
        -13    1    1    2    0    0  0.19725696421E+02 -0.11438822166E+02  0.35156688637E+02  0.41904100895E+02  0.10566000000E+00 0.  1.
         13    1    1    2    0    0 -0.29989619625E+02  0.22026128982E+02 -0.41910581869E+02  0.56044943392E+02  0.10566000000E+00 0. -1.
          4    1    1    2  501    0  0.10263923204E+02 -0.10587306816E+02 -0.11558451485E+03  0.11652132533E+03  0.00000000000E+00 0.  1.
</event>
<event>
 5    1  0.4419198E-005  0.1291105E+03  0.7818608E-02  0.1123757E+00
         21   -1    0    0  501  502  0.00000000000E+00  0.00000000000E+00  0.21667911530E+03  0.21667911530E+03  0.00000000000E+00 0. -1.
          4   -1    0    0  502    0 -0.00000000000E+00 -0.00000000000E+00 -0.89463271415E+02  0.89463271415E+02  0.00000000000E+00 0.  1.
        -13    1    1    2    0    0  0.39439356204E+02  0.12836328306E+03  0.57173258682E+02  0.14594995008E+03  0.10566000000E+00 0.  1.
         13    1    1    2    0    0 -0.49762049615E+02 -0.11437790247E+03  0.52000848239E+02  0.13513942998E+03  0.10566000000E+00 0. -1.
          4    1    1    2  501    0  0.10322693411E+02 -0.13985380595E+02  0.18041736962E+02  0.25053006651E+02  0.00000000000E+00 0.  1.
</event>
<event>
 5    1  0.4419198E-005  0.3092841E+03  0.7818608E-02  0.1011662E+00
         21   -1    0    0  501  502  0.00000000000E+00  0.00000000000E+00  0.19506974177E+03  0.19506974177E+03  0.00000000000E+00 0.  1.
         -4   -1    0    0    0  501 -0.00000000000E+00 -0.00000000000E+00 -0.19492226487E+04  0.19492226487E+04  0.00000000000E+00 0. -1.
        -13    1    1    2    0    0  0.85860952682E+02  0.22195619448E+03 -0.42814209671E+03  0.48983907725E+03  0.10566000000E+00 0.  1.
         13    1    1    2    0    0 -0.37600428652E+03 -0.12160128000E+03 -0.12853946747E+04  0.13447697110E+04  0.10566000000E+00 0. -1.
         -4    1    1    2    0  502  0.29014333384E+03 -0.10035491449E+03 -0.40616135566E+02  0.30968360225E+03  0.00000000000E+00 0. -1.
</event>
<event>
 5    1  0.4419198E-005  0.3316042E+03  0.7818608E-02  0.1000721E+00
         21   -1    0    0  501  502  0.00000000000E+00  0.00000000000E+00  0.26421052549E+03  0.26421052549E+03  0.00000000000E+00 0. -1.
         -4   -1    0    0    0  501 -0.00000000000E+00 -0.00000000000E+00 -0.17116318957E+04  0.17116318957E+04  0.00000000000E+00 0. -1.
        -13    1    1    2    0    0  0.36347036857E+03 -0.20135372336E+02 -0.93188082914E+03  0.10004589112E+04  0.10566000000E+00 0.  1.
         13    1    1    2    0    0 -0.51997146842E+02  0.30532953428E+03 -0.10045955764E+01  0.30972705429E+03  0.10566000000E+00 0. -1.
         -4    1    1    2    0  502 -0.31147322173E+03 -0.28519416194E+03 -0.51453594551E+03  0.66565645575E+03  0.00000000000E+00 0. -1.
</event>
<event>
 5    1  0.4419198E-005  0.3450570E+03  0.7818608E-02  0.9902719E-01
         -4   -1    0    0    0  501 -0.00000000000E+00  0.00000000000E+00  0.93733852875E+03  0.93733852875E+03  0.00000000000E+00 0. -1.
         21   -1    0    0  501  502  0.00000000000E+00 -0.00000000000E+00 -0.30964611601E+03  0.30964611601E+03  0.00000000000E+00 0.  1.
        -13    1    1    2    0    0  0.27654756922E+02 -0.34279624352E+03  0.76967261964E+03  0.84301245705E+03  0.10566000000E+00 0.  1.
         13    1    1    2    0    0 -0.93399395025E+01  0.35306347341E+03 -0.11864747896E+03  0.37258326069E+03  0.10566000000E+00 0. -1.
         -4    1    1    2    0  502 -0.18314817419E+02 -0.10267229888E+02 -0.23332727941E+02  0.31388927026E+02  0.00000000000E+00 0. -1.
</event>
<event>
 5    1  0.4419198E-005  0.3941322E+02  0.7818608E-02  0.1342119E+00
          4   -1    0    0  502    0 -0.00000000000E+00  0.00000000000E+00  0.29328267290E+02  0.29328267290E+02  0.00000000000E+00 0.  1.
         21   -1    0    0  501  502  0.00000000000E+00 -0.00000000000E+00 -0.57838373369E+03  0.57838373369E+03  0.00000000000E+00 0.  1.
        -13    1    1    2    0    0 -0.37919828456E+02 -0.12806328962E+02  0.12171634323E+02  0.41833901297E+02  0.10566000000E+00 0.  1.
         13    1    1    2    0    0  0.36583082168E+02 -0.91740258728E+01 -0.17473174477E+03  0.17875591863E+03  0.10566000000E+00 0. -1.
          4    1    1    2  501    0  0.13367462873E+01  0.21980354835E+02 -0.38649535595E+03  0.38712218105E+03  0.00000000000E+00 0.  1.
</event>
<event>
 5    1  0.4419198E-005  0.2354698E+03  0.7818608E-02  0.1038210E+00
          4   -1    0    0  502    0 -0.00000000000E+00  0.00000000000E+00  0.11582973860E+04  0.11582973860E+04  0.00000000000E+00 0.  1.
         21   -1    0    0  501  502  0.00000000000E+00 -0.00000000000E+00 -0.87069053611E+02  0.87069053611E+02  0.00000000000E+00 0. -1.
        -13    1    1    2    0    0 -0.88324247412E+02 -0.20025594647E+03  0.61270789954E+03  0.65062631218E+03  0.10566000000E+00 0.  1.
         13    1    1    2    0    0  0.58648522587E+02  0.26606504998E+03  0.44426696054E+03  0.52115583410E+03  0.10566000000E+00 0. -1.
          4    1    1    2  501    0  0.29675724825E+02 -0.65809103511E+02  0.14253472279E+02  0.73584293302E+02  0.00000000000E+00 0.  1.
</event>
<event>
 5    1  0.4419198E-005  0.1611640E+03  0.7818608E-02  0.1108045E+00
         -4   -1    0    0    0  501 -0.00000000000E+00  0.00000000000E+00  0.37578851159E+03  0.37578851159E+03  0.00000000000E+00 0. -1.
         21   -1    0    0  501  502  0.00000000000E+00 -0.00000000000E+00 -0.44566353962E+03  0.44566353962E+03  0.00000000000E+00 0.  1.
        -13    1    1    2    0    0  0.99857602043E+02 -0.10248653599E+02 -0.26486796802E+03  0.28325187949E+03  0.10566000000E+00 0.  1.
         13    1    1    2    0    0 -0.15274643818E+02  0.15300615949E+03  0.30329727940E+03  0.34004918827E+03  0.10566000000E+00 0. -1.
         -4    1    1    2    0  502 -0.84582958225E+02 -0.14275750589E+03 -0.10830433941E+03  0.19815098346E+03  0.00000000000E+00 0. -1.
</event>
<event>
 5    1  0.4419198E-005  0.6919584E+03  0.7818608E-02  0.9134726E-01
          4   -1    0    0  502    0 -0.00000000000E+00  0.00000000000E+00  0.34131439425E+04  0.34131439425E+04  0.00000000000E+00 0.  1.
         21   -1    0    0  501  502  0.00000000000E+00 -0.00000000000E+00 -0.24678304451E+03  0.24678304451E+03  0.00000000000E+00 0. -1.
        -13    1    1    2    0    0  0.14400697966E+03  0.80171671345E+03  0.10950551602E+04  0.13647833212E+04  0.10566000000E+00 0.  1.
         13    1    1    2    0    0 -0.33267267795E+03 -0.53918413631E+03  0.10761925438E+04  0.12488318726E+04  0.10566000000E+00 0. -1.
          4    1    1    2  501    0  0.18866569829E+03 -0.26253257713E+03  0.99511319404E+03  0.10463117933E+04  0.00000000000E+00 0.  1.
</event>
<event>
 5    1  0.4419198E-005  0.1859826E+03  0.7818608E-02  0.1094066E+00
         -4   -1    0    0    0  501 -0.00000000000E+00  0.00000000000E+00  0.10484671491E+04  0.10484671491E+04  0.00000000000E+00 0. -1.
         21   -1    0    0  501  502  0.00000000000E+00 -0.00000000000E+00 -0.34761432039E+03  0.34761432039E+03  0.00000000000E+00 0. -1.
        -13    1    1    2    0    0 -0.49589961684E+02  0.81417371045E+02  0.30702569825E+03  0.32148521453E+03  0.10566000000E+00 0.  1.
         13    1    1    2    0    0 -0.18197407068E+03  0.25646910534E+02 -0.29078842073E+03  0.34399163248E+03  0.10566000000E+00 0. -1.
         -4    1    1    2    0  502  0.23156403237E+03 -0.10706428158E+03  0.68461555117E+03  0.73060462248E+03  0.00000000000E+00 0. -1.
</event>
<event>
 5    1  0.4419198E-005  0.4697864E+03  0.7818608E-02  0.9628764E-01
         21   -1    0    0  501  502  0.00000000000E+00  0.00000000000E+00  0.30595803454E+03  0.30595803454E+03  0.00000000000E+00 0. -1.
         -4   -1    0    0    0  501 -0.00000000000E+00 -0.00000000000E+00 -0.20219763370E+04  0.20219763370E+04  0.00000000000E+00 0. -1.
        -13    1    1    2    0    0 -0.24674661067E+03  0.24916937671E+03 -0.10741763268E+04  0.11299663979E+04  0.10566000000E+00 0.  1.
         13    1    1    2    0    0 -0.29448164939E+03  0.13796479131E+03 -0.32924120596E+03  0.46276722910E+03  0.10566000000E+00 0. -1.
         -4    1    1    2    0  502  0.54122826006E+03 -0.38713416802E+03 -0.31260076970E+03  0.73520074453E+03  0.00000000000E+00 0. -1.
</event>
<event>
 5    1  0.4419198E-005  0.6275570E+03  0.7818608E-02  0.9235262E-01
          4   -1    0    0  502    0 -0.00000000000E+00  0.00000000000E+00  0.26358898459E+04  0.26358898459E+04  0.00000000000E+00 0.  1.
         21   -1    0    0  501  502  0.00000000000E+00 -0.00000000000E+00 -0.25926883579E+03  0.25926883579E+03  0.00000000000E+00 0. -1.
        -13    1    1    2    0    0 -0.29067753877E+03 -0.56329186584E+03  0.64036193636E+03  0.90102973223E+03  0.10566000000E+00 0.  1.
         13    1    1    2    0    0  0.29214520716E+03  0.55255109887E+03  0.18124374492E+04  0.19171831048E+04  0.10566000000E+00 0. -1.
          4    1    1    2  501    0 -0.14676683966E+01  0.10740766964E+02 -0.76178375443E+02  0.76945844662E+02  0.00000000000E+00 0.  1.
</event>
<event>
 5    1  0.4419198E-005  0.3926187E+03  0.7818608E-02  0.9750608E-01
         -4   -1    0    0    0  501 -0.00000000000E+00  0.00000000000E+00  0.30377682177E+04  0.30377682177E+04  0.00000000000E+00 0. -1.
         21   -1    0    0  501  502  0.00000000000E+00 -0.00000000000E+00 -0.13768467186E+03  0.13768467186E+03  0.00000000000E+00 0. -1.
        -13    1    1    2    0    0  0.36306184438E+03  0.13216132572E+03  0.16143226843E+04  0.16599151361E+04  0.10566000000E+00 0.  1.
         13    1    1    2    0    0 -0.39910323059E+03 -0.66138822540E+02  0.13545112355E+04  0.14136330609E+04  0.10566000000E+00 0. -1.
         -4    1    1    2    0  502  0.36041386209E+02 -0.66022503184E+02 -0.68750373981E+02  0.10190469258E+03  0.00000000000E+00 0. -1.
</event>
<event>
 5    1  0.4419198E-005  0.3205752E+03  0.7818608E-02  0.1013623E+00
         21   -1    0    0  501  502  0.00000000000E+00  0.00000000000E+00  0.93014861582E+03  0.93014861582E+03  0.00000000000E+00 0.  1.
          4   -1    0    0  502    0 -0.00000000000E+00 -0.00000000000E+00 -0.41315549977E+03  0.41315549977E+03  0.00000000000E+00 0.  1.
        -13    1    1    2    0    0  0.19396778781E+02  0.27764539518E+03 -0.26675194420E+03  0.38551240108E+03  0.10566000000E+00 0.  1.
         13    1    1    2    0    0  0.19899095848E+03 -0.26349121239E+02  0.18638034699E+03  0.27391480912E+03  0.10566000000E+00 0. -1.
          4    1    1    2  501    0 -0.21838773726E+03 -0.25129627394E+03  0.59736471326E+03  0.68387690539E+03  0.00000000000E+00 0.  1.
</event>
<event>
 5    1  0.4419198E-005  0.6218367E+02  0.7818608E-02  0.1248862E+00
         21   -1    0    0  501  502  0.00000000000E+00  0.00000000000E+00  0.25682904907E+03  0.25682904907E+03  0.00000000000E+00 0.  1.
         -4   -1    0    0    0  501 -0.00000000000E+00 -0.00000000000E+00 -0.43452915719E+02  0.43452915719E+02  0.00000000000E+00 0. -1.
        -13    1    1    2    0    0  0.44393215536E+02  0.27022239817E+02  0.16875981438E+03  0.17658098749E+03  0.10566000000E+00 0.  1.
         13    1    1    2    0    0 -0.52636569345E+02 -0.35941667560E+02 -0.12803780283E+02  0.65010459565E+02  0.10566000000E+00 0. -1.
         -4    1    1    2    0  502  0.82433538088E+01  0.89194277422E+01  0.57420099257E+02  0.58690517734E+02  0.00000000000E+00 0. -1.
</event>
<event>
 5    1  0.4419198E-005  0.8441283E+02  0.7818608E-02  0.1201551E+00
         -4   -1    0    0    0  501 -0.00000000000E+00  0.00000000000E+00  0.63828521831E+02  0.63828521831E+02  0.00000000000E+00 0. -1.
         21   -1    0    0  501  502  0.00000000000E+00 -0.00000000000E+00 -0.34633746735E+03  0.34633746735E+03  0.00000000000E+00 0.  1.
        -13    1    1    2    0    0 -0.92981263206E+02  0.79762476029E+02 -0.14322471281E+03  0.18846988463E+03  0.10566000000E+00 0.  1.
         13    1    1    2    0    0  0.63273482225E+02 -0.74998684751E+00 -0.55124422564E+01  0.63517668541E+02  0.10566000000E+00 0. -1.
         -4    1    1    2    0  502  0.29707780981E+02 -0.79012489181E+02 -0.13377179046E+03  0.15817843601E+03  0.00000000000E+00 0. -1.
</event>
<event>
 5    1  0.4419198E-005  0.3792946E+02  0.7818608E-02  0.1350606E+00
         21   -1    0    0  501  502  0.00000000000E+00  0.00000000000E+00  0.10886097668E+03  0.10886097668E+03  0.00000000000E+00 0.  1.
         -4   -1    0    0    0  501 -0.00000000000E+00 -0.00000000000E+00 -0.61305851371E+02  0.61305851371E+02  0.00000000000E+00 0. -1.
        -13    1    1    2    0    0  0.44159686609E+02 -0.43750942176E+02  0.36744084790E+02  0.72210537969E+02  0.10566000000E+00 0.  1.
         13    1    1    2    0    0 -0.33646392808E+02  0.10006396590E+02 -0.28410182455E+02  0.45159244378E+02  0.10566000000E+00 0. -1.
         -4    1    1    2    0  502 -0.10513293801E+02  0.33744545586E+02  0.39221222972E+02  0.52797045702E+02  0.00000000000E+00 0. -1.
</event>
<event>
 5    1  0.4419198E-005  0.1181674E+03  0.7818608E-02  0.1171332E+00
         21   -1    0    0  501  502  0.00000000000E+00  0.00000000000E+00  0.63249071305E+02  0.63249071305E+02  0.00000000000E+00 0. -1.
         -4   -1    0    0    0  501 -0.00000000000E+00 -0.00000000000E+00 -0.65550926813E+03  0.65550926813E+03  0.00000000000E+00 0. -1.
        -13    1    1    2    0    0 -0.14496891681E+02 -0.49412092907E+02 -0.44303594497E+02  0.67930364663E+02  0.10566000000E+00 0.  1.
         13    1    1    2    0    0 -0.67135823466E+02  0.13005953681E+03 -0.50902830266E+03  0.52965321294E+03  0.10566000000E+00 0. -1.
         -4    1    1    2    0  502  0.81632715147E+02 -0.80647443899E+02 -0.38928299670E+02  0.12117476183E+03  0.00000000000E+00 0. -1.
</event>
<event>
 5    1  0.4419198E-005  0.4611048E+03  0.7818608E-02  0.9734003E-01
         -4   -1    0    0    0  501 -0.00000000000E+00  0.00000000000E+00  0.96342204361E+03  0.96342204361E+03  0.00000000000E+00 0. -1.
         21   -1    0    0  501  502  0.00000000000E+00 -0.00000000000E+00 -0.60962577389E+03  0.60962577389E+03  0.00000000000E+00 0. -1.
        -13    1    1    2    0    0 -0.49761756817E+02 -0.25180885933E+03  0.47376224935E+03  0.53882707259E+03  0.10566000000E+00 0.  1.
         13    1    1    2    0    0 -0.41802947722E+03 -0.78167948914E+02 -0.17340545010E+03  0.45926934728E+03  0.10566000000E+00 0. -1.
         -4    1    1    2    0  502  0.46779123404E+03  0.32997680825E+03  0.53439470469E+02  0.57495139762E+03  0.00000000000E+00 0. -1.
</event>
<event>
 5    1  0.4419198E-005  0.1938961E+03  0.7818608E-02  0.1064403E+00
         21   -1    0    0  501  502  0.00000000000E+00  0.00000000000E+00  0.84008789147E+03  0.84008789147E+03  0.00000000000E+00 0.  1.
         -4   -1    0    0    0  501 -0.00000000000E+00 -0.00000000000E+00 -0.78147268086E+02  0.78147268086E+02  0.00000000000E+00 0. -1.
        -13    1    1    2    0    0  0.15551517602E+03  0.47921646895E+02  0.42060796798E+03  0.45099060756E+03  0.10566000000E+00 0.  1.
         13    1    1    2    0    0 -0.19542460445E+03 -0.66534772126E+02  0.11428011309E+03  0.23596102928E+03  0.10566000000E+00 0. -1.
         -4    1    1    2    0  502  0.39909428434E+02  0.18613125231E+02  0.22705254232E+03  0.23128352272E+03  0.00000000000E+00 0. -1.
</event>
<event>
 5    1  0.4419198E-005  0.4658783E+03  0.7818608E-02  0.9556069E-01
          4   -1    0    0  502    0 -0.00000000000E+00  0.00000000000E+00  0.25499585358E+04  0.25499585358E+04  0.00000000000E+00 0.  1.
         21   -1    0    0  501  502  0.00000000000E+00 -0.00000000000E+00 -0.23758852503E+03  0.23758852503E+03  0.00000000000E+00 0.  1.
        -13    1    1    2    0    0  0.39876612839E+03 -0.28255784927E+03  0.21771383535E+04  0.22313190684E+04  0.10566000000E+00 0.  1.
         13    1    1    2    0    0 -0.32026212558E+03  0.18949611317E+03  0.19552552471E+03  0.42036513648E+03  0.10566000000E+00 0. -1.
          4    1    1    2  501    0 -0.78504002810E+02  0.93061736102E+02 -0.60293867457E+02  0.13586285598E+03  0.00000000000E+00 0.  1.
</event>
<event>
 5    1  0.4419198E-005  0.4253293E+03  0.7818608E-02  0.9666451E-01
         -4   -1    0    0    0  501 -0.00000000000E+00  0.00000000000E+00  0.21773537792E+04  0.21773537792E+04  0.00000000000E+00 0. -1.
         21   -1    0    0  501  502  0.00000000000E+00 -0.00000000000E+00 -0.29311653039E+03  0.29311653039E+03  0.00000000000E+00 0. -1.
        -13    1    1    2    0    0  0.31700171300E+03  0.29233006223E+03  0.92056692613E+03  0.10165581282E+04  0.10566000000E+00 0.  1.
         13    1    1    2    0    0  0.17422509508E+03 -0.24878055254E+03  0.90821118535E+03  0.95765010073E+03  0.10566000000E+00 0. -1.
         -4    1    1    2    0  502 -0.49122680808E+03 -0.43549509684E+02  0.55459137302E+02  0.49626208064E+03  0.00000000000E+00 0. -1.
</event>
<event>
 5    1  0.4419198E-005  0.3968091E+03  0.7818608E-02  0.1005090E+00
         -4   -1    0    0    0  501 -0.00000000000E+00  0.00000000000E+00  0.28123850856E+03  0.28123850856E+03  0.00000000000E+00 0. -1.
         21   -1    0    0  501  502  0.00000000000E+00 -0.00000000000E+00 -0.12941589918E+04  0.12941589918E+04  0.00000000000E+00 0. -1.
        -13    1    1    2    0    0  0.82795109643E+02  0.11200019322E+03  0.16497320907E+02  0.14025421998E+03  0.10566000000E+00 0.  1.
         13    1    1    2    0    0 -0.69262645236E+02  0.30730574464E+03  0.90412747661E+01  0.31514423765E+03  0.10566000000E+00 0. -1.
         -4    1    1    2    0  502 -0.13532464407E+02 -0.41930593786E+03 -0.10384590790E+04  0.11199990428E+04  0.00000000000E+00 0. -1.
</event>
<event>
 5    1  0.4419198E-005  0.1195547E+03  0.7818608E-02  0.1147315E+00
         21   -1    0    0  501  502  0.00000000000E+00  0.00000000000E+00  0.29952960423E+03  0.29952960423E+03  0.00000000000E+00 0.  1.
          4   -1    0    0  502    0 -0.00000000000E+00 -0.00000000000E+00 -0.15930135143E+03  0.15930135143E+03  0.00000000000E+00 0.  1.
        -13    1    1    2    0    0 -0.71569799087E+02  0.10560151700E+03  0.20273298024E+03  0.23952993336E+03  0.10566000000E+00 0.  1.
         13    1    1    2    0    0  0.88829339122E+02  0.94289935046E+01 -0.49849846907E+02  0.10229650927E+03  0.10566000000E+00 0. -1.
          4    1    1    2  501    0 -0.17259540035E+02 -0.11503051051E+03 -0.12654880531E+02  0.11700451304E+03  0.00000000000E+00 0.  1.
</event>
<event>
 5    1  0.4419198E-005  0.7296416E+02  0.7818608E-02  0.1219158E+00
          4   -1    0    0  502    0 -0.00000000000E+00  0.00000000000E+00  0.12361314436E+03  0.12361314436E+03  0.00000000000E+00 0.  1.
         21   -1    0    0  501  502  0.00000000000E+00 -0.00000000000E+00 -0.15446581398E+03  0.15446581398E+03  0.00000000000E+00 0. -1.
        -13    1    1    2    0    0 -0.26632514587E+02  0.72399905914E+02  0.97841178605E+02  0.12459512272E+03  0.10566000000E+00 0.  1.
         13    1    1    2    0    0  0.68367020534E+01 -0.51337723354E+02 -0.61932550061E+02  0.80733848263E+02  0.10566000000E+00 0. -1.
          4    1    1    2  501    0  0.19795812533E+02 -0.21062182560E+02 -0.66761298163E+02  0.72749987357E+02  0.00000000000E+00 0.  1.
</event>
<event>
 5    1  0.4419198E-005  0.3072540E+03  0.7818608E-02  0.1004355E+00
         21   -1    0    0  501  502  0.00000000000E+00  0.00000000000E+00  0.42204093628E+03  0.42204093628E+03  0.00000000000E+00 0. -1.
         -4   -1    0    0    0  501 -0.00000000000E+00 -0.00000000000E+00 -0.94809950524E+03  0.94809950524E+03  0.00000000000E+00 0. -1.
        -13    1    1    2    0    0  0.28608317300E+03 -0.29572565621E+02 -0.51013187964E+03  0.58562160505E+03  0.10566000000E+00 0.  1.
         13    1    1    2    0    0 -0.34067616089E+03  0.72770474401E+02 -0.31972730622E+03  0.47284389607E+03  0.10566000000E+00 0. -1.
         -4    1    1    2    0  502  0.54592987887E+02 -0.43197908780E+02  0.30380061690E+03  0.31167494041E+03  0.00000000000E+00 0. -1.
</event>
<event>
 5    1  0.4419198E-005  0.1409387E+03  0.7818608E-02  0.1124482E+00
         21   -1    0    0  501  502  0.00000000000E+00  0.00000000000E+00  0.31754543956E+02  0.31754543956E+02  0.00000000000E+00 0. -1.
         -4   -1    0    0    0  501 -0.00000000000E+00 -0.00000000000E+00 -0.13925566343E+04  0.13925566343E+04  0.00000000000E+00 0. -1.
        -13    1    1    2    0    0 -0.11922393287E+02 -0.96674199001E+02 -0.50305949708E+03  0.51240307667E+03  0.10566000000E+00 0.  1.
         13    1    1    2    0    0 -0.10573074348E+03  0.14573094779E+03 -0.55328443944E+03  0.58184205876E+03  0.10566000000E+00 0. -1.
         -4    1    1    2    0  502  0.11765313676E+03 -0.49056748788E+02 -0.30445815382E+03  0.33006604281E+03  0.00000000000E+00 0. -1.
</event>
<event>
 5    1  0.4419198E-005  0.2772182E+03  0.7818608E-02  0.1017179E+00
         21   -1    0    0  501  502  0.00000000000E+00  0.00000000000E+00  0.27477904833E+03  0.27477904833E+03  0.00000000000E+00 0. -1.
         -4   -1    0    0    0  501 -0.00000000000E+00 -0.00000000000E+00 -0.16963521750E+04  0.16963521750E+04  0.00000000000E+00 0. -1.
        -13    1    1    2    0    0 -0.19724603076E+03  0.24078225353E+03 -0.32212818965E+03  0.44793824574E+03  0.10566000000E+00 0.  1.
         13    1    1    2    0    0  0.80019763130E+02 -0.26170487346E+03 -0.12788842362E+04  0.13078369562E+04  0.10566000000E+00 0. -1.
         -4    1    1    2    0  502  0.11722626763E+03  0.20922619934E+02  0.17943929918E+03  0.21535602137E+03  0.00000000000E+00 0. -1.
</event>
<event>
 5    1  0.4419198E-005  0.4462249E+03  0.7818608E-02  0.1005879E+00
         -4   -1    0    0    0  501 -0.00000000000E+00  0.00000000000E+00  0.45549481576E+03  0.45549481576E+03  0.00000000000E+00 0. -1.
         21   -1    0    0  501  502  0.00000000000E+00 -0.00000000000E+00 -0.74952762268E+03  0.74952762268E+03  0.00000000000E+00 0. -1.
        -13    1    1    2    0    0 -0.92013597709E+02  0.25448470629E+02  0.88942141343E+02  0.13047927993E+03  0.10566000000E+00 0.  1.
         13    1    1    2    0    0  0.48417414563E+03 -0.17607647729E+03 -0.13951045946E+02  0.51538545963E+03  0.10566000000E+00 0. -1.
         -4    1    1    2    0  502 -0.39216054792E+03  0.15062800666E+03 -0.36902390232E+03  0.55915769888E+03  0.00000000000E+00 0. -1.
</event>
<event>
 5    1  0.4419198E-005  0.4750979E+03  0.7818608E-02  0.9748019E-01
          4   -1    0    0  502    0 -0.00000000000E+00  0.00000000000E+00  0.33520692149E+04  0.33520692149E+04  0.00000000000E+00 0.  1.
         21   -1    0    0  501  502  0.00000000000E+00 -0.00000000000E+00 -0.11677210131E+03  0.11677210131E+03  0.00000000000E+00 0.  1.
        -13    1    1    2    0    0  0.21747859978E+03  0.29050344957E+03  0.15813905406E+04  0.16224935281E+04  0.10566000000E+00 0.  1.
         13    1    1    2    0    0  0.22092958730E+03  0.34254196350E+02  0.81912191262E+03  0.84908418394E+03  0.10566000000E+00 0. -1.
          4    1    1    2  501    0 -0.43840818708E+03 -0.32475764592E+03  0.83478466035E+03  0.99726360419E+03  0.00000000000E+00 0.  1.
</event>
<event>
 5    1  0.4419198E-005  0.8351920E+02  0.7818608E-02  0.1195141E+00
         -4   -1    0    0    0  501 -0.00000000000E+00  0.00000000000E+00  0.10522048574E+03  0.10522048574E+03  0.00000000000E+00 0. -1.
         21   -1    0    0  501  502  0.00000000000E+00 -0.00000000000E+00 -0.16813001102E+03  0.16813001102E+03  0.00000000000E+00 0.  1.
        -13    1    1    2    0    0  0.61753584126E+01  0.93033721122E+02  0.26031357419E+02  0.96804189219E+02  0.10566000000E+00 0.  1.
         13    1    1    2    0    0  0.14513614889E+02 -0.74123773574E+02  0.76999960567E+01  0.75922855119E+02  0.10566000000E+00 0. -1.
         -4    1    1    2    0  502 -0.20688973302E+02 -0.18909947547E+02 -0.96640878747E+02  0.10062345242E+03  0.00000000000E+00 0. -1.
</event>
<event>
 5    1  0.4419198E-005  0.4764618E+02  0.7818608E-02  0.1336956E+00
          4   -1    0    0  502    0 -0.00000000000E+00  0.00000000000E+00  0.12345541557E+03  0.12345541557E+03  0.00000000000E+00 0.  1.
         21   -1    0    0  501  502  0.00000000000E+00 -0.00000000000E+00 -0.50420267822E+02  0.50420267822E+02  0.00000000000E+00 0.  1.
        -13    1    1    2    0    0  0.60383493378E+02  0.31448849537E+02  0.67051242134E+02  0.95556667195E+02  0.10566000000E+00 0.  1.
         13    1    1    2    0    0 -0.22670628403E+02 -0.93318417807E+01  0.20806037704E+02  0.32154984562E+02  0.10566000000E+00 0. -1.
          4    1    1    2  501    0 -0.37712864975E+02 -0.22117007756E+02 -0.14822132092E+02  0.46164031631E+02  0.00000000000E+00 0.  1.
</event>
<event>
 5    1  0.4419198E-005  0.2127188E+03  0.7818608E-02  0.1051750E+00
          4   -1    0    0  502    0 -0.00000000000E+00  0.00000000000E+00  0.28287502727E+03  0.28287502727E+03  0.00000000000E+00 0.  1.
         21   -1    0    0  501  502  0.00000000000E+00 -0.00000000000E+00 -0.19377209263E+03  0.19377209263E+03  0.00000000000E+00 0. -1.
        -13    1    1    2    0    0 -0.18443879974E+03  0.11127783823E+03  0.10925695242E+03  0.24153161480E+03  0.10566000000E+00 0.  1.
         13    1    1    2    0    0  0.18909459521E+03 -0.89033980301E+02 -0.75826324356E+01  0.20914426376E+03  0.10566000000E+00 0. -1.
          4    1    1    2  501    0 -0.46557954721E+01 -0.22243857933E+02 -0.12571385349E+02  0.25971241342E+02  0.00000000000E+00 0.  1.
</event>
<event>
 5    1  0.4419198E-005  0.3892302E+02  0.7818608E-02  0.1362821E+00
         -4   -1    0    0    0  501 -0.00000000000E+00  0.00000000000E+00  0.19388613038E+03  0.19388613038E+03  0.00000000000E+00 0. -1.
         21   -1    0    0  501  502  0.00000000000E+00 -0.00000000000E+00 -0.71738788713E+02  0.71738788713E+02  0.00000000000E+00 0. -1.
        -13    1    1    2    0    0  0.14584897078E+02 -0.24179513829E+02 -0.32355921874E+02  0.42945138912E+02  0.10566000000E+00 0.  1.
         13    1    1    2    0    0  0.15368949985E+02  0.48562427696E+02  0.17264912090E+03  0.18000623356E+03  0.10566000000E+00 0. -1.
         -4    1    1    2    0  502 -0.29953847063E+02 -0.24382913867E+02 -0.18145857356E+02  0.42673546627E+02  0.00000000000E+00 0. -1.
</event>
<event>
 5    1  0.4419198E-005  0.4259250E+03  0.7818608E-02  0.9687653E-01
         21   -1    0    0  501  502  0.00000000000E+00  0.00000000000E+00  0.57930150393E+03  0.57930150393E+03  0.00000000000E+00 0.  1.
          4   -1    0    0  502    0 -0.00000000000E+00 -0.00000000000E+00 -0.13202419277E+04  0.13202419277E+04  0.00000000000E+00 0.  1.
        -13    1    1    2    0    0  0.48022738414E+03  0.35952554932E+03 -0.18292440456E+03  0.62716689170E+03  0.10566000000E+00 0.  1.
         13    1    1    2    0    0 -0.38156450489E+03  0.28102420210E+02 -0.73990836133E+03  0.83297395622E+03  0.10566000000E+00 0. -1.
          4    1    1    2  501    0 -0.98662879252E+02 -0.38762796953E+03  0.18189234208E+03  0.43940258376E+03  0.00000000000E+00 0.  1.
</event>
<event>
 5    1  0.4419198E-005  0.4559653E+03  0.7818608E-02  0.1011125E+00
         -4   -1    0    0    0  501 -0.00000000000E+00  0.00000000000E+00  0.10336270031E+04  0.10336270031E+04  0.00000000000E+00 0. -1.
         21   -1    0    0  501  502  0.00000000000E+00 -0.00000000000E+00 -0.27914732662E+03  0.27914732662E+03  0.00000000000E+00 0. -1.
        -13    1    1    2    0    0  0.75550593491E+02  0.13405170230E+01  0.79326932303E+02  0.10955575072E+03  0.10566000000E+00 0.  1.
         13    1    1    2    0    0 -0.27773499630E+03  0.37764585171E+03  0.90014160278E+02  0.47734230663E+03  0.10566000000E+00 0. -1.
         -4    1    1    2    0  502  0.20218440281E+03 -0.37898636873E+03  0.58513858393E+03  0.72587627240E+03  0.00000000000E+00 0. -1.
</event>
<event>
 5    1  0.4419198E-005  0.5908268E+02  0.7818608E-02  0.1258672E+00
         21   -1    0    0  501  502  0.00000000000E+00  0.00000000000E+00  0.78977085072E+02  0.78977085072E+02  0.00000000000E+00 0. -1.
         -4   -1    0    0    0  501 -0.00000000000E+00 -0.00000000000E+00 -0.17159173054E+03  0.17159173054E+03  0.00000000000E+00 0. -1.
        -13    1    1    2    0    0  0.99211487034E+00  0.54831679169E+02 -0.70169714794E+02  0.89057831608E+02  0.10566000000E+00 0.  1.
         13    1    1    2    0    0 -0.17844502300E+02 -0.63050291555E+02 -0.78586568229E+02  0.10232118743E+03  0.10566000000E+00 0. -1.
         -4    1    1    2    0  502  0.16852387429E+02  0.82186123861E+01  0.56141637552E+02  0.59189796575E+02  0.00000000000E+00 0. -1.
</event>
<event>
 5    1  0.4419198E-005  0.2573080E+03  0.7818608E-02  0.1068578E+00
         21   -1    0    0  501  502  0.00000000000E+00  0.00000000000E+00  0.12084060651E+04  0.12084060651E+04  0.00000000000E+00 0.  1.
          4   -1    0    0  502    0 -0.00000000000E+00 -0.00000000000E+00 -0.40399164042E+03  0.40399164042E+03  0.00000000000E+00 0.  1.
        -13    1    1    2    0    0 -0.14528441172E+03 -0.13409299036E+03 -0.31830516221E+03  0.37470879067E+03  0.10566000000E+00 0.  1.
         13    1    1    2    0    0 -0.73258096433E+02 -0.66838343832E+01 -0.11148366273E+02  0.74402416424E+02  0.10566000000E+00 0. -1.
          4    1    1    2  501    0  0.21854250815E+03  0.14077682474E+03  0.11338679531E+04  0.11632864984E+04  0.00000000000E+00 0.  1.
</event>
<event>
 5    1  0.4665526E-005  0.6003921E+03  0.7818608E-02  0.9378042E-01
         21   -1    0    0  501  502  0.00000000000E+00  0.00000000000E+00  0.80041396369E+03  0.80041396369E+03  0.00000000000E+00 0. -1.
         -4   -1    0    0    0  501 -0.00000000000E+00 -0.00000000000E+00 -0.16510279287E+04  0.16510279287E+04  0.00000000000E+00 0. -1.
        -13    1    1    2    0    0 -0.13064047390E+03 -0.70805486510E+03 -0.97484122432E+03  0.12119092578E+04  0.10566000000E+00 0.  1.
         13    1    1    2    0    0 -0.10600446140E+03 -0.11636333607E+03 -0.25663630108E+03  0.30106406962E+03  0.10566000000E+00 0. -1.
         -4    1    1    2    0  502  0.23664493530E+03  0.82441820118E+03  0.38086356036E+03  0.93846856497E+03  0.00000000000E+00 0. -1.
</event>
<event>
 5    1  0.4419198E-005  0.3187376E+03  0.7818608E-02  0.9998574E-01
         21   -1    0    0  501  502  0.00000000000E+00  0.00000000000E+00  0.11395891626E+04  0.11395891626E+04  0.00000000000E+00 0.  1.
          4   -1    0    0  502    0 -0.00000000000E+00 -0.00000000000E+00 -0.51211880802E+03  0.51211880802E+03  0.00000000000E+00 0.  1.
        -13    1    1    2    0    0 -0.30763299186E+03 -0.70316086405E+02 -0.21145244808E+03  0.37986123604E+03  0.10566000000E+00 0.  1.
         13    1    1    2    0    0  0.34288716397E+03 -0.17133684130E+03 -0.15084337880E+02  0.38360848376E+03  0.10566000000E+00 0. -1.
          4    1    1    2  501    0 -0.35254172112E+02  0.24165292770E+03  0.85400714054E+03  0.88823825081E+03  0.00000000000E+00 0.  1.
</event>
<event>
 5    1  0.4419198E-005  0.4713227E+03  0.7818608E-02  0.9738328E-01
         21   -1    0    0  501  502  0.00000000000E+00  0.00000000000E+00  0.33523199851E+03  0.33523199851E+03  0.00000000000E+00 0.  1.
          4   -1    0    0  502    0 -0.00000000000E+00 -0.00000000000E+00 -0.12825750728E+04  0.12825750728E+04  0.00000000000E+00 0.  1.
        -13    1    1    2    0    0 -0.42660665888E+03  0.33852239622E+03 -0.32722893110E+02  0.54558358942E+03  0.10566000000E+00 0.  1.
         13    1    1    2    0    0  0.21656097662E+03 -0.95732857181E+02 -0.34658150972E+03  0.41974062298E+03  0.10566000000E+00 0. -1.
          4    1    1    2  501    0  0.21004568226E+03 -0.24278953904E+03 -0.56803867144E+03  0.65248285890E+03  0.00000000000E+00 0.  1.
</event>
<event>
 5    1  0.4419198E-005  0.3152077E+02  0.7818608E-02  0.1393098E+00
         21   -1    0    0  501  502  0.00000000000E+00  0.00000000000E+00  0.47941165219E+03  0.47941165219E+03  0.00000000000E+00 0.  1.
         -4   -1    0    0    0  501 -0.00000000000E+00 -0.00000000000E+00 -0.14857782802E+03  0.14857782802E+03  0.00000000000E+00 0. -1.
        -13    1    1    2    0    0 -0.19202006824E+02  0.31829905906E+02  0.20499770437E+03  0.20834089838E+03  0.10566000000E+00 0.  1.
         13    1    1    2    0    0 -0.77075360493E+01 -0.30608365220E+02 -0.14453372982E+03  0.14794015126E+03  0.10566000000E+00 0. -1.
         -4    1    1    2    0  502  0.26909542873E+02 -0.12215406863E+01  0.27036984962E+03  0.27170843057E+03  0.00000000000E+00 0. -1.
</event>
<event>
 5    1  0.4419198E-005  0.4454022E+03  0.7818608E-02  0.9844122E-01
         21   -1    0    0  501  502  0.00000000000E+00  0.00000000000E+00  0.39094971803E+03  0.39094971803E+03  0.00000000000E+00 0. -1.
         -4   -1    0    0    0  501 -0.00000000000E+00 -0.00000000000E+00 -0.17518216653E+04  0.17518216653E+04  0.00000000000E+00 0. -1.
        -13    1    1    2    0    0 -0.14642999205E+03 -0.12936692018E+03 -0.98918137953E+03  0.10082942801E+04  0.10566000000E+00 0.  1.
         13    1    1    2    0    0 -0.99333898362E+02 -0.39483014747E+03  0.61031886224E+02  0.41168309538E+03  0.10566000000E+00 0. -1.
         -4    1    1    2    0  502  0.24576389041E+03  0.52419706766E+03 -0.43272245399E+03  0.72279400783E+03  0.00000000000E+00 0. -1.
</event>
<event>
 5    1  0.4419198E-005  0.4165959E+03  0.7818608E-02  0.9951524E-01
          4   -1    0    0  502    0 -0.00000000000E+00  0.00000000000E+00  0.24582569922E+04  0.24582569922E+04  0.00000000000E+00 0.  1.
         21   -1    0    0  501  502  0.00000000000E+00 -0.00000000000E+00 -0.17509116073E+03  0.17509116073E+03  0.00000000000E+00 0.  1.
        -13    1    1    2    0    0 -0.24008608481E+03  0.30141531125E+03  0.22536776577E+03  0.44641142345E+03  0.10566000000E+00 0.  1.
         13    1    1    2    0    0 -0.14841778248E+03  0.75872723457E+02  0.80535444407E+03  0.82242343113E+03  0.10566000000E+00 0. -1.
          4    1    1    2  501    0  0.38850386729E+03 -0.37728803470E+03  0.12524436216E+04  0.13645132984E+04  0.00000000000E+00 0.  1.
</event>
<event>
 5    1  0.4419198E-005  0.4861702E+03  0.7818608E-02  0.9768238E-01
         -4   -1    0    0    0  501 -0.00000000000E+00  0.00000000000E+00  0.10724266908E+04  0.10724266908E+04  0.00000000000E+00 0. -1.
         21   -1    0    0  501  502  0.00000000000E+00 -0.00000000000E+00 -0.46149109835E+03  0.46149109835E+03  0.00000000000E+00 0. -1.
        -13    1    1    2    0    0 -0.13622515594E+03  0.13898216452E+03  0.47843976338E+03  0.51650552128E+03  0.10566000000E+00 0.  1.
         13    1    1    2    0    0  0.52657424464E+03 -0.17622118495E+03 -0.96085430993E+02  0.56353062238E+03  0.10566000000E+00 0. -1.
         -4    1    1    2    0  502 -0.39034908870E+03  0.37239020432E+02  0.22858126011E+03  0.45388164554E+03  0.00000000000E+00 0. -1.
</event>
<event>
 5    1  0.4419198E-005  0.3768337E+02  0.7818608E-02  0.1352057E+00
         21   -1    0    0  501  502  0.00000000000E+00  0.00000000000E+00  0.38201947987E+03  0.38201947987E+03  0.00000000000E+00 0. -1.
         -4   -1    0    0    0  501 -0.00000000000E+00 -0.00000000000E+00 -0.60650098075E+02  0.60650098075E+02  0.00000000000E+00 0. -1.
        -13    1    1    2    0    0  0.31761317628E+01  0.35111407468E+02 -0.11941285382E+01  0.35275144994E+02  0.10566000000E+00 0.  1.
         13    1    1    2    0    0  0.94359749686E+01 -0.38579988580E+02 -0.32971058072E+02  0.51619327551E+02  0.10566000000E+00 0. -1.
         -4    1    1    2    0  502 -0.12612106731E+02  0.34685811114E+01  0.35553456841E+03  0.35577510540E+03  0.00000000000E+00 0. -1.
</event>
<event>
 5    1  0.4419198E-005  0.2016058E+03  0.7818608E-02  0.1060870E+00
          4   -1    0    0  502    0 -0.00000000000E+00  0.00000000000E+00  0.88270060322E+03  0.88270060322E+03  0.00000000000E+00 0.  1.
         21   -1    0    0  501  502  0.00000000000E+00 -0.00000000000E+00 -0.45184603156E+03  0.45184603156E+03  0.00000000000E+00 0.  1.
        -13    1    1    2    0    0  0.15594583755E+03 -0.10613659219E+03 -0.31806626167E+03  0.36979756412E+03  0.10566000000E+00 0.  1.
         13    1    1    2    0    0  0.12120041676E+03 -0.16788191148E+03  0.17556409535E+03  0.27147125072E+03  0.10566000000E+00 0. -1.
          4    1    1    2  501    0 -0.27714625432E+03  0.27401850368E+03  0.57335673798E+03  0.69327781994E+03  0.00000000000E+00 0.  1.
</event>
<event>
 5    1  0.4419198E-005  0.5356816E+03  0.7818608E-02  0.9458616E-01
         -4   -1    0    0    0  501 -0.00000000000E+00  0.00000000000E+00  0.14143156121E+04  0.14143156121E+04  0.00000000000E+00 0. -1.
         21   -1    0    0  501  502  0.00000000000E+00 -0.00000000000E+00 -0.59874963285E+03  0.59874963285E+03  0.00000000000E+00 0.  1.
        -13    1    1    2    0    0 -0.54272873141E+03 -0.14855592349E+03 -0.59975549227E+02  0.56588021345E+03  0.10566000000E+00 0.  1.
         13    1    1    2    0    0  0.10044169011E+03  0.45077600829E+03  0.77496853505E+03  0.90214399308E+03  0.10566000000E+00 0. -1.
         -4    1    1    2    0  502  0.44228704130E+03 -0.30222008480E+03  0.10057299343E+03  0.54504103843E+03  0.00000000000E+00 0. -1.
</event>
<event>
 5    1  0.4419198E-005  0.4126079E+03  0.7818608E-02  0.9693323E-01
         21   -1    0    0  501  502  0.00000000000E+00  0.00000000000E+00  0.12671206937E+03  0.12671206937E+03  0.00000000000E+00 0. -1.
          4   -1    0    0  502    0 -0.00000000000E+00 -0.00000000000E+00 -0.14919482442E+04  0.14919482442E+04  0.00000000000E+00 0.  1.
        -13    1    1    2    0    0 -0.36901416050E+03  0.21789635592E+03 -0.78598505892E+03  0.89522220515E+03  0.10566000000E+00 0.  1.
         13    1    1    2    0    0  0.33087009668E+03 -0.21232570795E+03 -0.50720611823E+03  0.64172835738E+03  0.10566000000E+00 0. -1.
          4    1    1    2  501    0  0.38144063818E+02 -0.55706479728E+01 -0.72044997638E+02  0.81709750997E+02  0.00000000000E+00 0.  1.
</event>
<event>
 5    1  0.4419198E-005  0.8288174E+02  0.7818608E-02  0.1201679E+00
         21   -1    0    0  501  502  0.00000000000E+00  0.00000000000E+00  0.91185119289E+03  0.91185119289E+03  0.00000000000E+00 0. -1.
          4   -1    0    0  502    0 -0.00000000000E+00 -0.00000000000E+00 -0.31844956071E+02  0.31844956071E+02  0.00000000000E+00 0.  1.
        -13    1    1    2    0    0  0.40715589322E+02 -0.29628847050E+02  0.75764363405E+01  0.50921914173E+02  0.10566000000E+00 0.  1.
         13    1    1    2    0    0  0.44402157126E+02  0.58713430775E+02  0.17915950618E+03  0.19369294858E+03  0.10566000000E+00 0. -1.
          4    1    1    2  501    0 -0.85117746449E+02 -0.29084583724E+02  0.69327029430E+03  0.69908128621E+03  0.00000000000E+00 0.  1.
</event>
<event>
 5    1  0.4419198E-005  0.4777400E+03  0.7818608E-02  0.1018300E+00
          4   -1    0    0  502    0 -0.00000000000E+00  0.00000000000E+00  0.35555815082E+03  0.35555815082E+03  0.00000000000E+00 0.  1.
         21   -1    0    0  501  502  0.00000000000E+00 -0.00000000000E+00 -0.77111036166E+03  0.77111036166E+03  0.00000000000E+00 0.  1.
        -13    1    1    2    0    0  0.34930050259E+03  0.31426791393E+03 -0.33066277135E+03  0.57455464697E+03  0.10566000000E+00 0.  1.
         13    1    1    2    0    0 -0.16643050387E+02  0.49554555497E+02 -0.13530867104E+02  0.53997598330E+02  0.10566000000E+00 0. -1.
          4    1    1    2  501    0 -0.33265745221E+03 -0.36382246943E+03 -0.71358572391E+02  0.49811626717E+03  0.00000000000E+00 0.  1.
</event>
<event>
 5    1  0.4419198E-005  0.2417358E+03  0.7818608E-02  0.1043947E+00
         21   -1    0    0  501  502  0.00000000000E+00  0.00000000000E+00  0.29514514352E+03  0.29514514352E+03  0.00000000000E+00 0.  1.
          4   -1    0    0  502    0 -0.00000000000E+00 -0.00000000000E+00 -0.14265798992E+04  0.14265798992E+04  0.00000000000E+00 0.  1.
        -13    1    1    2    0    0 -0.16088749881E+03 -0.11361929863E+03  0.13611996527E+03  0.23942177930E+03  0.10566000000E+00 0.  1.
         13    1    1    2    0    0 -0.18884816221E+03 -0.20381180774E+03 -0.32169860908E+03  0.42507986025E+03  0.10566000000E+00 0. -1.
          4    1    1    2  501    0  0.34973566102E+03  0.31743110637E+03 -0.94585611191E+03  0.10572234032E+04  0.00000000000E+00 0.  1.
</event>
<event>
 5    1  0.4419198E-005  0.4336482E+03  0.7818608E-02  0.9771964E-01
         -4   -1    0    0    0  501 -0.00000000000E+00  0.00000000000E+00  0.28728766053E+03  0.28728766053E+03  0.00000000000E+00 0. -1.
         21   -1    0    0  501  502  0.00000000000E+00 -0.00000000000E+00 -0.14714565810E+04  0.14714565810E+04  0.00000000000E+00 0. -1.
        -13    1    1    2    0    0  0.27030206260E+03  0.15485348166E+02 -0.23105711906E+03  0.35593595560E+03  0.10566000000E+00 0.  1.
         13    1    1    2    0    0 -0.29650360886E+03 -0.43450981445E+03 -0.24660950629E+03  0.58097282955E+03  0.10566000000E+00 0. -1.
         -4    1    1    2    0  502  0.26201546266E+02  0.41902446628E+03 -0.70650229512E+03  0.82183545639E+03  0.00000000000E+00 0. -1.
</event>
<event>
 5    1  0.4419198E-005  0.2672020E+03  0.7818608E-02  0.1021845E+00
          4   -1    0    0  502    0 -0.00000000000E+00  0.00000000000E+00  0.13378361263E+04  0.13378361263E+04  0.00000000000E+00 0.  1.
         21   -1    0    0  501  502  0.00000000000E+00 -0.00000000000E+00 -0.11384302042E+03  0.11384302042E+03  0.00000000000E+00 0. -1.
        -13    1    1    2    0    0 -0.20315911611E+03  0.15544351860E+03  0.12391423539E+03  0.28423768720E+03  0.10566000000E+00 0.  1.
         13    1    1    2    0    0  0.21886052318E+03 -0.15726838714E+03  0.11141477148E+04  0.11462802518E+04  0.10566000000E+00 0. -1.
          4    1    1    2  501    0 -0.15701407069E+02  0.18248685397E+01 -0.14068844317E+02  0.21161207658E+02  0.00000000000E+00 0.  1.
</event>
<event>
 5    1  0.4419198E-005  0.3487811E+03  0.7818608E-02  0.9941364E-01
         21   -1    0    0  501  502  0.00000000000E+00  0.00000000000E+00  0.21228290711E+03  0.21228290711E+03  0.00000000000E+00 0. -1.
         -4   -1    0    0    0  501 -0.00000000000E+00 -0.00000000000E+00 -0.22216286604E+04  0.22216286604E+04  0.00000000000E+00 0. -1.
        -13    1    1    2    0    0 -0.28886386710E+03  0.53474822310E+02 -0.68403617734E+03  0.74445106851E+03  0.10566000000E+00 0.  1.
         13    1    1    2    0    0  0.39584643035E+03  0.27011991740E+03 -0.12523609030E+04  0.13409202097E+04  0.10566000000E+00 0. -1.
         -4    1    1    2    0  502 -0.10698256326E+03 -0.32359473971E+03 -0.72948672986E+02  0.34854028935E+03  0.00000000000E+00 0. -1.
</event>
<event>
 5    1  0.4419198E-005  0.1837858E+03  0.7818608E-02  0.1071858E+00
         21   -1    0    0  501  502  0.00000000000E+00  0.00000000000E+00  0.69637112485E+03  0.69637112485E+03  0.00000000000E+00 0. -1.
          4   -1    0    0  502    0 -0.00000000000E+00 -0.00000000000E+00 -0.61854350586E+02  0.61854350586E+02  0.00000000000E+00 0.  1.
        -13    1    1    2    0    0  0.46333625599E+02 -0.19840734209E+03  0.30702787634E+03  0.36848121563E+03  0.10566000000E+00 0.  1.
         13    1    1    2    0    0 -0.28128101233E+02  0.16645441539E+03  0.22813389171E+03  0.28380159653E+03  0.10566000000E+00 0. -1.
          4    1    1    2  501    0 -0.18205524367E+02  0.31952926697E+02  0.99355006217E+02  0.10594266328E+03  0.00000000000E+00 0.  1.
</event>
<event>
 5    1  0.4419198E-005  0.3342464E+03  0.7818608E-02  0.1009227E+00
         21   -1    0    0  501  502  0.00000000000E+00  0.00000000000E+00  0.30570167009E+03  0.30570167009E+03  0.00000000000E+00 0. -1.
         -4   -1    0    0    0  501 -0.00000000000E+00 -0.00000000000E+00 -0.14881252614E+04  0.14881252614E+04  0.00000000000E+00 0. -1.
        -13    1    1    2    0    0 -0.19394291072E+03 -0.62885209073E+02 -0.65577615611E+03  0.68673923743E+03  0.10566000000E+00 0.  1.
         13    1    1    2    0    0 -0.24015803911E+03  0.20869529356E+03  0.97678353314E+02  0.33282229669E+03  0.10566000000E+00 0. -1.
         -4    1    1    2    0  502  0.43410094982E+03 -0.14581008449E+03 -0.62432578853E+03  0.77426539739E+03  0.00000000000E+00 0. -1.
</event>
<event>
 5    1  0.4419198E-005  0.4757927E+03  0.7818608E-02  0.9554214E-01
         -4   -1    0    0    0  501 -0.00000000000E+00  0.00000000000E+00  0.38287589244E+04  0.38287589244E+04  0.00000000000E+00 0. -1.
         21   -1    0    0  501  502  0.00000000000E+00 -0.00000000000E+00 -0.27608546971E+03  0.27608546971E+03  0.00000000000E+00 0. -1.
        -13    1    1    2    0    0  0.26083724855E+02  0.43950652419E+03  0.26482470142E+04  0.26845965442E+04  0.10566000000E+00 0.  1.
         13    1    1    2    0    0 -0.40289137573E+03 -0.10441939837E+02  0.71110931053E+03  0.81737809944E+03  0.10566000000E+00 0. -1.
         -4    1    1    2    0  502  0.37680765087E+03 -0.42906458435E+03  0.19331712989E+03  0.60286975046E+03  0.00000000000E+00 0. -1.
</event>
<event>
 5    1  0.4419198E-005  0.5397504E+03  0.7818608E-02  0.9394859E-01
         21   -1    0    0  501  502  0.00000000000E+00  0.00000000000E+00  0.54066853598E+03  0.54066853598E+03  0.00000000000E+00 0.  1.
          4   -1    0    0  502    0 -0.00000000000E+00 -0.00000000000E+00 -0.13128061667E+04  0.13128061667E+04  0.00000000000E+00 0.  1.
        -13    1    1    2    0    0  0.67957559293E+03 -0.19940951158E+03 -0.28160099052E+03  0.76215895247E+03  0.10566000000E+00 0.  1.
         13    1    1    2    0    0 -0.33003370102E+03  0.37120211165E+03 -0.49579702634E+03  0.70180335850E+03  0.10566000000E+00 0. -1.
          4    1    1    2  501    0 -0.34954189191E+03 -0.17179260007E+03  0.52603861252E+01  0.38951239172E+03  0.00000000000E+00 0.  1.
</event>
<event>
 5    1  0.4768601E-005  0.4929838E+03  0.7818608E-02  0.9995294E-01
         -4   -1    0    0    0  501 -0.00000000000E+00  0.00000000000E+00  0.26516796565E+03  0.26516796565E+03  0.00000000000E+00 0. -1.
         21   -1    0    0  501  502  0.00000000000E+00 -0.00000000000E+00 -0.14754951169E+04  0.14754951169E+04  0.00000000000E+00 0. -1.
        -13    1    1    2    0    0  0.39782183873E+02  0.77458885796E+02  0.70026804801E+02  0.11174196032E+03  0.10566000000E+00 0.  1.
         13    1    1    2    0    0  0.35100752041E+03  0.27462538556E+03 -0.37772074693E+03  0.58420745939E+03  0.10566000000E+00 0. -1.
         -4    1    1    2    0  502 -0.39078970429E+03 -0.35208427135E+03 -0.90263320917E+03  0.10447136629E+04  0.00000000000E+00 0. -1.
</event>
<event>
 5    1  0.4419198E-005  0.4989165E+03  0.7818608E-02  0.9644111E-01
         21   -1    0    0  501  502  0.00000000000E+00  0.00000000000E+00  0.17607407056E+03  0.17607407056E+03  0.00000000000E+00 0.  1.
          4   -1    0    0  502    0 -0.00000000000E+00 -0.00000000000E+00 -0.26951280720E+04  0.26951280720E+04  0.00000000000E+00 0.  1.
        -13    1    1    2    0    0  0.34768194868E+01 -0.54206132343E+03 -0.60969999019E+03  0.81582881527E+03  0.10566000000E+00 0.  1.
         13    1    1    2    0    0 -0.24390032769E+03  0.13199051109E+03 -0.85411285781E+03  0.89800760014E+03  0.10566000000E+00 0. -1.
          4    1    1    2  501    0  0.24042350821E+03  0.41007081234E+03 -0.10552411535E+04  0.11573657272E+04  0.00000000000E+00 0.  1.
</event>
<event>
 5    1  0.4419198E-005  0.4961065E+03  0.7818608E-02  0.9743583E-01
         -4   -1    0    0    0  501 -0.00000000000E+00  0.00000000000E+00  0.26216139976E+03  0.26216139976E+03  0.00000000000E+00 0. -1.
         21   -1    0    0  501  502  0.00000000000E+00 -0.00000000000E+00 -0.25257983421E+04  0.25257983421E+04  0.00000000000E+00 0. -1.
        -13    1    1    2    0    0 -0.70640611041E+02 -0.18644861773E+03  0.94763245605E+02  0.22075612532E+03  0.10566000000E+00 0.  1.
         13    1    1    2    0    0  0.24210251858E+03  0.53700550019E+03 -0.17295246627E+04  0.18270862340E+04  0.10566000000E+00 0. -1.
         -4    1    1    2    0  502 -0.17146190753E+03 -0.35055688245E+03 -0.62887552528E+03  0.74011738249E+03  0.00000000000E+00 0. -1.
</event>
<event>
 5    1  0.4419198E-005  0.1725539E+03  0.7818608E-02  0.1080775E+00
         21   -1    0    0  501  502  0.00000000000E+00  0.00000000000E+00  0.63791807339E+03  0.63791807339E+03  0.00000000000E+00 0.  1.
          4   -1    0    0  502    0 -0.00000000000E+00 -0.00000000000E+00 -0.89375924969E+02  0.89375924969E+02  0.00000000000E+00 0.  1.
        -13    1    1    2    0    0 -0.15753505063E+03  0.62121791234E+02  0.69414698658E+02  0.18301590279E+03  0.10566000000E+00 0.  1.
         13    1    1    2    0    0  0.19009271263E+03 -0.38343039511E+01  0.32928600110E+03  0.38023574656E+03  0.10566000000E+00 0. -1.
          4    1    1    2  501    0 -0.32557662000E+02 -0.58287487283E+02  0.14984144867E+03  0.16404234901E+03  0.00000000000E+00 0.  1.
</event>
<event>
 5    1  0.4419198E-005  0.4041824E+03  0.7818608E-02  0.9717044E-01
         21   -1    0    0  501  502  0.00000000000E+00  0.00000000000E+00  0.39431535705E+03  0.39431535705E+03  0.00000000000E+00 0. -1.
         -4   -1    0    0    0  501 -0.00000000000E+00 -0.00000000000E+00 -0.13360745212E+04  0.13360745212E+04  0.00000000000E+00 0. -1.
        -13    1    1    2    0    0  0.27705416123E+03  0.25706625549E+03 -0.30618844311E+03  0.48640871890E+03  0.10566000000E+00 0.  1.
         13    1    1    2    0    0 -0.96588242080E+02 -0.43927447632E+03 -0.81508468169E+03  0.93094274988E+03  0.10566000000E+00 0. -1.
         -4    1    1    2    0  502 -0.18046591915E+03  0.18220822083E+03  0.17951396067E+03  0.31303840945E+03  0.00000000000E+00 0. -1.
</event>
<event>
 5    1  0.4419198E-005  0.1040403E+03  0.7818608E-02  0.1158039E+00
         -4   -1    0    0    0  501 -0.00000000000E+00  0.00000000000E+00  0.22133403530E+03  0.22133403530E+03  0.00000000000E+00 0. -1.
         21   -1    0    0  501  502  0.00000000000E+00 -0.00000000000E+00 -0.15893058866E+03  0.15893058866E+03  0.00000000000E+00 0.  1.
        -13    1    1    2    0    0 -0.52802143902E+02  0.11088170035E+03 -0.85050456934E+02  0.14938677740E+03  0.10566000000E+00 0.  1.
         13    1    1    2    0    0  0.39077348315E+02 -0.94014094618E+02  0.17088193444E+03  0.19891288500E+03  0.10566000000E+00 0. -1.
         -4    1    1    2    0  502  0.13724795588E+02 -0.16867605731E+02 -0.23428030865E+02  0.31964961555E+02  0.00000000000E+00 0. -1.
</event>
<event>
 5    1  0.4419198E-005  0.3395543E+03  0.7818608E-02  0.1003690E+00
         -4   -1    0    0    0  501 -0.00000000000E+00  0.00000000000E+00  0.15284159679E+04  0.15284159679E+04  0.00000000000E+00 0. -1.
         21   -1    0    0  501  502  0.00000000000E+00 -0.00000000000E+00 -0.25529829263E+03  0.25529829263E+03  0.00000000000E+00 0. -1.
        -13    1    1    2    0    0 -0.11393341492E+03 -0.20281430594E+03  0.20723681455E+03  0.31154706578E+03  0.10566000000E+00 0.  1.
         13    1    1    2    0    0 -0.66693681427E+02  0.47183162245E+03  0.10437476012E+04  0.11473805791E+04  0.10566000000E+00 0. -1.
         -4    1    1    2    0  502  0.18062709634E+03 -0.26901731651E+03  0.22133259474E+02  0.32478661563E+03  0.00000000000E+00 0. -1.
</event>
<event>
 5    1  0.4419198E-005  0.2694880E+03  0.7818608E-02  0.1020761E+00
          4   -1    0    0  502    0 -0.00000000000E+00  0.00000000000E+00  0.29903538267E+04  0.29903538267E+04  0.00000000000E+00 0.  1.
         21   -1    0    0  501  502  0.00000000000E+00 -0.00000000000E+00 -0.36188160088E+02  0.36188160088E+02  0.00000000000E+00 0. -1.
        -13    1    1    2    0    0 -0.25191502102E+03  0.11433128063E+03  0.16120748890E+04  0.16356400210E+04  0.10566000000E+00 0.  1.
         13    1    1    2    0    0  0.24290851270E+03 -0.98036506758E+02  0.13465215446E+04  0.13717638221E+04  0.10566000000E+00 0. -1.
          4    1    1    2  501    0  0.90065083132E+01 -0.16294773868E+02 -0.44307670109E+01  0.19138143685E+02  0.00000000000E+00 0.  1.
</event>
<event>
 5    1  0.4419198E-005  0.3631439E+03  0.7818608E-02  0.9849846E-01
         21   -1    0    0  501  502  0.00000000000E+00  0.00000000000E+00  0.55060719658E+03  0.55060719658E+03  0.00000000000E+00 0. -1.
         -4   -1    0    0    0  501 -0.00000000000E+00 -0.00000000000E+00 -0.91875119165E+03  0.91875119165E+03  0.00000000000E+00 0. -1.
        -13    1    1    2    0    0 -0.45628920904E+02  0.35064896144E+03 -0.51730793897E+02  0.35736924711E+03  0.10566000000E+00 0.  1.
         13    1    1    2    0    0  0.18315105221E+03  0.36537568597E+02 -0.58966892094E+03  0.61853758926E+03  0.10566000000E+00 0. -1.
         -4    1    1    2    0  502 -0.13752213131E+03 -0.38718653004E+03  0.27325571977E+03  0.49345155185E+03  0.00000000000E+00 0. -1.
</event>
<event>
 5    1  0.4419198E-005  0.3290530E+03  0.7818608E-02  0.1007148E+00
         21   -1    0    0  501  502  0.00000000000E+00  0.00000000000E+00  0.32148780916E+03  0.32148780916E+03  0.00000000000E+00 0.  1.
         -4   -1    0    0    0  501 -0.00000000000E+00 -0.00000000000E+00 -0.11038458516E+04  0.11038458516E+04  0.00000000000E+00 0. -1.
        -13    1    1    2    0    0 -0.10109518740E+03  0.20492492534E+03  0.65051222963E+00  0.22850579046E+03  0.10566000000E+00 0.  1.
         13    1    1    2    0    0  0.36269047453E+03  0.47207464433E+01 -0.78151619856E+03  0.86158821111E+03  0.10566000000E+00 0. -1.
         -4    1    1    2    0  502 -0.26159528713E+03 -0.20964567178E+03 -0.14923560876E+01  0.33523965916E+03  0.00000000000E+00 0. -1.
</event>
<event>
 5    1  0.4419198E-005  0.4864657E+03  0.7818608E-02  0.9754585E-01
         -4   -1    0    0    0  501 -0.00000000000E+00  0.00000000000E+00  0.13508869123E+04  0.13508869123E+04  0.00000000000E+00 0. -1.
         21   -1    0    0  501  502  0.00000000000E+00 -0.00000000000E+00 -0.31634235607E+03  0.31634235607E+03  0.00000000000E+00 0. -1.
        -13    1    1    2    0    0  0.54257615898E+01 -0.20352605659E+03  0.40342414075E+03  0.45188864016E+03  0.10566000000E+00 0.  1.
         13    1    1    2    0    0  0.34439721162E+03 -0.20815545328E+03  0.53042237586E+03  0.66579729654E+03  0.10566000000E+00 0. -1.
         -4    1    1    2    0  502 -0.34982297321E+03  0.41168150987E+03  0.10069803957E+03  0.54954333163E+03  0.00000000000E+00 0. -1.
</event>
<event>
 5    1  0.4419198E-005  0.4984429E+03  0.7818608E-02  0.9690063E-01
          4   -1    0    0  502    0 -0.00000000000E+00  0.00000000000E+00  0.52479734316E+03  0.52479734316E+03  0.00000000000E+00 0.  1.
         21   -1    0    0  501  502  0.00000000000E+00 -0.00000000000E+00 -0.86267821694E+03  0.86267821694E+03  0.00000000000E+00 0.  1.
        -13    1    1    2    0    0 -0.45598353043E+03  0.16644318785E+03 -0.15583334892E+03  0.50981208166E+03  0.10566000000E+00 0.  1.
         13    1    1    2    0    0 -0.75770229615E+02 -0.22427045951E+03  0.11785171284E+03  0.26443790214E+03  0.10566000000E+00 0. -1.
          4    1    1    2  501    0  0.53175376004E+03  0.57827271657E+02 -0.29989923769E+03  0.61322557630E+03  0.00000000000E+00 0.  1.
</event>
<event>
 5    1  0.4419198E-005  0.2645703E+03  0.7818608E-02  0.1080493E+00
          4   -1    0    0  502    0 -0.00000000000E+00  0.00000000000E+00  0.18004038944E+04  0.18004038944E+04  0.00000000000E+00 0.  1.
         21   -1    0    0  501  502  0.00000000000E+00 -0.00000000000E+00 -0.15558188753E+03  0.15558188753E+03  0.00000000000E+00 0.  1.
        -13    1    1    2    0    0 -0.16849703193E+03  0.20321230355E+03 -0.14964110491E+02  0.26440579769E+03  0.10566000000E+00 0.  1.
         13    1    1    2    0    0  0.32056605704E+02  0.36064167201E+02  0.17875408769E+03  0.18515205955E+03  0.10566000000E+00 0. -1.
          4    1    1    2  501    0  0.13644042623E+03 -0.23927647075E+03  0.14810320296E+04  0.15064279246E+04  0.00000000000E+00 0.  1.
</event>
<event>
 5    1  0.4419198E-005  0.3149803E+03  0.7818608E-02  0.1001306E+00
         21   -1    0    0  501  502  0.00000000000E+00  0.00000000000E+00  0.55575874471E+03  0.55575874471E+03  0.00000000000E+00 0.  1.
         -4   -1    0    0    0  501 -0.00000000000E+00 -0.00000000000E+00 -0.23729472947E+03  0.23729472947E+03  0.00000000000E+00 0. -1.
        -13    1    1    2    0    0  0.93948744302E+02 -0.31951802251E+03  0.51233576488E+02  0.33696145742E+03  0.10566000000E+00 0.  1.
         13    1    1    2    0    0 -0.12128599240E+03  0.26734964084E+03  0.16150200899E+03  0.33506571367E+03  0.10566000000E+00 0. -1.
         -4    1    1    2    0  502  0.27337248097E+02  0.52168381672E+02  0.10572842976E+03  0.12102630308E+03  0.00000000000E+00 0. -1.
</event>
<event>
 5    1  0.4419198E-005  0.4506754E+03  0.7818608E-02  0.9631579E-01
         21   -1    0    0  501  502  0.00000000000E+00  0.00000000000E+00  0.84247878754E+03  0.84247878754E+03  0.00000000000E+00 0. -1.
         -4   -1    0    0    0  501 -0.00000000000E+00 -0.00000000000E+00 -0.92857644349E+03  0.92857644349E+03  0.00000000000E+00 0. -1.
        -13    1    1    2    0    0  0.30627873779E+03  0.37276189932E+03 -0.42764805213E+03  0.64470223085E+03  0.10566000000E+00 0.  1.
         13    1    1    2    0    0 -0.14429919503E+01  0.80327776322E+02 -0.28448341143E+03  0.29561031175E+03  0.10566000000E+00 0. -1.
         -4    1    1    2    0  502 -0.30483574584E+03 -0.45308967564E+03  0.62603380761E+03  0.83074268843E+03  0.00000000000E+00 0. -1.
</event>
<event>
 5    1  0.4419198E-005  0.2912916E+03  0.7818608E-02  0.1010966E+00
         21   -1    0    0  501  502  0.00000000000E+00  0.00000000000E+00  0.77608095805E+03  0.77608095805E+03  0.00000000000E+00 0. -1.
          4   -1    0    0  502    0 -0.00000000000E+00 -0.00000000000E+00 -0.13195936181E+03  0.13195936181E+03  0.00000000000E+00 0.  1.
        -13    1    1    2    0    0  0.70254969380E+02 -0.30595100134E+03  0.37706005163E+03  0.49062823975E+03  0.10566000000E+00 0.  1.
         13    1    1    2    0    0 -0.72909501050E+02  0.26722520487E+03  0.20657085656E+03  0.34553818227E+03  0.10566000000E+00 0. -1.
          4    1    1    2  501    0  0.26545316699E+01  0.38725796467E+02  0.60490688043E+02  0.71873897837E+02  0.00000000000E+00 0.  1.
</event>
<event>
 5    1  0.4419198E-005  0.5335099E+03  0.7818608E-02  0.9708045E-01
         -4   -1    0    0    0  501 -0.00000000000E+00  0.00000000000E+00  0.72361075777E+03  0.72361075777E+03  0.00000000000E+00 0. -1.
         21   -1    0    0  501  502  0.00000000000E+00 -0.00000000000E+00 -0.56778300240E+03  0.56778300240E+03  0.00000000000E+00 0. -1.
        -13    1    1    2    0    0 -0.25628173883E+02 -0.17950546072E+03  0.53562198281E+02  0.18907124047E+03  0.10566000000E+00 0.  1.
         13    1    1    2    0    0 -0.46671936382E+03  0.31284789106E+03 -0.64750159068E+02  0.56559116133E+03  0.10566000000E+00 0. -1.
         -4    1    1    2    0  502  0.49234753771E+03 -0.13334243035E+03  0.16701571616E+03  0.53673135837E+03  0.00000000000E+00 0. -1.
</event>
<event>
 5    1  0.4419198E-005  0.4294904E+02  0.7818608E-02  0.1323501E+00
          4   -1    0    0  502    0 -0.00000000000E+00  0.00000000000E+00  0.81337624958E+02  0.81337624958E+02  0.00000000000E+00 0.  1.
         21   -1    0    0  501  502  0.00000000000E+00 -0.00000000000E+00 -0.11090716189E+03  0.11090716189E+03  0.00000000000E+00 0.  1.
        -13    1    1    2    0    0  0.39805045258E+02 -0.19008781613E+02  0.66703452255E+02  0.79969601181E+02  0.10566000000E+00 0.  1.
         13    1    1    2    0    0 -0.35896910033E+02  0.53399925453E+01 -0.39041251426E+02  0.53304166322E+02  0.10566000000E+00 0. -1.
          4    1    1    2  501    0 -0.39081352243E+01  0.13668789068E+02 -0.57231737757E+02  0.58971019341E+02  0.00000000000E+00 0.  1.
</event>
<event>
 5    1  0.4419198E-005  0.4472331E+03  0.7818608E-02  0.1002617E+00
         -4   -1    0    0    0  501 -0.00000000000E+00  0.00000000000E+00  0.76690928446E+03  0.76690928446E+03  0.00000000000E+00 0. -1.
         21   -1    0    0  501  502  0.00000000000E+00 -0.00000000000E+00 -0.64593259304E+03  0.64593259304E+03  0.00000000000E+00 0. -1.
        -13    1    1    2    0    0  0.60255048802E+02  0.86511956995E+02  0.38115629830E+03  0.39546823452E+03  0.10566000000E+00 0.  1.
         13    1    1    2    0    0  0.35996619669E+03 -0.25617757309E+03  0.82198970680E+02  0.44939881359E+03  0.10566000000E+00 0. -1.
         -4    1    1    2    0  502 -0.42022124550E+03  0.16966561609E+03 -0.34237857757E+03  0.56797482940E+03  0.00000000000E+00 0. -1.
</event>
<event>
 5    1  0.4419198E-005  0.3917829E+03  0.7818608E-02  0.9753081E-01
         21   -1    0    0  501  502  0.00000000000E+00  0.00000000000E+00  0.10162579197E+04  0.10162579197E+04  0.00000000000E+00 0.  1.
         -4   -1    0    0    0  501 -0.00000000000E+00 -0.00000000000E+00 -0.55705943591E+03  0.55705943591E+03  0.00000000000E+00 0. -1.
        -13    1    1    2    0    0  0.61318620663E+02 -0.33611294898E+03  0.31158065252E+03  0.46240069410E+03  0.10566000000E+00 0.  1.
         13    1    1    2    0    0 -0.65457526963E+02  0.39738018453E+03 -0.39542778290E+03  0.56441017137E+03  0.10566000000E+00 0. -1.
         -4    1    1    2    0  502  0.41389063008E+01 -0.61267235543E+02  0.54304561414E+03  0.54650649011E+03  0.00000000000E+00 0. -1.
</event>
<event>
 5    1  0.4419198E-005  0.9741147E+02  0.7818608E-02  0.1168911E+00
         -4   -1    0    0    0  501 -0.00000000000E+00  0.00000000000E+00  0.19764714787E+03  0.19764714787E+03  0.00000000000E+00 0. -1.
         21   -1    0    0  501  502  0.00000000000E+00 -0.00000000000E+00 -0.22107697324E+03  0.22107697324E+03  0.00000000000E+00 0. -1.
        -13    1    1    2    0    0 -0.92394562529E+02  0.66475947505E+02  0.29488233573E+02  0.11758134999E+03  0.10566000000E+00 0.  1.
         13    1    1    2    0    0  0.79411806964E+02 -0.45009505125E+02  0.10621234469E+03  0.14004700627E+03  0.10566000000E+00 0. -1.
         -4    1    1    2    0  502  0.12982755565E+02 -0.21466442380E+02 -0.15913040364E+03  0.16109576485E+03  0.00000000000E+00 0. -1.
</event>
<event>
 5    1  0.4419198E-005  0.4905779E+03  0.7818608E-02  0.9681674E-01
         -4   -1    0    0    0  501 -0.00000000000E+00  0.00000000000E+00  0.24854497498E+04  0.24854497498E+04  0.00000000000E+00 0. -1.
         21   -1    0    0  501  502  0.00000000000E+00 -0.00000000000E+00 -0.22055036766E+03  0.22055036766E+03  0.00000000000E+00 0. -1.
        -13    1    1    2    0    0 -0.24693183289E+02 -0.25448057967E+03  0.11825112451E+04  0.12098359288E+04  0.10566000000E+00 0.  1.
         13    1    1    2    0    0  0.26792956600E+03  0.51940751252E+03  0.35259989522E+03  0.68256656355E+03  0.10566000000E+00 0. -1.
         -4    1    1    2    0  502 -0.24323638271E+03 -0.26492693285E+03  0.72978824176E+03  0.81359762502E+03  0.00000000000E+00 0. -1.
</event>
<event>
 5    1  0.4419198E-005  0.3553276E+02  0.7818608E-02  0.1365296E+00
          4   -1    0    0  502    0 -0.00000000000E+00  0.00000000000E+00  0.51283765037E+02  0.51283765037E+02  0.00000000000E+00 0.  1.
         21   -1    0    0  501  502  0.00000000000E+00 -0.00000000000E+00 -0.10500765239E+03  0.10500765239E+03  0.00000000000E+00 0. -1.
        -13    1    1    2    0    0  0.21298602191E+02  0.25665145676E+02  0.29506313156E+02  0.44530482121E+02  0.10566000000E+00 0.  1.
         13    1    1    2    0    0 -0.28879975113E+02 -0.39374531211E+02 -0.32475886781E+02  0.58643849267E+02  0.10566000000E+00 0. -1.
          4    1    1    2  501    0  0.75813729215E+01  0.13709385535E+02 -0.50754313729E+02  0.53117086038E+02  0.00000000000E+00 0.  1.
</event>
<event>
 5    1  0.4419198E-005  0.1029426E+03  0.7818608E-02  0.1178195E+00
         21   -1    0    0  501  502  0.00000000000E+00  0.00000000000E+00  0.60233600115E+02  0.60233600115E+02  0.00000000000E+00 0. -1.
          4   -1    0    0  502    0 -0.00000000000E+00 -0.00000000000E+00 -0.62810609700E+03  0.62810609700E+03  0.00000000000E+00 0.  1.
        -13    1    1    2    0    0 -0.47314571087E+02  0.73244237248E+02 -0.30940854549E+03  0.32146080027E+03  0.10566000000E+00 0.  1.
         13    1    1    2    0    0  0.12521695888E+03  0.28822538537E+02 -0.99356947277E+02  0.16242487388E+03  0.10566000000E+00 0. -1.
          4    1    1    2  501    0 -0.77902387797E+02 -0.10206677578E+03 -0.15910700411E+03  0.20445402295E+03  0.00000000000E+00 0.  1.
</event>
<event>
 5    1  0.4419198E-005  0.1124407E+03  0.7818608E-02  0.1145467E+00
         -4   -1    0    0    0  501 -0.00000000000E+00  0.00000000000E+00  0.21277289128E+02  0.21277289128E+02  0.00000000000E+00 0. -1.
         21   -1    0    0  501  502  0.00000000000E+00 -0.00000000000E+00 -0.20468494554E+04  0.20468494554E+04  0.00000000000E+00 0. -1.
        -13    1    1    2    0    0  0.47222213467E+02 -0.79475231025E+02 -0.51790690146E+03  0.52609297614E+03  0.10566000000E+00 0.  1.
         13    1    1    2    0    0 -0.36467667712E+02  0.11600477881E+03 -0.20174916863E+03  0.23556259827E+03  0.10566000000E+00 0. -1.
         -4    1    1    2    0  502 -0.10754545755E+02 -0.36529547783E+02 -0.13059160962E+04  0.13064711702E+04  0.00000000000E+00 0. -1.
</event>
<event>
 5    1  0.4419198E-005  0.4447322E+03  0.7818608E-02  0.9836574E-01
         21   -1    0    0  501  502  0.00000000000E+00  0.00000000000E+00  0.38431712972E+03  0.38431712972E+03  0.00000000000E+00 0.  1.
         -4   -1    0    0    0  501 -0.00000000000E+00 -0.00000000000E+00 -0.86479459182E+03  0.86479459182E+03  0.00000000000E+00 0. -1.
        -13    1    1    2    0    0 -0.10387588669E+03 -0.17249474354E+03 -0.34340784521E+02  0.20426438023E+03  0.10566000000E+00 0.  1.
         13    1    1    2    0    0 -0.31918260158E+03 -0.20173086309E+03 -0.14248965961E+03  0.40357922213E+03  0.10566000000E+00 0. -1.
         -4    1    1    2    0  502  0.42305848828E+03  0.37422560663E+03 -0.30364701797E+03  0.64126811918E+03  0.00000000000E+00 0. -1.
</event>
<event>
 5    1  0.4419198E-005  0.8287100E+03  0.7818608E-02  0.8954695E-01
         21   -1    0    0  501  502  0.00000000000E+00  0.00000000000E+00  0.28696386134E+03  0.28696386134E+03  0.00000000000E+00 0. -1.
          4   -1    0    0  502    0 -0.00000000000E+00 -0.00000000000E+00 -0.36179986361E+04  0.36179986361E+04  0.00000000000E+00 0.  1.
        -13    1    1    2    0    0  0.64625737195E+02  0.91234329901E+03 -0.12194325275E+04  0.15243236144E+04  0.10566000000E+00 0.  1.
         13    1    1    2    0    0 -0.30241243017E+03 -0.72742358485E+03 -0.13725923409E+04  0.15825953669E+04  0.10566000000E+00 0. -1.
          4    1    1    2  501    0  0.23778669297E+03 -0.18491971416E+03 -0.73900990629E+03  0.79804351613E+03  0.00000000000E+00 0.  1.
</event>
<event>
 5    1  0.4419198E-005  0.1085676E+03  0.7818608E-02  0.1151109E+00
         -4   -1    0    0    0  501 -0.00000000000E+00  0.00000000000E+00  0.79556193520E+02  0.79556193520E+02  0.00000000000E+00 0. -1.
         21   -1    0    0  501  502  0.00000000000E+00 -0.00000000000E+00 -0.20405159048E+03  0.20405159048E+03  0.00000000000E+00 0.  1.
        -13    1    1    2    0    0 -0.37526166605E+02 -0.10926987321E+03 -0.97307193652E+02  0.15105237328E+03  0.10566000000E+00 0.  1.
         13    1    1    2    0    0  0.41123790687E+02  0.97254210417E+02 -0.33802011110E+01  0.10564556085E+03  0.10566000000E+00 0. -1.
         -4    1    1    2    0  502 -0.35976240819E+01  0.12015662796E+02 -0.23808002199E+02  0.26909849873E+02  0.00000000000E+00 0. -1.
</event>
<event>
 5    1  0.4419198E-005  0.4860593E+02  0.7818608E-02  0.1309535E+00
          4   -1    0    0  502    0 -0.00000000000E+00  0.00000000000E+00  0.82377032822E+02  0.82377032822E+02  0.00000000000E+00 0.  1.
         21   -1    0    0  501  502  0.00000000000E+00 -0.00000000000E+00 -0.21400262727E+03  0.21400262727E+03  0.00000000000E+00 0.  1.
        -13    1    1    2    0    0 -0.70545791197E+02 -0.34817082120E+02  0.18905393714E+02  0.80909597320E+02  0.10566000000E+00 0.  1.
         13    1    1    2    0    0  0.38584729704E+02  0.41509791279E+00  0.16497905859E+02  0.41966006891E+02  0.10566000000E+00 0. -1.
          4    1    1    2  501    0  0.31961061493E+02  0.34401984208E+02 -0.16702889402E+03  0.17350405588E+03  0.00000000000E+00 0.  1.
</event>
<event>
 5    1  0.4419198E-005  0.2792040E+03  0.7818608E-02  0.1035853E+00
          4   -1    0    0  502    0 -0.00000000000E+00  0.00000000000E+00  0.10409386115E+04  0.10409386115E+04  0.00000000000E+00 0.  1.
         21   -1    0    0  501  502  0.00000000000E+00 -0.00000000000E+00 -0.41851709237E+03  0.41851709237E+03  0.00000000000E+00 0.  1.
        -13    1    1    2    0    0 -0.17660513253E+02 -0.31747246034E+03  0.69574424314E+03  0.76495798566E+03  0.10566000000E+00 0.  1.
         13    1    1    2    0    0  0.13699691416E+03  0.65304165199E+02  0.23433441286E+03  0.27918706398E+03  0.10566000000E+00 0. -1.
          4    1    1    2  501    0 -0.11933640090E+03  0.25216829514E+03 -0.30765713686E+03  0.41531065423E+03  0.00000000000E+00 0.  1.
</event>
<event>
 5    1  0.4419198E-005  0.3845680E+03  0.7818608E-02  0.1002063E+00
          4   -1    0    0  502    0 -0.00000000000E+00  0.00000000000E+00  0.22834054225E+04  0.22834054225E+04  0.00000000000E+00 0.  1.
         21   -1    0    0  501  502  0.00000000000E+00 -0.00000000000E+00 -0.15721183960E+03  0.15721183960E+03  0.00000000000E+00 0.  1.
        -13    1    1    2    0    0 -0.31170176235E+02 -0.36883304995E+03  0.29039499581E+03  0.47046643172E+03  0.10566000000E+00 0.  1.
         13    1    1    2    0    0  0.14539773482E+03 -0.85830738061E+02  0.16981812428E+03  0.23946946233E+03  0.10566000000E+00 0. -1.
          4    1    1    2  501    0 -0.11422755859E+03  0.45466378801E+03  0.16659804628E+04  0.17306813681E+04  0.00000000000E+00 0.  1.
</event>
<event>
 5    1  0.4419198E-005  0.1250227E+03  0.7818608E-02  0.1128736E+00
         -4   -1    0    0    0  501 -0.00000000000E+00  0.00000000000E+00  0.11948843266E+03  0.11948843266E+03  0.00000000000E+00 0. -1.
         21   -1    0    0  501  502  0.00000000000E+00 -0.00000000000E+00 -0.18598710118E+03  0.18598710118E+03  0.00000000000E+00 0.  1.
        -13    1    1    2    0    0 -0.55261327219E+02 -0.10808251329E+03  0.32780015521E+02  0.12573855633E+03  0.10566000000E+00 0.  1.
         13    1    1    2    0    0  0.55487861318E+02  0.12298265970E+03 -0.88859967662E+02  0.16155414683E+03  0.10566000000E+00 0. -1.
         -4    1    1    2    0  502 -0.22653409924E+00 -0.14900146407E+02 -0.10418716381E+02  0.18182830684E+02  0.00000000000E+00 0. -1.
</event>
<event>
 5    1  0.4419198E-005  0.4772442E+02  0.7818608E-02  0.1301341E+00
         21   -1    0    0  501  502  0.00000000000E+00  0.00000000000E+00  0.27946205664E+03  0.27946205664E+03  0.00000000000E+00 0. -1.
          4   -1    0    0  502    0 -0.00000000000E+00 -0.00000000000E+00 -0.72035806125E+02  0.72035806125E+02  0.00000000000E+00 0.  1.
        -13    1    1    2    0    0 -0.23430744484E+01  0.46222733979E+02 -0.47163312412E+02  0.66078894785E+02  0.10566000000E+00 0.  1.
         13    1    1    2    0    0 -0.24007383937E+02 -0.79797855106E+02  0.19557503560E+03  0.21258800031E+03  0.10566000000E+00 0. -1.
          4    1    1    2  501    0  0.26350458385E+02  0.33575121126E+02  0.59014527328E+02  0.72830967668E+02  0.00000000000E+00 0.  1.
</event>
<event>
 5    1  0.4419198E-005  0.3910766E+03  0.7818608E-02  0.9755176E-01
         -4   -1    0    0    0  501 -0.00000000000E+00  0.00000000000E+00  0.46761195776E+03  0.46761195776E+03  0.00000000000E+00 0. -1.
         21   -1    0    0  501  502  0.00000000000E+00 -0.00000000000E+00 -0.77988971772E+03  0.77988971772E+03  0.00000000000E+00 0. -1.
        -13    1    1    2    0    0 -0.30936415842E+02  0.31161253143E+03  0.16566810277E+02  0.31358236866E+03  0.10566000000E+00 0.  1.
         13    1    1    2    0    0  0.10453287894E+03 -0.57308565602E+03 -0.12889845711E+03  0.59663147363E+03  0.10566000000E+00 0. -1.
         -4    1    1    2    0  502 -0.73596463098E+02  0.26147312459E+03 -0.19994611313E+03  0.33728783319E+03  0.00000000000E+00 0. -1.
</event>
<event>
 5    1  0.4419198E-005  0.7205907E+02  0.7818608E-02  0.1237418E+00
         21   -1    0    0  501  502  0.00000000000E+00  0.00000000000E+00  0.49503082910E+03  0.49503082910E+03  0.00000000000E+00 0.  1.
          4   -1    0    0  502    0 -0.00000000000E+00 -0.00000000000E+00 -0.16238640083E+03  0.16238640083E+03  0.00000000000E+00 0.  1.
        -13    1    1    2    0    0  0.28834969207E+02  0.84310280094E+02 -0.13950302905E+03  0.16553182491E+03  0.10566000000E+00 0.  1.
         13    1    1    2    0    0 -0.48664242733E+02 -0.15066846114E+02  0.93781728168E+02  0.10672507707E+03  0.10566000000E+00 0. -1.
          4    1    1    2  501    0  0.19829273526E+02 -0.69243433980E+02  0.37836572915E+03  0.38516032796E+03  0.00000000000E+00 0.  1.
</event>
<event>
 5    1  0.4419198E-005  0.1574925E+03  0.7818608E-02  0.1093949E+00
         21   -1    0    0  501  502  0.00000000000E+00  0.00000000000E+00  0.57376947778E+02  0.57376947778E+02  0.00000000000E+00 0.  1.
         -4   -1    0    0    0  501 -0.00000000000E+00 -0.00000000000E+00 -0.77373993718E+03  0.77373993718E+03  0.00000000000E+00 0. -1.
        -13    1    1    2    0    0 -0.66490248370E+02 -0.13499248390E+03 -0.24927216270E+03  0.29117099117E+03  0.10566000000E+00 0.  1.
         13    1    1    2    0    0  0.88303434294E+02  0.13621267383E+03 -0.48515836841E+03  0.51159558503E+03  0.10566000000E+00 0. -1.
         -4    1    1    2    0  502 -0.21813185924E+02 -0.12201899301E+01  0.18067541703E+02  0.28350308760E+02  0.00000000000E+00 0. -1.
</event>
<event>
 5    1  0.4419198E-005  0.4034941E+03  0.7818608E-02  0.9847847E-01
         21   -1    0    0  501  502  0.00000000000E+00  0.00000000000E+00  0.12479886537E+04  0.12479886537E+04  0.00000000000E+00 0.  1.
          4   -1    0    0  502    0 -0.00000000000E+00 -0.00000000000E+00 -0.33519446919E+03  0.33519446919E+03  0.00000000000E+00 0.  1.
        -13    1    1    2    0    0 -0.10461811538E+03 -0.34510712991E+03  0.55782911408E+03  0.66424183311E+03  0.10566000000E+00 0.  1.
         13    1    1    2    0    0  0.98042312367E+02 -0.24029312287E+03  0.14299228368E+03  0.29631045252E+03  0.10566000000E+00 0. -1.
          4    1    1    2  501    0  0.65758030109E+01  0.58540025279E+03  0.21197278672E+03  0.62263083722E+03  0.00000000000E+00 0.  1.
</event>
<event>
 5    1  0.4419198E-005  0.4558421E+03  0.7818608E-02  0.9753286E-01
          4   -1    0    0  502    0 -0.00000000000E+00  0.00000000000E+00  0.52663529159E+03  0.52663529159E+03  0.00000000000E+00 0.  1.
         21   -1    0    0  501  502  0.00000000000E+00 -0.00000000000E+00 -0.72276838039E+03  0.72276838039E+03  0.00000000000E+00 0.  1.
        -13    1    1    2    0    0 -0.38908688283E+03  0.10505318185E+03 -0.12848657487E+03  0.42300541899E+03  0.10566000000E+00 0.  1.
         13    1    1    2    0    0 -0.16805423726E+03 -0.18313912566E+03  0.45117664227E+02  0.25262181378E+03  0.10566000000E+00 0. -1.
          4    1    1    2  501    0  0.55714112010E+03  0.78085943807E+02 -0.11276417816E+03  0.57377643921E+03  0.00000000000E+00 0.  1.
</event>
<event>
 5    1  0.4419198E-005  0.3618215E+03  0.7818608E-02  0.9866410E-01
         -4   -1    0    0    0  501 -0.00000000000E+00  0.00000000000E+00  0.21083057718E+04  0.21083057718E+04  0.00000000000E+00 0. -1.
         21   -1    0    0  501  502  0.00000000000E+00 -0.00000000000E+00 -0.57594021611E+03  0.57594021611E+03  0.00000000000E+00 0. -1.
        -13    1    1    2    0    0  0.52037183794E+02 -0.33403553627E+03  0.15960618503E+04  0.16314720498E+04  0.10566000000E+00 0.  1.
         13    1    1    2    0    0 -0.40348663302E+03  0.24171054055E+03  0.28434067592E+03  0.54961357296E+03  0.10566000000E+00 0. -1.
         -4    1    1    2    0  502  0.35144944922E+03  0.92324995720E+02 -0.34803697056E+03  0.50316036516E+03  0.00000000000E+00 0. -1.
</event>
<event>
 5    1  0.4419198E-005  0.3718270E+03  0.7818608E-02  0.9814134E-01
          4   -1    0    0  502    0 -0.00000000000E+00  0.00000000000E+00  0.16427160187E+04  0.16427160187E+04  0.00000000000E+00 0.  1.
         21   -1    0    0  501  502  0.00000000000E+00 -0.00000000000E+00 -0.40441153417E+03  0.40441153417E+03  0.00000000000E+00 0. -1.
        -13    1    1    2    0    0 -0.36360245063E+03 -0.55700239245E+03  0.61092379019E+02  0.66797507232E+03  0.10566000000E+00 0.  1.
         13    1    1    2    0    0  0.18885744539E+03  0.28329427452E+03  0.86108917296E+03  0.92595753445E+03  0.10566000000E+00 0. -1.
          4    1    1    2  501    0  0.17474500524E+03  0.27370811793E+03  0.31612293253E+03  0.45319494607E+03  0.00000000000E+00 0.  1.
</event>
<event>
 5    1  0.4419198E-005  0.5020515E+03  0.7818608E-02  0.9688661E-01
         -4   -1    0    0    0  501 -0.00000000000E+00  0.00000000000E+00  0.98106406814E+03  0.98106406814E+03  0.00000000000E+00 0. -1.
         21   -1    0    0  501  502  0.00000000000E+00 -0.00000000000E+00 -0.41191577865E+03  0.41191577865E+03  0.00000000000E+00 0. -1.
        -13    1    1    2    0    0 -0.23161199417E+03 -0.23416909403E+02  0.12343196722E+03  0.26349180098E+03  0.10566000000E+00 0.  1.
         13    1    1    2    0    0  0.40763573445E+03 -0.38794617460E+03  0.11826727036E+03  0.57502720353E+03  0.10566000000E+00 0. -1.
         -4    1    1    2    0  502 -0.17602374028E+03  0.41136308401E+03  0.32744905191E+03  0.55446084228E+03  0.00000000000E+00 0. -1.
</event>
<event>
 5    1  0.4419198E-005  0.4968688E+03  0.7818608E-02  0.9747587E-01
         21   -1    0    0  501  502  0.00000000000E+00  0.00000000000E+00  0.52359132165E+03  0.52359132165E+03  0.00000000000E+00 0. -1.
         -4   -1    0    0    0  501 -0.00000000000E+00 -0.00000000000E+00 -0.11678310230E+04  0.11678310230E+04  0.00000000000E+00 0. -1.
        -13    1    1    2    0    0 -0.19072171550E+03  0.44048118780E+02 -0.64450433313E+03  0.67357320027E+03  0.10566000000E+00 0.  1.
         13    1    1    2    0    0 -0.38126954180E+03  0.14989262089E+03 -0.45214171645E+02  0.41216330961E+03  0.10566000000E+00 0. -1.
         -4    1    1    2    0  502  0.57199125730E+03 -0.19394073967E+03  0.45478803390E+02  0.60568583481E+03  0.00000000000E+00 0. -1.
</event>
<event>
 5    1  0.4419198E-005  0.7115613E+02  0.7818608E-02  0.1223726E+00
          4   -1    0    0  502    0 -0.00000000000E+00  0.00000000000E+00  0.65644049307E+03  0.65644049307E+03  0.00000000000E+00 0.  1.
         21   -1    0    0  501  502  0.00000000000E+00 -0.00000000000E+00 -0.13893863015E+02  0.13893863015E+02  0.00000000000E+00 0. -1.
        -13    1    1    2    0    0 -0.46824733507E+02  0.53354450258E+02  0.17264331652E+03  0.18666809833E+03  0.10566000000E+00 0.  1.
         13    1    1    2    0    0  0.21876521059E+02 -0.70933490755E+02  0.22641613987E+03  0.23827383793E+03  0.10566000000E+00 0. -1.
          4    1    1    2  501    0  0.24948212448E+02  0.17579040497E+02  0.24348717366E+03  0.24539241982E+03  0.00000000000E+00 0.  1.
</event>
<event>
 5    1  0.4419198E-005  0.6295602E+03  0.7818608E-02  0.9231948E-01
         21   -1    0    0  501  502  0.00000000000E+00  0.00000000000E+00  0.19973358915E+03  0.19973358915E+03  0.00000000000E+00 0.  1.
          4   -1    0    0  502    0 -0.00000000000E+00 -0.00000000000E+00 -0.34521675460E+04  0.34521675460E+04  0.00000000000E+00 0.  1.
        -13    1    1    2    0    0 -0.36154626866E+03 -0.55989850247E+03 -0.22806111947E+04  0.23760028346E+04  0.10566000000E+00 0.  1.
         13    1    1    2    0    0  0.31652907329E+03  0.47618324977E+03 -0.10200006733E+04  0.11693342235E+04  0.10566000000E+00 0. -1.
          4    1    1    2  501    0  0.45017195375E+02  0.83715252690E+02  0.48177911079E+02  0.10656407710E+03  0.00000000000E+00 0.  1.
</event>
<event>
 5    1  0.4419198E-005  0.4501682E+03  0.7818608E-02  0.1001319E+00
         21   -1    0    0  501  502  0.00000000000E+00  0.00000000000E+00  0.74345466879E+03  0.74345466879E+03  0.00000000000E+00 0. -1.
         -4   -1    0    0    0  501 -0.00000000000E+00 -0.00000000000E+00 -0.66310709187E+03  0.66310709187E+03  0.00000000000E+00 0. -1.
        -13    1    1    2    0    0  0.76592540932E+02 -0.75930618359E+02 -0.29162105796E+03  0.31092560001E+03  0.10566000000E+00 0.  1.
         13    1    1    2    0    0  0.36760749067E+03  0.20678350933E+03 -0.10101912777E+03  0.43370446420E+03  0.10566000000E+00 0. -1.
         -4    1    1    2    0  502 -0.44420003160E+03 -0.13085289097E+03  0.47298776265E+03  0.66193169645E+03  0.00000000000E+00 0. -1.
</event>
<event>
 5    1  0.4419198E-005  0.3320692E+03  0.7818608E-02  0.9948835E-01
         21   -1    0    0  501  502  0.00000000000E+00  0.00000000000E+00  0.98903512295E+03  0.98903512295E+03  0.00000000000E+00 0.  1.
          4   -1    0    0  502    0 -0.00000000000E+00 -0.00000000000E+00 -0.57071143727E+03  0.57071143727E+03  0.00000000000E+00 0.  1.
        -13    1    1    2    0    0 -0.51612159421E+03 -0.69960036944E+02 -0.54427649460E+01  0.52086998535E+03  0.10566000000E+00 0.  1.
         13    1    1    2    0    0  0.24648663320E+03  0.14475905549E+03 -0.20426228940E+03  0.35133166457E+03  0.10566000000E+00 0. -1.
          4    1    1    2  501    0  0.26963496102E+03 -0.74799018545E+02  0.62802874003E+03  0.68754491031E+03  0.00000000000E+00 0.  1.
</event>
<event>
 5    1  0.4419198E-005  0.2838737E+03  0.7818608E-02  0.1052194E+00
          4   -1    0    0  502    0 -0.00000000000E+00  0.00000000000E+00  0.96760631839E+03  0.96760631839E+03  0.00000000000E+00 0.  1.
         21   -1    0    0  501  502  0.00000000000E+00 -0.00000000000E+00 -0.32477045547E+03  0.32477045547E+03  0.00000000000E+00 0.  1.
        -13    1    1    2    0    0 -0.35794821895E+03 -0.66500748146E+02  0.65606313203E+03  0.75031201599E+03  0.10566000000E+00 0.  1.
         13    1    1    2    0    0  0.87209204607E+02  0.14063803885E+02  0.18327079710E+03  0.20344884414E+03  0.10566000000E+00 0. -1.
          4    1    1    2  501    0  0.27073901435E+03  0.52436944261E+02 -0.19649806620E+03  0.33861591373E+03  0.00000000000E+00 0.  1.
</event>
<event>
 5    1  0.4419198E-005  0.3772390E+03  0.7818608E-02  0.9949652E-01
         21   -1    0    0  501  502  0.00000000000E+00  0.00000000000E+00  0.42463021255E+03  0.42463021255E+03  0.00000000000E+00 0. -1.
         -4   -1    0    0    0  501 -0.00000000000E+00 -0.00000000000E+00 -0.92388110646E+03  0.92388110646E+03  0.00000000000E+00 0. -1.
        -13    1    1    2    0    0  0.15790004367E+03 -0.16153020515E+03 -0.13574867902E+03  0.26353775059E+03  0.10566000000E+00 0.  1.
         13    1    1    2    0    0  0.23009154663E+02 -0.21100421459E+03 -0.58003031798E+03  0.61764664713E+03  0.10566000000E+00 0. -1.
         -4    1    1    2    0  502 -0.18090919833E+03  0.37253441975E+03  0.21652810308E+03  0.46732692129E+03  0.00000000000E+00 0. -1.
</event>
<event>
 5    1  0.6422400E-005  0.3105543E+03  0.7818608E-02  0.1004491E+00
          4   -1    0    0  502    0 -0.00000000000E+00  0.00000000000E+00  0.10475187324E+04  0.10475187324E+04  0.00000000000E+00 0.  1.
         21   -1    0    0  501  502  0.00000000000E+00 -0.00000000000E+00 -0.57968694819E+03  0.57968694819E+03  0.00000000000E+00 0.  1.
        -13    1    1    2    0    0 -0.29988267801E+02  0.16620191561E+03  0.43746682658E+03  0.46893454605E+03  0.10566000000E+00 0.  1.
         13    1    1    2    0    0 -0.29028411524E+03 -0.59191933725E+02  0.49919929890E+03  0.58048988256E+03  0.10566000000E+00 0. -1.
          4    1    1    2  501    0  0.32027238304E+03 -0.10700998189E+03 -0.46883434128E+03  0.57778125197E+03  0.00000000000E+00 0.  1.
</event>
<event>
 5    1  0.4419198E-005  0.4949718E+03  0.7818608E-02  0.9489061E-01
         21   -1    0    0  501  502  0.00000000000E+00  0.00000000000E+00  0.63004055590E+03  0.63004055590E+03  0.00000000000E+00 0.  1.
          4   -1    0    0  502    0 -0.00000000000E+00 -0.00000000000E+00 -0.14928013927E+04  0.14928013927E+04  0.00000000000E+00 0.  1.
        -13    1    1    2    0    0 -0.64414143095E+03 -0.64409638718E+02 -0.27789289016E+03  0.70447942070E+03  0.10566000000E+00 0.  1.
         13    1    1    2    0    0  0.43586414104E+03  0.14384189187E+03 -0.91288238626E+03  0.10217740952E+04  0.10566000000E+00 0. -1.
          4    1    1    2  501    0  0.20827728991E+03 -0.79432253151E+02  0.32801443963E+03  0.39658843269E+03  0.00000000000E+00 0.  1.
</event>
<event>
 5    1  0.4419198E-005  0.7816981E+02  0.7818608E-02  0.1206789E+00
         -4   -1    0    0    0  501 -0.00000000000E+00  0.00000000000E+00  0.29446315376E+02  0.29446315376E+02  0.00000000000E+00 0. -1.
         21   -1    0    0  501  502  0.00000000000E+00 -0.00000000000E+00 -0.95549367152E+03  0.95549367152E+03  0.00000000000E+00 0. -1.
        -13    1    1    2    0    0  0.63150762221E+02  0.32020201251E+02 -0.35975494893E+03  0.36665644206E+03  0.10566000000E+00 0.  1.
         13    1    1    2    0    0 -0.66897704957E+02 -0.42871509723E+02 -0.34926545453E+02  0.86793686497E+02  0.10566000000E+00 0. -1.
         -4    1    1    2    0  502  0.37469427368E+01  0.10851308473E+02 -0.53136586176E+03  0.53148985834E+03  0.00000000000E+00 0. -1.
</event>
<event>
 5    1  0.4419198E-005  0.9939776E+02  0.7818608E-02  0.1165556E+00
          4   -1    0    0  502    0 -0.00000000000E+00  0.00000000000E+00  0.31423278350E+03  0.31423278350E+03  0.00000000000E+00 0.  1.
         21   -1    0    0  501  502  0.00000000000E+00 -0.00000000000E+00 -0.50723456033E+02  0.50723456033E+02  0.00000000000E+00 0. -1.
        -13    1    1    2    0    0 -0.95565597453E+02 -0.15480357624E+02  0.75890957135E+02  0.12301168005E+03  0.10566000000E+00 0.  1.
         13    1    1    2    0    0  0.10067389980E+03  0.62672267405E+01  0.20101419333E+03  0.22490271078E+03  0.10566000000E+00 0. -1.
          4    1    1    2  501    0 -0.51083023501E+01  0.92131308838E+01 -0.13395822998E+02  0.17041848707E+02  0.00000000000E+00 0.  1.
</event>
<event>
 5    1  0.4419198E-005  0.5478455E+03  0.7818608E-02  0.9378849E-01
         -4   -1    0    0    0  501 -0.00000000000E+00  0.00000000000E+00  0.96644177269E+03  0.96644177269E+03  0.00000000000E+00 0. -1.
         21   -1    0    0  501  502  0.00000000000E+00 -0.00000000000E+00 -0.52698068238E+03  0.52698068238E+03  0.00000000000E+00 0.  1.
        -13    1    1    2    0    0  0.52531330226E+03  0.83417598261E+02 -0.20461142769E+03  0.56989333102E+03  0.10566000000E+00 0.  1.
         13    1    1    2    0    0 -0.53954050590E+03 -0.11690119433E+03  0.67762405295E+03  0.87403902376E+03  0.10566000000E+00 0. -1.
         -4    1    1    2    0  502  0.14227203644E+02  0.33483596073E+02 -0.33551534947E+02  0.49490100291E+02  0.00000000000E+00 0. -1.
</event>
<event>
 5    1  0.4419198E-005  0.4540676E+03  0.7818608E-02  0.9855521E-01
          4   -1    0    0  502    0 -0.00000000000E+00  0.00000000000E+00  0.93565850178E+03  0.93565850178E+03  0.00000000000E+00 0.  1.
         21   -1    0    0  501  502  0.00000000000E+00 -0.00000000000E+00 -0.39349622867E+03  0.39349622867E+03  0.00000000000E+00 0.  1.
        -13    1    1    2    0    0  0.42735111684E+03 -0.14449686819E+02 -0.68053086010E+01  0.42764949889E+03  0.10566000000E+00 0.  1.
         13    1    1    2    0    0  0.92515460326E+02  0.15142082176E+03  0.13980695453E+03  0.22590566916E+03  0.10566000000E+00 0. -1.
          4    1    1    2  501    0 -0.51986657717E+03 -0.13697113494E+03  0.40916062718E+03  0.67559956239E+03  0.00000000000E+00 0.  1.
</event>
<event>
 5    1  0.4419198E-005  0.7551913E+03  0.7818608E-02  0.9046542E-01
         -4   -1    0    0    0  501 -0.00000000000E+00  0.00000000000E+00  0.42853798270E+04  0.42853798270E+04  0.00000000000E+00 0. -1.
         21   -1    0    0  501  502  0.00000000000E+00 -0.00000000000E+00 -0.30592741304E+03  0.30592741304E+03  0.00000000000E+00 0.  1.
        -13    1    1    2    0    0  0.39224413275E+03 -0.82386926318E+03  0.19019891607E+04  0.21095446905E+04  0.10566000000E+00 0.  1.
         13    1    1    2    0    0  0.16580034091E+03  0.69590570740E+03  0.15328934475E+04  0.16916077676E+04  0.10566000000E+00 0. -1.
         -4    1    1    2    0  502 -0.55804447366E+03  0.12796355578E+03  0.54456980567E+03  0.79015478195E+03  0.00000000000E+00 0. -1.
</event>
<event>
 5    1  0.4419198E-005  0.1732839E+03  0.7818608E-02  0.1080173E+00
          4   -1    0    0  502    0 -0.00000000000E+00  0.00000000000E+00  0.48786183002E+03  0.48786183002E+03  0.00000000000E+00 0.  1.
         21   -1    0    0  501  502  0.00000000000E+00 -0.00000000000E+00 -0.16726438295E+03  0.16726438295E+03  0.00000000000E+00 0. -1.
        -13    1    1    2    0    0  0.12075954124E+03  0.12445369691E+03  0.33443657307E+03  0.37672194261E+03  0.10566000000E+00 0.  1.
         13    1    1    2    0    0 -0.14009423325E+03 -0.10418579960E+03  0.71442577356E+02  0.18864020794E+03  0.10566000000E+00 0. -1.
          4    1    1    2  501    0  0.19334692009E+02 -0.20267897305E+02 -0.85281703353E+02  0.89764062425E+02  0.00000000000E+00 0.  1.
</event>
<event>
 5    1  0.4419198E-005  0.1944632E+03  0.7818608E-02  0.1063999E+00
          4   -1    0    0  502    0 -0.00000000000E+00  0.00000000000E+00  0.22175191355E+03  0.22175191355E+03  0.00000000000E+00 0.  1.
         21   -1    0    0  501  502  0.00000000000E+00 -0.00000000000E+00 -0.22755505878E+03  0.22755505878E+03  0.00000000000E+00 0. -1.
        -13    1    1    2    0    0 -0.12184525065E+02 -0.18818770218E+03  0.63811713753E+02  0.19908545873E+03  0.10566000000E+00 0.  1.
         13    1    1    2    0    0  0.25620135607E+01  0.20500526042E+03 -0.31449432870E+02  0.20741937881E+03  0.10566000000E+00 0. -1.
          4    1    1    2  501    0  0.96225115039E+01 -0.16817558245E+02 -0.38165426109E+02  0.42802134795E+02  0.00000000000E+00 0.  1.
</event>
<event>
 5    1  0.4419198E-005  0.4626834E+03  0.7818608E-02  0.1000664E+00
         -4   -1    0    0    0  501 -0.00000000000E+00  0.00000000000E+00  0.38892420630E+03  0.38892420630E+03  0.00000000000E+00 0. -1.
         21   -1    0    0  501  502  0.00000000000E+00 -0.00000000000E+00 -0.81923744728E+03  0.81923744728E+03  0.00000000000E+00 0. -1.
        -13    1    1    2    0    0  0.88463724025E+02  0.49737803244E+02  0.49027944772E+02  0.11270949415E+03  0.10566000000E+00 0.  1.
         13    1    1    2    0    0  0.39651911813E+03  0.16334382808E+03 -0.34116717703E+03  0.54799969988E+03  0.10566000000E+00 0. -1.
         -4    1    1    2    0  502 -0.48498284216E+03 -0.21308163132E+03 -0.13817400872E+03  0.54745245956E+03  0.00000000000E+00 0. -1.
</event>
<event>
 5    1  0.4419198E-005  0.4792472E+03  0.7818608E-02  0.9524656E-01
          4   -1    0    0  502    0 -0.00000000000E+00  0.00000000000E+00  0.35276561609E+03  0.35276561609E+03  0.00000000000E+00 0.  1.
         21   -1    0    0  501  502  0.00000000000E+00 -0.00000000000E+00 -0.14547698633E+04  0.14547698633E+04  0.00000000000E+00 0.  1.
        -13    1    1    2    0    0  0.45331051464E+03  0.50855976854E+03 -0.61147096288E+03  0.91543443810E+03  0.10566000000E+00 0.  1.
         13    1    1    2    0    0 -0.21893454287E+03 -0.27228364063E+03 -0.42964339892E+03  0.55377267575E+03  0.10566000000E+00 0. -1.
          4    1    1    2  501    0 -0.23437597177E+03 -0.23627612791E+03 -0.60889885390E+02  0.33832836550E+03  0.00000000000E+00 0.  1.
</event>
<event>
 5    1  0.4419198E-005  0.6407745E+03  0.7818608E-02  0.9356895E-01
          4   -1    0    0  502    0 -0.00000000000E+00  0.00000000000E+00  0.22712161437E+04  0.22712161437E+04  0.00000000000E+00 0.  1.
         21   -1    0    0  501  502  0.00000000000E+00 -0.00000000000E+00 -0.52473874250E+03  0.52473874250E+03  0.00000000000E+00 0.  1.
        -13    1    1    2    0    0 -0.13030792258E+03 -0.22046759193E+03  0.54355760636E+03  0.60086687076E+03  0.10566000000E+00 0.  1.
         13    1    1    2    0    0  0.74770968791E+03 -0.38584171995E+03  0.99888257633E+03  0.13060283392E+04  0.10566000000E+00 0. -1.
          4    1    1    2  501    0 -0.61740176533E+03  0.60630931188E+03  0.20403721855E+03  0.88905967632E+03  0.00000000000E+00 0.  1.
</event>
<event>
 5    1  0.4419198E-005  0.2542517E+03  0.7818608E-02  0.1028213E+00
         21   -1    0    0  501  502  0.00000000000E+00  0.00000000000E+00  0.15563910853E+03  0.15563910853E+03  0.00000000000E+00 0.  1.
         -4   -1    0    0    0  501 -0.00000000000E+00 -0.00000000000E+00 -0.12960523920E+04  0.12960523920E+04  0.00000000000E+00 0. -1.
        -13    1    1    2    0    0  0.15334042930E+03 -0.14785397909E+03 -0.11450656129E+03  0.24183847943E+03  0.10566000000E+00 0.  1.
         13    1    1    2    0    0  0.35135746119E+01  0.28648443750E+03 -0.94152167945E+03  0.98414875002E+03  0.10566000000E+00 0. -1.
         -4    1    1    2    0  502 -0.15685400392E+03 -0.13863045842E+03 -0.84385042728E+02  0.22570427107E+03  0.00000000000E+00 0. -1.
</event>
<event>
 5    1  0.4419198E-005  0.1570286E+03  0.7818608E-02  0.1094380E+00
         21   -1    0    0  501  502  0.00000000000E+00  0.00000000000E+00  0.47103164742E+03  0.47103164742E+03  0.00000000000E+00 0. -1.
         -4   -1    0    0    0  501 -0.00000000000E+00 -0.00000000000E+00 -0.13492120808E+03  0.13492120808E+03  0.00000000000E+00 0. -1.
        -13    1    1    2    0    0  0.15318914333E+02  0.12453305330E+03  0.16212791370E+03  0.20500883411E+03  0.10566000000E+00 0.  1.
         13    1    1    2    0    0  0.10115288610E+03 -0.15279951350E+03 -0.75642339639E+01  0.18340345278E+03  0.10566000000E+00 0. -1.
         -4    1    1    2    0  502 -0.11647180044E+03  0.28266460204E+02  0.18154675960E+03  0.21754056861E+03  0.00000000000E+00 0. -1.
</event>
<event>
 5    1  0.4419198E-005  0.7729577E+02  0.7818608E-02  0.1208790E+00
         21   -1    0    0  501  502  0.00000000000E+00  0.00000000000E+00  0.57643619999E+02  0.57643619999E+02  0.00000000000E+00 0. -1.
          4   -1    0    0  502    0 -0.00000000000E+00 -0.00000000000E+00 -0.14525954260E+03  0.14525954260E+03  0.00000000000E+00 0.  1.
        -13    1    1    2    0    0 -0.43705368625E+02 -0.76804203536E+02 -0.55526467471E+02  0.10436591724E+03  0.10566000000E+00 0.  1.
         13    1    1    2    0    0  0.43836641808E+02  0.50679231666E+02 -0.21911332707E+02  0.70499314552E+02  0.10566000000E+00 0. -1.
          4    1    1    2  501    0 -0.13127318297E+00  0.26124971870E+02 -0.10178122421E+02  0.28037930806E+02  0.00000000000E+00 0.  1.
</event>
<event>
 5    1  0.4419198E-005  0.4757356E+03  0.7818608E-02  0.9639439E-01
          4   -1    0    0  502    0 -0.00000000000E+00  0.00000000000E+00  0.19776559521E+04  0.19776559521E+04  0.00000000000E+00 0.  1.
         21   -1    0    0  501  502  0.00000000000E+00 -0.00000000000E+00 -0.26596641978E+03  0.26596641978E+03  0.00000000000E+00 0.  1.
        -13    1    1    2    0    0  0.38332875930E+03 -0.17243964467E+03  0.41566947313E+03  0.59114929655E+03  0.10566000000E+00 0.  1.
         13    1    1    2    0    0 -0.69964070256E+02 -0.31756800574E+03  0.87776448737E+03  0.93606352127E+03  0.10566000000E+00 0. -1.
          4    1    1    2  501    0 -0.31336468904E+03  0.49000765041E+03  0.41825557185E+03  0.71640955408E+03  0.00000000000E+00 0.  1.
</event>
<event>
 5    1  0.4419198E-005  0.3452107E+03  0.7818608E-02  0.9902186E-01
         -4   -1    0    0    0  501 -0.00000000000E+00  0.00000000000E+00  0.15696255874E+04  0.15696255874E+04  0.00000000000E+00 0. -1.
         21   -1    0    0  501  502  0.00000000000E+00 -0.00000000000E+00 -0.31352720645E+03  0.31352720645E+03  0.00000000000E+00 0. -1.
        -13    1    1    2    0    0  0.79337393126E+02 -0.31747370233E+03  0.40298613560E+03  0.51911637450E+03  0.10566000000E+00 0.  1.
         13    1    1    2    0    0  0.12694704980E+03  0.44790557736E+03 -0.11447064736E+02  0.46568874384E+03  0.10566000000E+00 0. -1.
         -4    1    1    2    0  502 -0.20628444293E+03 -0.13043187503E+03  0.86455931009E+03  0.89834767551E+03  0.00000000000E+00 0. -1.
</event>
<event>
 5    1  0.4419198E-005  0.6675136E+02  0.7818608E-02  0.1235518E+00
         -4   -1    0    0    0  501 -0.00000000000E+00  0.00000000000E+00  0.18717708943E+03  0.18717708943E+03  0.00000000000E+00 0. -1.
         21   -1    0    0  501  502  0.00000000000E+00 -0.00000000000E+00 -0.87315429496E+02  0.87315429496E+02  0.00000000000E+00 0.  1.
        -13    1    1    2    0    0 -0.46177166374E+02  0.60300931547E+02 -0.25741851387E+02  0.80194682595E+02  0.10566000000E+00 0.  1.
         13    1    1    2    0    0  0.44166214473E+02 -0.48510071388E+02  0.15187120901E+03  0.16543505316E+03  0.10566000000E+00 0. -1.
         -4    1    1    2    0  502  0.20109519006E+01 -0.11790860159E+02 -0.26267697681E+02  0.28862783169E+02  0.00000000000E+00 0. -1.
</event>
<event>
 5    1  0.4419198E-005  0.4646253E+03  0.7818608E-02  0.9864708E-01
          4   -1    0    0  502    0 -0.00000000000E+00  0.00000000000E+00  0.41467358886E+03  0.41467358886E+03  0.00000000000E+00 0.  1.
         21   -1    0    0  501  502  0.00000000000E+00 -0.00000000000E+00 -0.87308868040E+03  0.87308868040E+03  0.00000000000E+00 0.  1.
        -13    1    1    2    0    0 -0.44978988757E+03  0.35405653422E+03 -0.57407025314E+02  0.57529344696E+03  0.10566000000E+00 0.  1.
         13    1    1    2    0    0  0.12795852531E+03 -0.97002149436E+02 -0.19292191259E+03  0.25100134804E+03  0.10566000000E+00 0. -1.
          4    1    1    2  501    0  0.32183136226E+03 -0.25705438479E+03 -0.20808615363E+03  0.46146747427E+03  0.00000000000E+00 0.  1.
</event>
<event>
 5    1  0.4419198E-005  0.3710616E+02  0.7818608E-02  0.1355509E+00
         -4   -1    0    0    0  501 -0.00000000000E+00  0.00000000000E+00  0.18677614615E+03  0.18677614615E+03  0.00000000000E+00 0. -1.
         21   -1    0    0  501  502  0.00000000000E+00 -0.00000000000E+00 -0.12588880683E+02  0.12588880683E+02  0.00000000000E+00 0. -1.
        -13    1    1    2    0    0  0.30499251948E+02  0.10387932416E+02  0.74897787004E+02  0.81534061419E+02  0.10566000000E+00 0.  1.
         13    1    1    2    0    0 -0.41783226932E+02 -0.14819289746E+02  0.95234351661E+02  0.10504780960E+03  0.10566000000E+00 0. -1.
         -4    1    1    2    0  502  0.11283974984E+02  0.44313573301E+01  0.40551268045E+01  0.12783155817E+02  0.00000000000E+00 0. -1.
</event>
<event>
 5    1  0.4419198E-005  0.1159251E+03  0.7818608E-02  0.1140602E+00
          4   -1    0    0  502    0 -0.00000000000E+00  0.00000000000E+00  0.26441643978E+03  0.26441643978E+03  0.00000000000E+00 0.  1.
         21   -1    0    0  501  502  0.00000000000E+00 -0.00000000000E+00 -0.15949876316E+03  0.15949876316E+03  0.00000000000E+00 0. -1.
        -13    1    1    2    0    0  0.41328357429E+02  0.10417066518E+03  0.82407744583E+02  0.13910646334E+03  0.10566000000E+00 0.  1.
         13    1    1    2    0    0 -0.14344638598E+03 -0.53662827692E+02  0.60563814151E+02  0.16469532924E+03  0.10566000000E+00 0. -1.
          4    1    1    2  501    0  0.10211802855E+03 -0.50507837491E+02 -0.38053882117E+02  0.12011341035E+03  0.00000000000E+00 0.  1.
</event>
<event>
 5    1  0.4419198E-005  0.3936549E+03  0.7818608E-02  0.9887232E-01
         21   -1    0    0  501  502  0.00000000000E+00  0.00000000000E+00  0.30605827663E+03  0.30605827663E+03  0.00000000000E+00 0.  1.
          4   -1    0    0  502    0 -0.00000000000E+00 -0.00000000000E+00 -0.21641561854E+04  0.21641561854E+04  0.00000000000E+00 0.  1.
        -13    1    1    2    0    0 -0.35948364765E+03 -0.38567987018E+03 -0.62037043072E+03  0.81414798265E+03  0.10566000000E+00 0.  1.
         13    1    1    2    0    0  0.17643573978E+02  0.24412308206E+03 -0.12617752061E+04  0.12852953189E+04  0.10566000000E+00 0. -1.
          4    1    1    2  501    0  0.34184007367E+03  0.14155678812E+03  0.24047728038E+02  0.37077116049E+03  0.00000000000E+00 0.  1.
</event>
<event>
 5    1  0.4419198E-005  0.3325151E+03  0.7818608E-02  0.1028673E+00
          4   -1    0    0  502    0 -0.00000000000E+00  0.00000000000E+00  0.78355171958E+03  0.78355171958E+03  0.00000000000E+00 0.  1.
         21   -1    0    0  501  502  0.00000000000E+00 -0.00000000000E+00 -0.56906382362E+03  0.56906382362E+03  0.00000000000E+00 0.  1.
        -13    1    1    2    0    0  0.21555173347E+03  0.37386156046E+03  0.33043828820E+03  0.54352965849E+03  0.10566000000E+00 0.  1.
         13    1    1    2    0    0 -0.60938870070E+02 -0.94032226460E+02  0.27917372803E+03  0.30082152032E+03  0.10566000000E+00 0. -1.
          4    1    1    2  501    0 -0.15461286340E+03 -0.27982933400E+03 -0.39512412027E+03  0.50826436440E+03  0.00000000000E+00 0.  1.
</event>
<event>
 5    1  0.4419198E-005  0.3144638E+03  0.7818608E-02  0.1003544E+00
         21   -1    0    0  501  502  0.00000000000E+00  0.00000000000E+00  0.74909077744E+03  0.74909077744E+03  0.00000000000E+00 0.  1.
          4   -1    0    0  502    0 -0.00000000000E+00 -0.00000000000E+00 -0.94616204452E+03  0.94616204452E+03  0.00000000000E+00 0.  1.
        -13    1    1    2    0    0  0.24891158009E+03 -0.17821383200E+03  0.51091890348E+03  0.59561336596E+03  0.10566000000E+00 0.  1.
         13    1    1    2    0    0  0.21829577764E+03  0.19732590527E+03 -0.51631145179E+03  0.59427946779E+03  0.10566000000E+00 0. -1.
          4    1    1    2  501    0 -0.46720735773E+03 -0.19112073265E+02 -0.19167871877E+03  0.50535998821E+03  0.00000000000E+00 0.  1.
</event>
<event>
 5    1  0.4419198E-005  0.3259484E+03  0.7818608E-02  0.9971355E-01
          4   -1    0    0  502    0 -0.00000000000E+00  0.00000000000E+00  0.13936899039E+04  0.13936899039E+04  0.00000000000E+00 0.  1.
         21   -1    0    0  501  502  0.00000000000E+00 -0.00000000000E+00 -0.50164514140E+03  0.50164514140E+03  0.00000000000E+00 0.  1.
        -13    1    1    2    0    0 -0.15997787147E+03  0.36774568822E+03  0.37424250790E+03  0.54853192838E+03  0.10566000000E+00 0.  1.
         13    1    1    2    0    0  0.27275822116E+02 -0.30690083012E+03  0.89275799362E+03  0.94443048253E+03  0.10566000000E+00 0. -1.
          4    1    1    2  501    0  0.13270204935E+03 -0.60844858105E+02 -0.37495573904E+03  0.40237263438E+03  0.00000000000E+00 0.  1.
</event>
<event>
 5    1  0.4419198E-005  0.3932290E+03  0.7818608E-02  0.1001698E+00
         21   -1    0    0  501  502  0.00000000000E+00  0.00000000000E+00  0.13860702687E+03  0.13860702687E+03  0.00000000000E+00 0.  1.
          4   -1    0    0  502    0 -0.00000000000E+00 -0.00000000000E+00 -0.24893279486E+04  0.24893279486E+04  0.00000000000E+00 0.  1.
        -13    1    1    2    0    0 -0.17446536884E+03  0.21884379033E+03 -0.15805245830E+04  0.16051133100E+04  0.10566000000E+00 0.  1.
         13    1    1    2    0    0 -0.14153424223E+02  0.15919488769E+03 -0.49116247781E+03  0.51651129945E+03  0.10566000000E+00 0. -1.
          4    1    1    2  501    0  0.18861879306E+03 -0.37803867803E+03 -0.27903386100E+03  0.50631036604E+03  0.00000000000E+00 0.  1.
</event>
<event>
 5    1  0.4419198E-005  0.4693576E+03  0.7818608E-02  0.9619804E-01
         -4   -1    0    0    0  501 -0.00000000000E+00  0.00000000000E+00  0.91812718402E+03  0.91812718402E+03  0.00000000000E+00 0. -1.
         21   -1    0    0  501  502  0.00000000000E+00 -0.00000000000E+00 -0.78467429710E+03  0.78467429710E+03  0.00000000000E+00 0. -1.
        -13    1    1    2    0    0 -0.32529310048E+03  0.42315269189E+03  0.17520656591E+03  0.56175720180E+03  0.10566000000E+00 0.  1.
         13    1    1    2    0    0 -0.23860598566E+02  0.31183523114E+03 -0.91392289734E+02  0.32582679652E+03  0.10566000000E+00 0. -1.
         -4    1    1    2    0  502  0.34915369905E+03 -0.73498792304E+03  0.49638610749E+02  0.81521748279E+03  0.00000000000E+00 0. -1.
</event>
<event>
 5    1  0.4419198E-005  0.1911605E+03  0.7818608E-02  0.1066371E+00
         21   -1    0    0  501  502  0.00000000000E+00  0.00000000000E+00  0.36049358601E+03  0.36049358601E+03  0.00000000000E+00 0.  1.
         -4   -1    0    0    0  501 -0.00000000000E+00 -0.00000000000E+00 -0.26272675519E+03  0.26272675519E+03  0.00000000000E+00 0. -1.
        -13    1    1    2    0    0  0.19779058399E+03 -0.58685330529E+02 -0.88425194047E+02  0.22446404888E+03  0.10566000000E+00 0.  1.
         13    1    1    2    0    0 -0.16752800178E+03  0.50422761347E+02 -0.32398469034E+02  0.17792627181E+03  0.10566000000E+00 0. -1.
         -4    1    1    2    0  502 -0.30262582212E+02  0.82625691820E+01  0.21859049391E+03  0.22083002051E+03  0.00000000000E+00 0. -1.
</event>
<event>
 5    1  0.4419198E-005  0.4856822E+03  0.7818608E-02  0.9870675E-01
         21   -1    0    0  501  502  0.00000000000E+00  0.00000000000E+00  0.82381869353E+03  0.82381869353E+03  0.00000000000E+00 0. -1.
         -4   -1    0    0    0  501 -0.00000000000E+00 -0.00000000000E+00 -0.43648593396E+03  0.43648593396E+03  0.00000000000E+00 0. -1.
        -13    1    1    2    0    0 -0.13227182998E+03 -0.38572472948E+02 -0.61610109990E+02  0.15092875635E+03  0.10566000000E+00 0.  1.
         13    1    1    2    0    0 -0.14600281095E+03 -0.40400016537E+03  0.14802280738E+02  0.42982795757E+03  0.10566000000E+00 0. -1.
         -4    1    1    2    0  502  0.27827464093E+03  0.44257263832E+03  0.43414058883E+03  0.67954791357E+03  0.00000000000E+00 0. -1.
</event>
<event>
 5    1  0.4419198E-005  0.6854157E+03  0.7818608E-02  0.9144407E-01
         21   -1    0    0  501  502  0.00000000000E+00  0.00000000000E+00  0.18758400613E+03  0.18758400613E+03  0.00000000000E+00 0.  1.
          4   -1    0    0  502    0 -0.00000000000E+00 -0.00000000000E+00 -0.42352497098E+04  0.42352497098E+04  0.00000000000E+00 0.  1.
        -13    1    1    2    0    0 -0.44465146269E+03  0.72763506740E+03 -0.21940680594E+04  0.23539546247E+04  0.10566000000E+00 0.  1.
         13    1    1    2    0    0  0.42238819949E+03 -0.37434953916E+03 -0.11735373208E+04  0.13022055226E+04  0.10566000000E+00 0. -1.
          4    1    1    2  501    0  0.22263263201E+02 -0.35328552824E+03 -0.68006032349E+03  0.76667356870E+03  0.00000000000E+00 0.  1.
</event>
<event>
 5    1  0.4419198E-005  0.1996011E+03  0.7818608E-02  0.1060410E+00
         -4   -1    0    0    0  501 -0.00000000000E+00  0.00000000000E+00  0.27863975053E+03  0.27863975053E+03  0.00000000000E+00 0. -1.
         21   -1    0    0  501  502  0.00000000000E+00 -0.00000000000E+00 -0.33670238267E+03  0.33670238267E+03  0.00000000000E+00 0.  1.
        -13    1    1    2    0    0 -0.15446051191E+03 -0.12336976829E+03 -0.13342211792E+03  0.23849449088E+03  0.10566000000E+00 0.  1.
         13    1    1    2    0    0  0.16494275289E+03  0.11338795662E+03  0.18121722882E+03  0.27000488074E+03  0.10566000000E+00 0. -1.
         -4    1    1    2    0  502 -0.10482240986E+02  0.99818116673E+01 -0.10585774303E+03  0.10684276157E+03  0.00000000000E+00 0. -1.
</event>
<event>
 5    1  0.4419198E-005  0.1253860E+03  0.7818608E-02  0.1128285E+00
         21   -1    0    0  501  502  0.00000000000E+00  0.00000000000E+00  0.12147586464E+03  0.12147586464E+03  0.00000000000E+00 0. -1.
         -4   -1    0    0    0  501 -0.00000000000E+00 -0.00000000000E+00 -0.42634498102E+03  0.42634498102E+03  0.00000000000E+00 0. -1.
        -13    1    1    2    0    0 -0.12654883256E+01  0.13734678089E+03 -0.17267352148E+03  0.22063974226E+03  0.10566000000E+00 0.  1.
         13    1    1    2    0    0 -0.65558812662E+01 -0.11771515287E+03 -0.21311242992E+03  0.24355031461E+03  0.10566000000E+00 0. -1.
         -4    1    1    2    0  502  0.78213695918E+01 -0.19631628016E+02  0.80916835028E+02  0.83630788779E+02  0.00000000000E+00 0. -1.
</event>
<event>
 5    1  0.4419198E-005  0.2502310E+03  0.7818608E-02  0.1030273E+00
         21   -1    0    0  501  502  0.00000000000E+00  0.00000000000E+00  0.31347104036E+03  0.31347104036E+03  0.00000000000E+00 0.  1.
          4   -1    0    0  502    0 -0.00000000000E+00 -0.00000000000E+00 -0.41479986916E+03  0.41479986916E+03  0.00000000000E+00 0.  1.
        -13    1    1    2    0    0  0.32138162461E+03  0.13311657093E+03 -0.69053214764E+02  0.35464704669E+03  0.10566000000E+00 0.  1.
         13    1    1    2    0    0 -0.15959246153E+03 -0.12314265458E+03 -0.57400974684E+02  0.20959186581E+03  0.10566000000E+00 0. -1.
          4    1    1    2  501    0 -0.16178916308E+03 -0.99739163469E+01  0.25125360643E+02  0.16403199702E+03  0.00000000000E+00 0.  1.
</event>
<event>
 5    1  0.4419198E-005  0.2013570E+03  0.7818608E-02  0.1059210E+00
         -4   -1    0    0    0  501 -0.00000000000E+00  0.00000000000E+00  0.29270113045E+03  0.29270113045E+03  0.00000000000E+00 0. -1.
         21   -1    0    0  501  502  0.00000000000E+00 -0.00000000000E+00 -0.27469949195E+03  0.27469949195E+03  0.00000000000E+00 0.  1.
        -13    1    1    2    0    0 -0.15149598030E+03  0.16584518616E+03 -0.12198233569E+02  0.22495436401E+03  0.10566000000E+00 0.  1.
         13    1    1    2    0    0  0.12187771478E+03 -0.14786845366E+03  0.13346671030E+03  0.23352222778E+03  0.10566000000E+00 0. -1.
         -4    1    1    2    0  502  0.29618265528E+02 -0.17976732496E+02 -0.10326683824E+03  0.10892403061E+03  0.00000000000E+00 0. -1.
</event>
<event>
 5    1  0.4419198E-005  0.7293940E+03  0.7818608E-02  0.9081395E-01
         -4   -1    0    0    0  501 -0.00000000000E+00  0.00000000000E+00  0.22006532391E+04  0.22006532391E+04  0.00000000000E+00 0. -1.
         21   -1    0    0  501  502  0.00000000000E+00 -0.00000000000E+00 -0.40754113481E+03  0.40754113481E+03  0.00000000000E+00 0. -1.
        -13    1    1    2    0    0 -0.11962942100E+03 -0.64872077316E+03  0.78880449972E+03  0.10282812795E+04  0.10566000000E+00 0.  1.
         13    1    1    2    0    0 -0.13376447622E+03  0.84286587827E+03  0.90885377766E+03  0.12467281276E+04  0.10566000000E+00 0. -1.
         -4    1    1    2    0  502  0.25339389723E+03 -0.19414510511E+03  0.95453826884E+02  0.33318496673E+03  0.00000000000E+00 0. -1.
</event>
<event>
 5    1  0.4419198E-005  0.4949113E+03  0.7818608E-02  0.9638926E-01
          4   -1    0    0  502    0 -0.00000000000E+00  0.00000000000E+00  0.26155996217E+04  0.26155996217E+04  0.00000000000E+00 0.  1.
         21   -1    0    0  501  502  0.00000000000E+00 -0.00000000000E+00 -0.16935186143E+03  0.16935186143E+03  0.00000000000E+00 0. -1.
        -13    1    1    2    0    0  0.32814936964E+03  0.40088145677E+03  0.11177962412E+04  0.12320131489E+04  0.10566000000E+00 0.  1.
         13    1    1    2    0    0 -0.26818595941E+03  0.10863616907E+03  0.53078432983E+03  0.60453084455E+03  0.10566000000E+00 0. -1.
          4    1    1    2  501    0 -0.59963410223E+02 -0.50951762584E+03  0.79766718927E+03  0.94840748966E+03  0.00000000000E+00 0.  1.
</event>
<event>
 5    1  0.4419198E-005  0.3576008E+03  0.7818608E-02  0.9860186E-01
         -4   -1    0    0    0  501 -0.00000000000E+00  0.00000000000E+00  0.24039183730E+03  0.24039183730E+03  0.00000000000E+00 0. -1.
         21   -1    0    0  501  502  0.00000000000E+00 -0.00000000000E+00 -0.81341651555E+03  0.81341651555E+03  0.00000000000E+00 0.  1.
        -13    1    1    2    0    0 -0.18168667036E+03  0.31860558159E+03 -0.52225781509E+03  0.63817928468E+03  0.10566000000E+00 0.  1.
         13    1    1    2    0    0  0.18290389756E+03 -0.30411829847E+03  0.81184237343E+01  0.35497562617E+03  0.10566000000E+00 0. -1.
         -4    1    1    2    0  502 -0.12172271970E+01 -0.14487283124E+02 -0.58885286891E+02  0.60653442001E+02  0.00000000000E+00 0. -1.
</event>
<event>
 5    1  0.4419198E-005  0.4516353E+02  0.7818608E-02  0.1312840E+00
         21   -1    0    0  501  502  0.00000000000E+00  0.00000000000E+00  0.13807817015E+02  0.13807817015E+02  0.00000000000E+00 0. -1.
         -4   -1    0    0    0  501 -0.00000000000E+00 -0.00000000000E+00 -0.34889346978E+03  0.34889346978E+03  0.00000000000E+00 0. -1.
        -13    1    1    2    0    0  0.43239750383E+02 -0.96606637087E+01 -0.21664539632E+03  0.22112947191E+03  0.10566000000E+00 0.  1.
         13    1    1    2    0    0 -0.50764118476E+02 -0.13950471753E+02 -0.84225092100E+02  0.99325166448E+02  0.10566000000E+00 0. -1.
         -4    1    1    2    0  502  0.75243680921E+01  0.23611135461E+02 -0.34215164346E+02  0.42246648437E+02  0.00000000000E+00 0. -1.
</event>
<event>
 5    1  0.4419198E-005  0.3985065E+02  0.7818608E-02  0.1339698E+00
         21   -1    0    0  501  502  0.00000000000E+00  0.00000000000E+00  0.26975394772E+03  0.26975394772E+03  0.00000000000E+00 0.  1.
          4   -1    0    0  502    0 -0.00000000000E+00 -0.00000000000E+00 -0.17846949131E+03  0.17846949131E+03  0.00000000000E+00 0.  1.
        -13    1    1    2    0    0 -0.25130631879E+02 -0.30396889597E+02 -0.16664588753E+03  0.17124947460E+03  0.10566000000E+00 0.  1.
         13    1    1    2    0    0  0.41070006964E+02  0.37231932211E+02  0.75207303809E+02  0.93429716678E+02  0.10566000000E+00 0. -1.
          4    1    1    2  501    0 -0.15939375086E+02 -0.68350426136E+01  0.18272304014E+03  0.18354424775E+03  0.00000000000E+00 0.  1.
</event>
<event>
 5    1  0.4419198E-005  0.1048383E+03  0.7818608E-02  0.1156790E+00
         21   -1    0    0  501  502  0.00000000000E+00  0.00000000000E+00  0.31671911077E+03  0.31671911077E+03  0.00000000000E+00 0.  1.
         -4   -1    0    0    0  501 -0.00000000000E+00 -0.00000000000E+00 -0.24189524995E+03  0.24189524995E+03  0.00000000000E+00 0. -1.
        -13    1    1    2    0    0 -0.84750173955E+02 -0.58139343557E+02  0.23177497311E+03  0.25353978894E+03  0.10566000000E+00 0.  1.
         13    1    1    2    0    0  0.80000757260E+02  0.67952825692E+02 -0.21858642132E+03  0.24248245798E+03  0.10566000000E+00 0. -1.
         -4    1    1    2    0  502  0.47494166950E+01 -0.98134821344E+01  0.61635309026E+02  0.62592113794E+02  0.00000000000E+00 0. -1.
</event>
<event>
 5    1  0.4419198E-005  0.2218322E+03  0.7818608E-02  0.1046119E+00
          4   -1    0    0  502    0 -0.00000000000E+00  0.00000000000E+00  0.84922195922E+03  0.84922195922E+03  0.00000000000E+00 0.  1.
         21   -1    0    0  501  502  0.00000000000E+00 -0.00000000000E+00 -0.36948478451E+03  0.36948478451E+03  0.00000000000E+00 0.  1.
        -13    1    1    2    0    0 -0.13880697851E+03  0.16992336396E+03  0.39673406080E+03  0.45336437119E+03  0.10566000000E+00 0.  1.
         13    1    1    2    0    0  0.12722694554E+03 -0.18530223124E+03  0.39407653819E+03  0.45367382742E+03  0.10566000000E+00 0. -1.
          4    1    1    2  501    0  0.11580032962E+02  0.15378867271E+02 -0.31107342428E+03  0.31166854512E+03  0.00000000000E+00 0.  1.
</event>
<event>
 5    1  0.4419198E-005  0.2297963E+03  0.7818608E-02  0.1041429E+00
          4   -1    0    0  502    0 -0.00000000000E+00  0.00000000000E+00  0.61167969901E+03  0.61167969901E+03  0.00000000000E+00 0.  1.
         21   -1    0    0  501  502  0.00000000000E+00 -0.00000000000E+00 -0.68217281676E+03  0.68217281676E+03  0.00000000000E+00 0.  1.
        -13    1    1    2    0    0  0.23662863966E+03  0.34133729688E+02  0.39591816853E+03  0.46250343993E+03  0.10566000000E+00 0.  1.
         13    1    1    2    0    0 -0.17878594607E+03 -0.14955822471E+03  0.97635649987E+02  0.25271487571E+03  0.10566000000E+00 0. -1.
          4    1    1    2  501    0 -0.57842693584E+02  0.11542449502E+03 -0.56404693627E+03  0.57863420014E+03  0.00000000000E+00 0.  1.
</event>
<event>
 5    1  0.4419198E-005  0.4062399E+03  0.7818608E-02  0.9715119E-01
          4   -1    0    0  502    0 -0.00000000000E+00  0.00000000000E+00  0.24207489521E+04  0.24207489521E+04  0.00000000000E+00 0.  1.
         21   -1    0    0  501  502  0.00000000000E+00 -0.00000000000E+00 -0.32171165100E+03  0.32171165100E+03  0.00000000000E+00 0. -1.
        -13    1    1    2    0    0  0.19560971495E+03 -0.49075646800E+03  0.72836543999E+03  0.89978958474E+03  0.10566000000E+00 0.  1.
         13    1    1    2    0    0 -0.38097066185E+03  0.12431995903E+03  0.13747828059E+04  0.14319992569E+04  0.10566000000E+00 0. -1.
          4    1    1    2  501    0  0.18536094690E+03  0.36643650897E+03 -0.41109447918E+01  0.41067176140E+03  0.00000000000E+00 0.  1.
</event>
<event>
 5    1  0.4419198E-005  0.1017431E+03  0.7818608E-02  0.1171125E+00
          4   -1    0    0  502    0 -0.00000000000E+00  0.00000000000E+00  0.48926051213E+02  0.48926051213E+02  0.00000000000E+00 0.  1.
         21   -1    0    0  501  502  0.00000000000E+00 -0.00000000000E+00 -0.64591672473E+03  0.64591672473E+03  0.00000000000E+00 0.  1.
        -13    1    1    2    0    0  0.15574612042E+03  0.10473573610E+02 -0.15246478052E+03  0.21820190245E+03  0.10566000000E+00 0.  1.
         13    1    1    2    0    0 -0.75011899427E+02  0.30763645553E+02 -0.19666047587E+03  0.21271704416E+03  0.10566000000E+00 0. -1.
          4    1    1    2  501    0 -0.80734220988E+02 -0.41237219164E+02 -0.24786541714E+03  0.26392382934E+03  0.00000000000E+00 0.  1.
</event>
<event>
 5    1  0.4419198E-005  0.3508983E+03  0.7818608E-02  0.1006591E+00
          4   -1    0    0  502    0 -0.00000000000E+00  0.00000000000E+00  0.13373787826E+04  0.13373787826E+04  0.00000000000E+00 0.  1.
         21   -1    0    0  501  502  0.00000000000E+00 -0.00000000000E+00 -0.56274797268E+03  0.56274797268E+03  0.00000000000E+00 0.  1.
        -13    1    1    2    0    0 -0.22199354474E+03  0.39679436599E+02 -0.22700036168E+03  0.31997619749E+03  0.10566000000E+00 0.  1.
         13    1    1    2    0    0 -0.39012668839E+03  0.27018943101E+03  0.66222765935E+03  0.81470647818E+03  0.10566000000E+00 0. -1.
          4    1    1    2  501    0  0.61212023313E+03 -0.30986886761E+03  0.33940351226E+03  0.76544407964E+03  0.00000000000E+00 0.  1.
</event>
<event>
 5    1  0.4419198E-005  0.5471462E+03  0.7818608E-02  0.9426445E-01
         21   -1    0    0  501  502  0.00000000000E+00  0.00000000000E+00  0.27924748006E+03  0.27924748006E+03  0.00000000000E+00 0. -1.
          4   -1    0    0  502    0 -0.00000000000E+00 -0.00000000000E+00 -0.27874746477E+04  0.27874746477E+04  0.00000000000E+00 0.  1.
        -13    1    1    2    0    0  0.79885454822E+02 -0.30609245413E+03 -0.89301860825E+03  0.94739459688E+03  0.10566000000E+00 0.  1.
         13    1    1    2    0    0 -0.48507385498E+03 -0.34644577584E+03 -0.81962616845E+03  0.10134635601E+04  0.10566000000E+00 0. -1.
          4    1    1    2  501    0  0.40518840016E+03  0.65253822996E+03 -0.79558239096E+03  0.11058639708E+04  0.00000000000E+00 0.  1.
</event>
<event>
 5    1  0.4419198E-005  0.7324946E+03  0.7818608E-02  0.9077127E-01
         21   -1    0    0  501  502  0.00000000000E+00  0.00000000000E+00  0.72818783056E+03  0.72818783056E+03  0.00000000000E+00 0.  1.
          4   -1    0    0  502    0 -0.00000000000E+00 -0.00000000000E+00 -0.15137267571E+04  0.15137267571E+04  0.00000000000E+00 0.  1.
        -13    1    1    2    0    0 -0.30910229305E+03 -0.78781423030E+03 -0.26928164655E+03  0.88809239686E+03  0.10566000000E+00 0.  1.
         13    1    1    2    0    0  0.35455293292E+03  0.58899780589E+03 -0.76739674348E+03  0.10303028538E+04  0.10566000000E+00 0. -1.
          4    1    1    2  501    0 -0.45450639870E+02  0.19881642441E+03  0.25113946348E+03  0.32351933697E+03  0.00000000000E+00 0.  1.
</event>
<event>
 5    1  0.8731312E-005  0.4505107E+03  0.7818608E-02  0.1000478E+00
         21   -1    0    0  501  502  0.00000000000E+00  0.00000000000E+00  0.12682767130E+03  0.12682767130E+03  0.00000000000E+00 0. -1.
         -4   -1    0    0    0  501 -0.00000000000E+00 -0.00000000000E+00 -0.24916863483E+04  0.24916863483E+04  0.00000000000E+00 0. -1.
        -13    1    1    2    0    0 -0.72192385751E+02 -0.83799049666E+02 -0.32432154078E+03  0.34266382106E+03  0.10566000000E+00 0.  1.
         13    1    1    2    0    0 -0.39084386666E+03 -0.16053573891E+03 -0.53406831487E+03  0.68099899242E+03  0.10566000000E+00 0. -1.
         -4    1    1    2    0  502  0.46303625241E+03  0.24433478857E+03 -0.15064688214E+04  0.15948512061E+04  0.00000000000E+00 0. -1.
</event>
<event>
 5    1  0.4419198E-005  0.4896830E+03  0.7818608E-02  0.9562424E-01
         -4   -1    0    0    0  501 -0.00000000000E+00  0.00000000000E+00  0.29036094493E+04  0.29036094493E+04  0.00000000000E+00 0. -1.
         21   -1    0    0  501  502  0.00000000000E+00 -0.00000000000E+00 -0.18417215745E+03  0.18417215745E+03  0.00000000000E+00 0. -1.
        -13    1    1    2    0    0 -0.38842160794E+03 -0.53873873357E+02  0.80143444388E+03  0.89222806431E+03  0.10566000000E+00 0.  1.
         13    1    1    2    0    0 -0.96129849210E+02 -0.39436734668E+03  0.80453586594E+03  0.90113513015E+03  0.10566000000E+00 0. -1.
         -4    1    1    2    0  502  0.48455145715E+03  0.44824122004E+03  0.11134669820E+04  0.12944184122E+04  0.00000000000E+00 0. -1.
</event>
<event>
 5    1  0.4419198E-005  0.3983935E+03  0.7818608E-02  0.9733697E-01
          4   -1    0    0  502    0 -0.00000000000E+00  0.00000000000E+00  0.92481800662E+03  0.92481800662E+03  0.00000000000E+00 0.  1.
         21   -1    0    0  501  502  0.00000000000E+00 -0.00000000000E+00 -0.28292185278E+03  0.28292185278E+03  0.00000000000E+00 0. -1.
        -13    1    1    2    0    0  0.34433349586E+03 -0.25411138376E+03  0.57329441419E+03  0.71540523357E+03  0.10566000000E+00 0.  1.
         13    1    1    2    0    0 -0.21789797564E+03  0.27464116895E+03  0.91236369200E+02  0.36225872757E+03  0.10566000000E+00 0. -1.
          4    1    1    2  501    0 -0.12643552021E+03 -0.20529785195E+02 -0.22634629539E+02  0.13007589825E+03  0.00000000000E+00 0.  1.
</event>
<event>
 5    1  0.4419198E-005  0.2937658E+02  0.7818608E-02  0.1409986E+00
         -4   -1    0    0    0  501 -0.00000000000E+00  0.00000000000E+00  0.11662069847E+02  0.11662069847E+02  0.00000000000E+00 0. -1.
         21   -1    0    0  501  502  0.00000000000E+00 -0.00000000000E+00 -0.20218565201E+03  0.20218565201E+03  0.00000000000E+00 0. -1.
        -13    1    1    2    0    0 -0.11537137209E+01  0.28771212618E+02 -0.48679223858E+02  0.56557861791E+02  0.10566000000E+00 0.  1.
         13    1    1    2    0    0 -0.25138949243E+02 -0.27813376565E+02 -0.10862993891E+03  0.11491747246E+03  0.10566000000E+00 0. -1.
         -4    1    1    2    0  502  0.26292662964E+02 -0.95783605266E+00 -0.33214419395E+02  0.42372387606E+02  0.00000000000E+00 0. -1.
</event>
<event>
 5    1  0.4419198E-005  0.1939021E+03  0.7818608E-02  0.1064399E+00
         -4   -1    0    0    0  501 -0.00000000000E+00  0.00000000000E+00  0.26974186491E+04  0.26974186491E+04  0.00000000000E+00 0. -1.
         21   -1    0    0  501  502  0.00000000000E+00 -0.00000000000E+00 -0.13574359139E+03  0.13574359139E+03  0.00000000000E+00 0. -1.
        -13    1    1    2    0    0 -0.17136750425E+03  0.66471974756E+02  0.43365128771E+03  0.47099765969E+03  0.10566000000E+00 0.  1.
         13    1    1    2    0    0  0.26796694007E+03 -0.10595510742E+02  0.39979175096E+02  0.27113998492E+03  0.10566000000E+00 0. -1.
         -4    1    1    2    0  502 -0.96599435819E+02 -0.55876464014E+02  0.20880445950E+04  0.20910245959E+04  0.00000000000E+00 0. -1.
</event>
<event>
 5    1  0.4419198E-005  0.4897822E+03  0.7818608E-02  0.9587463E-01
         21   -1    0    0  501  502  0.00000000000E+00  0.00000000000E+00  0.36804170403E+03  0.36804170403E+03  0.00000000000E+00 0.  1.
          4   -1    0    0  502    0 -0.00000000000E+00 -0.00000000000E+00 -0.19100521356E+04  0.19100521356E+04  0.00000000000E+00 0.  1.
        -13    1    1    2    0    0 -0.56228811109E+03  0.16788140994E+03 -0.21830322207E+03  0.62610573836E+03  0.10566000000E+00 0.  1.
         13    1    1    2    0    0  0.13814791515E+03 -0.33063333054E+03 -0.10769596059E+04  0.11350089205E+04  0.10566000000E+00 0. -1.
          4    1    1    2  501    0  0.42414019594E+03  0.16275192060E+03 -0.24674760362E+03  0.51697918079E+03  0.00000000000E+00 0.  1.
</event>
<event>
 5    1  0.4419198E-005  0.3300608E+03  0.7818608E-02  0.1004904E+00
          4   -1    0    0  502    0 -0.00000000000E+00  0.00000000000E+00  0.88139295927E+03  0.88139295927E+03  0.00000000000E+00 0.  1.
         21   -1    0    0  501  502  0.00000000000E+00 -0.00000000000E+00 -0.45934562663E+03  0.45934562663E+03  0.00000000000E+00 0.  1.
        -13    1    1    2    0    0 -0.24427577395E+03 -0.19831099208E+03 -0.20183387775E+03  0.37381122066E+03  0.10566000000E+00 0.  1.
         13    1    1    2    0    0  0.47027351298E+02 -0.23890282976E+03  0.12069856126E+03  0.27176145366E+03  0.10566000000E+00 0. -1.
          4    1    1    2  501    0  0.19724842265E+03  0.43721382184E+03  0.50318264914E+03  0.69516591159E+03  0.00000000000E+00 0.  1.
</event>
<event>
 5    1  0.4419198E-005  0.3144746E+03  0.7818608E-02  0.1001503E+00
         21   -1    0    0  501  502  0.00000000000E+00  0.00000000000E+00  0.17824159861E+03  0.17824159861E+03  0.00000000000E+00 0.  1.
         -4   -1    0    0    0  501 -0.00000000000E+00 -0.00000000000E+00 -0.20534634473E+04  0.20534634473E+04  0.00000000000E+00 0. -1.
        -13    1    1    2    0    0  0.22935346937E+03  0.62709783704E+02  0.17664848828E+02  0.23842732422E+03  0.10566000000E+00 0.  1.
         13    1    1    2    0    0 -0.32341661411E+03  0.28733432104E+02 -0.18082257355E+04  0.18371456769E+04  0.10566000000E+00 0. -1.
         -4    1    1    2    0  502  0.94063144744E+02 -0.91443215808E+02 -0.84660961942E+02  0.15613204474E+03  0.00000000000E+00 0. -1.
</event>
<event>
 5    1  0.4419198E-005  0.4154777E+03  0.7818608E-02  0.1011492E+00
         -4   -1    0    0    0  501 -0.00000000000E+00  0.00000000000E+00  0.15425454438E+04  0.15425454438E+04  0.00000000000E+00 0. -1.
         21   -1    0    0  501  502  0.00000000000E+00 -0.00000000000E+00 -0.18963898709E+03  0.18963898709E+03  0.00000000000E+00 0. -1.
        -13    1    1    2    0    0 -0.73594133207E+02 -0.65780331754E+02  0.14649124899E+03  0.17664327240E+03  0.10566000000E+00 0.  1.
         13    1    1    2    0    0  0.41996967292E+02  0.46542520715E+03  0.10018327682E+04  0.11054651851E+04  0.10566000000E+00 0. -1.
         -4    1    1    2    0  502  0.31597165916E+02 -0.39964487540E+03  0.20458243952E+03  0.45007597346E+03  0.00000000000E+00 0. -1.
</event>
<event>
 5    1  0.4419198E-005  0.1367585E+03  0.7818608E-02  0.1121005E+00
         21   -1    0    0  501  502  0.00000000000E+00  0.00000000000E+00  0.64029108537E+03  0.64029108537E+03  0.00000000000E+00 0. -1.
         -4   -1    0    0    0  501 -0.00000000000E+00 -0.00000000000E+00 -0.69703831747E+03  0.69703831747E+03  0.00000000000E+00 0. -1.
        -13    1    1    2    0    0  0.10503244811E+03  0.50876906143E+02 -0.27270194508E+03  0.29662541487E+03  0.10566000000E+00 0.  1.
         13    1    1    2    0    0 -0.20478165093E+03  0.41497079598E+02 -0.37772117239E+03  0.43166054651E+03  0.10566000000E+00 0. -1.
         -4    1    1    2    0  502  0.99749202827E+02 -0.92373985741E+02  0.59367588537E+03  0.60904344146E+03  0.00000000000E+00 0. -1.
</event>
<event>
 5    1  0.4419198E-005  0.7144465E+03  0.7818608E-02  0.9102281E-01
         21   -1    0    0  501  502  0.00000000000E+00  0.00000000000E+00  0.49729628297E+03  0.49729628297E+03  0.00000000000E+00 0.  1.
          4   -1    0    0  502    0 -0.00000000000E+00 -0.00000000000E+00 -0.24533118349E+04  0.24533118349E+04  0.00000000000E+00 0.  1.
        -13    1    1    2    0    0 -0.85811218989E+03 -0.34655027407E+01 -0.58445112215E+03  0.10382445114E+04  0.10566000000E+00 0.  1.
         13    1    1    2    0    0  0.66995840653E+03 -0.59856796289E+01 -0.15273937937E+04  0.16678764664E+04  0.10566000000E+00 0. -1.
          4    1    1    2  501    0  0.18815378335E+03  0.94511823696E+01  0.15582936388E+03  0.24448714012E+03  0.00000000000E+00 0.  1.
</event>
<event>
 5    1  0.4419198E-005  0.2491996E+03  0.7818608E-02  0.1030808E+00
         -4   -1    0    0    0  501 -0.00000000000E+00  0.00000000000E+00  0.92572572031E+03  0.92572572031E+03  0.00000000000E+00 0. -1.
         21   -1    0    0  501  502  0.00000000000E+00 -0.00000000000E+00 -0.10750449755E+03  0.10750449755E+03  0.00000000000E+00 0.  1.
        -13    1    1    2    0    0 -0.22086904711E+03 -0.88357571701E+02  0.10765110792E+03  0.26111102744E+03  0.10566000000E+00 0.  1.
         13    1    1    2    0    0  0.23574245250E+03  0.90171968656E+02  0.71352143497E+03  0.75684763141E+03  0.10566000000E+00 0. -1.
         -4    1    1    2    0  502 -0.14873405394E+02 -0.18143969553E+01 -0.29513201263E+01  0.15271559017E+02  0.00000000000E+00 0. -1.
</event>
<event>
 5    1  0.4419198E-005  0.4840824E+03  0.7818608E-02  0.9541473E-01
         21   -1    0    0  501  502  0.00000000000E+00  0.00000000000E+00  0.10849104525E+04  0.10849104525E+04  0.00000000000E+00 0. -1.
         -4   -1    0    0    0  501 -0.00000000000E+00 -0.00000000000E+00 -0.55762041974E+03  0.55762041974E+03  0.00000000000E+00 0. -1.
        -13    1    1    2    0    0  0.27211476967E+03  0.34277000644E+03 -0.36948514201E+02  0.43920715961E+03  0.10566000000E+00 0.  1.
         13    1    1    2    0    0 -0.49873794167E+03  0.14967587356E+03  0.28127838572E+03  0.59182762949E+03  0.10566000000E+00 0. -1.
         -4    1    1    2    0  502  0.22662317200E+03 -0.49244588000E+03  0.28296016120E+03  0.61149608310E+03  0.00000000000E+00 0. -1.
</event>
<event>
 5    1  0.4419198E-005  0.2908658E+03  0.7818608E-02  0.1011149E+00
         21   -1    0    0  501  502  0.00000000000E+00  0.00000000000E+00  0.39823330316E+02  0.39823330316E+02  0.00000000000E+00 0. -1.
         -4   -1    0    0    0  501 -0.00000000000E+00 -0.00000000000E+00 -0.33957292945E+04  0.33957292945E+04  0.00000000000E+00 0. -1.
        -13    1    1    2    0    0 -0.24170474655E+03 -0.62981952815E+02 -0.11364258023E+04  0.11635512564E+04  0.10566000000E+00 0.  1.
         13    1    1    2    0    0  0.33635230453E+03  0.12581227367E+03 -0.14306355495E+04  0.14750185380E+04  0.10566000000E+00 0. -1.
         -4    1    1    2    0  502 -0.94647557981E+02 -0.62830320856E+02 -0.78884461241E+03  0.79698283042E+03  0.00000000000E+00 0. -1.
</event>
<event>
 5    1  0.4419198E-005  0.3416042E+03  0.7818608E-02  0.1017715E+00
          4   -1    0    0  502    0 -0.00000000000E+00  0.00000000000E+00  0.52116903740E+03  0.52116903740E+03  0.00000000000E+00 0.  1.
         21   -1    0    0  501  502  0.00000000000E+00 -0.00000000000E+00 -0.63053164875E+03  0.63053164875E+03  0.00000000000E+00 0.  1.
        -13    1    1    2    0    0 -0.33951568317E+01 -0.33166313624E+03 -0.39848007271E+03  0.51845765743E+03  0.10566000000E+00 0.  1.
         13    1    1    2    0    0 -0.13130675790E+03 -0.63053089195E+02  0.61567443594E+02  0.15813828759E+03  0.10566000000E+00 0. -1.
          4    1    1    2  501    0  0.13470191474E+03  0.39471622543E+03  0.22755001777E+03  0.47510474113E+03  0.00000000000E+00 0.  1.
</event>
<event>
 5    1  0.4419198E-005  0.6463076E+03  0.7818608E-02  0.9204732E-01
         21   -1    0    0  501  502  0.00000000000E+00  0.00000000000E+00  0.36808167019E+03  0.36808167019E+03  0.00000000000E+00 0.  1.
          4   -1    0    0  502    0 -0.00000000000E+00 -0.00000000000E+00 -0.20979324924E+04  0.20979324924E+04  0.00000000000E+00 0.  1.
        -13    1    1    2    0    0  0.23097635835E+03  0.69793958126E+03 -0.10803468430E+04  0.13067589868E+04  0.10566000000E+00 0.  1.
         13    1    1    2    0    0  0.12493831929E+03 -0.55503474847E+03 -0.31477822539E+03  0.65019881419E+03  0.10566000000E+00 0. -1.
          4    1    1    2  501    0 -0.35591467764E+03 -0.14290483279E+03 -0.33472575376E+03  0.50905636155E+03  0.00000000000E+00 0.  1.
</event>
<event>
 5    1  0.4419198E-005  0.4221008E+03  0.7818608E-02  0.9667303E-01
         -4   -1    0    0    0  501 -0.00000000000E+00  0.00000000000E+00  0.92697927455E+03  0.92697927455E+03  0.00000000000E+00 0. -1.
         21   -1    0    0  501  502  0.00000000000E+00 -0.00000000000E+00 -0.78370716901E+03  0.78370716901E+03  0.00000000000E+00 0. -1.
        -13    1    1    2    0    0  0.39401942907E+03  0.23645140921E+03  0.34756918044E+03  0.57616397472E+03  0.10566000000E+00 0.  1.
         13    1    1    2    0    0 -0.23271428017E+03 -0.28256250761E+02 -0.60849568514E+03  0.65208999525E+03  0.10566000000E+00 0. -1.
         -4    1    1    2    0  502 -0.16130514890E+03 -0.20819515845E+03  0.40419861024E+03  0.48243247360E+03  0.00000000000E+00 0. -1.
</event>
<event>
 5    1  0.4419198E-005  0.3709311E+03  0.7818608E-02  0.9819817E-01
         -4   -1    0    0    0  501 -0.00000000000E+00  0.00000000000E+00  0.33524072573E+03  0.33524072573E+03  0.00000000000E+00 0. -1.
         21   -1    0    0  501  502  0.00000000000E+00 -0.00000000000E+00 -0.15589466353E+04  0.15589466353E+04  0.00000000000E+00 0.  1.
        -13    1    1    2    0    0  0.44901971316E+01 -0.36732744356E+03 -0.39802744615E+03  0.54164146049E+03  0.10566000000E+00 0.  1.
         13    1    1    2    0    0 -0.11350811551E+03 -0.46563776392E+02  0.20366496617E+03  0.23776397365E+03  0.10566000000E+00 0. -1.
         -4    1    1    2    0  502  0.10901791838E+03  0.41389121996E+03 -0.10293434296E+04  0.11147819269E+04  0.00000000000E+00 0. -1.
</event>
<event>
 5    1  0.4419198E-005  0.7799034E+02  0.7818608E-02  0.1215604E+00
          4   -1    0    0  502    0 -0.00000000000E+00  0.00000000000E+00  0.88946557408E+02  0.88946557408E+02  0.00000000000E+00 0.  1.
         21   -1    0    0  501  502  0.00000000000E+00 -0.00000000000E+00 -0.33664913441E+03  0.33664913441E+03  0.00000000000E+00 0. -1.
        -13    1    1    2    0    0 -0.30012523997E+02 -0.29090915266E+02  0.56957210758E+02  0.70648198626E+02  0.10566000000E+00 0.  1.
         13    1    1    2    0    0 -0.61645447423E+02  0.19429769391E+02 -0.22174898724E+03  0.23097684220E+03  0.10566000000E+00 0. -1.
          4    1    1    2  501    0  0.91657971419E+02  0.96611458747E+01 -0.82910800515E+02  0.12397065099E+03  0.00000000000E+00 0.  1.
</event>
<event>
 5    1  0.4419198E-005  0.3381540E+03  0.7818608E-02  0.1008446E+00
         21   -1    0    0  501  502  0.00000000000E+00  0.00000000000E+00  0.47245403606E+03  0.47245403606E+03  0.00000000000E+00 0. -1.
         -4   -1    0    0    0  501 -0.00000000000E+00 -0.00000000000E+00 -0.78800978143E+03  0.78800978143E+03  0.00000000000E+00 0. -1.
        -13    1    1    2    0    0 -0.20372017666E+02  0.20088397582E+03 -0.50374064150E+02  0.20810321561E+03  0.10566000000E+00 0.  1.
         13    1    1    2    0    0  0.22679275524E+03  0.22666675445E+03  0.20788378947E+03  0.38213669346E+03  0.10566000000E+00 0. -1.
         -4    1    1    2    0  502 -0.20642073758E+03 -0.42755073027E+03 -0.47306547068E+03  0.67022390841E+03  0.00000000000E+00 0. -1.
</event>
<event>
 5    1  0.4419198E-005  0.4673526E+03  0.7818608E-02  0.9888494E-01
         -4   -1    0    0    0  501 -0.00000000000E+00  0.00000000000E+00  0.13023388028E+04  0.13023388028E+04  0.00000000000E+00 0. -1.
         21   -1    0    0  501  502  0.00000000000E+00 -0.00000000000E+00 -0.27150155678E+03  0.27150155678E+03  0.00000000000E+00 0. -1.
        -13    1    1    2    0    0 -0.20139734260E+02  0.14425261666E+03  0.40302311717E+03  0.42853479491E+03  0.10566000000E+00 0.  1.
         13    1    1    2    0    0  0.25120092252E+03 -0.46002484018E+03  0.18850687920E+03  0.55700952570E+03  0.10566000000E+00 0. -1.
         -4    1    1    2    0  502 -0.23106118826E+03  0.31577222351E+03  0.43930724968E+03  0.58829603899E+03  0.00000000000E+00 0. -1.
</event>
<event>
 5    1  0.4419198E-005  0.4767376E+03  0.7818608E-02  0.9916800E-01
         21   -1    0    0  501  502  0.00000000000E+00  0.00000000000E+00  0.97373897486E+03  0.97373897486E+03  0.00000000000E+00 0. -1.
         -4   -1    0    0    0  501 -0.00000000000E+00 -0.00000000000E+00 -0.36774516470E+03  0.36774516470E+03  0.00000000000E+00 0. -1.
        -13    1    1    2    0    0 -0.53363689793E+02 -0.11284486746E+03 -0.27402015018E+02  0.12779878361E+03  0.10566000000E+00 0.  1.
         13    1    1    2    0    0  0.82585100761E+02 -0.39703703384E+03  0.71600528554E+01  0.40559830205E+03  0.10566000000E+00 0. -1.
         -4    1    1    2    0  502 -0.29221410968E+02  0.50988190130E+03  0.62623577233E+03  0.80808705390E+03  0.00000000000E+00 0. -1.
</event>
<event>
 5    1  0.4419198E-005  0.1324017E+03  0.7818608E-02  0.1119892E+00
         21   -1    0    0  501  502  0.00000000000E+00  0.00000000000E+00  0.23162959876E+03  0.23162959876E+03  0.00000000000E+00 0. -1.
          4   -1    0    0  502    0 -0.00000000000E+00 -0.00000000000E+00 -0.85897000270E+03  0.85897000270E+03  0.00000000000E+00 0.  1.
        -13    1    1    2    0    0 -0.74383846374E+02  0.11157647490E+03 -0.80906857253E+03  0.82010623250E+03  0.10566000000E+00 0.  1.
         13    1    1    2    0    0  0.64345010339E+02 -0.90166240545E+02  0.27060621149E+02  0.11402859146E+03  0.10566000000E+00 0. -1.
          4    1    1    2  501    0  0.10038836035E+02 -0.21410234359E+02  0.15466754745E+03  0.15646477750E+03  0.00000000000E+00 0.  1.
</event>
<event>
 5    1  0.4419198E-005  0.4107664E+03  0.7818608E-02  0.9707692E-01
          4   -1    0    0  502    0 -0.00000000000E+00  0.00000000000E+00  0.97076687983E+03  0.97076687983E+03  0.00000000000E+00 0.  1.
         21   -1    0    0  501  502  0.00000000000E+00 -0.00000000000E+00 -0.57992565058E+03  0.57992565058E+03  0.00000000000E+00 0.  1.
        -13    1    1    2    0    0 -0.10090106023E+03  0.26557005431E+02  0.44820140984E+03  0.46018562932E+03  0.10566000000E+00 0.  1.
         13    1    1    2    0    0 -0.39620940554E+03  0.35225928454E+02  0.28010972295E+03  0.48650203199E+03  0.10566000000E+00 0. -1.
          4    1    1    2  501    0  0.49711046577E+03 -0.61782933885E+02 -0.33746990353E+03  0.60400486909E+03  0.00000000000E+00 0.  1.
</event>
<event>
 5    1  0.4419198E-005  0.1227025E+03  0.7818608E-02  0.1131655E+00
         -4   -1    0    0    0  501 -0.00000000000E+00  0.00000000000E+00  0.11575034656E+04  0.11575034656E+04  0.00000000000E+00 0. -1.
         21   -1    0    0  501  502  0.00000000000E+00 -0.00000000000E+00 -0.52318158798E+02  0.52318158798E+02  0.00000000000E+00 0. -1.
        -13    1    1    2    0    0 -0.12021656407E+02  0.11679758961E+03  0.48225434337E+03  0.49634207965E+03  0.10566000000E+00 0.  1.
         13    1    1    2    0    0  0.85048963471E+01 -0.12701009109E+03  0.66139209628E+03  0.67353055810E+03  0.10566000000E+00 0. -1.
         -4    1    1    2    0  502  0.35167600597E+01  0.10212501479E+02 -0.38461132895E+02  0.39948986613E+02  0.00000000000E+00 0. -1.
</event>
<event>
 5    1  0.4419198E-005  0.3649696E+03  0.7818608E-02  0.9881075E-01
         -4   -1    0    0    0  501 -0.00000000000E+00  0.00000000000E+00  0.25137743780E+04  0.25137743780E+04  0.00000000000E+00 0. -1.
         21   -1    0    0  501  502  0.00000000000E+00 -0.00000000000E+00 -0.15258543564E+03  0.15258543564E+03  0.00000000000E+00 0.  1.
        -13    1    1    2    0    0 -0.45062693316E+02  0.31028407936E+03  0.59981869664E+03  0.67682297260E+03  0.10566000000E+00 0.  1.
         13    1    1    2    0    0 -0.19570721844E+03 -0.52260253025E+03  0.13947087856E+04  0.15022074849E+04  0.10566000000E+00 0. -1.
         -4    1    1    2    0  502  0.24076991176E+03  0.21231845089E+03  0.36666146008E+03  0.48732935609E+03  0.00000000000E+00 0. -1.
</event>
<event>
 5    1  0.4419198E-005  0.4322658E+03  0.7818608E-02  0.1015827E+00
          4   -1    0    0  502    0 -0.00000000000E+00  0.00000000000E+00  0.41390561514E+03  0.41390561514E+03  0.00000000000E+00 0.  1.
         21   -1    0    0  501  502  0.00000000000E+00 -0.00000000000E+00 -0.68062849605E+03  0.68062849605E+03  0.00000000000E+00 0.  1.
        -13    1    1    2    0    0 -0.22009449750E+02 -0.45147815537E+03 -0.40214851297E+03  0.60501270921E+03  0.10566000000E+00 0.  1.
         13    1    1    2    0    0 -0.93694223406E+01  0.75747370092E+02 -0.24221841178E+02  0.80075957097E+02  0.10566000000E+00 0. -1.
          4    1    1    2  501    0  0.31378872091E+02  0.37573078528E+03  0.15964747324E+03  0.40944544488E+03  0.00000000000E+00 0.  1.
</event>
<event>
 5    1  0.4419198E-005  0.4385803E+03  0.7818608E-02  0.9623819E-01
          4   -1    0    0  502    0 -0.00000000000E+00  0.00000000000E+00  0.18477802896E+04  0.18477802896E+04  0.00000000000E+00 0.  1.
         21   -1    0    0  501  502  0.00000000000E+00 -0.00000000000E+00 -0.34076923110E+03  0.34076923110E+03  0.00000000000E+00 0.  1.
        -13    1    1    2    0    0 -0.50250263891E+03  0.35757249482E+02  0.87891085235E+03  0.10130507295E+04  0.10566000000E+00 0.  1.
         13    1    1    2    0    0  0.25897769623E+03 -0.38881289167E+03  0.57875012352E+03  0.74377189280E+03  0.10566000000E+00 0. -1.
          4    1    1    2  501    0  0.24352494267E+03  0.35305564218E+03  0.49350082667E+02  0.43172689844E+03  0.00000000000E+00 0.  1.
</event>
<event>
 5    1  0.4419198E-005  0.4631682E+03  0.7818608E-02  0.9584047E-01
         21   -1    0    0  501  502  0.00000000000E+00  0.00000000000E+00  0.25580906884E+03  0.25580906884E+03  0.00000000000E+00 0. -1.
         -4   -1    0    0    0  501 -0.00000000000E+00 -0.00000000000E+00 -0.28790947613E+04  0.28790947613E+04  0.00000000000E+00 0. -1.
        -13    1    1    2    0    0  0.35409056223E+03 -0.24205313263E+03 -0.15366356718E+04  0.15953742646E+04  0.10566000000E+00 0.  1.
         13    1    1    2    0    0  0.28329640205E+03  0.32048069011E+03 -0.29239204682E+03  0.51812917729E+03  0.10566000000E+00 0. -1.
         -4    1    1    2    0  502 -0.63738696428E+03 -0.78427557478E+02 -0.79425797382E+03  0.10214003882E+04  0.00000000000E+00 0. -1.
</event>
<event>
 5    1  0.4419198E-005  0.3491624E+02  0.7818608E-02  0.1369289E+00
         -4   -1    0    0    0  501 -0.00000000000E+00  0.00000000000E+00  0.18903890175E+03  0.18903890175E+03  0.00000000000E+00 0. -1.
         21   -1    0    0  501  502  0.00000000000E+00 -0.00000000000E+00 -0.21563884050E+02  0.21563884050E+02  0.00000000000E+00 0.  1.
        -13    1    1    2    0    0  0.77362055873E+01 -0.29944995254E+02  0.81235415100E+02  0.86923848558E+02  0.10566000000E+00 0.  1.
         13    1    1    2    0    0  0.54827758805E+01  0.42886209998E+02  0.94116808809E+02  0.10357254802E+03  0.10566000000E+00 0. -1.
         -4    1    1    2    0  502 -0.13218981468E+02 -0.12941214743E+02 -0.78772062046E+01  0.20106389225E+02  0.00000000000E+00 0. -1.
</event>
<event>
 5    1  0.4419198E-005  0.1552927E+03  0.7818608E-02  0.1096006E+00
         -4   -1    0    0    0  501 -0.00000000000E+00  0.00000000000E+00  0.12753493614E+03  0.12753493614E+03  0.00000000000E+00 0. -1.
         21   -1    0    0  501  502  0.00000000000E+00 -0.00000000000E+00 -0.99415147578E+03  0.99415147578E+03  0.00000000000E+00 0. -1.
        -13    1    1    2    0    0 -0.13157366737E+03 -0.78599431710E+02  0.60100467316E+02  0.16462556893E+03  0.10566000000E+00 0.  1.
         13    1    1    2    0    0  0.17760695274E+03  0.56972986529E+02 -0.67746821735E+03  0.70267584813E+03  0.10566000000E+00 0. -1.
         -4    1    1    2    0  502 -0.46033285368E+02  0.21626445181E+02 -0.24924878961E+03  0.25438499487E+03  0.00000000000E+00 0. -1.
</event>
<event>
 5    1  0.4419198E-005  0.4725135E+03  0.7818608E-02  0.9729025E-01
         -4   -1    0    0    0  501 -0.00000000000E+00  0.00000000000E+00  0.64905777007E+03  0.64905777007E+03  0.00000000000E+00 0. -1.
         21   -1    0    0  501  502  0.00000000000E+00 -0.00000000000E+00 -0.64601235742E+03  0.64601235742E+03  0.00000000000E+00 0. -1.
        -13    1    1    2    0    0  0.18000022339E+03 -0.16276422156E+03  0.18169218124E+03  0.30315727293E+03  0.10566000000E+00 0.  1.
         13    1    1    2    0    0 -0.56234478475E+03  0.61258759653E+02 -0.18835029869E+03  0.59620477921E+03  0.10566000000E+00 0. -1.
         -4    1    1    2    0  502  0.38234456136E+03  0.10150546191E+03  0.97035300929E+01  0.39570807535E+03  0.00000000000E+00 0. -1.
</event>
<event>
 5    1  0.4419198E-005  0.4528889E+03  0.7818608E-02  0.9768561E-01
         -4   -1    0    0    0  501 -0.00000000000E+00  0.00000000000E+00  0.14116894061E+04  0.14116894061E+04  0.00000000000E+00 0. -1.
         21   -1    0    0  501  502  0.00000000000E+00 -0.00000000000E+00 -0.25709976600E+03  0.25709976600E+03  0.00000000000E+00 0. -1.
        -13    1    1    2    0    0 -0.22765722103E+03 -0.77470011990E+02  0.36873483039E+03  0.44022130725E+03  0.10566000000E+00 0.  1.
         13    1    1    2    0    0  0.11834961509E+03 -0.41869090645E+03  0.33171072987E+03  0.54712039443E+03  0.10566000000E+00 0. -1.
         -4    1    1    2    0  502  0.10930760595E+03  0.49616091844E+03  0.45414407987E+03  0.68144747045E+03  0.00000000000E+00 0. -1.
</event>
<event>
 5    1  0.4419198E-005  0.1689311E+03  0.7818608E-02  0.1083808E+00
         -4   -1    0    0    0  501 -0.00000000000E+00  0.00000000000E+00  0.12949596182E+03  0.12949596182E+03  0.00000000000E+00 0. -1.
         21   -1    0    0  501  502  0.00000000000E+00 -0.00000000000E+00 -0.86305347478E+03  0.86305347478E+03  0.00000000000E+00 0. -1.
        -13    1    1    2    0    0 -0.83716299031E+02 -0.14169056139E+03  0.45214478327E+02  0.17067218322E+03  0.10566000000E+00 0.  1.
         13    1    1    2    0    0  0.92807448967E+02  0.18958064552E+03 -0.57997487463E+03  0.61719114552E+03  0.10566000000E+00 0. -1.
         -4    1    1    2    0  502 -0.90911499365E+01 -0.47890084131E+02 -0.19879711666E+03  0.20468610788E+03  0.00000000000E+00 0. -1.
</event>
<event>
 5    1  0.4419198E-005  0.7810553E+02  0.7818608E-02  0.1206935E+00
         -4   -1    0    0    0  501 -0.00000000000E+00  0.00000000000E+00  0.13359615233E+03  0.13359615233E+03  0.00000000000E+00 0. -1.
         21   -1    0    0  501  502  0.00000000000E+00 -0.00000000000E+00 -0.14953512546E+03  0.14953512546E+03  0.00000000000E+00 0. -1.
        -13    1    1    2    0    0  0.63374923428E+02  0.47343622490E+02  0.44580534972E+02  0.90803275119E+02  0.10566000000E+00 0.  1.
         13    1    1    2    0    0 -0.93309405117E+02  0.15109705345E+02  0.80523659287E+01  0.94867275918E+02  0.10566000000E+00 0. -1.
         -4    1    1    2    0  502  0.29934481690E+02 -0.62453327834E+02 -0.68571874025E+02  0.97460726751E+02  0.00000000000E+00 0. -1.
</event>
<event>
 5    1  0.4419198E-005  0.4945233E+03  0.7818608E-02  0.9654252E-01
          4   -1    0    0  502    0 -0.00000000000E+00  0.00000000000E+00  0.17918786071E+04  0.17918786071E+04  0.00000000000E+00 0.  1.
         21   -1    0    0  501  502  0.00000000000E+00 -0.00000000000E+00 -0.26086657300E+03  0.26086657300E+03  0.00000000000E+00 0.  1.
        -13    1    1    2    0    0  0.38551738739E+03  0.45495146969E+03  0.71513979985E+03  0.93114415654E+03  0.10566000000E+00 0.  1.
         13    1    1    2    0    0 -0.27015469853E+03 -0.50285400358E+02  0.10233771733E+03  0.29323233481E+03  0.10566000000E+00 0. -1.
          4    1    1    2  501    0 -0.11536268886E+03 -0.40466606934E+03  0.71353451694E+03  0.82836868876E+03  0.00000000000E+00 0.  1.
</event>
<event>
 5    1  0.4419198E-005  0.7412625E+03  0.7818608E-02  0.9065178E-01
         21   -1    0    0  501  502  0.00000000000E+00  0.00000000000E+00  0.38901587716E+03  0.38901587716E+03  0.00000000000E+00 0.  1.
         -4   -1    0    0    0  501 -0.00000000000E+00 -0.00000000000E+00 -0.19872472920E+04  0.19872472920E+04  0.00000000000E+00 0. -1.
        -13    1    1    2    0    0  0.19403204797E+03 -0.70937488745E+03 -0.84906966502E+03  0.11232900221E+04  0.10566000000E+00 0.  1.
         13    1    1    2    0    0 -0.19549239343E+03  0.72116636256E+03 -0.86128410178E+03  0.11402230104E+04  0.10566000000E+00 0. -1.
         -4    1    1    2    0  502  0.14603454676E+01 -0.11791475105E+02  0.11212235196E+03  0.11275013660E+03  0.00000000000E+00 0. -1.
</event>
<event>
 5    1  0.4419198E-005  0.4846026E+03  0.7818608E-02  0.9650144E-01
         21   -1    0    0  501  502  0.00000000000E+00  0.00000000000E+00  0.42219575414E+03  0.42219575414E+03  0.00000000000E+00 0.  1.
          4   -1    0    0  502    0 -0.00000000000E+00 -0.00000000000E+00 -0.12142696476E+04  0.12142696476E+04  0.00000000000E+00 0.  1.
        -13    1    1    2    0    0 -0.60322186045E+03 -0.13899577380E+03 -0.22224987518E+03  0.65771685112E+03  0.10566000000E+00 0.  1.
         13    1    1    2    0    0  0.19252917749E+03  0.22518511034E+03 -0.45626404707E+03  0.54401535816E+03  0.10566000000E+00 0. -1.
          4    1    1    2  501    0  0.41069268297E+03 -0.86189336539E+02 -0.11355997123E+03  0.43473319248E+03  0.00000000000E+00 0.  1.
</event>
<event>
 5    1  0.4419198E-005  0.2198794E+02  0.7818608E-02  0.1498290E+00
         -4   -1    0    0    0  501 -0.00000000000E+00  0.00000000000E+00  0.14867951175E+03  0.14867951175E+03  0.00000000000E+00 0. -1.
         21   -1    0    0  501  502  0.00000000000E+00 -0.00000000000E+00 -0.14275913008E+02  0.14275913008E+02  0.00000000000E+00 0. -1.
        -13    1    1    2    0    0 -0.11855997438E+02  0.13272291589E+02  0.33216786528E+02  0.37684008154E+02  0.10566000000E+00 0.  1.
         13    1    1    2    0    0  0.31304110889E+02 -0.44483621666E+01  0.98854628482E+02  0.10378816898E+03  0.10566000000E+00 0. -1.
         -4    1    1    2    0  502 -0.19448113451E+02 -0.88239294227E+01  0.23321837302E+01  0.21483247618E+02  0.00000000000E+00 0. -1.
</event>
<event>
 5    1  0.4419198E-005  0.1190566E+04  0.7818608E-02  0.8613700E-01
         21   -1    0    0  501  502  0.00000000000E+00  0.00000000000E+00  0.41284652816E+03  0.41284652816E+03  0.00000000000E+00 0. -1.
          4   -1    0    0  502    0 -0.00000000000E+00 -0.00000000000E+00 -0.46401115262E+04  0.46401115262E+04  0.00000000000E+00 0.  1.
        -13    1    1    2    0    0 -0.30000314870E+03  0.11342877277E+04 -0.96515104787E+03  0.15192521499E+04  0.10566000000E+00 0.  1.
         13    1    1    2    0    0  0.32968927189E+03 -0.11509393307E+04 -0.32825085610E+04  0.34940261624E+04  0.10566000000E+00 0. -1.
          4    1    1    2  501    0 -0.29686123191E+02  0.16651602930E+02  0.20394610801E+02  0.39679742186E+02  0.00000000000E+00 0.  1.
</event>
<event>
 5    1  0.4419198E-005  0.3599229E+03  0.7818608E-02  0.9852515E-01
         -4   -1    0    0    0  501 -0.00000000000E+00  0.00000000000E+00  0.65648727168E+03  0.65648727168E+03  0.00000000000E+00 0. -1.
         21   -1    0    0  501  502  0.00000000000E+00 -0.00000000000E+00 -0.10611850525E+04  0.10611850525E+04  0.00000000000E+00 0. -1.
        -13    1    1    2    0    0 -0.31002587076E+03 -0.61475083384E+02  0.30425432505E+03  0.43870939344E+03  0.10566000000E+00 0.  1.
         13    1    1    2    0    0  0.60039947402E+03  0.16470156339E+02 -0.10833113976E+03  0.61031667310E+03  0.10566000000E+00 0. -1.
         -4    1    1    2    0  502 -0.29037360326E+03  0.45004927045E+02 -0.60062096609E+03  0.66864625763E+03  0.00000000000E+00 0. -1.
</event>
<event>
 5    1  0.4419198E-005  0.5687324E+03  0.7818608E-02  0.9338843E-01
          4   -1    0    0  502    0 -0.00000000000E+00  0.00000000000E+00  0.18716092531E+04  0.18716092531E+04  0.00000000000E+00 0.  1.
         21   -1    0    0  501  502  0.00000000000E+00 -0.00000000000E+00 -0.47045366384E+03  0.47045366384E+03  0.00000000000E+00 0. -1.
        -13    1    1    2    0    0  0.35297938916E+03 -0.44121748362E+03  0.14187218956E+04  0.15271015504E+04  0.10566000000E+00 0.  1.
         13    1    1    2    0    0 -0.35900539467E+03  0.45976968058E+03  0.18461121127E+03  0.61184503191E+03  0.10566000000E+00 0. -1.
          4    1    1    2  501    0  0.60260055114E+01 -0.18552196962E+02 -0.20217751762E+03  0.20311633461E+03  0.00000000000E+00 0.  1.
</event>
<event>
 5    1  0.4419198E-005  0.3481906E+03  0.7818608E-02  0.9933046E-01
         21   -1    0    0  501  502  0.00000000000E+00  0.00000000000E+00  0.20616107911E+03  0.20616107911E+03  0.00000000000E+00 0.  1.
          4   -1    0    0  502    0 -0.00000000000E+00 -0.00000000000E+00 -0.29026134462E+04  0.29026134462E+04  0.00000000000E+00 0.  1.
        -13    1    1    2    0    0 -0.10820415926E+03 -0.29144305407E+03 -0.81218679545E+02  0.32131554415E+03  0.10566000000E+00 0.  1.
         13    1    1    2    0    0 -0.22496808338E+03 -0.20377470028E+03 -0.14127973787E+04  0.14450367508E+04  0.10566000000E+00 0. -1.
          4    1    1    2  501    0  0.33317224264E+03  0.49521775435E+03 -0.12024363089E+04  0.13424222303E+04  0.00000000000E+00 0.  1.
</event>
<event>
 5    1  0.4419198E-005  0.3599279E+03  0.7818608E-02  0.9852499E-01
         21   -1    0    0  501  502  0.00000000000E+00  0.00000000000E+00  0.12144497293E+03  0.12144497293E+03  0.00000000000E+00 0.  1.
         -4   -1    0    0    0  501 -0.00000000000E+00 -0.00000000000E+00 -0.17931146106E+04  0.17931146106E+04  0.00000000000E+00 0. -1.
        -13    1    1    2    0    0 -0.14078895174E+03  0.34671156497E+03 -0.79537887355E+03  0.87900967109E+03  0.10566000000E+00 0.  1.
         13    1    1    2    0    0  0.22703737440E+02 -0.35560266395E+03 -0.83878389847E+03  0.91133262523E+03  0.10566000000E+00 0. -1.
         -4    1    1    2    0  502  0.11808521430E+03  0.88910989733E+01 -0.37506865691E+02  0.12421728725E+03  0.00000000000E+00 0. -1.
</event>
<event>
 5    1  0.4419198E-005  0.1883752E+03  0.7818608E-02  0.1068411E+00
          4   -1    0    0  502    0 -0.00000000000E+00  0.00000000000E+00  0.22420964440E+03  0.22420964440E+03  0.00000000000E+00 0.  1.
         21   -1    0    0  501  502  0.00000000000E+00 -0.00000000000E+00 -0.45726145752E+03  0.45726145752E+03  0.00000000000E+00 0.  1.
        -13    1    1    2    0    0 -0.24786513272E+03 -0.32566017997E+02 -0.26565062724E+03  0.36478478102E+03  0.10566000000E+00 0.  1.
         13    1    1    2    0    0  0.17270988982E+03  0.46314278350E+02  0.10836545207E+03  0.20908563027E+03  0.10566000000E+00 0. -1.
          4    1    1    2  501    0  0.75155242897E+02 -0.13748260353E+02 -0.75766637945E+02  0.10760069063E+03  0.00000000000E+00 0.  1.
</event>
<event>
 5    1  0.4419198E-005  0.6750371E+02  0.7818608E-02  0.1233434E+00
         21   -1    0    0  501  502  0.00000000000E+00  0.00000000000E+00  0.85756898605E+02  0.85756898605E+02  0.00000000000E+00 0.  1.
          4   -1    0    0  502    0 -0.00000000000E+00 -0.00000000000E+00 -0.10982932662E+03  0.10982932662E+03  0.00000000000E+00 0.  1.
        -13    1    1    2    0    0  0.52965765626E+02 -0.42424442802E+02 -0.16418319761E+02  0.69819610879E+02  0.10566000000E+00 0.  1.
         13    1    1    2    0    0 -0.71247011142E+02  0.95092653314E+01 -0.34297191053E+02  0.79642144635E+02  0.10566000000E+00 0. -1.
          4    1    1    2  501    0  0.18281245516E+02  0.32915177470E+02  0.26643082797E+02  0.46124469715E+02  0.00000000000E+00 0.  1.
</event>
<event>
 5    1  0.4419198E-005  0.6117026E+02  0.7818608E-02  0.1251996E+00
         21   -1    0    0  501  502  0.00000000000E+00  0.00000000000E+00  0.72227936619E+02  0.72227936619E+02  0.00000000000E+00 0. -1.
          4   -1    0    0  502    0 -0.00000000000E+00 -0.00000000000E+00 -0.97343724581E+02  0.97343724581E+02  0.00000000000E+00 0.  1.
        -13    1    1    2    0    0  0.61594731859E+02  0.96889385856E+01 -0.53912398956E+02  0.82427813564E+02  0.10566000000E+00 0.  1.
         13    1    1    2    0    0 -0.59379534513E+02  0.38354641196E+01  0.50383723514E+01  0.59716298144E+02  0.10566000000E+00 0. -1.
          4    1    1    2  501    0 -0.22151973457E+01 -0.13524402705E+02  0.23758238643E+02  0.27427549493E+02  0.00000000000E+00 0.  1.
</event>
<event>
 5    1  0.4419198E-005  0.1499324E+03  0.7818608E-02  0.1101178E+00
         21   -1    0    0  501  502  0.00000000000E+00  0.00000000000E+00  0.17212908695E+03  0.17212908695E+03  0.00000000000E+00 0. -1.
          4   -1    0    0  502    0 -0.00000000000E+00 -0.00000000000E+00 -0.51300259668E+03  0.51300259668E+03  0.00000000000E+00 0.  1.
        -13    1    1    2    0    0  0.13268880102E+03  0.67365291392E+02 -0.43958095937E+03  0.46408601725E+03  0.10566000000E+00 0.  1.
         13    1    1    2    0    0 -0.14108694904E+03 -0.74549345662E+02  0.44411992821E+02  0.16563685700E+03  0.10566000000E+00 0. -1.
          4    1    1    2  501    0  0.83981480156E+01  0.71840542704E+01  0.54295456823E+02  0.55408809385E+02  0.00000000000E+00 0.  1.
</event>
<event>
 5    1  0.4419198E-005  0.3145785E+02  0.7818608E-02  0.1402171E+00
         21   -1    0    0  501  502  0.00000000000E+00  0.00000000000E+00  0.10078980138E+03  0.10078980138E+03  0.00000000000E+00 0. -1.
         -4   -1    0    0    0  501 -0.00000000000E+00 -0.00000000000E+00 -0.29870552654E+02  0.29870552654E+02  0.00000000000E+00 0. -1.
        -13    1    1    2    0    0 -0.12806087006E+01  0.33786179685E+02  0.22899840216E+02  0.40835765480E+02  0.10566000000E+00 0.  1.
         13    1    1    2    0    0 -0.21073262407E+02 -0.62176285284E+01 -0.81053136974E+01  0.23418978782E+02  0.10566000000E+00 0. -1.
         -4    1    1    2    0  502  0.22353871108E+02 -0.27568551157E+02  0.56124722204E+02  0.66405609770E+02  0.00000000000E+00 0. -1.
</event>
<event>
 5    1  0.4419198E-005  0.6259435E+03  0.7818608E-02  0.9237942E-01
         21   -1    0    0  501  502  0.00000000000E+00  0.00000000000E+00  0.49882981205E+03  0.49882981205E+03  0.00000000000E+00 0.  1.
         -4   -1    0    0    0  501 -0.00000000000E+00 -0.00000000000E+00 -0.13837860347E+04  0.13837860347E+04  0.00000000000E+00 0. -1.
        -13    1    1    2    0    0  0.39600076973E+03  0.32292415988E+03 -0.10952643157E+03  0.52258269493E+03  0.10566000000E+00 0.  1.
         13    1    1    2    0    0 -0.55026235866E+03 -0.41827931481E+03 -0.90382804765E+03  0.11378274911E+04  0.10566000000E+00 0. -1.
         -4    1    1    2    0  502  0.15426158892E+03  0.95355154928E+02  0.12839825656E+03  0.22220566076E+03  0.00000000000E+00 0. -1.
</event>
<event>
 5    1  0.4419198E-005  0.4883719E+03  0.7818608E-02  0.9803297E-01
         -4   -1    0    0    0  501 -0.00000000000E+00  0.00000000000E+00  0.10509663845E+04  0.10509663845E+04  0.00000000000E+00 0. -1.
         21   -1    0    0  501  502  0.00000000000E+00 -0.00000000000E+00 -0.34336500957E+03  0.34336500957E+03  0.00000000000E+00 0. -1.
        -13    1    1    2    0    0 -0.13464734849E+03  0.10422846629E+03  0.24425499696E+03  0.29774820964E+03  0.10566000000E+00 0.  1.
         13    1    1    2    0    0  0.40785104202E+03  0.29694582446E+03  0.18687377308E+03  0.53799731725E+03  0.10566000000E+00 0. -1.
         -4    1    1    2    0  502 -0.27320369353E+03 -0.40117429076E+03  0.27647260484E+03  0.55858586712E+03  0.00000000000E+00 0. -1.
</event>
<event>
 5    1  0.4419198E-005  0.1994676E+03  0.7818608E-02  0.1060501E+00
         21   -1    0    0  501  502  0.00000000000E+00  0.00000000000E+00  0.55640285139E+03  0.55640285139E+03  0.00000000000E+00 0. -1.
         -4   -1    0    0    0  501 -0.00000000000E+00 -0.00000000000E+00 -0.30958045425E+03  0.30958045425E+03  0.00000000000E+00 0. -1.
        -13    1    1    2    0    0  0.17269696438E+03 -0.12807601187E+02 -0.41057820380E+02  0.17797199761E+03  0.10566000000E+00 0.  1.
         13    1    1    2    0    0 -0.22208050478E+03  0.27896016606E+02 -0.13539976024E+03  0.26159328084E+03  0.10566000000E+00 0. -1.
         -4    1    1    2    0  502  0.49383540397E+02 -0.15088415419E+02  0.42327997776E+03  0.42641802719E+03  0.00000000000E+00 0. -1.
</event>
<event>
 5    1  0.4419198E-005  0.3798561E+03  0.7818608E-02  0.9789095E-01
         21   -1    0    0  501  502  0.00000000000E+00  0.00000000000E+00  0.37911715180E+03  0.37911715180E+03  0.00000000000E+00 0.  1.
         -4   -1    0    0    0  501 -0.00000000000E+00 -0.00000000000E+00 -0.12307360181E+04  0.12307360181E+04  0.00000000000E+00 0. -1.
        -13    1    1    2    0    0  0.29900579062E+03  0.14838019403E+03 -0.70311469732E+02  0.34112293787E+03  0.10566000000E+00 0.  1.
         13    1    1    2    0    0 -0.40593721976E+03  0.55593417072E+02 -0.91492059554E+03  0.10024746190E+04  0.10566000000E+00 0. -1.
         -4    1    1    2    0  502  0.10693142915E+03 -0.20397361111E+03  0.13361319893E+03  0.26625561308E+03  0.00000000000E+00 0. -1.
</event>
<event>
 5    1  0.6093617E-005  0.4498256E+03  0.7818608E-02  0.9869881E-01
         -4   -1    0    0    0  501 -0.00000000000E+00  0.00000000000E+00  0.13181896468E+04  0.13181896468E+04  0.00000000000E+00 0. -1.
         21   -1    0    0  501  502  0.00000000000E+00 -0.00000000000E+00 -0.27359278523E+03  0.27359278523E+03  0.00000000000E+00 0. -1.
        -13    1    1    2    0    0 -0.11932413380E+03  0.12648936014E+03  0.25884467611E+03  0.31183069870E+03  0.10566000000E+00 0.  1.
         13    1    1    2    0    0 -0.15869692085E+03  0.37020280005E+03  0.15827750206E+03  0.43276622404E+03  0.10566000000E+00 0. -1.
         -4    1    1    2    0  502  0.27802105464E+03 -0.49669216019E+03  0.62747468338E+03  0.84718550926E+03  0.00000000000E+00 0. -1.
</event>
<event>
 5    1  0.4419198E-005  0.4422811E+03  0.7818608E-02  0.9738364E-01
         -4   -1    0    0    0  501 -0.00000000000E+00  0.00000000000E+00  0.80401486561E+03  0.80401486561E+03  0.00000000000E+00 0. -1.
         21   -1    0    0  501  502  0.00000000000E+00 -0.00000000000E+00 -0.54656235647E+03  0.54656235647E+03  0.00000000000E+00 0. -1.
        -13    1    1    2    0    0 -0.27615263352E+03  0.76353886830E+02  0.25143786713E+02  0.28761504517E+03  0.10566000000E+00 0.  1.
         13    1    1    2    0    0  0.53320830050E+03 -0.34861706564E+03  0.25872393605E+03  0.68759220213E+03  0.10566000000E+00 0. -1.
         -4    1    1    2    0  502 -0.25705566698E+03  0.27226317881E+03 -0.26415213614E+02  0.37536997479E+03  0.00000000000E+00 0. -1.
</event>
<event>
 5    1  0.4419198E-005  0.2989370E+03  0.7818608E-02  0.1007745E+00
         21   -1    0    0  501  502  0.00000000000E+00  0.00000000000E+00  0.77857575378E+02  0.77857575378E+02  0.00000000000E+00 0. -1.
          4   -1    0    0  502    0 -0.00000000000E+00 -0.00000000000E+00 -0.19668821397E+04  0.19668821397E+04  0.00000000000E+00 0.  1.
        -13    1    1    2    0    0  0.15312527659E+03  0.24339069128E+03 -0.30825563152E+03  0.42155417737E+03  0.10566000000E+00 0.  1.
         13    1    1    2    0    0 -0.11668172298E+03 -0.27951366044E+03 -0.14730672430E+04  0.15038848441E+04  0.10566000000E+00 0. -1.
          4    1    1    2  501    0 -0.36443553611E+02  0.36122969157E+02 -0.10770168982E+03  0.11930069358E+03  0.00000000000E+00 0.  1.
</event>
<event>
 5    1  0.4419198E-005  0.2562284E+03  0.7818608E-02  0.1027215E+00
         21   -1    0    0  501  502  0.00000000000E+00  0.00000000000E+00  0.75042896756E+03  0.75042896756E+03  0.00000000000E+00 0.  1.
         -4   -1    0    0    0  501 -0.00000000000E+00 -0.00000000000E+00 -0.49770083115E+03  0.49770083115E+03  0.00000000000E+00 0. -1.
        -13    1    1    2    0    0 -0.18474239572E+03 -0.97406016048E+02  0.12514718815E+03  0.24347384788E+03  0.10566000000E+00 0.  1.
         13    1    1    2    0    0  0.13658314715E+03  0.23763793738E+03 -0.38413232842E+03  0.47189448214E+03  0.10566000000E+00 0. -1.
         -4    1    1    2    0  502  0.48159248569E+02 -0.14023192134E+03  0.51171327668E+03  0.53276146869E+03  0.00000000000E+00 0. -1.
</event>
<event>
 5    1  0.4419198E-005  0.2215601E+03  0.7818608E-02  0.1046283E+00
         21   -1    0    0  501  502  0.00000000000E+00  0.00000000000E+00  0.10461249585E+04  0.10461249585E+04  0.00000000000E+00 0. -1.
          4   -1    0    0  502    0 -0.00000000000E+00 -0.00000000000E+00 -0.56393920593E+02  0.56393920593E+02  0.00000000000E+00 0.  1.
        -13    1    1    2    0    0  0.20094270992E+03 -0.10377330133E+03  0.30019045239E+03  0.37584729560E+03  0.10566000000E+00 0.  1.
         13    1    1    2    0    0 -0.18737245615E+03  0.10126801115E+03  0.61428641254E+03  0.65016263750E+03  0.10566000000E+00 0. -1.
          4    1    1    2  501    0 -0.13570253772E+02  0.25052901878E+01  0.75254172955E+02  0.76508945970E+02  0.00000000000E+00 0.  1.
</event>
<event>
 5    1  0.4419198E-005  0.1145071E+03  0.7818608E-02  0.1142559E+00
         -4   -1    0    0    0  501 -0.00000000000E+00  0.00000000000E+00  0.67085984941E+03  0.67085984941E+03  0.00000000000E+00 0. -1.
         21   -1    0    0  501  502  0.00000000000E+00 -0.00000000000E+00 -0.60001053478E+02  0.60001053478E+02  0.00000000000E+00 0.  1.
        -13    1    1    2    0    0 -0.10266516913E+03  0.15673633828E+02  0.23948904057E+02  0.10658030268E+03  0.10566000000E+00 0.  1.
         13    1    1    2    0    0  0.10368921280E+03  0.60872512461E+02  0.46528216621E+03  0.48056677058E+03  0.10566000000E+00 0. -1.
         -4    1    1    2    0  502 -0.10240436745E+01 -0.76546146289E+02  0.12162772567E+03  0.14371382963E+03  0.00000000000E+00 0. -1.
</event>
<event>
 5    1  0.4419198E-005  0.4830170E+03  0.7818608E-02  0.1011549E+00
         21   -1    0    0  501  502  0.00000000000E+00  0.00000000000E+00  0.16850203333E+03  0.16850203333E+03  0.00000000000E+00 0. -1.
         -4   -1    0    0    0  501 -0.00000000000E+00 -0.00000000000E+00 -0.18908218542E+04  0.18908218542E+04  0.00000000000E+00 0. -1.
        -13    1    1    2    0    0 -0.43048058363E+02 -0.45595220478E+02 -0.19575648005E+01  0.62736772974E+02  0.10566000000E+00 0.  1.
         13    1    1    2    0    0  0.24704749814E+03  0.43976240198E+03 -0.55704394952E+03  0.75147948036E+03  0.10566000000E+00 0. -1.
         -4    1    1    2    0  502 -0.20399943978E+03 -0.39416718151E+03 -0.11633183066E+04  0.12451076342E+04  0.00000000000E+00 0. -1.
</event>
<event>
 5    1  0.4419198E-005  0.1884556E+03  0.7818608E-02  0.1068352E+00
         21   -1    0    0  501  502  0.00000000000E+00  0.00000000000E+00  0.71108819655E+03  0.71108819655E+03  0.00000000000E+00 0. -1.
          4   -1    0    0  502    0 -0.00000000000E+00 -0.00000000000E+00 -0.59994138762E+02  0.59994138762E+02  0.00000000000E+00 0.  1.
        -13    1    1    2    0    0  0.17399836212E+03  0.79319994006E+02  0.24943411802E+03  0.31429998706E+03  0.10566000000E+00 0.  1.
         13    1    1    2    0    0 -0.16414091603E+03 -0.86445474194E+02  0.28867606771E+03  0.34314565939E+03  0.10566000000E+00 0. -1.
          4    1    1    2  501    0 -0.98574460853E+01  0.71254801882E+01  0.11298387206E+03  0.11363668887E+03  0.00000000000E+00 0.  1.
</event>
<event>
 5    1  0.4419198E-005  0.1945052E+03  0.7818608E-02  0.1063969E+00
         -4   -1    0    0    0  501 -0.00000000000E+00  0.00000000000E+00  0.63457086745E+03  0.63457086745E+03  0.00000000000E+00 0. -1.
         21   -1    0    0  501  502  0.00000000000E+00 -0.00000000000E+00 -0.10148290773E+03  0.10148290773E+03  0.00000000000E+00 0.  1.
        -13    1    1    2    0    0  0.19828118202E+03  0.81190317828E+02  0.12033508334E+03  0.24573937067E+03  0.10566000000E+00 0.  1.
         13    1    1    2    0    0 -0.17208397642E+03 -0.76232744064E+02  0.42201979229E+03  0.46208769996E+03  0.10566000000E+00 0. -1.
         -4    1    1    2    0  502 -0.26197205595E+02 -0.49575737639E+01 -0.92669159154E+01  0.28226704541E+02  0.00000000000E+00 0. -1.
</event>
<event>
 5    1  0.4419198E-005  0.5101168E+03  0.7818608E-02  0.9728889E-01
         -4   -1    0    0    0  501 -0.00000000000E+00  0.00000000000E+00  0.23517904377E+04  0.23517904377E+04  0.00000000000E+00 0. -1.
         21   -1    0    0  501  502  0.00000000000E+00 -0.00000000000E+00 -0.16501802486E+03  0.16501802486E+03  0.00000000000E+00 0. -1.
        -13    1    1    2    0    0 -0.15256714106E+03 -0.11813868509E+03  0.50159485450E+03  0.53742989373E+03  0.10566000000E+00 0.  1.
         13    1    1    2    0    0 -0.23472613163E+03  0.46341182792E+03  0.84486167122E+03  0.99178532647E+03  0.10566000000E+00 0. -1.
         -4    1    1    2    0  502  0.38729327269E+03 -0.34527314283E+03  0.84031588714E+03  0.98759324239E+03  0.00000000000E+00 0. -1.
</event>
<event>
 5    1  0.4419198E-005  0.4660607E+03  0.7818608E-02  0.9555633E-01
         -4   -1    0    0    0  501 -0.00000000000E+00  0.00000000000E+00  0.23259378013E+04  0.23259378013E+04  0.00000000000E+00 0. -1.
         21   -1    0    0  501  502  0.00000000000E+00 -0.00000000000E+00 -0.23336994737E+03  0.23336994737E+03  0.00000000000E+00 0. -1.
        -13    1    1    2    0    0 -0.19163946105E+03 -0.35060591204E+03  0.64999988728E+03  0.76298758392E+03  0.10566000000E+00 0.  1.
         13    1    1    2    0    0  0.15585512866E+03  0.64176072922E+03  0.55868330840E+03  0.86502873070E+03  0.10566000000E+00 0. -1.
         -4    1    1    2    0  502  0.35784332396E+02 -0.29115481718E+03  0.88388465823E+03  0.93129143401E+03  0.00000000000E+00 0. -1.
</event>
<event>
 5    1  0.4419198E-005  0.3500097E+03  0.7818608E-02  0.9898363E-01
         -4   -1    0    0    0  501 -0.00000000000E+00  0.00000000000E+00  0.14881045254E+04  0.14881045254E+04  0.00000000000E+00 0. -1.
         21   -1    0    0  501  502  0.00000000000E+00 -0.00000000000E+00 -0.40598129070E+03  0.40598129070E+03  0.00000000000E+00 0. -1.
        -13    1    1    2    0    0  0.30069687779E+03 -0.19338715875E+03  0.55695929033E+03  0.66183144964E+03  0.10566000000E+00 0.  1.
         13    1    1    2    0    0 -0.30480384067E+03 -0.17005818605E+03  0.73421475028E+03  0.81295539768E+03  0.10566000000E+00 0. -1.
         -4    1    1    2    0  502  0.41069628731E+01  0.36344534480E+03 -0.20905080588E+03  0.41929896880E+03  0.00000000000E+00 0. -1.
</event>
<event>
 5    1  0.4419198E-005  0.3327135E+03  0.7818608E-02  0.1033915E+00
         21   -1    0    0  501  502  0.00000000000E+00  0.00000000000E+00  0.12902895666E+04  0.12902895666E+04  0.00000000000E+00 0.  1.
          4   -1    0    0  502    0 -0.00000000000E+00 -0.00000000000E+00 -0.28111870246E+03  0.28111870246E+03  0.00000000000E+00 0.  1.
        -13    1    1    2    0    0 -0.16023765197E+02 -0.33708153545E+03  0.11027487363E+04  0.11532282988E+04  0.10566000000E+00 0.  1.
         13    1    1    2    0    0 -0.84211786864E+02  0.44327493386E+02 -0.43806848736E+02  0.10476451153E+03  0.10566000000E+00 0. -1.
          4    1    1    2  501    0  0.10023555206E+03  0.29275404206E+03 -0.49771023352E+02  0.31341545879E+03  0.00000000000E+00 0.  1.
</event>
<event>
 5    1  0.4419198E-005  0.2046159E+03  0.7818608E-02  0.1074453E+00
          4   -1    0    0  502    0 -0.00000000000E+00  0.00000000000E+00  0.11131414269E+04  0.11131414269E+04  0.00000000000E+00 0.  1.
         21   -1    0    0  501  502  0.00000000000E+00 -0.00000000000E+00 -0.27183927989E+03  0.27183927989E+03  0.00000000000E+00 0.  1.
        -13    1    1    2    0    0 -0.53920110423E+02 -0.29858996219E+03  0.93346522482E+03  0.98153995381E+03  0.10566000000E+00 0.  1.
         13    1    1    2    0    0 -0.34380747203E+02  0.11882438600E+03  0.73182930173E+02  0.14372551242E+03  0.10566000000E+00 0. -1.
          4    1    1    2  501    0  0.88300857626E+02  0.17976557618E+03 -0.16534600796E+03  0.25971524057E+03  0.00000000000E+00 0.  1.
</event>
<event>
 5    1  0.4419198E-005  0.4796159E+03  0.7818608E-02  0.9542394E-01
          4   -1    0    0  502    0 -0.00000000000E+00  0.00000000000E+00  0.14875775295E+04  0.14875775295E+04  0.00000000000E+00 0.  1.
         21   -1    0    0  501  502  0.00000000000E+00 -0.00000000000E+00 -0.41190903895E+03  0.41190903895E+03  0.00000000000E+00 0.  1.
        -13    1    1    2    0    0 -0.20001689472E+03 -0.16236694035E+03  0.56566699750E+03  0.62156974244E+03  0.10566000000E+00 0.  1.
         13    1    1    2    0    0  0.41997512541E+02 -0.44653202930E+03  0.46683045668E+03  0.64736800254E+03  0.10566000000E+00 0. -1.
          4    1    1    2  501    0  0.15801938218E+03  0.60889896966E+03  0.43171036348E+02  0.63054882346E+03  0.00000000000E+00 0.  1.
</event>
<event>
 5    1  0.4419198E-005  0.2296932E+03  0.7818608E-02  0.1041489E+00
          4   -1    0    0  502    0 -0.00000000000E+00  0.00000000000E+00  0.21806170991E+04  0.21806170991E+04  0.00000000000E+00 0.  1.
         21   -1    0    0  501  502  0.00000000000E+00 -0.00000000000E+00 -0.27502896790E+03  0.27502896790E+03  0.00000000000E+00 0.  1.
        -13    1    1    2    0    0 -0.91907063392E+01 -0.24873806301E+03  0.92532508693E+03  0.95821794010E+03  0.10566000000E+00 0.  1.
         13    1    1    2    0    0  0.18221746298E+03  0.16832041676E+03  0.11890151567E+04  0.12146159971E+04  0.10566000000E+00 0. -1.
          4    1    1    2  501    0 -0.17302675664E+03  0.80417646248E+02 -0.20875211238E+03  0.28281212980E+03  0.00000000000E+00 0.  1.
</event>
<event>
 5    1  0.4419198E-005  0.4163101E+03  0.7818608E-02  0.9910353E-01
         -4   -1    0    0    0  501 -0.00000000000E+00  0.00000000000E+00  0.11821683872E+04  0.11821683872E+04  0.00000000000E+00 0. -1.
         21   -1    0    0  501  502  0.00000000000E+00 -0.00000000000E+00 -0.36485964672E+03  0.36485964672E+03  0.00000000000E+00 0. -1.
        -13    1    1    2    0    0  0.19043989765E+03  0.20400365052E+02  0.39973062962E+03  0.44324724131E+03  0.10566000000E+00 0.  1.
         13    1    1    2    0    0 -0.14754966867E+03  0.40041385531E+03  0.51589121279E+03  0.66951169881E+03  0.10566000000E+00 0. -1.
         -4    1    1    2    0  502 -0.42890228980E+02 -0.42081422036E+03 -0.98313101949E+02  0.43426909378E+03  0.00000000000E+00 0. -1.
</event>
<event>
 5    1  0.4419198E-005  0.4110824E+03  0.7818608E-02  0.9725657E-01
         -4   -1    0    0    0  501 -0.00000000000E+00  0.00000000000E+00  0.10506137492E+04  0.10506137492E+04  0.00000000000E+00 0. -1.
         21   -1    0    0  501  502  0.00000000000E+00 -0.00000000000E+00 -0.79923956110E+03  0.79923956110E+03  0.00000000000E+00 0. -1.
        -13    1    1    2    0    0  0.23677338978E+03 -0.28803857000E+03  0.59769440507E+03  0.70446182929E+03  0.10566000000E+00 0.  1.
         13    1    1    2    0    0  0.21587763603E+03  0.30005538937E+03  0.21232134573E+03  0.42628248315E+03  0.10566000000E+00 0. -1.
         -4    1    1    2    0  502 -0.45265102581E+03 -0.12016819369E+02 -0.55864156274E+03  0.71910899781E+03  0.00000000000E+00 0. -1.
</event>
<event>
 5    1  0.4419198E-005  0.4672696E+03  0.7818608E-02  0.9656304E-01
         21   -1    0    0  501  502  0.00000000000E+00  0.00000000000E+00  0.45383999151E+03  0.45383999151E+03  0.00000000000E+00 0.  1.
         -4   -1    0    0    0  501 -0.00000000000E+00 -0.00000000000E+00 -0.10456699451E+04  0.10456699451E+04  0.00000000000E+00 0. -1.
        -13    1    1    2    0    0  0.20541220004E+03  0.24977916730E+03 -0.15135191513E+03  0.35705912357E+03  0.10566000000E+00 0.  1.
         13    1    1    2    0    0 -0.35443106738E+03  0.28765298767E+03 -0.44855747812E+02  0.45866945845E+03  0.10566000000E+00 0. -1.
         -4    1    1    2    0  502  0.14901886734E+03 -0.53743215498E+03 -0.39562229067E+03  0.68378135460E+03  0.00000000000E+00 0. -1.
</event>
<event>
 5    1  0.4419198E-005  0.7540983E+02  0.7818608E-02  0.1277411E+00
         21   -1    0    0  501  502  0.00000000000E+00  0.00000000000E+00  0.58880329480E+02  0.58880329480E+02  0.00000000000E+00 0. -1.
          4   -1    0    0  502    0 -0.00000000000E+00 -0.00000000000E+00 -0.15033430234E+03  0.15033430234E+03  0.00000000000E+00 0.  1.
        -13    1    1    2    0    0  0.58652835526E+02 -0.58937237629E+02 -0.27938300782E+02  0.87717232681E+02  0.10566000000E+00 0.  1.
         13    1    1    2    0    0 -0.13715080842E+02  0.13710965783E+02  0.11892306146E+02  0.22749332622E+02  0.10566000000E+00 0. -1.
          4    1    1    2  501    0 -0.44937754684E+02  0.45226271845E+02 -0.75407978225E+02  0.98748066518E+02  0.00000000000E+00 0.  1.
</event>
<event>
 5    1  0.4419198E-005  0.3237958E+02  0.7818608E-02  0.1386761E+00
         21   -1    0    0  501  502  0.00000000000E+00  0.00000000000E+00  0.16274934893E+03  0.16274934893E+03  0.00000000000E+00 0. -1.
         -4   -1    0    0    0  501 -0.00000000000E+00 -0.00000000000E+00 -0.41311102901E+02  0.41311102901E+02  0.00000000000E+00 0. -1.
        -13    1    1    2    0    0  0.13350980322E+02  0.24903875123E+02  0.59262003064E+02  0.65654000966E+02  0.10566000000E+00 0.  1.
         13    1    1    2    0    0 -0.27076055119E+02 -0.19181184485E+02 -0.30184099957E+02  0.44856679027E+02  0.10566000000E+00 0. -1.
         -4    1    1    2    0  502  0.13725074797E+02 -0.57226906372E+01  0.92360342926E+02  0.93549771842E+02  0.00000000000E+00 0. -1.
</event>
<event>
 5    1  0.4419198E-005  0.3382828E+03  0.7818608E-02  0.9926497E-01
          4   -1    0    0  502    0 -0.00000000000E+00  0.00000000000E+00  0.33539557985E+04  0.33539557985E+04  0.00000000000E+00 0.  1.
         21   -1    0    0  501  502  0.00000000000E+00 -0.00000000000E+00 -0.14164612465E+03  0.14164612465E+03  0.00000000000E+00 0.  1.
        -13    1    1    2    0    0  0.43251590776E+03 -0.22990129870E+03  0.17148389339E+04  0.17834228881E+04  0.10566000000E+00 0.  1.
         13    1    1    2    0    0 -0.28682465416E+03  0.68420080672E+01  0.13990382486E+04  0.14281537829E+04  0.10566000000E+00 0. -1.
          4    1    1    2  501    0 -0.14569125360E+03  0.22305929063E+03  0.98432491390E+02  0.28402525217E+03  0.00000000000E+00 0.  1.
</event>
<event>
 5    1  0.4419198E-005  0.3439863E+03  0.7818608E-02  0.9981522E-01
         21   -1    0    0  501  502  0.00000000000E+00  0.00000000000E+00  0.77612929586E+03  0.77612929586E+03  0.00000000000E+00 0. -1.
         -4   -1    0    0    0  501 -0.00000000000E+00 -0.00000000000E+00 -0.26225513148E+04  0.26225513148E+04  0.00000000000E+00 0. -1.
        -13    1    1    2    0    0  0.10986195573E+02 -0.54914166363E+03 -0.21599427823E+04  0.22286834897E+04  0.10566000000E+00 0.  1.
         13    1    1    2    0    0 -0.53454296513E+02  0.16188316566E+03 -0.35637710562E+03  0.39505464649E+03  0.10566000000E+00 0. -1.
         -4    1    1    2    0  502  0.42468100939E+02  0.38725849797E+03  0.66989786899E+03  0.77494247447E+03  0.00000000000E+00 0. -1.
</event>
<event>
 5    1  0.4419198E-005  0.8057014E+02  0.7818608E-02  0.1201439E+00
         21   -1    0    0  501  502  0.00000000000E+00  0.00000000000E+00  0.27215761414E+03  0.27215761414E+03  0.00000000000E+00 0. -1.
          4   -1    0    0  502    0 -0.00000000000E+00 -0.00000000000E+00 -0.60722753298E+02  0.60722753298E+02  0.00000000000E+00 0.  1.
        -13    1    1    2    0    0 -0.65767322958E+02  0.27874364314E+02  0.93316618644E+01  0.72037573752E+02  0.10566000000E+00 0.  1.
         13    1    1    2    0    0  0.86964399914E+02 -0.60695779799E+02  0.80574974233E+02  0.13318829594E+03  0.10566000000E+00 0. -1.
          4    1    1    2  501    0 -0.21197076957E+02  0.32821415484E+02  0.12152822474E+03  0.12765449775E+03  0.00000000000E+00 0.  1.
</event>
<event>
 5    1  0.4419198E-005  0.5570553E+03  0.7818608E-02  0.9360982E-01
         21   -1    0    0  501  502  0.00000000000E+00  0.00000000000E+00  0.10143097613E+04  0.10143097613E+04  0.00000000000E+00 0.  1.
         -4   -1    0    0    0  501 -0.00000000000E+00 -0.00000000000E+00 -0.80789591052E+03  0.80789591052E+03  0.00000000000E+00 0. -1.
        -13    1    1    2    0    0  0.42644385632E+03 -0.17921301626E+03  0.49107451403E+03  0.67463016333E+03  0.10566000000E+00 0.  1.
         13    1    1    2    0    0 -0.58518701591E+03 -0.12444540713E+03 -0.46743511266E+03  0.75922730368E+03  0.10566000000E+00 0. -1.
         -4    1    1    2    0  502  0.15874315959E+03  0.30365842339E+03  0.18277444942E+03  0.38834820481E+03  0.00000000000E+00 0. -1.
</event>
<event>
 5    1  0.4419198E-005  0.4836448E+03  0.7818608E-02  0.9514558E-01
         -4   -1    0    0    0  501 -0.00000000000E+00  0.00000000000E+00  0.15340067937E+04  0.15340067937E+04  0.00000000000E+00 0. -1.
         21   -1    0    0  501  502  0.00000000000E+00 -0.00000000000E+00 -0.21809610474E+03  0.21809610474E+03  0.00000000000E+00 0.  1.
        -13    1    1    2    0    0 -0.23402186679E+03  0.44591051722E+03  0.53714074801E+03  0.73628976487E+03  0.10566000000E+00 0.  1.
         13    1    1    2    0    0  0.23131275581E+03 -0.41058177816E+03  0.82944950987E+03  0.95397562240E+03  0.10566000000E+00 0. -1.
         -4    1    1    2    0  502  0.27091109872E+01 -0.35328739063E+02 -0.50679568900E+02  0.61837511189E+02  0.00000000000E+00 0. -1.
</event>
<event>
 5    1  0.4419198E-005  0.4834456E+03  0.7818608E-02  0.9762812E-01
         -4   -1    0    0    0  501 -0.00000000000E+00  0.00000000000E+00  0.43846427840E+03  0.43846427840E+03  0.00000000000E+00 0. -1.
         21   -1    0    0  501  502  0.00000000000E+00 -0.00000000000E+00 -0.85234699172E+03  0.85234699172E+03  0.00000000000E+00 0. -1.
        -13    1    1    2    0    0 -0.16340725756E+03 -0.11814841249E+03 -0.10833179482E+03  0.22890340349E+03  0.10566000000E+00 0.  1.
         13    1    1    2    0    0  0.18349753105E+03  0.51259674383E+03 -0.37471605206E+03  0.66093789158E+03  0.10566000000E+00 0. -1.
         -4    1    1    2    0  502 -0.20090273492E+02 -0.39444833134E+03  0.69165133567E+02  0.40096997504E+03  0.00000000000E+00 0. -1.
</event>
<event>
 5    1  0.4419198E-005  0.4914407E+03  0.7818608E-02  0.9665975E-01
         21   -1    0    0  501  502  0.00000000000E+00  0.00000000000E+00  0.26268976789E+03  0.26268976789E+03  0.00000000000E+00 0. -1.
         -4   -1    0    0    0  501 -0.00000000000E+00 -0.00000000000E+00 -0.18184507474E+04  0.18184507474E+04  0.00000000000E+00 0. -1.
        -13    1    1    2    0    0  0.13469987604E+03 -0.23250345131E+03 -0.66064299267E+03  0.71319778912E+03  0.10566000000E+00 0.  1.
         13    1    1    2    0    0 -0.53370446358E+03 -0.17067650000E+02 -0.31144520590E+03  0.61816655244E+03  0.10566000000E+00 0. -1.
         -4    1    1    2    0  502  0.39900458754E+03  0.24957110131E+03 -0.58367278098E+03  0.74977617377E+03  0.00000000000E+00 0. -1.
</event>
<event>
 5    1  0.4419198E-005  0.4649520E+03  0.7818608E-02  0.9730244E-01
         21   -1    0    0  501  502  0.00000000000E+00  0.00000000000E+00  0.38388486723E+03  0.38388486723E+03  0.00000000000E+00 0. -1.
         -4   -1    0    0    0  501 -0.00000000000E+00 -0.00000000000E+00 -0.15856290096E+04  0.15856290096E+04  0.00000000000E+00 0. -1.
        -13    1    1    2    0    0  0.96708504611E+02  0.23447763456E+03 -0.85694896252E+03  0.89369672233E+03  0.10566000000E+00 0.  1.
         13    1    1    2    0    0  0.15420204187E+03 -0.56680677658E+03 -0.29228144582E+03  0.65610719126E+03  0.10566000000E+00 0. -1.
         -4    1    1    2    0  502 -0.25091054648E+03  0.33232914202E+03 -0.52513734016E+02  0.41970996323E+03  0.00000000000E+00 0. -1.
</event>
<event>
 5    1  0.4419198E-005  0.4741052E+03  0.7818608E-02  0.9795592E-01
         21   -1    0    0  501  502  0.00000000000E+00  0.00000000000E+00  0.20696482483E+03  0.20696482483E+03  0.00000000000E+00 0.  1.
          4   -1    0    0  502    0 -0.00000000000E+00 -0.00000000000E+00 -0.18133062527E+04  0.18133062527E+04  0.00000000000E+00 0.  1.
        -13    1    1    2    0    0  0.45426766725E+03 -0.75290227256E+02 -0.36728865051E+03  0.58900653288E+03  0.10566000000E+00 0.  1.
         13    1    1    2    0    0 -0.40056649492E+01 -0.19103267852E+03 -0.38318620630E+03  0.42818361655E+03  0.10566000000E+00 0. -1.
          4    1    1    2  501    0 -0.45026200230E+03  0.26632290578E+03 -0.85586657104E+03  0.10030809281E+04  0.00000000000E+00 0.  1.
</event>
<event>
 5    1  0.4419198E-005  0.4569573E+03  0.7818608E-02  0.9577657E-01
         21   -1    0    0  501  502  0.00000000000E+00  0.00000000000E+00  0.63675621105E+03  0.63675621105E+03  0.00000000000E+00 0. -1.
         -4   -1    0    0    0  501 -0.00000000000E+00 -0.00000000000E+00 -0.11765861374E+04  0.11765861374E+04  0.00000000000E+00 0. -1.
        -13    1    1    2    0    0 -0.13887332112E+03 -0.41004365317E+03 -0.62351683957E+03  0.75907500105E+03  0.10566000000E+00 0.  1.
         13    1    1    2    0    0  0.52396358444E+03  0.40386063593E+03  0.70797313061E+01  0.66158248528E+03  0.10566000000E+00 0. -1.
         -4    1    1    2    0  502 -0.38509026332E+03  0.61830172421E+01  0.76607181931E+02  0.39268486211E+03  0.00000000000E+00 0. -1.
</event>
<event>
 5    1  0.4419198E-005  0.2874015E+02  0.7818608E-02  0.1415319E+00
         21   -1    0    0  501  502  0.00000000000E+00  0.00000000000E+00  0.59146839004E+02  0.59146839004E+02  0.00000000000E+00 0.  1.
         -4   -1    0    0    0  501 -0.00000000000E+00 -0.00000000000E+00 -0.10812518365E+03  0.10812518365E+03  0.00000000000E+00 0. -1.
        -13    1    1    2    0    0 -0.41274317689E+02 -0.12503008516E+02  0.29671457010E+02  0.52347884845E+02  0.10566000000E+00 0.  1.
         13    1    1    2    0    0  0.28017710771E+02  0.13968923277E+01 -0.89978374102E+02  0.94249999444E+02  0.10566000000E+00 0. -1.
         -4    1    1    2    0  502  0.13256606918E+02  0.11106116189E+02  0.11328572442E+02  0.20674138370E+02  0.00000000000E+00 0. -1.
</event>
<event>
 5    1  0.4419198E-005  0.4243767E+02  0.7818608E-02  0.1366943E+00
         21   -1    0    0  501  502  0.00000000000E+00  0.00000000000E+00  0.14154999377E+03  0.14154999377E+03  0.00000000000E+00 0. -1.
         -4   -1    0    0    0  501 -0.00000000000E+00 -0.00000000000E+00 -0.26600625770E+02  0.26600625770E+02  0.00000000000E+00 0. -1.
        -13    1    1    2    0    0 -0.10122929746E+02 -0.17552705909E+02  0.33832337901E+02  0.39436143869E+02  0.10566000000E+00 0.  1.
         13    1    1    2    0    0  0.49047258988E+02  0.22172540577E+02  0.22817343776E+02  0.58462787402E+02  0.10566000000E+00 0. -1.
         -4    1    1    2    0  502 -0.38924329241E+02 -0.46198346679E+01  0.58299686326E+02  0.70251688271E+02  0.00000000000E+00 0. -1.
</event>
<event>
 5    1  0.4419198E-005  0.4170450E+03  0.7818608E-02  0.9881876E-01
         21   -1    0    0  501  502  0.00000000000E+00  0.00000000000E+00  0.24865168110E+03  0.24865168110E+03  0.00000000000E+00 0.  1.
          4   -1    0    0  502    0 -0.00000000000E+00 -0.00000000000E+00 -0.17576750344E+04  0.17576750344E+04  0.00000000000E+00 0.  1.
        -13    1    1    2    0    0 -0.32210783785E+03  0.35039582021E+03 -0.81096804387E+03  0.94031902531E+03  0.10566000000E+00 0.  1.
         13    1    1    2    0    0  0.20508782817E+03  0.43148678156E+02 -0.61148948692E+03  0.64640717004E+03  0.10566000000E+00 0. -1.
          4    1    1    2  501    0  0.11702000967E+03 -0.39354449836E+03 -0.86565822468E+02  0.41960052011E+03  0.00000000000E+00 0.  1.
</event>
<event>
 5    1  0.4419198E-005  0.4572491E+03  0.7818608E-02  0.9734544E-01
         21   -1    0    0  501  502  0.00000000000E+00  0.00000000000E+00  0.33649965677E+03  0.33649965677E+03  0.00000000000E+00 0. -1.
         -4   -1    0    0    0  501 -0.00000000000E+00 -0.00000000000E+00 -0.16185633398E+04  0.16185633398E+04  0.00000000000E+00 0. -1.
        -13    1    1    2    0    0  0.23388892964E+03  0.11968885272E+03  0.38032629688E+02  0.26547305882E+03  0.10566000000E+00 0.  1.
         13    1    1    2    0    0 -0.31854041913E+03 -0.51859366890E+03 -0.10022335227E+04  0.11725525307E+04  0.10566000000E+00 0. -1.
         -4    1    1    2    0  502  0.84651489494E+02  0.39890481618E+03 -0.31786279003E+03  0.51703740709E+03  0.00000000000E+00 0. -1.
</event>
<event>
 5    1  0.4419198E-005  0.1871519E+03  0.7818608E-02  0.1069320E+00
         -4   -1    0    0    0  501 -0.00000000000E+00  0.00000000000E+00  0.92529478931E+03  0.92529478931E+03  0.00000000000E+00 0. -1.
         21   -1    0    0  501  502  0.00000000000E+00 -0.00000000000E+00 -0.11943457109E+03  0.11943457109E+03  0.00000000000E+00 0. -1.
        -13    1    1    2    0    0  0.10386176292E+03  0.13701853826E+03  0.55956516509E+03  0.58538408824E+03  0.10566000000E+00 0.  1.
         13    1    1    2    0    0 -0.16378841880E+03 -0.17309248246E+03  0.29115965493E+03  0.37624674011E+03  0.10566000000E+00 0. -1.
         -4    1    1    2    0  502  0.59926655872E+02  0.36073944194E+02 -0.44864601809E+02  0.83098532052E+02  0.00000000000E+00 0. -1.
</event>
<event>
 5    1  0.4419198E-005  0.6213029E+03  0.7818608E-02  0.9245695E-01
         -4   -1    0    0    0  501 -0.00000000000E+00  0.00000000000E+00  0.37927568167E+04  0.37927568167E+04  0.00000000000E+00 0. -1.
         21   -1    0    0  501  502  0.00000000000E+00 -0.00000000000E+00 -0.27006314295E+03  0.27006314295E+03  0.00000000000E+00 0. -1.
        -13    1    1    2    0    0 -0.22363596990E+03  0.61347873612E+03  0.21162361978E+04  0.22146839194E+04  0.10566000000E+00 0.  1.
         13    1    1    2    0    0 -0.28878230126E+03 -0.62273119033E+03  0.80035426045E+03  0.10543985519E+04  0.10566000000E+00 0. -1.
         -4    1    1    2    0  502  0.51241827116E+03  0.92524542096E+01  0.60610321542E+03  0.79373748826E+03  0.00000000000E+00 0. -1.
</event>
<event>
 5    1  0.4419198E-005  0.5233218E+03  0.7818608E-02  0.9561855E-01
         -4   -1    0    0    0  501 -0.00000000000E+00  0.00000000000E+00  0.22581426535E+04  0.22581426535E+04  0.00000000000E+00 0. -1.
         21   -1    0    0  501  502  0.00000000000E+00 -0.00000000000E+00 -0.52629120734E+03  0.52629120734E+03  0.00000000000E+00 0. -1.
        -13    1    1    2    0    0 -0.30391244945E+03 -0.10619803989E+03  0.16364402575E+04  0.16678062022E+04  0.10566000000E+00 0.  1.
         13    1    1    2    0    0  0.62291408701E+02 -0.47638555666E+03  0.13511195001E+02  0.48063081648E+03  0.10566000000E+00 0. -1.
         -4    1    1    2    0  502  0.24162104075E+03  0.58258359656E+03  0.81899993711E+02  0.63599684219E+03  0.00000000000E+00 0. -1.
</event>
<event>
 5    1  0.4419198E-005  0.4088450E+03  0.7818608E-02  0.9769381E-01
         21   -1    0    0  501  502  0.00000000000E+00  0.00000000000E+00  0.18573379155E+03  0.18573379155E+03  0.00000000000E+00 0. -1.
         -4   -1    0    0    0  501 -0.00000000000E+00 -0.00000000000E+00 -0.38172815435E+04  0.38172815435E+04  0.00000000000E+00 0. -1.
        -13    1    1    2    0    0  0.32266639244E+03  0.46148577044E+02 -0.18027339648E+04  0.18319642603E+04  0.10566000000E+00 0.  1.
         13    1    1    2    0    0 -0.15366939992E+02  0.27937134832E+03 -0.16742416834E+04  0.16974597841E+04  0.10566000000E+00 0. -1.
         -4    1    1    2    0  502 -0.30729945245E+03 -0.32551992537E+03 -0.15457210372E+03  0.47359129060E+03  0.00000000000E+00 0. -1.
</event>
<event>
 5    1  0.4419198E-005  0.5251948E+03  0.7818608E-02  0.9424397E-01
         21   -1    0    0  501  502  0.00000000000E+00  0.00000000000E+00  0.68424706445E+03  0.68424706445E+03  0.00000000000E+00 0. -1.
         -4   -1    0    0    0  501 -0.00000000000E+00 -0.00000000000E+00 -0.13870892723E+04  0.13870892723E+04  0.00000000000E+00 0. -1.
        -13    1    1    2    0    0  0.33766001800E+03  0.39294160147E+03 -0.45179318872E+03  0.68741143899E+03  0.10566000000E+00 0.  1.
         13    1    1    2    0    0 -0.34551740564E+03 -0.40239774251E+03 -0.73137227490E+03  0.90344431839E+03  0.10566000000E+00 0. -1.
         -4    1    1    2    0  502  0.78573876331E+01  0.94561410454E+01  0.48032325576E+03  0.48048057938E+03  0.00000000000E+00 0. -1.
</event>
<event>
 5    1  0.4419198E-005  0.1079237E+03  0.7818608E-02  0.1152072E+00
         -4   -1    0    0    0  501 -0.00000000000E+00  0.00000000000E+00  0.32189363041E+02  0.32189363041E+02  0.00000000000E+00 0. -1.
         21   -1    0    0  501  502  0.00000000000E+00 -0.00000000000E+00 -0.10326738542E+04  0.10326738542E+04  0.00000000000E+00 0. -1.
        -13    1    1    2    0    0  0.95174839314E+02  0.25041258953E+02 -0.20227095574E+03  0.22494191559E+03  0.10566000000E+00 0.  1.
         13    1    1    2    0    0 -0.11537433780E+03 -0.10148216366E+02 -0.14206955868E+03  0.18329755804E+03  0.10566000000E+00 0. -1.
         -4    1    1    2    0  502  0.20199498487E+02 -0.14893042587E+02 -0.65614397678E+03  0.65662374365E+03  0.00000000000E+00 0. -1.
</event>
<event>
 5    1  0.4419198E-005  0.4450749E+03  0.7818608E-02  0.9816007E-01
         -4   -1    0    0    0  501 -0.00000000000E+00  0.00000000000E+00  0.19010600001E+04  0.19010600001E+04  0.00000000000E+00 0. -1.
         21   -1    0    0  501  502  0.00000000000E+00 -0.00000000000E+00 -0.24629576725E+03  0.24629576725E+03  0.00000000000E+00 0. -1.
        -13    1    1    2    0    0 -0.20872043712E+03  0.53325157012E+02  0.76179050586E+03  0.79166443600E+03  0.10566000000E+00 0.  1.
         13    1    1    2    0    0  0.26657972112E+03 -0.46857862799E+03  0.72629822534E+03  0.90451080791E+03  0.10566000000E+00 0. -1.
         -4    1    1    2    0  502 -0.57859284001E+02  0.41525347098E+03  0.16667550167E+03  0.45118052347E+03  0.00000000000E+00 0. -1.
</event>
<event>
 5    1  0.4419198E-005  0.4615173E+02  0.7818608E-02  0.1308303E+00
         21   -1    0    0  501  502  0.00000000000E+00  0.00000000000E+00  0.49769073136E+02  0.49769073136E+02  0.00000000000E+00 0. -1.
          4   -1    0    0  502    0 -0.00000000000E+00 -0.00000000000E+00 -0.25962532515E+03  0.25962532515E+03  0.00000000000E+00 0.  1.
        -13    1    1    2    0    0 -0.43384251858E+02  0.11105799865E+02 -0.21504261613E+03  0.21965625421E+03  0.10566000000E+00 0.  1.
         13    1    1    2    0    0  0.56465541367E+02 -0.25540535803E+02 -0.12734996290E+02  0.63268219712E+02  0.10566000000E+00 0. -1.
          4    1    1    2  501    0 -0.13081289509E+02  0.14434735938E+02  0.17921360405E+02  0.26469924359E+02  0.00000000000E+00 0.  1.
</event>
<event>
 5    1  0.4419198E-005  0.7113158E+03  0.7818608E-02  0.9158897E-01
         21   -1    0    0  501  502  0.00000000000E+00  0.00000000000E+00  0.61619442188E+03  0.61619442188E+03  0.00000000000E+00 0. -1.
         -4   -1    0    0    0  501 -0.00000000000E+00 -0.00000000000E+00 -0.21645645448E+04  0.21645645448E+04  0.00000000000E+00 0. -1.
        -13    1    1    2    0    0 -0.22356556846E+03 -0.81149692780E+03 -0.73438921190E+03  0.11170659573E+04  0.10566000000E+00 0.  1.
         13    1    1    2    0    0 -0.47865474748E+03  0.45367901845E+03 -0.42721042398E+03  0.78577590736E+03  0.10566000000E+00 0. -1.
         -4    1    1    2    0  502  0.70222031594E+03  0.35781790935E+03 -0.38677048703E+03  0.87791710201E+03  0.00000000000E+00 0. -1.
</event>
<event>
 5    1  0.4419198E-005  0.3182994E+03  0.7818608E-02  0.1000025E+00
         -4   -1    0    0    0  501 -0.00000000000E+00  0.00000000000E+00  0.12168240893E+04  0.12168240893E+04  0.00000000000E+00 0. -1.
         21   -1    0    0  501  502  0.00000000000E+00 -0.00000000000E+00 -0.16866210888E+03  0.16866210888E+03  0.00000000000E+00 0.  1.
        -13    1    1    2    0    0  0.32842082737E+03 -0.29076716064E+02  0.33284215356E+03  0.46849717781E+03  0.10566000000E+00 0.  1.
         13    1    1    2    0    0 -0.30936888725E+03  0.50682284042E+02  0.78300436784E+03  0.84342969685E+03  0.10566000000E+00 0. -1.
         -4    1    1    2    0  502 -0.19051940125E+02 -0.21605567977E+02 -0.67684540968E+02  0.73559323516E+02  0.00000000000E+00 0. -1.
</event>
<event>
 5    1  0.4419198E-005  0.4161260E+03  0.7818608E-02  0.9981798E-01
         21   -1    0    0  501  502  0.00000000000E+00  0.00000000000E+00  0.31548395006E+03  0.31548395006E+03  0.00000000000E+00 0. -1.
         -4   -1    0    0    0  501 -0.00000000000E+00 -0.00000000000E+00 -0.13480583379E+04  0.13480583379E+04  0.00000000000E+00 0. -1.
        -13    1    1    2    0    0  0.97524833311E+02 -0.11574121411E+03 -0.48156581203E+03  0.50478982184E+03  0.10566000000E+00 0.  1.
         13    1    1    2    0    0  0.33957004287E+03  0.23251161183E+03  0.41087751348E+02  0.41359119686E+03  0.10566000000E+00 0. -1.
         -4    1    1    2    0  502 -0.43709487618E+03 -0.11677039772E+03 -0.59209632713E+03  0.74516126924E+03  0.00000000000E+00 0. -1.
</event>
<event>
 5    1  0.4419198E-005  0.3925902E+03  0.7818608E-02  0.9782644E-01
         -4   -1    0    0    0  501 -0.00000000000E+00  0.00000000000E+00  0.68468823501E+03  0.68468823501E+03  0.00000000000E+00 0. -1.
         21   -1    0    0  501  502  0.00000000000E+00 -0.00000000000E+00 -0.77653455432E+03  0.77653455432E+03  0.00000000000E+00 0. -1.
        -13    1    1    2    0    0  0.47974337786E+02 -0.34847502963E+03  0.17107898205E+03  0.39115778483E+03  0.10566000000E+00 0.  1.
         13    1    1    2    0    0 -0.25188567607E+03 -0.51671029032E+02  0.27019472094E+03  0.37298992940E+03  0.10566000000E+00 0. -1.
         -4    1    1    2    0  502  0.20391133828E+03  0.40014605867E+03 -0.53312002230E+03  0.69707507510E+03  0.00000000000E+00 0. -1.
</event>
<event>
 5    1  0.4419198E-005  0.1970746E+03  0.7818608E-02  0.1062160E+00
         21   -1    0    0  501  502  0.00000000000E+00  0.00000000000E+00  0.13550833325E+04  0.13550833325E+04  0.00000000000E+00 0.  1.
         -4   -1    0    0    0  501 -0.00000000000E+00 -0.00000000000E+00 -0.41182074724E+02  0.41182074724E+02  0.00000000000E+00 0. -1.
        -13    1    1    2    0    0 -0.19343466360E+03  0.25734109092E+01  0.70284400475E+03  0.72898099955E+03  0.10566000000E+00 0.  1.
         13    1    1    2    0    0  0.19645507654E+03  0.40695057724E+02  0.35665171799E+03  0.40920794705E+03  0.10566000000E+00 0. -1.
         -4    1    1    2    0  502 -0.30204129358E+01 -0.43268468633E+02  0.25440553504E+03  0.25807646063E+03  0.00000000000E+00 0. -1.
</event>
<event>
 5    1  0.4419198E-005  0.1123599E+03  0.7818608E-02  0.1145583E+00
          4   -1    0    0  502    0 -0.00000000000E+00  0.00000000000E+00  0.12534434214E+03  0.12534434214E+03  0.00000000000E+00 0.  1.
         21   -1    0    0  501  502  0.00000000000E+00 -0.00000000000E+00 -0.13935671002E+03  0.13935671002E+03  0.00000000000E+00 0. -1.
        -13    1    1    2    0    0  0.43792707829E+02 -0.10022616134E+03 -0.40718289449E+02  0.11670936096E+03  0.10566000000E+00 0.  1.
         13    1    1    2    0    0 -0.34940575716E+02  0.10848931284E+03  0.47859192771E+02  0.12361750818E+03  0.10566000000E+00 0. -1.
          4    1    1    2  501    0 -0.88521321129E+01 -0.82631514981E+01 -0.21153271201E+02  0.24374183025E+02  0.00000000000E+00 0.  1.
</event>
<event>
 5    1  0.4419198E-005  0.4782929E+03  0.7818608E-02  0.9596818E-01
          4   -1    0    0  502    0 -0.00000000000E+00  0.00000000000E+00  0.11754732950E+04  0.11754732950E+04  0.00000000000E+00 0.  1.
         21   -1    0    0  501  502  0.00000000000E+00 -0.00000000000E+00 -0.54649749133E+03  0.54649749133E+03  0.00000000000E+00 0.  1.
        -13    1    1    2    0    0 -0.13795465712E+03  0.51082744939E+03 -0.15523773123E+03  0.55142990020E+03  0.10566000000E+00 0.  1.
         13    1    1    2    0    0  0.35816286325E+03 -0.10113105808E+03  0.50746573619E+03  0.62930883681E+03  0.10566000000E+00 0. -1.
          4    1    1    2  501    0 -0.22020820613E+03 -0.40969639131E+03  0.27674779867E+03  0.54123204928E+03  0.00000000000E+00 0.  1.
</event>
<event>
 5    1  0.4419198E-005  0.5166815E+02  0.7818608E-02  0.1285142E+00
          4   -1    0    0  502    0 -0.00000000000E+00  0.00000000000E+00  0.20512425709E+03  0.20512425709E+03  0.00000000000E+00 0.  1.
         21   -1    0    0  501  502  0.00000000000E+00 -0.00000000000E+00 -0.26921850284E+02  0.26921850284E+02  0.00000000000E+00 0. -1.
        -13    1    1    2    0    0  0.40581363364E+02  0.27410191251E+02  0.13199963160E+03  0.14079090717E+03  0.10566000000E+00 0.  1.
         13    1    1    2    0    0 -0.45930041172E+02 -0.41592353144E+02  0.43865184652E+02  0.75918759939E+02  0.10566000000E+00 0. -1.
          4    1    1    2  501    0  0.53486778080E+01  0.14182161894E+02  0.23375905562E+01  0.15336440261E+02  0.00000000000E+00 0.  1.
</event>
<event>
 5    1  0.4419198E-005  0.2022646E+03  0.7818608E-02  0.1058594E+00
          4   -1    0    0  502    0 -0.00000000000E+00  0.00000000000E+00  0.14439987256E+04  0.14439987256E+04  0.00000000000E+00 0.  1.
         21   -1    0    0  501  502  0.00000000000E+00 -0.00000000000E+00 -0.39267617236E+02  0.39267617236E+02  0.00000000000E+00 0. -1.
        -13    1    1    2    0    0 -0.18905905064E+03  0.82812462164E+02  0.99205579696E+03  0.10132995332E+04  0.10566000000E+00 0.  1.
         13    1    1    2    0    0  0.18372187751E+03 -0.62616825184E+02  0.40222647781E+03  0.44661028391E+03  0.10566000000E+00 0. -1.
          4    1    1    2  501    0  0.53371731221E+01 -0.20195636980E+02  0.10448833542E+02  0.23356525691E+02  0.00000000000E+00 0.  1.
</event>
<event>
 5    1  0.4419198E-005  0.1501847E+03  0.7818608E-02  0.1100930E+00
         21   -1    0    0  501  502  0.00000000000E+00  0.00000000000E+00  0.29561752382E+03  0.29561752382E+03  0.00000000000E+00 0. -1.
         -4   -1    0    0    0  501 -0.00000000000E+00 -0.00000000000E+00 -0.39627057314E+03  0.39627057314E+03  0.00000000000E+00 0. -1.
        -13    1    1    2    0    0  0.37022879604E-01  0.15464901849E+03 -0.30002556106E+03  0.33753765530E+03  0.10566000000E+00 0.  1.
         13    1    1    2    0    0  0.57209054903E+01 -0.13587523637E+03 -0.17030895982E+02  0.13705791185E+03  0.10566000000E+00 0. -1.
         -4    1    1    2    0  502 -0.57579283699E+01 -0.18773782119E+02  0.21640340773E+03  0.21729252981E+03  0.00000000000E+00 0. -1.
</event>
<event>
 5    1  0.4419198E-005  0.3593864E+03  0.7818608E-02  0.1012555E+00
          4   -1    0    0  502    0 -0.00000000000E+00  0.00000000000E+00  0.12847589213E+04  0.12847589213E+04  0.00000000000E+00 0.  1.
         21   -1    0    0  501  502  0.00000000000E+00 -0.00000000000E+00 -0.28724462035E+03  0.28724462035E+03  0.00000000000E+00 0.  1.
        -13    1    1    2    0    0 -0.27771613363E+03 -0.11994485279E+03  0.79830542980E+03  0.85370052654E+03  0.10566000000E+00 0.  1.
         13    1    1    2    0    0  0.17043314074E+02 -0.14642303766E+03  0.29823354495E+03  0.33267617740E+03  0.10566000000E+00 0. -1.
          4    1    1    2  501    0  0.26067281956E+03  0.26636789045E+03 -0.99024673825E+02  0.38562683769E+03  0.00000000000E+00 0.  1.
</event>
<event>
 5    1  0.4419198E-005  0.1739517E+03  0.7818608E-02  0.1079626E+00
         -4   -1    0    0    0  501 -0.00000000000E+00  0.00000000000E+00  0.89238679915E+03  0.89238679915E+03  0.00000000000E+00 0. -1.
         21   -1    0    0  501  502  0.00000000000E+00 -0.00000000000E+00 -0.64728865859E+02  0.64728865859E+02  0.00000000000E+00 0. -1.
        -13    1    1    2    0    0  0.43007910782E+02  0.15703808006E+03  0.27813391071E+03  0.32228732900E+03  0.10566000000E+00 0.  1.
         13    1    1    2    0    0 -0.64010723124E+02 -0.16962180485E+03  0.57294561787E+03  0.60094560616E+03  0.10566000000E+00 0. -1.
         -4    1    1    2    0  502  0.21002812341E+02  0.12583724788E+02 -0.23421595300E+02  0.33882729852E+02  0.00000000000E+00 0. -1.
</event>
<event>
 5    1  0.4419198E-005  0.7594505E+03  0.7818608E-02  0.9040927E-01
         -4   -1    0    0    0  501 -0.00000000000E+00  0.00000000000E+00  0.17448529964E+04  0.17448529964E+04  0.00000000000E+00 0. -1.
         21   -1    0    0  501  502  0.00000000000E+00 -0.00000000000E+00 -0.49625005232E+03  0.49625005232E+03  0.00000000000E+00 0.  1.
        -13    1    1    2    0    0  0.55667706740E+03  0.35734591700E+03  0.43806008111E+03  0.79339908470E+03  0.10566000000E+00 0.  1.
         13    1    1    2    0    0 -0.79680466397E+03 -0.44360235734E+03  0.48133476137E+03  0.10311953683E+04  0.10566000000E+00 0. -1.
         -4    1    1    2    0  502  0.24012759657E+03  0.86256440339E+02  0.32920810157E+03  0.41650859568E+03  0.00000000000E+00 0. -1.
</event>
<event>
 5    1  0.4419198E-005  0.1996226E+03  0.7818608E-02  0.1060395E+00
         21   -1    0    0  501  502  0.00000000000E+00  0.00000000000E+00  0.46187419559E+03  0.46187419559E+03  0.00000000000E+00 0.  1.
         -4   -1    0    0    0  501 -0.00000000000E+00 -0.00000000000E+00 -0.25347450583E+03  0.25347450583E+03  0.00000000000E+00 0. -1.
        -13    1    1    2    0    0  0.85489325083E+02 -0.18305472765E+03 -0.15960775366E+03  0.25747253098E+03  0.10566000000E+00 0.  1.
         13    1    1    2    0    0 -0.15784541693E+02  0.19637944431E+03  0.23118573926E+03  0.30374478614E+03  0.10566000000E+00 0. -1.
         -4    1    1    2    0  502 -0.69704783390E+02 -0.13324716664E+02  0.13682170415E+03  0.15413138430E+03  0.00000000000E+00 0. -1.
</event>
<event>
 5    1  0.4419198E-005  0.3360572E+02  0.7818608E-02  0.1400196E+00
          4   -1    0    0  502    0 -0.00000000000E+00  0.00000000000E+00  0.29056904490E+02  0.29056904490E+02  0.00000000000E+00 0.  1.
         21   -1    0    0  501  502  0.00000000000E+00 -0.00000000000E+00 -0.17763310089E+03  0.17763310089E+03  0.00000000000E+00 0. -1.
        -13    1    1    2    0    0  0.42478928744E+02  0.31831225984E+00  0.52839223201E+01  0.42807612747E+02  0.10566000000E+00 0.  1.
         13    1    1    2    0    0 -0.14358748339E+02 -0.18076405464E+02 -0.58587740019E+02  0.62971934486E+02  0.10566000000E+00 0. -1.
          4    1    1    2  501    0 -0.28120180405E+02  0.17758093204E+02 -0.95272378699E+02  0.10091045815E+03  0.00000000000E+00 0.  1.
</event>
<event>
 5    1  0.4419198E-005  0.4863915E+03  0.7818608E-02  0.9749554E-01
         21   -1    0    0  501  502  0.00000000000E+00  0.00000000000E+00  0.24190654179E+03  0.24190654179E+03  0.00000000000E+00 0.  1.
          4   -1    0    0  502    0 -0.00000000000E+00 -0.00000000000E+00 -0.15922936635E+04  0.15922936635E+04  0.00000000000E+00 0.  1.
        -13    1    1    2    0    0 -0.43915707308E+03  0.23611588374E+03 -0.44114949975E+03  0.66574960585E+03  0.10566000000E+00 0.  1.
         13    1    1    2    0    0 -0.55438774881E+02 -0.19970227546E+03 -0.43694465214E+03  0.48360634485E+03  0.10566000000E+00 0. -1.
          4    1    1    2  501    0  0.49459584797E+03 -0.36413608280E+02 -0.47229296979E+03  0.68484425456E+03  0.00000000000E+00 0.  1.
</event>
<event>
 5    1  0.4419198E-005  0.4685000E+02  0.7818608E-02  0.1305174E+00
         21   -1    0    0  501  502  0.00000000000E+00  0.00000000000E+00  0.12134564033E+02  0.12134564033E+02  0.00000000000E+00 0.  1.
         -4   -1    0    0    0  501 -0.00000000000E+00 -0.00000000000E+00 -0.38747105716E+03  0.38747105716E+03  0.00000000000E+00 0. -1.
        -13    1    1    2    0    0  0.42736327266E+02 -0.24640441699E+02 -0.11278839273E+03  0.12310474293E+03  0.10566000000E+00 0.  1.
         13    1    1    2    0    0 -0.48235530382E+02 -0.26184778231E+01 -0.22289084860E+03  0.22806548264E+03  0.10566000000E+00 0. -1.
         -4    1    1    2    0  502  0.54992031158E+01  0.27258919522E+02 -0.39657251798E+02  0.48435395617E+02  0.00000000000E+00 0. -1.
</event>
<event>
 5    1  0.4419198E-005  0.3130627E+03  0.7818608E-02  0.1002054E+00
         21   -1    0    0  501  502  0.00000000000E+00  0.00000000000E+00  0.52224472743E+02  0.52224472743E+02  0.00000000000E+00 0.  1.
         -4   -1    0    0    0  501 -0.00000000000E+00 -0.00000000000E+00 -0.25031286198E+04  0.25031286198E+04  0.00000000000E+00 0. -1.
        -13    1    1    2    0    0 -0.89779390932E+02  0.29768884104E+03 -0.61969344298E+03  0.69332457013E+03  0.10566000000E+00 0.  1.
         13    1    1    2    0    0  0.11036674645E+03 -0.29402193956E+03 -0.17604242477E+04  0.17882179014E+04  0.10566000000E+00 0. -1.
         -4    1    1    2    0  502 -0.20587355518E+02 -0.36669014852E+01 -0.70786456341E+02  0.73810621017E+02  0.00000000000E+00 0. -1.
</event>
<event>
 5    1  0.4419198E-005  0.2412281E+03  0.7818608E-02  0.1039094E+00
         -4   -1    0    0    0  501 -0.00000000000E+00  0.00000000000E+00  0.19206608828E+04  0.19206608828E+04  0.00000000000E+00 0. -1.
         21   -1    0    0  501  502  0.00000000000E+00 -0.00000000000E+00 -0.16439780531E+03  0.16439780531E+03  0.00000000000E+00 0.  1.
        -13    1    1    2    0    0 -0.10137980492E+03 -0.18756080011E+03 -0.28228350546E+01  0.21322499419E+03  0.10566000000E+00 0.  1.
         13    1    1    2    0    0 -0.95133064931E+02  0.31477840296E+03  0.14340604879E+04  0.14712801355E+04  0.10566000000E+00 0. -1.
         -4    1    1    2    0  502  0.19651286985E+03 -0.12721760285E+03  0.32502542461E+03  0.40055355839E+03  0.00000000000E+00 0. -1.
</event>
<event>
 5    1  0.4419198E-005  0.1418296E+03  0.7818608E-02  0.1109461E+00
         21   -1    0    0  501  502  0.00000000000E+00  0.00000000000E+00  0.21266188330E+03  0.21266188330E+03  0.00000000000E+00 0.  1.
         -4   -1    0    0    0  501 -0.00000000000E+00 -0.00000000000E+00 -0.23346437401E+03  0.23346437401E+03  0.00000000000E+00 0. -1.
        -13    1    1    2    0    0 -0.62948112937E+02  0.12990300023E+03  0.48022578583E+02  0.15212966052E+03  0.10566000000E+00 0.  1.
         13    1    1    2    0    0  0.51928705351E+02 -0.13132820789E+03 -0.15350866230E+03  0.20858717409E+03  0.10566000000E+00 0. -1.
         -4    1    1    2    0  502  0.11019407587E+02  0.14252076600E+01  0.84683593012E+02  0.85409422699E+02  0.00000000000E+00 0. -1.
</event>
<event>
 5    1  0.4419198E-005  0.1055409E+03  0.7818608E-02  0.1155700E+00
          4   -1    0    0  502    0 -0.00000000000E+00  0.00000000000E+00  0.63831762222E+03  0.63831762222E+03  0.00000000000E+00 0.  1.
         21   -1    0    0  501  502  0.00000000000E+00 -0.00000000000E+00 -0.20631833362E+03  0.20631833362E+03  0.00000000000E+00 0. -1.
        -13    1    1    2    0    0 -0.91256939844E+02 -0.53082074545E+02  0.61192552994E+03  0.62096570039E+03  0.10566000000E+00 0.  1.
         13    1    1    2    0    0  0.80854440355E+02  0.68881694074E+02 -0.11727881732E+03  0.15822913910E+03  0.10566000000E+00 0. -1.
          4    1    1    2  501    0  0.10402499489E+02 -0.15799619529E+02 -0.62647424020E+02  0.65441116351E+02  0.00000000000E+00 0.  1.
</event>
<event>
 5    1  0.4419198E-005  0.1585216E+03  0.7818608E-02  0.1114155E+00
          4   -1    0    0  502    0 -0.00000000000E+00  0.00000000000E+00  0.29216898287E+03  0.29216898287E+03  0.00000000000E+00 0.  1.
         21   -1    0    0  501  502  0.00000000000E+00 -0.00000000000E+00 -0.27756938068E+03  0.27756938068E+03  0.00000000000E+00 0.  1.
        -13    1    1    2    0    0 -0.19383812961E+03  0.10530080014E+03  0.29579155183E+02  0.22256777976E+03  0.10566000000E+00 0.  1.
         13    1    1    2    0    0  0.89535020247E+02 -0.53395926167E+01  0.11975712271E+03  0.14962222664E+03  0.10566000000E+00 0. -1.
          4    1    1    2  501    0  0.10430310937E+03 -0.99961207527E+02 -0.13473667570E+03  0.19754835715E+03  0.00000000000E+00 0.  1.
</event>
<event>
 5    1  0.4419198E-005  0.2741285E+03  0.7818608E-02  0.1033603E+00
         -4   -1    0    0    0  501 -0.00000000000E+00  0.00000000000E+00  0.12032242455E+04  0.12032242455E+04  0.00000000000E+00 0. -1.
         21   -1    0    0  501  502  0.00000000000E+00 -0.00000000000E+00 -0.30455196487E+03  0.30455196487E+03  0.00000000000E+00 0. -1.
        -13    1    1    2    0    0 -0.16304125515E+03 -0.54105733948E+02  0.17614626253E+03  0.24604348863E+03  0.10566000000E+00 0.  1.
         13    1    1    2    0    0 -0.15755482713E+02 -0.16827209520E+03  0.90656753560E+03  0.92218677123E+03  0.10566000000E+00 0. -1.
         -4    1    1    2    0  502  0.17879673787E+03  0.22237782915E+03 -0.18404151748E+03  0.33954595054E+03  0.00000000000E+00 0. -1.
</event>
<event>
 5    1  0.4419198E-005  0.2070108E+03  0.7818608E-02  0.1055433E+00
         -4   -1    0    0    0  501 -0.00000000000E+00  0.00000000000E+00  0.48397349522E+03  0.48397349522E+03  0.00000000000E+00 0. -1.
         21   -1    0    0  501  502  0.00000000000E+00 -0.00000000000E+00 -0.10003924196E+03  0.10003924196E+03  0.00000000000E+00 0.  1.
        -13    1    1    2    0    0  0.14463670127E+03 -0.15239730007E+03  0.17559473001E+03  0.27382153457E+03  0.10566000000E+00 0.  1.
         13    1    1    2    0    0 -0.14802582440E+03  0.14117117453E+03  0.21495567104E+03  0.29672697364E+03  0.10566000000E+00 0. -1.
         -4    1    1    2    0  502  0.33891231250E+01  0.11226125540E+02 -0.66161477910E+01  0.13464228971E+02  0.00000000000E+00 0. -1.
</event>
<event>
 5    1  0.4419198E-005  0.6069957E+03  0.7818608E-02  0.9270056E-01
         21   -1    0    0  501  502  0.00000000000E+00  0.00000000000E+00  0.32481909476E+03  0.32481909476E+03  0.00000000000E+00 0. -1.
         -4   -1    0    0    0  501 -0.00000000000E+00 -0.00000000000E+00 -0.24362539077E+04  0.24362539077E+04  0.00000000000E+00 0. -1.
        -13    1    1    2    0    0  0.73829124063E+02  0.57785202664E+03 -0.10864894052E+04  0.12328109924E+04  0.10566000000E+00 0.  1.
         13    1    1    2    0    0 -0.38872755082E+02 -0.63292596451E+03 -0.11913105095E+04  0.13495655260E+04  0.10566000000E+00 0. -1.
         -4    1    1    2    0  502 -0.34956368981E+02  0.55073937875E+02  0.16636510172E+03  0.17869648412E+03  0.00000000000E+00 0. -1.
</event>
<event>
 5    1  0.4419198E-005  0.4901929E+03  0.7818608E-02  0.9872027E-01
         21   -1    0    0  501  502  0.00000000000E+00  0.00000000000E+00  0.38733366561E+03  0.38733366561E+03  0.00000000000E+00 0.  1.
          4   -1    0    0  502    0 -0.00000000000E+00 -0.00000000000E+00 -0.87075388445E+03  0.87075388445E+03  0.00000000000E+00 0.  1.
        -13    1    1    2    0    0 -0.50390742378E+03 -0.77344066370E+02 -0.46510564054E+02  0.51192581501E+03  0.10566000000E+00 0.  1.
         13    1    1    2    0    0  0.73976049430E+02 -0.11101458849E+03 -0.12325384227E+03  0.18162658270E+03  0.10566000000E+00 0. -1.
          4    1    1    2  501    0  0.42993137435E+03  0.18835865486E+03 -0.31365581252E+03  0.56453515235E+03  0.00000000000E+00 0.  1.
</event>
<event>
 5    1  0.4419198E-005  0.4373407E+03  0.7818608E-02  0.9775517E-01
          4   -1    0    0  502    0 -0.00000000000E+00  0.00000000000E+00  0.13438146932E+04  0.13438146932E+04  0.00000000000E+00 0.  1.
         21   -1    0    0  501  502  0.00000000000E+00 -0.00000000000E+00 -0.30659657001E+03  0.30659657001E+03  0.00000000000E+00 0.  1.
        -13    1    1    2    0    0 -0.24083777698E+03 -0.52218154430E+02  0.77107010653E+03  0.80949286026E+03  0.10566000000E+00 0.  1.
         13    1    1    2    0    0 -0.25840751565E+03 -0.34846394999E+02  0.20252694187E+03  0.33016039850E+03  0.10566000000E+00 0. -1.
          4    1    1    2  501    0  0.49924529263E+03  0.87064549429E+02  0.63621074819E+02  0.51075800448E+03  0.00000000000E+00 0.  1.
</event>
<event>
 5    1  0.4419198E-005  0.4779857E+03  0.7818608E-02  0.9632103E-01
          4   -1    0    0  502    0 -0.00000000000E+00  0.00000000000E+00  0.23760263261E+04  0.23760263261E+04  0.00000000000E+00 0.  1.
         21   -1    0    0  501  502  0.00000000000E+00 -0.00000000000E+00 -0.21871431178E+03  0.21871431178E+03  0.00000000000E+00 0.  1.
        -13    1    1    2    0    0  0.29067472661E+03 -0.15071753018E+03  0.64188913577E+03  0.72057563405E+03  0.10566000000E+00 0.  1.
         13    1    1    2    0    0  0.32733330863E+03  0.33325834770E+02  0.10250325975E+04  0.10765451887E+04  0.10566000000E+00 0. -1.
          4    1    1    2  501    0 -0.61800803524E+03  0.11739169541E+03  0.49039028107E+03  0.79761981516E+03  0.00000000000E+00 0.  1.
</event>
<event>
 5    1  0.4419198E-005  0.7423334E+03  0.7818608E-02  0.9063730E-01
         21   -1    0    0  501  502  0.00000000000E+00  0.00000000000E+00  0.54467343169E+03  0.54467343169E+03  0.00000000000E+00 0. -1.
          4   -1    0    0  502    0 -0.00000000000E+00 -0.00000000000E+00 -0.16946807473E+04  0.16946807473E+04  0.00000000000E+00 0.  1.
        -13    1    1    2    0    0  0.57356706873E+03  0.51421219393E+03 -0.10436376422E+04  0.12971402785E+04  0.10566000000E+00 0.  1.
         13    1    1    2    0    0 -0.50676216204E+03 -0.47013000685E+03 -0.28405013644E+03  0.74733834599E+03  0.10566000000E+00 0. -1.
          4    1    1    2  501    0 -0.66804906693E+02 -0.44082187082E+02  0.17768046306E+03  0.19487555447E+03  0.00000000000E+00 0.  1.
</event>
<event>
 5    1  0.4419198E-005  0.2647524E+03  0.7818608E-02  0.1101192E+00
         21   -1    0    0  501  502  0.00000000000E+00  0.00000000000E+00  0.49941629559E+02  0.49941629559E+02  0.00000000000E+00 0. -1.
         -4   -1    0    0    0  501 -0.00000000000E+00 -0.00000000000E+00 -0.16302489281E+04  0.16302489281E+04  0.00000000000E+00 0. -1.
        -13    1    1    2    0    0  0.33149501469E+01  0.27017647887E+02 -0.11684200028E+03  0.11997085640E+03  0.10566000000E+00 0.  1.
         13    1    1    2    0    0  0.12037555578E+03  0.21859651094E+03 -0.88839005059E+03  0.92277386297E+03  0.10566000000E+00 0. -1.
         -4    1    1    2    0  502 -0.12369050592E+03 -0.24561415882E+03 -0.57507524765E+03  0.63744583827E+03  0.00000000000E+00 0. -1.
</event>
<event>
 5    1  0.4419198E-005  0.4130825E+03  0.7818608E-02  0.9839288E-01
         21   -1    0    0  501  502  0.00000000000E+00  0.00000000000E+00  0.43027402080E+03  0.43027402080E+03  0.00000000000E+00 0.  1.
          4   -1    0    0  502    0 -0.00000000000E+00 -0.00000000000E+00 -0.14004835734E+04  0.14004835734E+04  0.00000000000E+00 0.  1.
        -13    1    1    2    0    0  0.24883534176E+03 -0.25265123730E+03  0.72405039003E+02  0.36193117558E+03  0.10566000000E+00 0.  1.
         13    1    1    2    0    0  0.18618854955E+03 -0.16529775428E+03 -0.76547622558E+03  0.80494930688E+03  0.10566000000E+00 0. -1.
          4    1    1    2  501    0 -0.43502389131E+03  0.41794899158E+03 -0.27713836602E+03  0.66387711174E+03  0.00000000000E+00 0.  1.
</event>
<event>
 5    1  0.4419198E-005  0.1971904E+03  0.7818608E-02  0.1062079E+00
          4   -1    0    0  502    0 -0.00000000000E+00  0.00000000000E+00  0.58246179333E+03  0.58246179333E+03  0.00000000000E+00 0.  1.
         21   -1    0    0  501  502  0.00000000000E+00 -0.00000000000E+00 -0.84045951518E+03  0.84045951518E+03  0.00000000000E+00 0. -1.
        -13    1    1    2    0    0  0.53851710134E+02 -0.17196726621E+03  0.29739905438E+03  0.34773403061E+03  0.10566000000E+00 0.  1.
         13    1    1    2    0    0  0.58460981666E+02  0.26323703836E+03  0.18096049179E+03  0.32474318391E+03  0.10566000000E+00 0. -1.
          4    1    1    2  501    0 -0.11231269180E+03 -0.91269772153E+02 -0.73635726801E+03  0.75044409399E+03  0.00000000000E+00 0.  1.
</event>
<event>
 5    1  0.4419198E-005  0.4372287E+03  0.7818608E-02  0.1002401E+00
         21   -1    0    0  501  502  0.00000000000E+00  0.00000000000E+00  0.23954631368E+03  0.23954631368E+03  0.00000000000E+00 0.  1.
          4   -1    0    0  502    0 -0.00000000000E+00 -0.00000000000E+00 -0.16917639871E+04  0.16917639871E+04  0.00000000000E+00 0.  1.
        -13    1    1    2    0    0  0.27717103898E+03 -0.37500133816E+03 -0.82617854140E+02  0.47357735319E+03  0.10566000000E+00 0.  1.
         13    1    1    2    0    0 -0.74803000480E+02  0.85534974204E+02 -0.60395183920E+03  0.61454825354E+03  0.10566000000E+00 0. -1.
          4    1    1    2  501    0 -0.20236803850E+03  0.28946636396E+03 -0.76564798008E+03  0.84318469405E+03  0.00000000000E+00 0.  1.
</event>
<event>
 5    1  0.4419198E-005  0.1510286E+03  0.7818608E-02  0.1100102E+00
         21   -1    0    0  501  502  0.00000000000E+00  0.00000000000E+00  0.36325822908E+02  0.36325822908E+02  0.00000000000E+00 0.  1.
         -4   -1    0    0    0  501 -0.00000000000E+00 -0.00000000000E+00 -0.11577927093E+04  0.11577927093E+04  0.00000000000E+00 0. -1.
        -13    1    1    2    0    0  0.97308273058E+01  0.13487702501E+03 -0.21972661571E+03  0.25800445285E+03  0.10566000000E+00 0.  1.
         13    1    1    2    0    0 -0.22927611787E+02 -0.15504787168E+03 -0.89817478832E+03  0.91174748666E+03  0.10566000000E+00 0. -1.
         -4    1    1    2    0  502  0.13196784481E+02  0.20170846669E+02 -0.35654823823E+01  0.24366592717E+02  0.00000000000E+00 0. -1.
</event>
<event>
 5    1  0.4419198E-005  0.1210334E+03  0.7818608E-02  0.1133798E+00
         -4   -1    0    0    0  501 -0.00000000000E+00  0.00000000000E+00  0.10419914580E+03  0.10419914580E+03  0.00000000000E+00 0. -1.
         21   -1    0    0  501  502  0.00000000000E+00 -0.00000000000E+00 -0.18430856053E+03  0.18430856053E+03  0.00000000000E+00 0.  1.
        -13    1    1    2    0    0 -0.10416783731E+03 -0.69526188304E+02 -0.50677006982E+02  0.13510366164E+03  0.10566000000E+00 0.  1.
         13    1    1    2    0    0  0.10315885086E+03  0.58423339368E+02  0.35308224352E+01  0.11860654689E+03  0.10566000000E+00 0. -1.
         -4    1    1    2    0  502  0.10089864420E+01  0.11102848936E+02 -0.32963230188E+02  0.34797497792E+02  0.00000000000E+00 0. -1.
</event>
<event>
 5    1  0.4419198E-005  0.3313873E+03  0.7818608E-02  0.1013448E+00
         -4   -1    0    0    0  501 -0.00000000000E+00  0.00000000000E+00  0.21668675824E+04  0.21668675824E+04  0.00000000000E+00 0. -1.
         21   -1    0    0  501  502  0.00000000000E+00 -0.00000000000E+00 -0.11625620299E+04  0.11625620299E+04  0.00000000000E+00 0. -1.
        -13    1    1    2    0    0  0.29697165193E+03  0.49055864905E+03  0.18242198112E+04  0.19122285117E+04  0.10566000000E+00 0.  1.
         13    1    1    2    0    0 -0.69586108661E+02 -0.10656783593E+03  0.23751123678E+03  0.26946340927E+03  0.10566000000E+00 0. -1.
         -4    1    1    2    0  502 -0.22738554327E+03 -0.38399081311E+03 -0.10574254954E+04  0.11477376914E+04  0.00000000000E+00 0. -1.
</event>
<event>
 5    1  0.4419198E-005  0.2447917E+02  0.7818608E-02  0.1455660E+00
          4   -1    0    0  502    0 -0.00000000000E+00  0.00000000000E+00  0.29898408473E+02  0.29898408473E+02  0.00000000000E+00 0.  1.
         21   -1    0    0  501  502  0.00000000000E+00 -0.00000000000E+00 -0.45897453669E+02  0.45897453669E+02  0.00000000000E+00 0. -1.
        -13    1    1    2    0    0 -0.25008842731E+02  0.42928995468E+01  0.44639077933E+01  0.25764487926E+02  0.10566000000E+00 0.  1.
         13    1    1    2    0    0  0.23232756871E+02  0.14023232937E+02 -0.10433860390E+02  0.29073848395E+02  0.10566000000E+00 0. -1.
          4    1    1    2  501    0  0.17760858599E+01 -0.18316132484E+02 -0.10029092599E+02  0.20957525820E+02  0.00000000000E+00 0.  1.
</event>
<event>
 5    1  0.4419198E-005  0.1169147E+03  0.7818608E-02  0.1139254E+00
         21   -1    0    0  501  502  0.00000000000E+00  0.00000000000E+00  0.21871495500E+03  0.21871495500E+03  0.00000000000E+00 0. -1.
          4   -1    0    0  502    0 -0.00000000000E+00 -0.00000000000E+00 -0.20015961525E+03  0.20015961525E+03  0.00000000000E+00 0.  1.
        -13    1    1    2    0    0 -0.11831698956E+03 -0.26059496574E+02 -0.15906666387E+03  0.19995054914E+03  0.10566000000E+00 0.  1.
         13    1    1    2    0    0  0.86233338925E+02  0.37105917863E+01  0.14118073347E+03  0.16547497666E+03  0.10566000000E+00 0. -1.
          4    1    1    2  501    0  0.32083650634E+02  0.22348904788E+02  0.36441270146E+02  0.53449044455E+02  0.00000000000E+00 0.  1.
</event>
<event>
 5    1  0.4419198E-005  0.3051612E+03  0.7818608E-02  0.1036731E+00
         -4   -1    0    0    0  501 -0.00000000000E+00  0.00000000000E+00  0.25205533884E+03  0.25205533884E+03  0.00000000000E+00 0. -1.
         21   -1    0    0  501  502  0.00000000000E+00 -0.00000000000E+00 -0.11945783984E+04  0.11945783984E+04  0.00000000000E+00 0. -1.
        -13    1    1    2    0    0 -0.10405397098E+03 -0.44489210768E+02 -0.68560814600E+02  0.13231445580E+03  0.10566000000E+00 0.  1.
         13    1    1    2    0    0 -0.10705603930E+03  0.27037379252E+03  0.88057707891E+02  0.30383738137E+03  0.10566000000E+00 0. -1.
         -4    1    1    2    0  502  0.21111001027E+03 -0.22588458176E+03 -0.96201995287E+03  0.10104819001E+04  0.00000000000E+00 0. -1.
</event>
<event>
 5    1  0.4419198E-005  0.4397015E+03  0.7818608E-02  0.9981530E-01
         21   -1    0    0  501  502  0.00000000000E+00  0.00000000000E+00  0.50374121520E+03  0.50374121520E+03  0.00000000000E+00 0. -1.
         -4   -1    0    0    0  501 -0.00000000000E+00 -0.00000000000E+00 -0.80187977403E+03  0.80187977403E+03  0.00000000000E+00 0. -1.
        -13    1    1    2    0    0  0.63413521512E+02 -0.11164909158E+03 -0.19597071917E+03  0.23428898459E+03  0.10566000000E+00 0.  1.
         13    1    1    2    0    0 -0.45974242318E+03 -0.70967405713E+02 -0.33827221572E+03  0.57517612210E+03  0.10566000000E+00 0. -1.
         -4    1    1    2    0  502  0.39632890167E+03  0.18261649730E+03  0.23610437606E+03  0.49615588254E+03  0.00000000000E+00 0. -1.
</event>
<event>
 5    1  0.4419198E-005  0.9500857E+02  0.7818608E-02  0.1173089E+00
         21   -1    0    0  501  502  0.00000000000E+00  0.00000000000E+00  0.31100449953E+03  0.31100449953E+03  0.00000000000E+00 0.  1.
         -4   -1    0    0    0  501 -0.00000000000E+00 -0.00000000000E+00 -0.25813318660E+03  0.25813318660E+03  0.00000000000E+00 0. -1.
        -13    1    1    2    0    0 -0.13521430976E+02  0.10680798838E+03  0.18923874075E+03  0.21772020494E+03  0.10566000000E+00 0.  1.
         13    1    1    2    0    0  0.27508173780E+02 -0.90410631878E+02 -0.23351244606E+03  0.25191041187E+03  0.10566000000E+00 0. -1.
         -4    1    1    2    0  502 -0.13986742803E+02 -0.16397356500E+02  0.97145018239E+02  0.99507069312E+02  0.00000000000E+00 0. -1.
</event>
<event>
 5    1  0.4419198E-005  0.2228874E+03  0.7818608E-02  0.1045485E+00
          4   -1    0    0  502    0 -0.00000000000E+00  0.00000000000E+00  0.16390849713E+04  0.16390849713E+04  0.00000000000E+00 0.  1.
         21   -1    0    0  501  502  0.00000000000E+00 -0.00000000000E+00 -0.84527041967E+02  0.84527041967E+02  0.00000000000E+00 0.  1.
        -13    1    1    2    0    0  0.20268526058E+03  0.81476564389E+02  0.12365183501E+04  0.12556661128E+04  0.10566000000E+00 0.  1.
         13    1    1    2    0    0 -0.24666665403E+03 -0.33423401455E+02  0.31666673799E+03  0.40278951834E+03  0.10566000000E+00 0. -1.
          4    1    1    2  501    0  0.43981393457E+02 -0.48053162935E+02  0.13728411913E+01  0.65156382123E+02  0.00000000000E+00 0.  1.
</event>
<event>
 5    1  0.4419198E-005  0.4697704E+03  0.7818608E-02  0.9588878E-01
         -4   -1    0    0    0  501 -0.00000000000E+00  0.00000000000E+00  0.26859230239E+04  0.26859230239E+04  0.00000000000E+00 0. -1.
         21   -1    0    0  501  502  0.00000000000E+00 -0.00000000000E+00 -0.23683971432E+03  0.23683971432E+03  0.00000000000E+00 0. -1.
        -13    1    1    2    0    0  0.11531253341E+03  0.38725867147E+03  0.12023521965E+04  0.12684309499E+04  0.10566000000E+00 0.  1.
         13    1    1    2    0    0 -0.54637837291E+03 -0.21963097981E+03  0.90314822366E+03  0.10781668789E+04  0.10566000000E+00 0. -1.
         -4    1    1    2    0  502  0.43106583950E+03 -0.16762769165E+03  0.34358288944E+03  0.57616490948E+03  0.00000000000E+00 0. -1.
</event>
<event>
 5    1  0.4419198E-005  0.4396812E+02  0.7818608E-02  0.1318508E+00
         -4   -1    0    0    0  501 -0.00000000000E+00  0.00000000000E+00  0.55211999961E+02  0.55211999961E+02  0.00000000000E+00 0. -1.
         21   -1    0    0  501  502  0.00000000000E+00 -0.00000000000E+00 -0.89075840882E+02  0.89075840882E+02  0.00000000000E+00 0.  1.
        -13    1    1    2    0    0 -0.82759735110E+01  0.53306833967E+02 -0.37385434094E+02  0.65633772797E+02  0.10566000000E+00 0.  1.
         13    1    1    2    0    0  0.25593512448E+02 -0.34105945256E+02  0.20912432937E+02  0.47492993132E+02  0.10566000000E+00 0. -1.
         -4    1    1    2    0  502 -0.17317538937E+02 -0.19200888711E+02 -0.17390839764E+02  0.31161074914E+02  0.00000000000E+00 0. -1.
</event>
<event>
 5    1  0.4419198E-005  0.1944208E+03  0.7818608E-02  0.1064029E+00
         21   -1    0    0  501  502  0.00000000000E+00  0.00000000000E+00  0.86194717068E+02  0.86194717068E+02  0.00000000000E+00 0.  1.
         -4   -1    0    0    0  501 -0.00000000000E+00 -0.00000000000E+00 -0.90044623566E+03  0.90044623566E+03  0.00000000000E+00 0. -1.
        -13    1    1    2    0    0 -0.16607815685E+03 -0.11994774299E+03 -0.40906452217E+03  0.45749667725E+03  0.10566000000E+00 0.  1.
         13    1    1    2    0    0  0.65210995137E+02  0.18723460567E+03 -0.15691825435E+03  0.25284900862E+03  0.10566000000E+00 0. -1.
         -4    1    1    2    0  502  0.10086716171E+03 -0.67286862686E+02 -0.24826874207E+03  0.27629526686E+03  0.00000000000E+00 0. -1.
</event>
<event>
 5    1  0.4419198E-005  0.1970446E+03  0.7818608E-02  0.1062181E+00
          4   -1    0    0  502    0 -0.00000000000E+00  0.00000000000E+00  0.76103360516E+03  0.76103360516E+03  0.00000000000E+00 0.  1.
         21   -1    0    0  501  502  0.00000000000E+00 -0.00000000000E+00 -0.32246081196E+03  0.32246081196E+03  0.00000000000E+00 0.  1.
        -13    1    1    2    0    0  0.23697719109E+02 -0.20282547519E+03  0.63428135434E+03  0.66634270680E+03  0.10566000000E+00 0.  1.
         13    1    1    2    0    0  0.10580169227E+02  0.16930340494E+03  0.41918391235E+02  0.17473621717E+03  0.10566000000E+00 0. -1.
          4    1    1    2  501    0 -0.34277888336E+02  0.33522070255E+02 -0.23762695237E+03  0.24241549314E+03  0.00000000000E+00 0.  1.
</event>
<event>
 5    1  0.4419198E-005  0.4991265E+03  0.7818608E-02  0.9889576E-01
         21   -1    0    0  501  502  0.00000000000E+00  0.00000000000E+00  0.11455293173E+03  0.11455293173E+03  0.00000000000E+00 0.  1.
          4   -1    0    0  502    0 -0.00000000000E+00 -0.00000000000E+00 -0.28806568025E+04  0.28806568025E+04  0.00000000000E+00 0.  1.
        -13    1    1    2    0    0 -0.44047604536E+03  0.10885026876E+03 -0.10320969189E+04  0.11274269771E+04  0.10566000000E+00 0.  1.
         13    1    1    2    0    0 -0.77854753687E+02  0.90177091568E+02 -0.51003333896E+03  0.52376262613E+03  0.10566000000E+00 0. -1.
          4    1    1    2  501    0  0.51833079905E+03 -0.19902736033E+03 -0.12239736129E+04  0.13440201310E+04  0.00000000000E+00 0.  1.
</event>
<event>
 5    1  0.4419198E-005  0.4368730E+03  0.7818608E-02  0.9699447E-01
         -4   -1    0    0    0  501 -0.00000000000E+00  0.00000000000E+00  0.38386968083E+03  0.38386968083E+03  0.00000000000E+00 0. -1.
         21   -1    0    0  501  502  0.00000000000E+00 -0.00000000000E+00 -0.12549931727E+04  0.12549931727E+04  0.00000000000E+00 0. -1.
        -13    1    1    2    0    0 -0.33702080406E+03  0.46867615267E+02 -0.16658893789E+03  0.37885548844E+03  0.10566000000E+00 0.  1.
         13    1    1    2    0    0  0.44220781260E+03 -0.42523163148E+03 -0.25850202399E+03  0.66572741982E+03  0.10566000000E+00 0. -1.
         -4    1    1    2    0  502 -0.10518700854E+03  0.37836401621E+03 -0.44603252996E+03  0.59427994523E+03  0.00000000000E+00 0. -1.
</event>
<event>
 5    1  0.4419198E-005  0.4679249E+03  0.7818608E-02  0.9815741E-01
         21   -1    0    0  501  502  0.00000000000E+00  0.00000000000E+00  0.44399737945E+03  0.44399737945E+03  0.00000000000E+00 0. -1.
         -4   -1    0    0    0  501 -0.00000000000E+00 -0.00000000000E+00 -0.11924831484E+04  0.11924831484E+04  0.00000000000E+00 0. -1.
        -13    1    1    2    0    0  0.12522861466E+02 -0.18512594732E+03 -0.61160555752E+03  0.63913207366E+03  0.10566000000E+00 0.  1.
         13    1    1    2    0    0  0.27838028005E+03 -0.30454780120E+03 -0.46440803709E+01  0.41263364160E+03  0.10566000000E+00 0. -1.
         -4    1    1    2    0  502 -0.29090314151E+03  0.48967374853E+03 -0.13223613110E+03  0.58471481263E+03  0.00000000000E+00 0. -1.
</event>
<event>
 5    1  0.4419198E-005  0.4943973E+03  0.7818608E-02  0.9565833E-01
         -4   -1    0    0    0  501 -0.00000000000E+00  0.00000000000E+00  0.30850844672E+04  0.30850844672E+04  0.00000000000E+00 0. -1.
         21   -1    0    0  501  502  0.00000000000E+00 -0.00000000000E+00 -0.17828366192E+03  0.17828366192E+03  0.00000000000E+00 0. -1.
        -13    1    1    2    0    0  0.22952932338E+03 -0.29831853317E+03  0.10705054793E+04  0.11347509198E+04  0.10566000000E+00 0.  1.
         13    1    1    2    0    0  0.31121625720E+03 -0.29138982718E+02  0.11663048565E+04  0.12074649761E+04  0.10566000000E+00 0. -1.
         -4    1    1    2    0  502 -0.54074558059E+03  0.32745751588E+03  0.66999046944E+03  0.92115223323E+03  0.00000000000E+00 0. -1.
</event>
<event>
 5    1  0.4419198E-005  0.4440884E+03  0.7818608E-02  0.9640465E-01
          4   -1    0    0  502    0 -0.00000000000E+00  0.00000000000E+00  0.50951121484E+03  0.50951121484E+03  0.00000000000E+00 0.  1.
         21   -1    0    0  501  502  0.00000000000E+00 -0.00000000000E+00 -0.11959972791E+04  0.11959972791E+04  0.00000000000E+00 0. -1.
        -13    1    1    2    0    0  0.78409106633E+01 -0.16964425500E+03  0.17141762894E+03  0.24129788190E+03  0.10566000000E+00 0.  1.
         13    1    1    2    0    0 -0.19182069744E+03 -0.34910446783E+03  0.51057236476E+02  0.40159178525E+03  0.10566000000E+00 0. -1.
          4    1    1    2  501    0  0.18397978677E+03  0.51874872282E+03 -0.90896092966E+03  0.10626188268E+04  0.00000000000E+00 0.  1.
</event>
<event>
 5    1  0.4419198E-005  0.4966708E+03  0.7818608E-02  0.9754560E-01
         21   -1    0    0  501  502  0.00000000000E+00  0.00000000000E+00  0.44660696685E+03  0.44660696685E+03  0.00000000000E+00 0. -1.
         -4   -1    0    0    0  501 -0.00000000000E+00 -0.00000000000E+00 -0.86475074006E+03  0.86475074006E+03  0.00000000000E+00 0. -1.
        -13    1    1    2    0    0 -0.19119977970E+03 -0.68185081477E+01 -0.17763594683E+03  0.26107161581E+03  0.10566000000E+00 0.  1.
         13    1    1    2    0    0  0.41111925281E+02  0.49582474462E+03 -0.20314901622E+03  0.53740292308E+03  0.10566000000E+00 0. -1.
         -4    1    1    2    0  502  0.15008785442E+03 -0.48900623647E+03 -0.37358810146E+02  0.51288316803E+03  0.00000000000E+00 0. -1.
</event>
<event>
 5    1  0.4419198E-005  0.4768181E+03  0.7818608E-02  0.9633955E-01
          4   -1    0    0  502    0 -0.00000000000E+00  0.00000000000E+00  0.17484362474E+04  0.17484362474E+04  0.00000000000E+00 0.  1.
         21   -1    0    0  501  502  0.00000000000E+00 -0.00000000000E+00 -0.28517316175E+03  0.28517316175E+03  0.00000000000E+00 0.  1.
        -13    1    1    2    0    0 -0.45390028560E+03  0.13991201023E+03  0.89494399412E+03  0.10131759984E+04  0.10566000000E+00 0.  1.
         13    1    1    2    0    0  0.16291783660E+03  0.28615937912E+03  0.18521988159E+03  0.37780395371E+03  0.10566000000E+00 0. -1.
          4    1    1    2  501    0  0.29098244901E+03 -0.42607138935E+03  0.38309920994E+03  0.64262945708E+03  0.00000000000E+00 0.  1.
</event>
<event>
 5    1  0.4419198E-005  0.3947119E+03  0.7818608E-02  0.9994684E-01
         21   -1    0    0  501  502  0.00000000000E+00  0.00000000000E+00  0.13916957184E+03  0.13916957184E+03  0.00000000000E+00 0.  1.
          4   -1    0    0  502    0 -0.00000000000E+00 -0.00000000000E+00 -0.27042468358E+04  0.27042468358E+04  0.00000000000E+00 0.  1.
        -13    1    1    2    0    0 -0.52938201299E+03 -0.36211121524E+02 -0.15320277036E+04  0.16213159645E+04  0.10566000000E+00 0.  1.
         13    1    1    2    0    0  0.16996474602E+03 -0.31482479864E+01 -0.73239072349E+03  0.75186043211E+03  0.10566000000E+00 0. -1.
          4    1    1    2  501    0  0.35941726697E+03  0.39359369510E+02 -0.30065883682E+03  0.47024001097E+03  0.00000000000E+00 0.  1.
</event>
<event>
 5    1  0.4419198E-005  0.4228018E+03  0.7818608E-02  0.9801410E-01
          4   -1    0    0  502    0 -0.00000000000E+00  0.00000000000E+00  0.82004361239E+03  0.82004361239E+03  0.00000000000E+00 0.  1.
         21   -1    0    0  501  502  0.00000000000E+00 -0.00000000000E+00 -0.62414843142E+03  0.62414843142E+03  0.00000000000E+00 0.  1.
        -13    1    1    2    0    0  0.20450331204E+03  0.23650839208E+03  0.27014759066E+03  0.41320401264E+03  0.10566000000E+00 0.  1.
         13    1    1    2    0    0  0.24541421312E+03 -0.97608002279E+02  0.32137367419E+03  0.41597657114E+03  0.10566000000E+00 0. -1.
          4    1    1    2  501    0 -0.44991752515E+03 -0.13890038980E+03 -0.39562608388E+03  0.61501146003E+03  0.00000000000E+00 0.  1.
</event>
<event>
 5    1  0.4419198E-005  0.5923775E+03  0.7818608E-02  0.9295687E-01
          4   -1    0    0  502    0 -0.00000000000E+00  0.00000000000E+00  0.14213841908E+04  0.14213841908E+04  0.00000000000E+00 0.  1.
         21   -1    0    0  501  502  0.00000000000E+00 -0.00000000000E+00 -0.46546260198E+03  0.46546260198E+03  0.00000000000E+00 0.  1.
        -13    1    1    2    0    0 -0.10083484465E+03 -0.71589980967E+03  0.65149286525E+03  0.97320253186E+03  0.10566000000E+00 0.  1.
         13    1    1    2    0    0  0.29175886365E+02  0.49858418957E+03  0.42428589950E+03  0.65532889614E+03  0.10566000000E+00 0. -1.
          4    1    1    2  501    0  0.71658958286E+02  0.21731562010E+03 -0.11985717595E+03  0.25831536476E+03  0.00000000000E+00 0.  1.
</event>
<event>
 5    1  0.4419198E-005  0.3952149E+03  0.7818608E-02  0.1002182E+00
         21   -1    0    0  501  502  0.00000000000E+00  0.00000000000E+00  0.10397567321E+04  0.10397567321E+04  0.00000000000E+00 0.  1.
          4   -1    0    0  502    0 -0.00000000000E+00 -0.00000000000E+00 -0.34698798682E+03  0.34698798682E+03  0.00000000000E+00 0.  1.
        -13    1    1    2    0    0 -0.38808474943E+03 -0.11735969668E+03  0.74932635224E+03  0.85198184515E+03  0.10566000000E+00 0.  1.
         13    1    1    2    0    0  0.13108408685E+02  0.15440195703E+03 -0.15461099627E+02  0.15572684894E+03  0.10566000000E+00 0. -1.
          4    1    1    2  501    0  0.37497634074E+03 -0.37042260350E+02 -0.41096507380E+02  0.37903602479E+03  0.00000000000E+00 0.  1.
</event>
<event>
 5    1  0.4419198E-005  0.1019157E+03  0.7818608E-02  0.1161424E+00
          4   -1    0    0  502    0 -0.00000000000E+00  0.00000000000E+00  0.10074655902E+03  0.10074655902E+03  0.00000000000E+00 0.  1.
         21   -1    0    0  501  502  0.00000000000E+00 -0.00000000000E+00 -0.57603983647E+03  0.57603983647E+03  0.00000000000E+00 0.  1.
        -13    1    1    2    0    0 -0.10263968674E+03 -0.29784224148E+02  0.45393512223E+02  0.11611454439E+03  0.10566000000E+00 0.  1.
         13    1    1    2    0    0  0.42529895965E+02  0.97928526594E+02 -0.19235694678E+03  0.21999998752E+03  0.10566000000E+00 0. -1.
          4    1    1    2  501    0  0.60109790774E+02 -0.68144302446E+02 -0.32832984290E+03  0.34067186359E+03  0.00000000000E+00 0.  1.
</event>
<event>
 5    1  0.4419198E-005  0.3039485E+03  0.7818608E-02  0.1005689E+00
          4   -1    0    0  502    0 -0.00000000000E+00  0.00000000000E+00  0.56343416750E+03  0.56343416750E+03  0.00000000000E+00 0.  1.
         21   -1    0    0  501  502  0.00000000000E+00 -0.00000000000E+00 -0.63515420912E+03  0.63515420912E+03  0.00000000000E+00 0.  1.
        -13    1    1    2    0    0 -0.23824815175E+03 -0.15603352064E+03 -0.10989278545E+03  0.30526230824E+03  0.10566000000E+00 0.  1.
         13    1    1    2    0    0  0.22507533932E+03  0.21262137487E+03  0.41179652517E+03  0.51521174941E+03  0.10566000000E+00 0. -1.
          4    1    1    2  501    0  0.13172812429E+02 -0.56587854235E+02 -0.37362378133E+03  0.37811431897E+03  0.00000000000E+00 0.  1.
</event>
<event>
 5    1  0.4419198E-005  0.3650477E+03  0.7818608E-02  0.1000058E+00
         21   -1    0    0  501  502  0.00000000000E+00  0.00000000000E+00  0.75520977389E+03  0.75520977389E+03  0.00000000000E+00 0. -1.
         -4   -1    0    0    0  501 -0.00000000000E+00 -0.00000000000E+00 -0.71076901796E+03  0.71076901796E+03  0.00000000000E+00 0. -1.
        -13    1    1    2    0    0 -0.29054718427E+02  0.20876995880E+03 -0.32414343745E+03  0.38664977895E+03  0.10566000000E+00 0.  1.
         13    1    1    2    0    0 -0.64068954218E+02  0.32482291142E+03  0.42049150401E+03  0.53518956529E+03  0.10566000000E+00 0. -1.
         -4    1    1    2    0  502  0.93123672645E+02 -0.53359287022E+03 -0.51907310639E+02  0.54413944762E+03  0.00000000000E+00 0. -1.
</event>
<event>
 5    1  0.4419198E-005  0.1022730E+03  0.7818608E-02  0.1160849E+00
         21   -1    0    0  501  502  0.00000000000E+00  0.00000000000E+00  0.14976984434E+02  0.14976984434E+02  0.00000000000E+00 0.  1.
         -4   -1    0    0    0  501 -0.00000000000E+00 -0.00000000000E+00 -0.12013408164E+04  0.12013408164E+04  0.00000000000E+00 0. -1.
        -13    1    1    2    0    0 -0.78671076532E+02  0.71412166939E+02 -0.62840255091E+03  0.63732143619E+03  0.10566000000E+00 0.  1.
         13    1    1    2    0    0  0.81182212555E+02 -0.56329658513E+02 -0.55460978082E+03  0.56334323659E+03  0.10566000000E+00 0. -1.
         -4    1    1    2    0  502 -0.25111360231E+01 -0.15082508426E+02 -0.33515002498E+01  0.15653128073E+02  0.00000000000E+00 0. -1.
</event>
<event>
 5    1  0.4419198E-005  0.4938272E+03  0.7818608E-02  0.9491605E-01
         21   -1    0    0  501  502  0.00000000000E+00  0.00000000000E+00  0.14151127723E+04  0.14151127723E+04  0.00000000000E+00 0.  1.
          4   -1    0    0  502    0 -0.00000000000E+00 -0.00000000000E+00 -0.59858960994E+03  0.59858960994E+03  0.00000000000E+00 0.  1.
        -13    1    1    2    0    0 -0.93895527770E+02 -0.48808859637E+03 -0.14323261495E+03  0.51726438229E+03  0.10566000000E+00 0.  1.
         13    1    1    2    0    0 -0.38490919155E+03  0.50794665359E+03  0.37146357287E+03  0.73766529386E+03  0.10566000000E+00 0. -1.
          4    1    1    2  501    0  0.47880471932E+03 -0.19858057221E+02  0.58829220446E+03  0.75877270610E+03  0.00000000000E+00 0.  1.
</event>
<event>
 5    1  0.4419198E-005  0.4558039E+03  0.7818608E-02  0.9580486E-01
         21   -1    0    0  501  502  0.00000000000E+00  0.00000000000E+00  0.45888250092E+03  0.45888250092E+03  0.00000000000E+00 0. -1.
         -4   -1    0    0    0  501 -0.00000000000E+00 -0.00000000000E+00 -0.18803948814E+04  0.18803948814E+04  0.00000000000E+00 0. -1.
        -13    1    1    2    0    0 -0.92312219843E+02 -0.43842278309E+03 -0.11462844301E+04  0.12307331508E+04  0.10566000000E+00 0.  1.
         13    1    1    2    0    0 -0.25321286347E+03  0.56492870288E+03  0.45057361083E+02  0.62071843095E+03  0.10566000000E+00 0. -1.
         -4    1    1    2    0  502  0.34552508332E+03 -0.12650591980E+03 -0.32028531147E+03  0.48782580055E+03  0.00000000000E+00 0. -1.
</event>
<event>
 5    1  0.4419198E-005  0.4540057E+03  0.7818608E-02  0.1024264E+00
         -4   -1    0    0    0  501 -0.00000000000E+00  0.00000000000E+00  0.30101214249E+03  0.30101214249E+03  0.00000000000E+00 0. -1.
         21   -1    0    0  501  502  0.00000000000E+00 -0.00000000000E+00 -0.99215204611E+03  0.99215204611E+03  0.00000000000E+00 0. -1.
        -13    1    1    2    0    0 -0.43554751740E+02 -0.25552231189E+02  0.65709881561E+02  0.82871784201E+02  0.10566000000E+00 0.  1.
         13    1    1    2    0    0 -0.15825940816E+03 -0.40995210232E+03 -0.50084146068E+03  0.66629493947E+03  0.10566000000E+00 0. -1.
         -4    1    1    2    0  502  0.20181415990E+03  0.43550433351E+03 -0.25600832450E+03  0.54399746493E+03  0.00000000000E+00 0. -1.
</event>
<event>
 5    1  0.4419198E-005  0.3078753E+03  0.7818608E-02  0.1004107E+00
          4   -1    0    0  502    0 -0.00000000000E+00  0.00000000000E+00  0.21629392992E+04  0.21629392992E+04  0.00000000000E+00 0.  1.
         21   -1    0    0  501  502  0.00000000000E+00 -0.00000000000E+00 -0.41429876410E+03  0.41429876410E+03  0.00000000000E+00 0.  1.
        -13    1    1    2    0    0  0.46233873558E+02 -0.12358032974E+03 -0.37286782075E+03  0.39552508375E+03  0.10566000000E+00 0.  1.
         13    1    1    2    0    0 -0.17191955378E+03  0.26484501236E+03  0.14573414801E+04  0.14911550605E+04  0.10566000000E+00 0. -1.
          4    1    1    2  501    0  0.12568568022E+03 -0.14126468262E+03  0.66416687574E+03  0.69055791908E+03  0.00000000000E+00 0.  1.
</event>
<event>
 5    1  0.4419198E-005  0.4115998E+03  0.7818608E-02  0.9696130E-01
          4   -1    0    0  502    0 -0.00000000000E+00  0.00000000000E+00  0.24499544752E+04  0.24499544752E+04  0.00000000000E+00 0.  1.
         21   -1    0    0  501  502  0.00000000000E+00 -0.00000000000E+00 -0.27284169256E+03  0.27284169256E+03  0.00000000000E+00 0.  1.
        -13    1    1    2    0    0 -0.41730634275E+03  0.30570214950E+03  0.97616095644E+03  0.11047572638E+04  0.10566000000E+00 0.  1.
         13    1    1    2    0    0  0.39646013582E+03  0.27501147100E+02  0.12205399051E+04  0.12836099966E+04  0.10566000000E+00 0. -1.
          4    1    1    2  501    0  0.20846206929E+02 -0.33320329660E+03 -0.19588078895E+02  0.33442890731E+03  0.00000000000E+00 0.  1.
</event>
<event>
 5    1  0.4419198E-005  0.1664341E+03  0.7818608E-02  0.1138653E+00
         21   -1    0    0  501  502  0.00000000000E+00  0.00000000000E+00  0.20471045833E+03  0.20471045833E+03  0.00000000000E+00 0.  1.
          4   -1    0    0  502    0 -0.00000000000E+00 -0.00000000000E+00 -0.17482480620E+03  0.17482480620E+03  0.00000000000E+00 0.  1.
        -13    1    1    2    0    0 -0.13495169222E+03 -0.11446716452E+03  0.31374207247E+02  0.17971934518E+03  0.10566000000E+00 0.  1.
         13    1    1    2    0    0  0.39973797702E+02 -0.97582605544E+01  0.11998937348E+02  0.42861565689E+02  0.10566000000E+00 0. -1.
          4    1    1    2  501    0  0.94977894520E+02  0.12422542507E+03 -0.13487492465E+02  0.15695435367E+03  0.00000000000E+00 0.  1.
</event>
<event>
 5    1  0.4419198E-005  0.1721083E+03  0.7818608E-02  0.1081144E+00
          4   -1    0    0  502    0 -0.00000000000E+00  0.00000000000E+00  0.49154002363E+03  0.49154002363E+03  0.00000000000E+00 0.  1.
         21   -1    0    0  501  502  0.00000000000E+00 -0.00000000000E+00 -0.47965451824E+03  0.47965451824E+03  0.00000000000E+00 0.  1.
        -13    1    1    2    0    0 -0.17154552526E+03  0.28011271973E+02  0.40678601711E+03  0.44236565585E+03  0.10566000000E+00 0.  1.
         13    1    1    2    0    0  0.16107761151E+03 -0.22510466221E+02 -0.32031376244E+02  0.16576712053E+03  0.10566000000E+00 0. -1.
          4    1    1    2  501    0  0.10467913750E+02 -0.55008057522E+01 -0.36286913547E+03  0.36306176549E+03  0.00000000000E+00 0.  1.
</event>
<event>
 5    1  0.4419198E-005  0.2895448E+03  0.7818608E-02  0.1011717E+00
          4   -1    0    0  502    0 -0.00000000000E+00  0.00000000000E+00  0.24692140543E+04  0.24692140543E+04  0.00000000000E+00 0.  1.
         21   -1    0    0  501  502  0.00000000000E+00 -0.00000000000E+00 -0.61467606476E+02  0.61467606476E+02  0.00000000000E+00 0. -1.
        -13    1    1    2    0    0 -0.26779586161E+03 -0.10019477992E+03  0.17033489590E+04  0.17271801599E+04  0.10566000000E+00 0.  1.
         13    1    1    2    0    0  0.27682091601E+03  0.11203553444E+03  0.72147944841E+03  0.78084210066E+03  0.10566000000E+00 0. -1.
          4    1    1    2  501    0 -0.90250543965E+01 -0.11840754527E+02 -0.17081959597E+02  0.22659400220E+02  0.00000000000E+00 0.  1.
</event>
<event>
 5    1  0.4419198E-005  0.8226103E+03  0.7818608E-02  0.8961929E-01
         21   -1    0    0  501  502  0.00000000000E+00  0.00000000000E+00  0.10320963562E+04  0.10320963562E+04  0.00000000000E+00 0. -1.
          4   -1    0    0  502    0 -0.00000000000E+00 -0.00000000000E+00 -0.20711712247E+04  0.20711712247E+04  0.00000000000E+00 0.  1.
        -13    1    1    2    0    0  0.58326161127E+03  0.28814926176E+03 -0.44695963838E+03  0.78930161139E+03  0.10566000000E+00 0.  1.
         13    1    1    2    0    0 -0.81011981329E+03 -0.61309226812E+03 -0.12099700602E+04  0.15799379098E+04  0.10566000000E+00 0. -1.
          4    1    1    2  501    0  0.22685820202E+03  0.32494300636E+03  0.61785483016E+03  0.73402805965E+03  0.00000000000E+00 0.  1.
</event>
<event>
 5    1  0.4419198E-005  0.2384069E+03  0.7818608E-02  0.1036582E+00
         -4   -1    0    0    0  501 -0.00000000000E+00  0.00000000000E+00  0.30016522685E+03  0.30016522685E+03  0.00000000000E+00 0. -1.
         21   -1    0    0  501  502  0.00000000000E+00 -0.00000000000E+00 -0.23026664968E+03  0.23026664968E+03  0.00000000000E+00 0.  1.
        -13    1    1    2    0    0 -0.22721602949E+03 -0.37803661553E+02 -0.59599964281E+02  0.23792521470E+03  0.10566000000E+00 0.  1.
         13    1    1    2    0    0  0.23825683860E+03  0.43834911997E+02  0.13654497089E+03  0.27808696642E+03  0.10566000000E+00 0. -1.
         -4    1    1    2    0  502 -0.11040809112E+02 -0.60312504435E+01 -0.70464294460E+01  0.14419695410E+02  0.00000000000E+00 0. -1.
</event>
<event>
 5    1  0.4419198E-005  0.9826859E+02  0.7818608E-02  0.1174053E+00
         21   -1    0    0  501  502  0.00000000000E+00  0.00000000000E+00  0.10102376285E+03  0.10102376285E+03  0.00000000000E+00 0.  1.
          4   -1    0    0  502    0 -0.00000000000E+00 -0.00000000000E+00 -0.72627266160E+03  0.72627266160E+03  0.00000000000E+00 0.  1.
        -13    1    1    2    0    0 -0.16515518972E+03 -0.52167117387E+02 -0.22257023070E+03  0.28201979290E+03  0.10566000000E+00 0.  1.
         13    1    1    2    0    0  0.81104288419E+02  0.21532178851E+02 -0.44030226794E+03  0.44822721766E+03  0.10566000000E+00 0. -1.
          4    1    1    2  501    0  0.84050901300E+02  0.30634938536E+02  0.37623599898E+02  0.97049413897E+02  0.00000000000E+00 0.  1.
</event>
<event>
 5    1  0.4419198E-005  0.1716558E+03  0.7818608E-02  0.1081519E+00
         21   -1    0    0  501  502  0.00000000000E+00  0.00000000000E+00  0.47191168209E+02  0.47191168209E+02  0.00000000000E+00 0. -1.
          4   -1    0    0  502    0 -0.00000000000E+00 -0.00000000000E+00 -0.84302674171E+03  0.84302674171E+03  0.00000000000E+00 0.  1.
        -13    1    1    2    0    0  0.12598865975E+03 -0.12288485665E+03 -0.45772775160E+03  0.49039630517E+03  0.10566000000E+00 0.  1.
         13    1    1    2    0    0 -0.94068153421E+02  0.13929212406E+03 -0.31528449996E+03  0.35728901521E+03  0.10566000000E+00 0. -1.
          4    1    1    2  501    0 -0.31920506328E+02 -0.16407267410E+02 -0.22823321941E+02  0.42532589535E+02  0.00000000000E+00 0.  1.
</event>
<event>
 5    1  0.4419198E-005  0.6353104E+03  0.7818608E-02  0.9222504E-01
         -4   -1    0    0    0  501 -0.00000000000E+00  0.00000000000E+00  0.25952190280E+04  0.25952190280E+04  0.00000000000E+00 0. -1.
         21   -1    0    0  501  502  0.00000000000E+00 -0.00000000000E+00 -0.31680344497E+03  0.31680344497E+03  0.00000000000E+00 0.  1.
        -13    1    1    2    0    0 -0.48207001898E+03  0.33677732983E+03  0.11523792703E+04  0.12937497698E+04  0.10566000000E+00 0.  1.
         13    1    1    2    0    0  0.76426314021E+03 -0.12420924628E+03  0.94371405026E+03  0.12207056583E+04  0.10566000000E+00 0. -1.
         -4    1    1    2    0  502 -0.28219312123E+03 -0.21256808355E+03  0.18232226254E+03  0.39756704495E+03  0.00000000000E+00 0. -1.
</event>
<event>
 5    1  0.4419198E-005  0.2187353E+03  0.7818608E-02  0.1105636E+00
          4   -1    0    0  502    0 -0.00000000000E+00  0.00000000000E+00  0.84799248820E+03  0.84799248820E+03  0.00000000000E+00 0.  1.
         21   -1    0    0  501  502  0.00000000000E+00 -0.00000000000E+00 -0.34582004668E+03  0.34582004668E+03  0.00000000000E+00 0.  1.
        -13    1    1    2    0    0 -0.48352803112E+02  0.21188033619E+03 -0.24753336641E+03  0.32939952806E+03  0.10566000000E+00 0.  1.
         13    1    1    2    0    0 -0.37417298229E+02  0.20830625849E+02 -0.25948142866E+02  0.50072811608E+02  0.10566000000E+00 0. -1.
          4    1    1    2  501    0  0.85770101341E+02 -0.23271096204E+03  0.77565395080E+03  0.81434019521E+03  0.00000000000E+00 0.  1.
</event>
<event>
 5    1  0.4419198E-005  0.1207544E+03  0.7818608E-02  0.1134160E+00
         21   -1    0    0  501  502  0.00000000000E+00  0.00000000000E+00  0.69251153395E+02  0.69251153395E+02  0.00000000000E+00 0.  1.
         -4   -1    0    0    0  501 -0.00000000000E+00 -0.00000000000E+00 -0.31974325904E+03  0.31974325904E+03  0.00000000000E+00 0. -1.
        -13    1    1    2    0    0  0.11100229569E+03  0.14878860172E+01 -0.39579939314E+02  0.11785714324E+03  0.10566000000E+00 0.  1.
         13    1    1    2    0    0 -0.12481316642E+03 -0.24854594753E+01 -0.22112559684E+03  0.25393118115E+03  0.10566000000E+00 0. -1.
         -4    1    1    2    0  502  0.13810870726E+02  0.99757345815E+00  0.10213430505E+02  0.17206088042E+02  0.00000000000E+00 0. -1.
</event>
<event>
 5    1  0.4419198E-005  0.4179805E+03  0.7818608E-02  0.1014109E+00
         -4   -1    0    0    0  501 -0.00000000000E+00  0.00000000000E+00  0.15386330344E+04  0.15386330344E+04  0.00000000000E+00 0. -1.
         21   -1    0    0  501  502  0.00000000000E+00 -0.00000000000E+00 -0.19774249847E+03  0.19774249847E+03  0.00000000000E+00 0. -1.
        -13    1    1    2    0    0 -0.26727746086E+02 -0.85066406669E+02  0.17151276884E+03  0.19330625182E+03  0.10566000000E+00 0.  1.
         13    1    1    2    0    0  0.39923887256E+03  0.24337015526E+03  0.10007571305E+04  0.11045974629E+04  0.10566000000E+00 0. -1.
         -4    1    1    2    0  502 -0.37251112647E+03 -0.15830374859E+03  0.16862063661E+03  0.43847181809E+03  0.00000000000E+00 0. -1.
</event>
<event>
 5    1  0.4419198E-005  0.2073463E+03  0.7818608E-02  0.1055213E+00
         -4   -1    0    0    0  501 -0.00000000000E+00  0.00000000000E+00  0.43434049511E+03  0.43434049511E+03  0.00000000000E+00 0. -1.
         21   -1    0    0  501  502  0.00000000000E+00 -0.00000000000E+00 -0.45844712985E+03  0.45844712985E+03  0.00000000000E+00 0. -1.
        -13    1    1    2    0    0 -0.13369166332E+03 -0.14038068072E+03  0.22890366228E+03  0.29996182112E+03  0.10566000000E+00 0.  1.
         13    1    1    2    0    0  0.11290781022E+03  0.22437918506E+03  0.68105987685E+02  0.26025493083E+03  0.10566000000E+00 0. -1.
         -4    1    1    2    0  502  0.20783853103E+02 -0.83998504339E+02 -0.32111628470E+03  0.33257087302E+03  0.00000000000E+00 0. -1.
</event>
<event>
 5    1  0.4419198E-005  0.2815298E+03  0.7818608E-02  0.1015235E+00
         21   -1    0    0  501  502  0.00000000000E+00  0.00000000000E+00  0.12827350080E+03  0.12827350080E+03  0.00000000000E+00 0.  1.
         -4   -1    0    0    0  501 -0.00000000000E+00 -0.00000000000E+00 -0.13242927954E+04  0.13242927954E+04  0.00000000000E+00 0. -1.
        -13    1    1    2    0    0 -0.24062131182E+02  0.28327321093E+03 -0.48650865085E+03  0.56348325326E+03  0.10566000000E+00 0.  1.
         13    1    1    2    0    0  0.33709195012E+02 -0.27780344991E+03 -0.77431765963E+03  0.82333402443E+03  0.10566000000E+00 0. -1.
         -4    1    1    2    0  502 -0.96470638302E+01 -0.54697610210E+01  0.64807015889E+02  0.65749018507E+02  0.00000000000E+00 0. -1.
</event>
<event>
 5    1  0.4419198E-005  0.8825973E+02  0.7818608E-02  0.1185593E+00
         -4   -1    0    0    0  501 -0.00000000000E+00  0.00000000000E+00  0.24715565457E+03  0.24715565457E+03  0.00000000000E+00 0. -1.
         21   -1    0    0  501  502  0.00000000000E+00 -0.00000000000E+00 -0.65517068854E+02  0.65517068854E+02  0.00000000000E+00 0. -1.
        -13    1    1    2    0    0  0.16593986765E+02 -0.66932981746E+02 -0.24148858411E+01  0.69001646936E+02  0.10566000000E+00 0.  1.
         13    1    1    2    0    0 -0.45233627571E+02  0.83481562283E+02  0.18774496695E+03  0.21038877366E+03  0.10566000000E+00 0. -1.
         -4    1    1    2    0  502  0.28639640805E+02 -0.16548580536E+02 -0.36914953913E+01  0.33282302827E+02  0.00000000000E+00 0. -1.
</event>
<event>
 5    1  0.4419198E-005  0.1256626E+03  0.7818608E-02  0.1127943E+00
         -4   -1    0    0    0  501 -0.00000000000E+00  0.00000000000E+00  0.29942674275E+03  0.29942674275E+03  0.00000000000E+00 0. -1.
         21   -1    0    0  501  502  0.00000000000E+00 -0.00000000000E+00 -0.16707588919E+03  0.16707588919E+03  0.00000000000E+00 0.  1.
        -13    1    1    2    0    0  0.11110439238E+03  0.63796043481E+02  0.43595037205E+02  0.13533166519E+03  0.10566000000E+00 0.  1.
         13    1    1    2    0    0 -0.12435988570E+03 -0.24134937828E+02  0.18615735761E+03  0.22517204390E+03  0.10566000000E+00 0. -1.
         -4    1    1    2    0  502  0.13255493319E+02 -0.39661105654E+02 -0.97401541262E+02  0.10599892285E+03  0.00000000000E+00 0. -1.
</event>
<event>
 5    1  0.4419198E-005  0.4141476E+03  0.7818608E-02  0.9689052E-01
         21   -1    0    0  501  502  0.00000000000E+00  0.00000000000E+00  0.51741262010E+03  0.51741262010E+03  0.00000000000E+00 0. -1.
         -4   -1    0    0    0  501 -0.00000000000E+00 -0.00000000000E+00 -0.11441235129E+04  0.11441235129E+04  0.00000000000E+00 0. -1.
        -13    1    1    2    0    0 -0.36070472883E+03 -0.47512676699E+02 -0.48960937398E+03  0.60998582451E+03  0.10566000000E+00 0.  1.
         13    1    1    2    0    0  0.49123259782E+03  0.29004648013E+03 -0.37907088401E+03  0.68493150903E+03  0.10566000000E+00 0. -1.
         -4    1    1    2    0  502 -0.13052786899E+03 -0.24253380343E+03  0.24196936522E+03  0.36661879943E+03  0.00000000000E+00 0. -1.
</event>
<event>
 5    1  0.4419198E-005  0.2842796E+03  0.7818608E-02  0.1014014E+00
         21   -1    0    0  501  502  0.00000000000E+00  0.00000000000E+00  0.65994922368E+03  0.65994922368E+03  0.00000000000E+00 0. -1.
         -4   -1    0    0    0  501 -0.00000000000E+00 -0.00000000000E+00 -0.10604223503E+04  0.10604223503E+04  0.00000000000E+00 0. -1.
        -13    1    1    2    0    0  0.30046400575E+03 -0.67422499752E+01 -0.57619160464E+03  0.64986218009E+03  0.10566000000E+00 0.  1.
         13    1    1    2    0    0 -0.22880010345E+03 -0.21779400814E+03 -0.36377090423E+03  0.48178106983E+03  0.10566000000E+00 0. -1.
         -4    1    1    2    0  502 -0.71663902303E+02  0.22453625811E+03  0.53948938220E+03  0.58872832411E+03  0.00000000000E+00 0. -1.
</event>
<event>
 5    1  0.4419198E-005  0.4876789E+03  0.7818608E-02  0.9668538E-01
          4   -1    0    0  502    0 -0.00000000000E+00  0.00000000000E+00  0.16249660003E+04  0.16249660003E+04  0.00000000000E+00 0.  1.
         21   -1    0    0  501  502  0.00000000000E+00 -0.00000000000E+00 -0.98197096930E+03  0.98197096930E+03  0.00000000000E+00 0.  1.
        -13    1    1    2    0    0  0.26563000072E+03  0.42043883281E+03 -0.58143330875E+03  0.76510967391E+03  0.10566000000E+00 0.  1.
         13    1    1    2    0    0 -0.25489257400E+03  0.96394011963E+02  0.12920531533E+04  0.13204784708E+04  0.10566000000E+00 0. -1.
          4    1    1    2  501    0 -0.10737426717E+02 -0.51683284478E+03 -0.67624813548E+02  0.52134882486E+03  0.00000000000E+00 0.  1.
</event>
<event>
 5    1  0.4419198E-005  0.3120339E+03  0.7818608E-02  0.1021518E+00
         21   -1    0    0  501  502  0.00000000000E+00  0.00000000000E+00  0.13347581574E+03  0.13347581574E+03  0.00000000000E+00 0.  1.
          4   -1    0    0  502    0 -0.00000000000E+00 -0.00000000000E+00 -0.14967836381E+04  0.14967836381E+04  0.00000000000E+00 0.  1.
        -13    1    1    2    0    0  0.30247548685E+03  0.22819412650E+03 -0.25595227264E+03  0.45724780650E+03  0.10566000000E+00 0.  1.
         13    1    1    2    0    0 -0.12065679157E+03 -0.11907026461E+03 -0.59042555377E+03  0.61427854836E+03  0.10566000000E+00 0. -1.
          4    1    1    2  501    0 -0.18181869528E+03 -0.10912386189E+03 -0.51692999590E+03  0.55873309894E+03  0.00000000000E+00 0.  1.
</event>
<event>
 5    1  0.4419198E-005  0.5110433E+03  0.7818608E-02  0.9454091E-01
         21   -1    0    0  501  502  0.00000000000E+00  0.00000000000E+00  0.40067609339E+03  0.40067609339E+03  0.00000000000E+00 0.  1.
         -4   -1    0    0    0  501 -0.00000000000E+00 -0.00000000000E+00 -0.18214285500E+04  0.18214285500E+04  0.00000000000E+00 0. -1.
        -13    1    1    2    0    0  0.33705628239E+03 -0.50010450434E+03 -0.45381986991E+03  0.75476084838E+03  0.10566000000E+00 0.  1.
         13    1    1    2    0    0 -0.53764981188E+03  0.48347626342E+02 -0.75832063696E+03  0.93083565294E+03  0.10566000000E+00 0. -1.
         -4    1    1    2    0  502  0.20059352949E+03  0.45175687800E+03 -0.20861194971E+03  0.53650814202E+03  0.00000000000E+00 0. -1.
</event>
<event>
 5    1  0.4419198E-005  0.1377191E+03  0.7818608E-02  0.1113898E+00
         21   -1    0    0  501  502  0.00000000000E+00  0.00000000000E+00  0.85297245529E+02  0.85297245529E+02  0.00000000000E+00 0.  1.
         -4   -1    0    0    0  501 -0.00000000000E+00 -0.00000000000E+00 -0.39860191804E+03  0.39860191804E+03  0.00000000000E+00 0. -1.
        -13    1    1    2    0    0  0.11309609016E+03  0.96833004533E+02 -0.15381584098E+03  0.21407167136E+03  0.10566000000E+00 0.  1.
         13    1    1    2    0    0 -0.11432575476E+03 -0.64217019110E+02 -0.18614038389E+03  0.22768938804E+03  0.10566000000E+00 0. -1.
         -4    1    1    2    0  502  0.12296646004E+01 -0.32615985423E+02  0.26651552361E+02  0.42138104174E+02  0.00000000000E+00 0. -1.
</event>
<event>
 5    1  0.4419198E-005  0.4620009E+03  0.7818608E-02  0.9812171E-01
         -4   -1    0    0    0  501 -0.00000000000E+00  0.00000000000E+00  0.52135696390E+03  0.52135696390E+03  0.00000000000E+00 0. -1.
         21   -1    0    0  501  502  0.00000000000E+00 -0.00000000000E+00 -0.72756484685E+03  0.72756484685E+03  0.00000000000E+00 0. -1.
        -13    1    1    2    0    0 -0.13709781043E+03  0.13886011399E+03 -0.12345745099E+03  0.23091057631E+03  0.10566000000E+00 0.  1.
         13    1    1    2    0    0 -0.64074771931E+02  0.40585953773E+03 -0.14102458333E+03  0.43441395584E+03  0.10566000000E+00 0. -1.
         -4    1    1    2    0  502  0.20117258236E+03 -0.54471965172E+03  0.58274151380E+02  0.58359727860E+03  0.00000000000E+00 0. -1.
</event>
<event>
 5    1  0.4419198E-005  0.8228043E+03  0.7818608E-02  0.8961698E-01
         21   -1    0    0  501  502  0.00000000000E+00  0.00000000000E+00  0.69170926523E+03  0.69170926523E+03  0.00000000000E+00 0. -1.
          4   -1    0    0  502    0 -0.00000000000E+00 -0.00000000000E+00 -0.15704217699E+04  0.15704217699E+04  0.00000000000E+00 0.  1.
        -13    1    1    2    0    0  0.75069695665E+03 -0.60542112974E+03 -0.59606583288E+02  0.96624718421E+03  0.10566000000E+00 0.  1.
         13    1    1    2    0    0 -0.51840770364E+03  0.56565763455E+03 -0.59884008344E+03  0.97330599680E+03  0.10566000000E+00 0. -1.
          4    1    1    2  501    0 -0.23228925301E+03  0.39763495190E+02 -0.22026583798E+03  0.32257785416E+03  0.00000000000E+00 0.  1.
</event>
<event>
 5    1  0.4419198E-005  0.2785783E+03  0.7818608E-02  0.1022978E+00
         21   -1    0    0  501  502  0.00000000000E+00  0.00000000000E+00  0.23647032498E+04  0.23647032498E+04  0.00000000000E+00 0. -1.
         -4   -1    0    0    0  501 -0.00000000000E+00 -0.00000000000E+00 -0.16549480213E+03  0.16549480213E+03  0.00000000000E+00 0. -1.
        -13    1    1    2    0    0 -0.16114707654E+03  0.16065892494E+03  0.37626816794E+03  0.43972424974E+03  0.10566000000E+00 0.  1.
         13    1    1    2    0    0 -0.85165090570E+02  0.63826067602E+01 -0.10746137171E+03  0.13726539220E+03  0.10566000000E+00 0. -1.
         -4    1    1    2    0  502  0.24631216711E+03 -0.16704153170E+03  0.19304016514E+04  0.19532084100E+04  0.00000000000E+00 0. -1.
</event>
<event>
 5    1  0.4419198E-005  0.4580093E+03  0.7818608E-02  0.9575084E-01
         21   -1    0    0  501  502  0.00000000000E+00  0.00000000000E+00  0.85568636247E+03  0.85568636247E+03  0.00000000000E+00 0. -1.
         -4   -1    0    0    0  501 -0.00000000000E+00 -0.00000000000E+00 -0.10388791040E+04  0.10388791040E+04  0.00000000000E+00 0. -1.
        -13    1    1    2    0    0  0.33797073048E+03 -0.26276410283E+03 -0.55758991716E+03  0.70297632626E+03  0.10566000000E+00 0.  1.
         13    1    1    2    0    0 -0.32744879497E+03  0.65762974083E+03  0.27349078995E+03  0.78389847092E+03  0.10566000000E+00 0. -1.
         -4    1    1    2    0  502 -0.10521935513E+02 -0.39486563801E+03  0.10090638564E+03  0.40769066934E+03  0.00000000000E+00 0. -1.
</event>
<event>
 5    1  0.4419198E-005  0.4959563E+03  0.7818608E-02  0.9684865E-01
         21   -1    0    0  501  502  0.00000000000E+00  0.00000000000E+00  0.44158809376E+03  0.44158809376E+03  0.00000000000E+00 0. -1.
         -4   -1    0    0    0  501 -0.00000000000E+00 -0.00000000000E+00 -0.15588182864E+04  0.15588182864E+04  0.00000000000E+00 0. -1.
        -13    1    1    2    0    0  0.22838808753E+03  0.87857271307E+02 -0.92879504102E+03  0.96048959288E+03  0.10566000000E+00 0.  1.
         13    1    1    2    0    0  0.34816414549E+03  0.15073404292E+03 -0.16983007400E+03  0.41566968749E+03  0.10566000000E+00 0. -1.
         -4    1    1    2    0  502 -0.57655223302E+03 -0.23859131423E+03 -0.18605077579E+02  0.62424709974E+03  0.00000000000E+00 0. -1.
</event>
<event>
 5    1  0.4419198E-005  0.6158227E+03  0.7818608E-02  0.9254944E-01
         21   -1    0    0  501  502  0.00000000000E+00  0.00000000000E+00  0.16852588820E+04  0.16852588820E+04  0.00000000000E+00 0. -1.
          4   -1    0    0  502    0 -0.00000000000E+00 -0.00000000000E+00 -0.57503457416E+03  0.57503457416E+03  0.00000000000E+00 0.  1.
        -13    1    1    2    0    0  0.49682420513E+02 -0.62614756258E+03  0.11643164922E+04  0.13229368912E+04  0.10566000000E+00 0.  1.
         13    1    1    2    0    0 -0.34084611492E+03  0.52660097201E+03 -0.54488855487E+02  0.62964569745E+03  0.10566000000E+00 0. -1.
          4    1    1    2  501    0  0.29116369440E+03  0.99546590571E+02  0.39667116966E+00  0.30771086751E+03  0.00000000000E+00 0.  1.
</event>
<event>
 5    1  0.4419198E-005  0.4546270E+03  0.7818608E-02  0.9732598E-01
         -4   -1    0    0    0  501 -0.00000000000E+00  0.00000000000E+00  0.31742855610E+03  0.31742855610E+03  0.00000000000E+00 0. -1.
         21   -1    0    0  501  502  0.00000000000E+00 -0.00000000000E+00 -0.13696574015E+04  0.13696574015E+04  0.00000000000E+00 0. -1.
        -13    1    1    2    0    0 -0.25144531220E+03  0.95900455888E+02 -0.60026331483E+02  0.27572597648E+03  0.10566000000E+00 0.  1.
         13    1    1    2    0    0  0.36739847353E+03 -0.47308414452E+03 -0.49817649247E+03  0.77908284217E+03  0.10566000000E+00 0. -1.
         -4    1    1    2    0  502 -0.11595316133E+03  0.37718368863E+03 -0.49402602147E+03  0.63227713899E+03  0.00000000000E+00 0. -1.
</event>
<event>
 5    1  0.4419198E-005  0.3704137E+03  0.7818608E-02  0.9818611E-01
         21   -1    0    0  501  502  0.00000000000E+00  0.00000000000E+00  0.16820725130E+03  0.16820725130E+03  0.00000000000E+00 0.  1.
          4   -1    0    0  502    0 -0.00000000000E+00 -0.00000000000E+00 -0.13194788006E+04  0.13194788006E+04  0.00000000000E+00 0.  1.
        -13    1    1    2    0    0  0.18025704861E+03 -0.31564434115E+03 -0.55581439094E+03  0.66411866561E+03  0.10566000000E+00 0.  1.
         13    1    1    2    0    0 -0.18482754292E+03  0.32838002906E+03 -0.65871377654E+03  0.75887977616E+03  0.10566000000E+00 0. -1.
          4    1    1    2  501    0  0.45704943077E+01 -0.12735687902E+02  0.63256618164E+02  0.64687610144E+02  0.00000000000E+00 0.  1.
</event>
<event>
 5    1  0.4419198E-005  0.3996615E+03  0.7818608E-02  0.1025077E+00
          4   -1    0    0  502    0 -0.00000000000E+00  0.00000000000E+00  0.48412705600E+03  0.48412705600E+03  0.00000000000E+00 0.  1.
         21   -1    0    0  501  502  0.00000000000E+00 -0.00000000000E+00 -0.66899152745E+03  0.66899152745E+03  0.00000000000E+00 0.  1.
        -13    1    1    2    0    0  0.13529483256E+03  0.43697359572E+03  0.15087433864E+03  0.48167799648E+03  0.10566000000E+00 0.  1.
         13    1    1    2    0    0 -0.28788791722E+02 -0.66175896252E+02  0.77643876059E+02  0.10600295480E+03  0.10566000000E+00 0. -1.
          4    1    1    2  501    0 -0.10650604084E+03 -0.37079769946E+03 -0.41338268615E+03  0.56543763217E+03  0.00000000000E+00 0.  1.
</event>
<event>
 5    1  0.4419198E-005  0.5101068E+03  0.7818608E-02  0.9676115E-01
         21   -1    0    0  501  502  0.00000000000E+00  0.00000000000E+00  0.12869013638E+03  0.12869013638E+03  0.00000000000E+00 0. -1.
         -4   -1    0    0    0  501 -0.00000000000E+00 -0.00000000000E+00 -0.31837191841E+04  0.31837191841E+04  0.00000000000E+00 0. -1.
        -13    1    1    2    0    0 -0.19349015415E+03 -0.12779959049E+03 -0.48919265098E+03  0.54136922338E+03  0.10566000000E+00 0.  1.
         13    1    1    2    0    0  0.59833772709E+03 -0.38657310480E+02 -0.12987318180E+04  0.14304568394E+04  0.10566000000E+00 0. -1.
         -4    1    1    2    0  502 -0.40484757294E+03  0.16645690097E+03 -0.12671045788E+04  0.13405832577E+04  0.00000000000E+00 0. -1.
</event>
<event>
 5    1  0.4419198E-005  0.9937627E+02  0.7818608E-02  0.1165592E+00
          4   -1    0    0  502    0 -0.00000000000E+00  0.00000000000E+00  0.26771320987E+02  0.26771320987E+02  0.00000000000E+00 0.  1.
         21   -1    0    0  501  502  0.00000000000E+00 -0.00000000000E+00 -0.60073483287E+03  0.60073483287E+03  0.00000000000E+00 0. -1.
        -13    1    1    2    0    0 -0.86476121369E+02  0.49392265750E+02 -0.12620999270E+03  0.16076905456E+03  0.10566000000E+00 0.  1.
         13    1    1    2    0    0  0.94429465661E+02 -0.33081434878E+02 -0.26797931853E+03  0.28604935176E+03  0.10566000000E+00 0. -1.
          4    1    1    2  501    0 -0.79533442921E+01 -0.16310830872E+02 -0.17977420066E+03  0.18068774754E+03  0.00000000000E+00 0.  1.
</event>
<event>
 5    1  0.4419198E-005  0.8802191E+02  0.7818608E-02  0.1186056E+00
         -4   -1    0    0    0  501 -0.00000000000E+00  0.00000000000E+00  0.13507345123E+03  0.13507345123E+03  0.00000000000E+00 0. -1.
         21   -1    0    0  501  502  0.00000000000E+00 -0.00000000000E+00 -0.16354307213E+03  0.16354307213E+03  0.00000000000E+00 0. -1.
        -13    1    1    2    0    0 -0.74599893091E+02  0.45946230535E+02 -0.43872845852E+02  0.97984886164E+02  0.10566000000E+00 0.  1.
         13    1    1    2    0    0  0.80556899904E+02 -0.36105873238E+02  0.89462404899E+02  0.12568445114E+03  0.10566000000E+00 0. -1.
         -4    1    1    2    0  502 -0.59570068135E+01 -0.98403572968E+01 -0.74059179948E+02  0.74947186048E+02  0.00000000000E+00 0. -1.
</event>
<event>
 5    1  0.4419198E-005  0.1933509E+03  0.7818608E-02  0.1064792E+00
         -4   -1    0    0    0  501 -0.00000000000E+00  0.00000000000E+00  0.20556823844E+04  0.20556823844E+04  0.00000000000E+00 0. -1.
         21   -1    0    0  501  502  0.00000000000E+00 -0.00000000000E+00 -0.22886898479E+02  0.22886898479E+02  0.00000000000E+00 0. -1.
        -13    1    1    2    0    0 -0.18742880548E+03  0.40513629823E+02  0.94499767484E+03  0.96425698232E+03  0.10566000000E+00 0.  1.
         13    1    1    2    0    0  0.19308846267E+03 -0.27452982988E+02  0.10811538572E+04  0.10986038844E+04  0.10566000000E+00 0. -1.
         -4    1    1    2    0  502 -0.56596571829E+01 -0.13060646835E+02  0.66439538592E+01  0.15708416154E+02  0.00000000000E+00 0. -1.
</event>
<event>
 5    1  0.4419198E-005  0.5023238E+03  0.7818608E-02  0.9795080E-01
         -4   -1    0    0    0  501 -0.00000000000E+00  0.00000000000E+00  0.98749445839E+03  0.98749445839E+03  0.00000000000E+00 0. -1.
         21   -1    0    0  501  502  0.00000000000E+00 -0.00000000000E+00 -0.40240296821E+03  0.40240296821E+03  0.00000000000E+00 0. -1.
        -13    1    1    2    0    0  0.12943205241E+03  0.95632856324E+02  0.28007587283E+03  0.32301827364E+03  0.10566000000E+00 0.  1.
         13    1    1    2    0    0  0.78279627418E+02  0.42704433213E+03  0.25188788688E+03  0.50193832330E+03  0.10566000000E+00 0. -1.
         -4    1    1    2    0  502 -0.20771167982E+03 -0.52267718846E+03  0.53127730466E+02  0.56494082966E+03  0.00000000000E+00 0. -1.
</event>
<event>
 5    1  0.4419198E-005  0.1889861E+03  0.7818608E-02  0.1097063E+00
          4   -1    0    0  502    0 -0.00000000000E+00  0.00000000000E+00  0.14634682899E+04  0.14634682899E+04  0.00000000000E+00 0.  1.
         21   -1    0    0  501  502  0.00000000000E+00 -0.00000000000E+00 -0.20047251659E+03  0.20047251659E+03  0.00000000000E+00 0.  1.
        -13    1    1    2    0    0 -0.21495452055E+03 -0.12412284980E+03  0.12391174307E+04  0.12637341278E+04  0.10566000000E+00 0.  1.
         13    1    1    2    0    0  0.83268093688E+02 -0.86187311594E+01  0.15201002426E+03  0.17353649931E+03  0.10566000000E+00 0. -1.
          4    1    1    2  501    0  0.13168642686E+03  0.13274158096E+03 -0.12813168165E+03  0.22667017929E+03  0.00000000000E+00 0.  1.
</event>
<event>
 5    1  0.4419198E-005  0.3243945E+03  0.7818608E-02  0.1016235E+00
         21   -1    0    0  501  502  0.00000000000E+00  0.00000000000E+00  0.35528560649E+03  0.35528560649E+03  0.00000000000E+00 0.  1.
          4   -1    0    0  502    0 -0.00000000000E+00 -0.00000000000E+00 -0.26693788673E+04  0.26693788673E+04  0.00000000000E+00 0.  1.
        -13    1    1    2    0    0  0.19192327571E+03 -0.13803938954E+03  0.19222639088E+03  0.30469724866E+03  0.10566000000E+00 0.  1.
         13    1    1    2    0    0  0.28620515538E+03  0.33102640056E+03 -0.17550560678E+04  0.18087879039E+04  0.10566000000E+00 0. -1.
          4    1    1    2  501    0 -0.47812843109E+03 -0.19298701102E+03 -0.75126358384E+03  0.91117932123E+03  0.00000000000E+00 0.  1.
</event>
<event>
 5    1  0.4419198E-005  0.4036121E+02  0.7818608E-02  0.1336917E+00
          4   -1    0    0  502    0 -0.00000000000E+00  0.00000000000E+00  0.58773477160E+02  0.58773477160E+02  0.00000000000E+00 0.  1.
         21   -1    0    0  501  502  0.00000000000E+00 -0.00000000000E+00 -0.12534742992E+03  0.12534742992E+03  0.00000000000E+00 0. -1.
        -13    1    1    2    0    0  0.32902177660E+02  0.23015182554E+02  0.42856035025E+02  0.58727360105E+02  0.10566000000E+00 0.  1.
         13    1    1    2    0    0 -0.25850295158E+02 -0.36454490981E+02 -0.68993892330E+02  0.82203017069E+02  0.10566000000E+00 0. -1.
          4    1    1    2  501    0 -0.70518825021E+01  0.13439308427E+02 -0.40436095457E+02  0.43190529907E+02  0.00000000000E+00 0.  1.
</event>
<event>
 5    1  0.4419198E-005  0.4880891E+03  0.7818608E-02  0.9504467E-01
         21   -1    0    0  501  502  0.00000000000E+00  0.00000000000E+00  0.82549007159E+02  0.82549007159E+02  0.00000000000E+00 0.  1.
          4   -1    0    0  502    0 -0.00000000000E+00 -0.00000000000E+00 -0.38043176322E+04  0.38043176322E+04  0.00000000000E+00 0.  1.
        -13    1    1    2    0    0 -0.56378950740E+02 -0.53474364028E+03 -0.23180652447E+04  0.23796125392E+04  0.10566000000E+00 0.  1.
         13    1    1    2    0    0  0.40520740999E+02  0.42736722236E+03 -0.12264383960E+04  0.12993982544E+04  0.10566000000E+00 0. -1.
          4    1    1    2  501    0  0.15858209741E+02  0.10737641792E+03 -0.17726498442E+03  0.20785584582E+03  0.00000000000E+00 0.  1.
</event>
<event>
 5    1  0.4419198E-005  0.5129595E+03  0.7818608E-02  0.9450011E-01
         21   -1    0    0  501  502  0.00000000000E+00  0.00000000000E+00  0.62019556425E+03  0.62019556425E+03  0.00000000000E+00 0.  1.
         -4   -1    0    0    0  501 -0.00000000000E+00 -0.00000000000E+00 -0.64091512685E+03  0.64091512685E+03  0.00000000000E+00 0. -1.
        -13    1    1    2    0    0  0.42727826308E+03 -0.28025538800E+03  0.26265181200E+03  0.57453962623E+03  0.10566000000E+00 0.  1.
         13    1    1    2    0    0 -0.41596413314E+03  0.30150045985E+03 -0.34605744426E+03  0.61942267737E+03  0.10566000000E+00 0. -1.
         -4    1    1    2    0  502 -0.11314129943E+02 -0.21245071856E+02  0.62686069658E+02  0.67148387499E+02  0.00000000000E+00 0. -1.
</event>
<event>
 5    1  0.4419198E-005  0.9140054E+03  0.7818608E-02  0.8859877E-01
          4   -1    0    0  502    0 -0.00000000000E+00  0.00000000000E+00  0.24412294688E+04  0.24412294688E+04  0.00000000000E+00 0.  1.
         21   -1    0    0  501  502  0.00000000000E+00 -0.00000000000E+00 -0.69655954780E+03  0.69655954780E+03  0.00000000000E+00 0. -1.
        -13    1    1    2    0    0  0.57459119901E+03  0.64367478656E+03  0.10880409562E+04  0.13886343689E+04  0.10566000000E+00 0.  1.
         13    1    1    2    0    0 -0.29561433385E+03 -0.10561733359E+04  0.59390120795E+03  0.12472403961E+04  0.10566000000E+00 0. -1.
          4    1    1    2  501    0 -0.27897686516E+03  0.41249854930E+03  0.62727756813E+02  0.50191425159E+03  0.00000000000E+00 0.  1.
</event>
<event>
 5    1  0.4419198E-005  0.1071820E+03  0.7818608E-02  0.1153190E+00
          4   -1    0    0  502    0 -0.00000000000E+00  0.00000000000E+00  0.52741349973E+03  0.52741349973E+03  0.00000000000E+00 0.  1.
         21   -1    0    0  501  502  0.00000000000E+00 -0.00000000000E+00 -0.29559818711E+02  0.29559818711E+02  0.00000000000E+00 0. -1.
        -13    1    1    2    0    0 -0.10645241806E+03  0.23118956900E+02  0.28283474081E+03  0.30308761976E+03  0.10566000000E+00 0.  1.
         13    1    1    2    0    0  0.10533839857E+03 -0.77783474333E+01  0.21378551438E+03  0.23845531704E+03  0.10566000000E+00 0. -1.
          4    1    1    2  501    0  0.11140194926E+01 -0.15340609467E+02  0.12334258241E+01  0.15430381638E+02  0.00000000000E+00 0.  1.
</event>
<event>
 5    1  0.4419198E-005  0.7809021E+02  0.7818608E-02  0.1206970E+00
         21   -1    0    0  501  502  0.00000000000E+00  0.00000000000E+00  0.11887162391E+03  0.11887162391E+03  0.00000000000E+00 0. -1.
          4   -1    0    0  502    0 -0.00000000000E+00 -0.00000000000E+00 -0.29953225363E+03  0.29953225363E+03  0.00000000000E+00 0.  1.
        -13    1    1    2    0    0 -0.60529774911E+02 -0.42369096182E+02 -0.19900848710E+03  0.21228137710E+03  0.10566000000E+00 0.  1.
         13    1    1    2    0    0  0.85455107787E+02  0.40228518579E+02 -0.67897040364E+02  0.11632251892E+03  0.10566000000E+00 0. -1.
          4    1    1    2  501    0 -0.24925332876E+02  0.21405776023E+01  0.86244897750E+02  0.89799981511E+02  0.00000000000E+00 0.  1.
</event>
<event>
 5    1  0.4419198E-005  0.1264310E+03  0.7818608E-02  0.1126997E+00
         -4   -1    0    0    0  501 -0.00000000000E+00  0.00000000000E+00  0.52109441447E+03  0.52109441447E+03  0.00000000000E+00 0. -1.
         21   -1    0    0  501  502  0.00000000000E+00 -0.00000000000E+00 -0.20724328763E+03  0.20724328763E+03  0.00000000000E+00 0. -1.
        -13    1    1    2    0    0 -0.83756000715E+02 -0.68772867139E+02  0.47994005214E+02  0.11852514759E+03  0.10566000000E+00 0.  1.
         13    1    1    2    0    0  0.10160781274E+03  0.83468885661E+02  0.42711841460E+03  0.44690195092E+03  0.10566000000E+00 0. -1.
         -4    1    1    2    0  502 -0.17851812022E+02 -0.14696018522E+02 -0.16126129297E+03  0.16291060359E+03  0.00000000000E+00 0. -1.
</event>
<event>
 5    1  0.4419198E-005  0.4602711E+03  0.7818608E-02  0.1008503E+00
         21   -1    0    0  501  502  0.00000000000E+00  0.00000000000E+00  0.17587211466E+03  0.17587211466E+03  0.00000000000E+00 0.  1.
          4   -1    0    0  502    0 -0.00000000000E+00 -0.00000000000E+00 -0.18995461344E+04  0.18995461344E+04  0.00000000000E+00 0.  1.
        -13    1    1    2    0    0  0.22096454662E+03 -0.43125921912E+03 -0.31299461643E+03  0.57686695695E+03  0.10566000000E+00 0.  1.
         13    1    1    2    0    0 -0.39849224311E+02  0.69279163426E+02 -0.43439917134E+03  0.44169017918E+03  0.10566000000E+00 0. -1.
          4    1    1    2  501    0 -0.18111532231E+03  0.36198005569E+03 -0.97628023193E+03  0.10568611129E+04  0.00000000000E+00 0.  1.
</event>
<event>
 5    1  0.4419198E-005  0.4999266E+02  0.7818608E-02  0.1291819E+00
          4   -1    0    0  502    0 -0.00000000000E+00  0.00000000000E+00  0.96290708516E+02  0.96290708516E+02  0.00000000000E+00 0.  1.
         21   -1    0    0  501  502  0.00000000000E+00 -0.00000000000E+00 -0.75874101312E+02  0.75874101312E+02  0.00000000000E+00 0.  1.
        -13    1    1    2    0    0  0.49508951812E+02  0.29389771748E+02  0.35921122862E+02  0.67861868708E+02  0.10566000000E+00 0.  1.
         13    1    1    2    0    0 -0.39132148202E+02 -0.21363677656E+02  0.32091098313E+02  0.54932517699E+02  0.10566000000E+00 0. -1.
          4    1    1    2  501    0 -0.10376803610E+02 -0.80260940921E+01 -0.47595613970E+02  0.49370423420E+02  0.00000000000E+00 0.  1.
</event>
<event>
 5    1  0.4419198E-005  0.4978352E+03  0.7818608E-02  0.9810540E-01
         21   -1    0    0  501  502  0.00000000000E+00  0.00000000000E+00  0.35288897495E+03  0.35288897495E+03  0.00000000000E+00 0.  1.
          4   -1    0    0  502    0 -0.00000000000E+00 -0.00000000000E+00 -0.15818539153E+04  0.15818539153E+04  0.00000000000E+00 0.  1.
        -13    1    1    2    0    0  0.54305187616E+03 -0.17532234191E+03 -0.12092917016E+03  0.58332421443E+03  0.10566000000E+00 0.  1.
         13    1    1    2    0    0 -0.15624310847E+03  0.13521885502E+02 -0.83834455470E+03  0.85288706984E+03  0.10566000000E+00 0. -1.
          4    1    1    2  501    0 -0.38680876769E+03  0.16180045640E+03 -0.26969121549E+03  0.49853160598E+03  0.00000000000E+00 0.  1.
</event>
<event>
 5    1  0.4419198E-005  0.3938317E+03  0.7818608E-02  0.1020993E+00
         -4   -1    0    0    0  501 -0.00000000000E+00  0.00000000000E+00  0.14998558439E+04  0.14998558439E+04  0.00000000000E+00 0. -1.
         21   -1    0    0  501  502  0.00000000000E+00 -0.00000000000E+00 -0.23490448723E+03  0.23490448723E+03  0.00000000000E+00 0. -1.
        -13    1    1    2    0    0  0.74724183008E+02  0.41992677655E+02  0.34075194495E+03  0.35136731159E+03  0.10566000000E+00 0.  1.
         13    1    1    2    0    0 -0.45464854494E+03 -0.53900358448E+02  0.89111307251E+03  0.10018448319E+04  0.10566000000E+00 0. -1.
         -4    1    1    2    0  502  0.37992436193E+03  0.11907680794E+02  0.33086339217E+02  0.38154818764E+03  0.00000000000E+00 0. -1.
</event>
<event>
 5    1  0.4419198E-005  0.4807634E+03  0.7818608E-02  0.9621141E-01
         21   -1    0    0  501  502  0.00000000000E+00  0.00000000000E+00  0.39042916076E+03  0.39042916076E+03  0.00000000000E+00 0. -1.
         -4   -1    0    0    0  501 -0.00000000000E+00 -0.00000000000E+00 -0.14002909193E+04  0.14002909193E+04  0.00000000000E+00 0. -1.
        -13    1    1    2    0    0 -0.16774796228E+02 -0.33572073311E+03 -0.46621460632E+03  0.57475723113E+03  0.10566000000E+00 0.  1.
         13    1    1    2    0    0 -0.41564958860E+03  0.33821154578E+03 -0.19176819744E+02  0.53620834737E+03  0.10566000000E+00 0. -1.
         -4    1    1    2    0  502  0.43242438483E+03 -0.24908126775E+01 -0.52447033250E+03  0.67975450158E+03  0.00000000000E+00 0. -1.
</event>
<event>
 5    1  0.4419198E-005  0.2816275E+02  0.7818608E-02  0.1451943E+00
         21   -1    0    0  501  502  0.00000000000E+00  0.00000000000E+00  0.89754839798E+02  0.89754839798E+02  0.00000000000E+00 0. -1.
         -4   -1    0    0    0  501 -0.00000000000E+00 -0.00000000000E+00 -0.37873846209E+02  0.37873846209E+02  0.00000000000E+00 0. -1.
        -13    1    1    2    0    0  0.11576485765E+02 -0.12488636332E+02  0.82025585612E+01  0.18901698101E+02  0.10566000000E+00 0.  1.
         13    1    1    2    0    0 -0.38221458916E+02  0.16472053651E+02 -0.14934942670E+02  0.44218459378E+02  0.10566000000E+00 0. -1.
         -4    1    1    2    0  502  0.26644973151E+02 -0.39834173185E+01  0.58613377698E+02  0.64508528528E+02  0.00000000000E+00 0. -1.
</event>
<event>
 5    1  0.4419198E-005  0.4954628E+03  0.7818608E-02  0.9714480E-01
         21   -1    0    0  501  502  0.00000000000E+00  0.00000000000E+00  0.24803944121E+03  0.24803944121E+03  0.00000000000E+00 0.  1.
          4   -1    0    0  502    0 -0.00000000000E+00 -0.00000000000E+00 -0.16085343210E+04  0.16085343210E+04  0.00000000000E+00 0.  1.
        -13    1    1    2    0    0 -0.49588855591E+03 -0.25953432967E+03 -0.34747752550E+03  0.65878992862E+03  0.10566000000E+00 0.  1.
         13    1    1    2    0    0  0.21586787364E+03 -0.49102503521E+02 -0.31991180453E+03  0.38904185965E+03  0.10566000000E+00 0. -1.
          4    1    1    2  501    0  0.28002068227E+03  0.30863683319E+03 -0.69310554972E+03  0.80874197391E+03  0.00000000000E+00 0.  1.
</event>
<event>
 5    1  0.5932041E-005  0.4533758E+03  0.7818608E-02  0.1029728E+00
          4   -1    0    0  502    0 -0.00000000000E+00  0.00000000000E+00  0.39006076501E+03  0.39006076501E+03  0.00000000000E+00 0.  1.
         21   -1    0    0  501  502  0.00000000000E+00 -0.00000000000E+00 -0.77608794213E+03  0.77608794213E+03  0.00000000000E+00 0.  1.
        -13    1    1    2    0    0  0.43319719543E+03  0.85692367815E+02 -0.41986989419E+03  0.60933876558E+03  0.10566000000E+00 0.  1.
         13    1    1    2    0    0  0.42217077383E+02 -0.69544108886E+01  0.60594147586E+02  0.74177539318E+02  0.10566000000E+00 0. -1.
          4    1    1    2  501    0 -0.47541427281E+03 -0.78737956927E+02 -0.26751430514E+02  0.48263240224E+03  0.00000000000E+00 0.  1.
</event>
<event>
 5    1  0.4419198E-005  0.4967872E+03  0.7818608E-02  0.1008709E+00
         21   -1    0    0  501  502  0.00000000000E+00  0.00000000000E+00  0.96342598568E+03  0.96342598568E+03  0.00000000000E+00 0. -1.
         -4   -1    0    0    0  501 -0.00000000000E+00 -0.00000000000E+00 -0.31184154302E+03  0.31184154302E+03  0.00000000000E+00 0. -1.
        -13    1    1    2    0    0  0.23958290674E+02 -0.58418607337E+02 -0.28308326518E+02  0.69196140712E+02  0.10566000000E+00 0.  1.
         13    1    1    2    0    0 -0.30349061559E+03  0.43278343482E+03  0.37721444880E+03  0.64938340505E+03  0.10566000000E+00 0. -1.
         -4    1    1    2    0  502  0.27953232491E+03 -0.37436482749E+03  0.30267832037E+03  0.55668798294E+03  0.00000000000E+00 0. -1.
</event>
<event>
 5    1  0.4419198E-005  0.2265290E+03  0.7818608E-02  0.1067240E+00
          4   -1    0    0  502    0 -0.00000000000E+00  0.00000000000E+00  0.17695886681E+03  0.17695886681E+03  0.00000000000E+00 0.  1.
         21   -1    0    0  501  502  0.00000000000E+00 -0.00000000000E+00 -0.60889816929E+03  0.60889816929E+03  0.00000000000E+00 0.  1.
        -13    1    1    2    0    0 -0.15691853664E+03 -0.26410615456E+03 -0.18237243183E+03  0.35726069343E+03  0.10566000000E+00 0.  1.
         13    1    1    2    0    0  0.52087920462E+02  0.99187071975E+02 -0.52016400304E+00  0.11203351481E+03  0.10566000000E+00 0. -1.
          4    1    1    2  501    0  0.10483061618E+03  0.16491908258E+03 -0.24904670665E+03  0.31656282786E+03  0.00000000000E+00 0.  1.
</event>
<event>
 5    1  0.4419198E-005  0.4936368E+03  0.7818608E-02  0.9770433E-01
         21   -1    0    0  501  502  0.00000000000E+00  0.00000000000E+00  0.87228315911E+03  0.87228315911E+03  0.00000000000E+00 0.  1.
          4   -1    0    0  502    0 -0.00000000000E+00 -0.00000000000E+00 -0.49206517606E+03  0.49206517606E+03  0.00000000000E+00 0.  1.
        -13    1    1    2    0    0  0.40236885072E+03 -0.37935712121E+02  0.58759874757E+02  0.40840242939E+03  0.10566000000E+00 0.  1.
         13    1    1    2    0    0  0.14230649646E+03 -0.11745212136E+03 -0.13489810307E+03  0.22856869672E+03  0.10566000000E+00 0. -1.
          4    1    1    2  501    0 -0.54467534718E+03  0.15538783348E+03  0.45635621136E+03  0.72737720906E+03  0.00000000000E+00 0.  1.
</event>
<event>
 5    1  0.4419198E-005  0.2784150E+03  0.7818608E-02  0.1016635E+00
         21   -1    0    0  501  502  0.00000000000E+00  0.00000000000E+00  0.15692463987E+03  0.15692463987E+03  0.00000000000E+00 0.  1.
         -4   -1    0    0    0  501 -0.00000000000E+00 -0.00000000000E+00 -0.84252335464E+03  0.84252335464E+03  0.00000000000E+00 0. -1.
        -13    1    1    2    0    0  0.32471713661E+01 -0.33215168167E+03 -0.23243983237E+03  0.40541777292E+03  0.10566000000E+00 0.  1.
         13    1    1    2    0    0 -0.21152243402E+02  0.25641765835E+03 -0.44726213074E+03  0.51598532699E+03  0.10566000000E+00 0. -1.
         -4    1    1    2    0  502  0.17905072036E+02  0.75734023320E+02 -0.58967516562E+01  0.78044894599E+02  0.00000000000E+00 0. -1.
</event>
<event>
 5    1  0.4419198E-005  0.2184943E+03  0.7818608E-02  0.1048147E+00
         21   -1    0    0  501  502  0.00000000000E+00  0.00000000000E+00  0.48380880048E+02  0.48380880048E+02  0.00000000000E+00 0.  1.
         -4   -1    0    0    0  501 -0.00000000000E+00 -0.00000000000E+00 -0.12803648871E+04  0.12803648871E+04  0.00000000000E+00 0. -1.
        -13    1    1    2    0    0  0.46243993049E+02  0.21466180850E+03 -0.37897244323E+03  0.43799351915E+03  0.10566000000E+00 0.  1.
         13    1    1    2    0    0 -0.67644409291E+02 -0.20760428969E+03 -0.83116581991E+03  0.85936717330E+03  0.10566000000E+00 0. -1.
         -4    1    1    2    0  502  0.21400416242E+02 -0.70575188138E+01 -0.21845743937E+02  0.31385074722E+02  0.00000000000E+00 0. -1.
</event>
<event>
 5    1  0.4419198E-005  0.5139894E+02  0.7818608E-02  0.1326225E+00
          4   -1    0    0  502    0 -0.00000000000E+00  0.00000000000E+00  0.47950981379E+03  0.47950981379E+03  0.00000000000E+00 0.  1.
         21   -1    0    0  501  502  0.00000000000E+00 -0.00000000000E+00 -0.90484464288E+01  0.90484464288E+01  0.00000000000E+00 0.  1.
        -13    1    1    2    0    0  0.33382998385E+02 -0.50830577338E+02  0.23696248240E+03  0.24464137304E+03  0.10566000000E+00 0.  1.
         13    1    1    2    0    0 -0.23072609650E+02  0.59004718275E+01  0.64979610908E+02  0.69206371684E+02  0.10566000000E+00 0. -1.
          4    1    1    2  501    0 -0.10310388735E+02  0.44930105511E+02  0.16851927405E+03  0.17471051549E+03  0.00000000000E+00 0.  1.
</event>
<event>
 5    1  0.4419198E-005  0.1062527E+03  0.7818608E-02  0.1154605E+00
         -4   -1    0    0    0  501 -0.00000000000E+00  0.00000000000E+00  0.30245531229E+03  0.30245531229E+03  0.00000000000E+00 0. -1.
         21   -1    0    0  501  502  0.00000000000E+00 -0.00000000000E+00 -0.64426060509E+02  0.64426060509E+02  0.00000000000E+00 0. -1.
        -13    1    1    2    0    0  0.97099581253E+02 -0.33859237931E+02  0.17049202853E+03  0.19910379110E+03  0.10566000000E+00 0.  1.
         13    1    1    2    0    0 -0.11871507170E+03  0.99581426687E+01  0.40865655022E+02  0.12594620192E+03  0.10566000000E+00 0. -1.
         -4    1    1    2    0  502  0.21615490450E+02  0.23901095262E+02  0.26671568220E+02  0.41831379770E+02  0.00000000000E+00 0. -1.
</event>
<event>
 5    1  0.4419198E-005  0.4258791E+03  0.7818608E-02  0.9936455E-01
         21   -1    0    0  501  502  0.00000000000E+00  0.00000000000E+00  0.72212304572E+03  0.72212304572E+03  0.00000000000E+00 0. -1.
         -4   -1    0    0    0  501 -0.00000000000E+00 -0.00000000000E+00 -0.46779893556E+03  0.46779893556E+03  0.00000000000E+00 0. -1.
        -13    1    1    2    0    0  0.32915808258E+02 -0.16067886418E+03 -0.28550591204E+02  0.16648211690E+03  0.10566000000E+00 0.  1.
         13    1    1    2    0    0 -0.36439422141E+03  0.37512640980E+03 -0.23812761494E+02  0.52351698224E+03  0.10566000000E+00 0. -1.
         -4    1    1    2    0  502  0.33147841315E+03 -0.21444754562E+03  0.30668746286E+03  0.49992288213E+03  0.00000000000E+00 0. -1.
</event>
<event>
 5    1  0.4419198E-005  0.4982461E+03  0.7818608E-02  0.9594841E-01
          4   -1    0    0  502    0 -0.00000000000E+00  0.00000000000E+00  0.20237015608E+04  0.20237015608E+04  0.00000000000E+00 0.  1.
         21   -1    0    0  501  502  0.00000000000E+00 -0.00000000000E+00 -0.24712736564E+03  0.24712736564E+03  0.00000000000E+00 0.  1.
        -13    1    1    2    0    0  0.50436229670E+03 -0.68190395814E+02  0.52808961129E+03  0.73342341463E+03  0.10566000000E+00 0.  1.
         13    1    1    2    0    0 -0.11612778288E+03 -0.31054362941E+03  0.65033909811E+03  0.72997531562E+03  0.10566000000E+00 0. -1.
          4    1    1    2  501    0 -0.38823451382E+03  0.37873402522E+03  0.59814548577E+03  0.80743019620E+03  0.00000000000E+00 0.  1.
</event>
<event>
 5    1  0.4419198E-005  0.4688458E+03  0.7818608E-02  0.9787263E-01
          4   -1    0    0  502    0 -0.00000000000E+00  0.00000000000E+00  0.14729044573E+04  0.14729044573E+04  0.00000000000E+00 0.  1.
         21   -1    0    0  501  502  0.00000000000E+00 -0.00000000000E+00 -0.48059444707E+03  0.48059444707E+03  0.00000000000E+00 0.  1.
        -13    1    1    2    0    0  0.14635110604E+02  0.43163579134E+03 -0.38918329021E+02  0.43363382055E+03  0.10566000000E+00 0.  1.
         13    1    1    2    0    0 -0.18268109659E+03  0.89179666536E+02  0.94407480337E+03  0.96571354008E+03  0.10566000000E+00 0. -1.
          4    1    1    2  501    0  0.16804598599E+03 -0.52081545787E+03  0.87153535838E+02  0.55415154369E+03  0.00000000000E+00 0.  1.
</event>
<event>
 5    1  0.4419198E-005  0.7513152E+03  0.7818608E-02  0.9051686E-01
         -4   -1    0    0    0  501 -0.00000000000E+00  0.00000000000E+00  0.16416827507E+04  0.16416827507E+04  0.00000000000E+00 0. -1.
         21   -1    0    0  501  502  0.00000000000E+00 -0.00000000000E+00 -0.98164272606E+03  0.98164272606E+03  0.00000000000E+00 0.  1.
        -13    1    1    2    0    0 -0.97045111546E+03  0.38542018721E+02  0.75252835156E+03  0.12286414391E+04  0.10566000000E+00 0.  1.
         13    1    1    2    0    0  0.50924111096E+03  0.38136062329E+03  0.24946664829E+03  0.68337109528E+03  0.10566000000E+00 0. -1.
         -4    1    1    2    0  502  0.46121000450E+03 -0.41990264202E+03 -0.34195497519E+03  0.71131294244E+03  0.00000000000E+00 0. -1.
</event>
<event>
 5    1  0.4419198E-005  0.2003371E+03  0.7818608E-02  0.1059905E+00
         21   -1    0    0  501  502  0.00000000000E+00  0.00000000000E+00  0.26873975028E+03  0.26873975028E+03  0.00000000000E+00 0. -1.
         -4   -1    0    0    0  501 -0.00000000000E+00 -0.00000000000E+00 -0.12622933873E+04  0.12622933873E+04  0.00000000000E+00 0. -1.
        -13    1    1    2    0    0  0.89789585071E+01  0.15198500282E+03 -0.13960875939E+03  0.20656882544E+03  0.10566000000E+00 0.  1.
         13    1    1    2    0    0 -0.33734098323E+02 -0.21332318455E+03 -0.10735783036E+04  0.10950868256E+04  0.10566000000E+00 0. -1.
         -4    1    1    2    0  502  0.24755139816E+02  0.61338181730E+02  0.21963342602E+03  0.22937748650E+03  0.00000000000E+00 0. -1.
</event>
<event>
 5    1  0.4419198E-005  0.1983412E+03  0.7818608E-02  0.1061279E+00
         -4   -1    0    0    0  501 -0.00000000000E+00  0.00000000000E+00  0.36840033472E+03  0.36840033472E+03  0.00000000000E+00 0. -1.
         21   -1    0    0  501  502  0.00000000000E+00 -0.00000000000E+00 -0.22503393023E+03  0.22503393023E+03  0.00000000000E+00 0. -1.
        -13    1    1    2    0    0 -0.57701273758E+02  0.19425637394E+03  0.79277064186E+02  0.21760018354E+03  0.10566000000E+00 0.  1.
         13    1    1    2    0    0  0.48300543768E+02 -0.18963496351E+03  0.17614513196E+03  0.26328972747E+03  0.10566000000E+00 0. -1.
         -4    1    1    2    0  502  0.94007299901E+01 -0.46214104246E+01 -0.11205579166E+03  0.11254435394E+03  0.00000000000E+00 0. -1.
</event>
<event>
 5    1  0.4419198E-005  0.6252165E+02  0.7818608E-02  0.1247832E+00
         -4   -1    0    0    0  501 -0.00000000000E+00  0.00000000000E+00  0.48497108530E+02  0.48497108530E+02  0.00000000000E+00 0. -1.
         21   -1    0    0  501  502  0.00000000000E+00 -0.00000000000E+00 -0.15708281893E+03  0.15708281893E+03  0.00000000000E+00 0.  1.
        -13    1    1    2    0    0 -0.69655683641E+02 -0.48877792909E+00 -0.46716069329E+02  0.83872256825E+02  0.10566000000E+00 0.  1.
         13    1    1    2    0    0  0.58923002460E+02 -0.75738096441E+01 -0.10425848960E+01  0.59417009002E+02  0.10566000000E+00 0. -1.
         -4    1    1    2    0  502  0.10732681181E+02  0.80625875732E+01 -0.60827056176E+02  0.62290661634E+02  0.00000000000E+00 0. -1.
</event>
<event>
 5    1  0.4419198E-005  0.3537867E+03  0.7818608E-02  0.9924585E-01
         21   -1    0    0  501  502  0.00000000000E+00  0.00000000000E+00  0.65070833538E+03  0.65070833538E+03  0.00000000000E+00 0.  1.
          4   -1    0    0  502    0 -0.00000000000E+00 -0.00000000000E+00 -0.64429517243E+03  0.64429517243E+03  0.00000000000E+00 0.  1.
        -13    1    1    2    0    0  0.31655062040E+03 -0.13321712969E+03  0.29782762122E+03  0.45459036731E+03  0.10566000000E+00 0.  1.
         13    1    1    2    0    0  0.15151408145E+03  0.25616347695E+03 -0.58393691650E+02  0.30329206747E+03  0.10566000000E+00 0. -1.
          4    1    1    2  501    0 -0.46806470185E+03 -0.12294634726E+03 -0.23302076662E+03  0.53712107304E+03  0.00000000000E+00 0.  1.
</event>
<event>
 5    1  0.4419198E-005  0.4870161E+03  0.7818608E-02  0.9717032E-01
          4   -1    0    0  502    0 -0.00000000000E+00  0.00000000000E+00  0.29807293688E+04  0.29807293688E+04  0.00000000000E+00 0.  1.
         21   -1    0    0  501  502  0.00000000000E+00 -0.00000000000E+00 -0.13593130964E+03  0.13593130964E+03  0.00000000000E+00 0.  1.
        -13    1    1    2    0    0  0.45424935210E+03  0.32106548599E+03  0.12573154136E+04  0.13748700232E+04  0.10566000000E+00 0.  1.
         13    1    1    2    0    0 -0.43127771178E+01 -0.23100566412E+03  0.77477424297E+03  0.80849078884E+03  0.10566000000E+00 0. -1.
          4    1    1    2  501    0 -0.44993657498E+03 -0.90059821866E+02  0.81270840257E+03  0.93329986641E+03  0.00000000000E+00 0.  1.
</event>
<event>
 5    1  0.4419198E-005  0.3774917E+03  0.7818608E-02  0.9923469E-01
         21   -1    0    0  501  502  0.00000000000E+00  0.00000000000E+00  0.26770311248E+03  0.26770311248E+03  0.00000000000E+00 0. -1.
          4   -1    0    0  502    0 -0.00000000000E+00 -0.00000000000E+00 -0.20444335313E+04  0.20444335313E+04  0.00000000000E+00 0.  1.
        -13    1    1    2    0    0  0.48031956194E+03 -0.31742145460E+03 -0.15451900897E+04  0.16489620026E+04  0.10566000000E+00 0.  1.
         13    1    1    2    0    0 -0.22678714937E+03  0.95072506787E+02  0.13573306819E+02  0.24628324849E+03  0.10566000000E+00 0. -1.
          4    1    1    2  501    0 -0.25353241257E+03  0.22234894781E+03 -0.24511363595E+03  0.41689139274E+03  0.00000000000E+00 0.  1.
</event>
<event>
 5    1  0.4419198E-005  0.8027565E+02  0.7818608E-02  0.1202084E+00
         21   -1    0    0  501  502  0.00000000000E+00  0.00000000000E+00  0.14605741591E+04  0.14605741591E+04  0.00000000000E+00 0. -1.
         -4   -1    0    0    0  501 -0.00000000000E+00 -0.00000000000E+00 -0.24480680368E+02  0.24480680368E+02  0.00000000000E+00 0. -1.
        -13    1    1    2    0    0  0.61301090823E+02  0.60474752222E+02  0.88111586818E+02  0.12320179499E+03  0.10566000000E+00 0.  1.
         13    1    1    2    0    0 -0.69837647625E+02 -0.24266980817E+02  0.19934303333E+03  0.21261194577E+03  0.10566000000E+00 0. -1.
         -4    1    1    2    0  502  0.85365568028E+01 -0.36207771405E+02  0.11486388586E+04  0.11492410988E+04  0.00000000000E+00 0. -1.
</event>
<event>
 5    1  0.4419198E-005  0.2234935E+03  0.7818608E-02  0.1045123E+00
         21   -1    0    0  501  502  0.00000000000E+00  0.00000000000E+00  0.17740439843E+03  0.17740439843E+03  0.00000000000E+00 0.  1.
         -4   -1    0    0    0  501 -0.00000000000E+00 -0.00000000000E+00 -0.45835608878E+03  0.45835608878E+03  0.00000000000E+00 0. -1.
        -13    1    1    2    0    0  0.15302206154E+03 -0.20465382451E+03 -0.45074807673E+02  0.25948157672E+03  0.10566000000E+00 0.  1.
         13    1    1    2    0    0 -0.12741566299E+03  0.16938707151E+03 -0.25246687600E+03  0.32964566706E+03  0.10566000000E+00 0. -1.
         -4    1    1    2    0  502 -0.25606398555E+02  0.35266752999E+02  0.16589993327E+02  0.46633243428E+02  0.00000000000E+00 0. -1.
</event>
<event>
 5    1  0.4419198E-005  0.4448660E+03  0.7818608E-02  0.9978146E-01
          4   -1    0    0  502    0 -0.00000000000E+00  0.00000000000E+00  0.32084901010E+04  0.32084901010E+04  0.00000000000E+00 0.  1.
         21   -1    0    0  501  502  0.00000000000E+00 -0.00000000000E+00 -0.10848091412E+03  0.10848091412E+03  0.00000000000E+00 0.  1.
        -13    1    1    2    0    0 -0.39176684546E+03  0.13639248753E+03  0.60164628274E+03  0.73079575297E+03  0.10566000000E+00 0.  1.
         13    1    1    2    0    0 -0.12399074496E+03 -0.18539165065E+02  0.71821413218E+03  0.72907404035E+03  0.10566000000E+00 0. -1.
          4    1    1    2  501    0  0.51575759043E+03 -0.11785332247E+03  0.17801487719E+04  0.18571012218E+04  0.00000000000E+00 0.  1.
</event>
<event>
 5    1  0.4419198E-005  0.1483103E+03  0.7818608E-02  0.1102790E+00
         21   -1    0    0  501  502  0.00000000000E+00  0.00000000000E+00  0.43866728008E+02  0.43866728008E+02  0.00000000000E+00 0. -1.
         -4   -1    0    0    0  501 -0.00000000000E+00 -0.00000000000E+00 -0.13684413074E+04  0.13684413074E+04  0.00000000000E+00 0. -1.
        -13    1    1    2    0    0  0.52763306555E+02  0.10994208336E+03 -0.47103600245E+03  0.48656567387E+03  0.10566000000E+00 0.  1.
         13    1    1    2    0    0 -0.98218700608E+02 -0.15307062678E+03 -0.84276117292E+03  0.86216236040E+03  0.10566000000E+00 0. -1.
         -4    1    1    2    0  502  0.45455394053E+02  0.43128543417E+02 -0.10777403990E+02  0.63580001121E+02  0.00000000000E+00 0. -1.
</event>
<event>
 5    1  0.4419198E-005  0.4716282E+03  0.7818608E-02  0.9614781E-01
         21   -1    0    0  501  502  0.00000000000E+00  0.00000000000E+00  0.24377979365E+03  0.24377979365E+03  0.00000000000E+00 0.  1.
          4   -1    0    0  502    0 -0.00000000000E+00 -0.00000000000E+00 -0.21144162252E+04  0.21144162252E+04  0.00000000000E+00 0.  1.
        -13    1    1    2    0    0 -0.37289447280E+03  0.23934067420E+03 -0.90581553071E+03  0.10083828802E+04  0.10566000000E+00 0.  1.
         13    1    1    2    0    0  0.24014240341E+03  0.27377072101E+03 -0.61511499517E+03  0.71483232303E+03  0.10566000000E+00 0. -1.
          4    1    1    2  501    0  0.13275206939E+03 -0.51311139521E+03 -0.34970590570E+03  0.63498081570E+03  0.00000000000E+00 0.  1.
</event>
<event>
 5    1  0.4419198E-005  0.1270369E+03  0.7818608E-02  0.1126257E+00
         21   -1    0    0  501  502  0.00000000000E+00  0.00000000000E+00  0.85153630916E+02  0.85153630916E+02  0.00000000000E+00 0.  1.
          4   -1    0    0  502    0 -0.00000000000E+00 -0.00000000000E+00 -0.35724388104E+04  0.35724388104E+04  0.00000000000E+00 0.  1.
        -13    1    1    2    0    0 -0.75955506943E+02  0.41631611888E+02  0.53505617794E+02  0.10181008026E+03  0.10566000000E+00 0.  1.
         13    1    1    2    0    0  0.13107859816E+03  0.15848965593E+02 -0.61985295022E+03  0.63375900756E+03  0.10566000000E+00 0. -1.
          4    1    1    2  501    0 -0.55123091216E+02 -0.57480577481E+02 -0.29209378471E+04  0.29220233535E+04  0.00000000000E+00 0.  1.
</event>
<event>
 5    1  0.4419198E-005  0.8188936E+02  0.7818608E-02  0.1198586E+00
         21   -1    0    0  501  502  0.00000000000E+00  0.00000000000E+00  0.23519436800E+03  0.23519436800E+03  0.00000000000E+00 0. -1.
         -4   -1    0    0    0  501 -0.00000000000E+00 -0.00000000000E+00 -0.70897921693E+02  0.70897921693E+02  0.00000000000E+00 0. -1.
        -13    1    1    2    0    0 -0.12522457226E+02 -0.86790855216E+02  0.89723705374E+02  0.12545843517E+03  0.10566000000E+00 0.  1.
         13    1    1    2    0    0 -0.24721592981E+01  0.80472852038E+02 -0.21388026325E+02  0.83303363203E+02  0.10566000000E+00 0. -1.
         -4    1    1    2    0  502  0.14994616524E+02  0.63180031780E+01  0.95960767256E+02  0.97330491323E+02  0.00000000000E+00 0. -1.
</event>
<event>
 5    1  0.4419198E-005  0.4432040E+03  0.7818608E-02  0.1003275E+00
         21   -1    0    0  501  502  0.00000000000E+00  0.00000000000E+00  0.45873004851E+03  0.45873004851E+03  0.00000000000E+00 0. -1.
         -4   -1    0    0    0  501 -0.00000000000E+00 -0.00000000000E+00 -0.11821267488E+04  0.11821267488E+04  0.00000000000E+00 0. -1.
        -13    1    1    2    0    0  0.94716745977E+02 -0.47660329457E+02 -0.57462189572E+03  0.58432277311E+03  0.10566000000E+00 0.  1.
         13    1    1    2    0    0 -0.46498294458E+03  0.37465804867E+02  0.23570471288E+03  0.52265624279E+03  0.10566000000E+00 0. -1.
         -4    1    1    2    0  502  0.37026619860E+03  0.10194524590E+02 -0.38447951750E+03  0.53387778146E+03  0.00000000000E+00 0. -1.
</event>
<event>
 5    1  0.4419198E-005  0.5891302E+03  0.7818608E-02  0.9689691E-01
         21   -1    0    0  501  502  0.00000000000E+00  0.00000000000E+00  0.62819492367E+03  0.62819492367E+03  0.00000000000E+00 0. -1.
          4   -1    0    0  502    0 -0.00000000000E+00 -0.00000000000E+00 -0.13890952461E+04  0.13890952461E+04  0.00000000000E+00 0.  1.
        -13    1    1    2    0    0  0.11245479319E+03 -0.61338284164E+02 -0.54968395990E+03  0.56441202375E+03  0.10566000000E+00 0.  1.
         13    1    1    2    0    0 -0.20866271040E+03  0.64255973286E+03 -0.45582558602E+03  0.81498473178E+03  0.10566000000E+00 0. -1.
          4    1    1    2  501    0  0.96207917201E+02 -0.58122144869E+03  0.24460922347E+03  0.63789341426E+03  0.00000000000E+00 0.  1.
</event>
<event>
 5    1  0.4419198E-005  0.6062170E+02  0.7818608E-02  0.1253721E+00
         21   -1    0    0  501  502  0.00000000000E+00  0.00000000000E+00  0.11126025669E+03  0.11126025669E+03  0.00000000000E+00 0. -1.
         -4   -1    0    0    0  501 -0.00000000000E+00 -0.00000000000E+00 -0.14017135791E+03  0.14017135791E+03  0.00000000000E+00 0. -1.
        -13    1    1    2    0    0  0.51163878448E+02  0.28330941571E+02  0.61708943016E+01  0.58808807237E+02  0.10566000000E+00 0.  1.
         13    1    1    2    0    0 -0.48152764445E+02 -0.37972796423E+02 -0.10520649012E+03  0.12177454052E+03  0.10566000000E+00 0. -1.
         -4    1    1    2    0  502 -0.30111140032E+01  0.96418548515E+01  0.70124494596E+02  0.70848266845E+02  0.00000000000E+00 0. -1.
</event>
<event>
 5    1  0.4419198E-005  0.5561532E+03  0.7818608E-02  0.9362716E-01
         21   -1    0    0  501  502  0.00000000000E+00  0.00000000000E+00  0.19178678336E+04  0.19178678336E+04  0.00000000000E+00 0. -1.
          4   -1    0    0  502    0 -0.00000000000E+00 -0.00000000000E+00 -0.43132258956E+03  0.43132258956E+03  0.00000000000E+00 0.  1.
        -13    1    1    2    0    0  0.15146150884E+03  0.51920690567E+03 -0.60974690641E+01  0.54088223289E+03  0.10566000000E+00 0.  1.
         13    1    1    2    0    0  0.76811941050E+02 -0.62811887343E+03  0.57013126854E+03  0.85175293834E+03  0.10566000000E+00 0. -1.
          4    1    1    2  501    0 -0.22827344989E+03  0.10891196776E+03  0.92251144457E+03  0.95655525194E+03  0.00000000000E+00 0.  1.
</event>
<event>
 5    1  0.4419198E-005  0.6867751E+02  0.7818608E-02  0.1230241E+00
         21   -1    0    0  501  502  0.00000000000E+00  0.00000000000E+00  0.11110197400E+03  0.11110197400E+03  0.00000000000E+00 0. -1.
          4   -1    0    0  502    0 -0.00000000000E+00 -0.00000000000E+00 -0.86839678130E+02  0.86839678130E+02  0.00000000000E+00 0.  1.
        -13    1    1    2    0    0  0.66183624567E+02 -0.11134039922E+02 -0.30040202281E+02  0.73530020556E+02  0.10566000000E+00 0.  1.
         13    1    1    2    0    0 -0.65442842782E+02  0.35318379523E+02  0.11507402273E+02  0.75250149997E+02  0.10566000000E+00 0. -1.
          4    1    1    2  501    0 -0.74078178573E+00 -0.24184339601E+02  0.42795095873E+02  0.49161481572E+02  0.00000000000E+00 0.  1.
</event>
<event>
 5    1  0.4419198E-005  0.3345643E+03  0.7818608E-02  0.9949782E-01
         21   -1    0    0  501  502  0.00000000000E+00  0.00000000000E+00  0.19343889312E+03  0.19343889312E+03  0.00000000000E+00 0.  1.
          4   -1    0    0  502    0 -0.00000000000E+00 -0.00000000000E+00 -0.26999119207E+04  0.26999119207E+04  0.00000000000E+00 0.  1.
        -13    1    1    2    0    0  0.32836902178E+03  0.12447410310E+03 -0.16554476391E+04  0.16922845250E+04  0.10566000000E+00 0.  1.
         13    1    1    2    0    0 -0.92974507680E+02 -0.36221905378E+03 -0.77123729137E+03  0.85711952070E+03  0.10566000000E+00 0. -1.
          4    1    1    2  501    0 -0.23539451410E+03  0.23774495068E+03 -0.79788097167E+02  0.34394676811E+03  0.00000000000E+00 0.  1.
</event>
<event>
 5    1  0.4419198E-005  0.4437482E+03  0.7818608E-02  0.9610598E-01
         21   -1    0    0  501  502  0.00000000000E+00  0.00000000000E+00  0.99851699740E+03  0.99851699740E+03  0.00000000000E+00 0. -1.
          4   -1    0    0  502    0 -0.00000000000E+00 -0.00000000000E+00 -0.23795630907E+03  0.23795630907E+03  0.00000000000E+00 0.  1.
        -13    1    1    2    0    0  0.71895501524E+02 -0.45256944570E+03  0.31157303166E+03  0.55413521052E+03  0.10566000000E+00 0.  1.
         13    1    1    2    0    0 -0.73527298566E+02  0.42400938660E+03  0.28564805155E+03  0.51651238522E+03  0.10566000000E+00 0. -1.
          4    1    1    2  501    0  0.16317970416E+01  0.28560059096E+02  0.16333960512E+03  0.16582571073E+03  0.00000000000E+00 0.  1.
</event>
<event>
 5    1  0.4419198E-005  0.4092398E+03  0.7818608E-02  0.9912755E-01
         21   -1    0    0  501  502  0.00000000000E+00  0.00000000000E+00  0.11567463471E+03  0.11567463471E+03  0.00000000000E+00 0.  1.
          4   -1    0    0  502    0 -0.00000000000E+00 -0.00000000000E+00 -0.39346871066E+04  0.39346871066E+04  0.00000000000E+00 0.  1.
        -13    1    1    2    0    0  0.18042664020E+03 -0.33522145356E+03 -0.43711804648E+03  0.57965454638E+03  0.10566000000E+00 0.  1.
         13    1    1    2    0    0  0.15855333862E+03 -0.12193572783E+03 -0.64650015138E+03  0.67673476326E+03  0.10566000000E+00 0. -1.
          4    1    1    2  501    0 -0.33897997883E+03  0.45715718138E+03 -0.27353942740E+04  0.27939724317E+04  0.00000000000E+00 0.  1.
</event>
<event>
 5    1  0.4419198E-005  0.3775926E+03  0.7818608E-02  0.9796087E-01
         -4   -1    0    0    0  501 -0.00000000000E+00  0.00000000000E+00  0.27562108661E+03  0.27562108661E+03  0.00000000000E+00 0. -1.
         21   -1    0    0  501  502  0.00000000000E+00 -0.00000000000E+00 -0.56733873448E+03  0.56733873448E+03  0.00000000000E+00 0. -1.
        -13    1    1    2    0    0 -0.36478197424E+03 -0.97698610165E+02 -0.20764821417E+03  0.43096252641E+03  0.10566000000E+00 0.  1.
         13    1    1    2    0    0  0.36102346643E+03  0.11086296026E+03 -0.57372793982E+02  0.38199501034E+03  0.10566000000E+00 0. -1.
         -4    1    1    2    0  502  0.37585078065E+01 -0.13164350090E+02 -0.26696639715E+02  0.30002284351E+02  0.00000000000E+00 0. -1.
</event>
<event>
 5    1  0.4419198E-005  0.1919602E+02  0.7818608E-02  0.1526782E+00
         -4   -1    0    0    0  501 -0.00000000000E+00  0.00000000000E+00  0.14284251491E+02  0.14284251491E+02  0.00000000000E+00 0. -1.
         21   -1    0    0  501  502  0.00000000000E+00 -0.00000000000E+00 -0.16567944744E+03  0.16567944744E+03  0.00000000000E+00 0.  1.
        -13    1    1    2    0    0 -0.19709085116E+02 -0.30615850795E+01 -0.10637207607E+03  0.10822592605E+03  0.10566000000E+00 0.  1.
         13    1    1    2    0    0  0.10087819718E+02 -0.14595830945E+02  0.44856015514E+01  0.18301206872E+02  0.10566000000E+00 0. -1.
         -4    1    1    2    0  502  0.96212653984E+01  0.17657416025E+02 -0.49508721436E+02  0.53436566008E+02  0.00000000000E+00 0. -1.
</event>
<event>
 5    1  0.4419198E-005  0.6511458E+02  0.7818608E-02  0.1240160E+00
          4   -1    0    0  502    0 -0.00000000000E+00  0.00000000000E+00  0.41944767459E+02  0.41944767459E+02  0.00000000000E+00 0.  1.
         21   -1    0    0  501  502  0.00000000000E+00 -0.00000000000E+00 -0.44056298821E+03  0.44056298821E+03  0.00000000000E+00 0.  1.
        -13    1    1    2    0    0  0.22933136160E+02 -0.62879733725E+02  0.45831049244E+01  0.67088044108E+02  0.10566000000E+00 0.  1.
         13    1    1    2    0    0 -0.24547801473E+02  0.51827722846E+02 -0.13115888811E+03  0.14314807895E+03  0.10566000000E+00 0. -1.
          4    1    1    2  501    0  0.16146653125E+01  0.11052010878E+02 -0.27204243756E+03  0.27227163261E+03  0.00000000000E+00 0.  1.
</event>
<event>
 5    1  0.4419198E-005  0.1403108E+03  0.7818608E-02  0.1111081E+00
         -4   -1    0    0    0  501 -0.00000000000E+00  0.00000000000E+00  0.15279756750E+03  0.15279756750E+03  0.00000000000E+00 0. -1.
         21   -1    0    0  501  502  0.00000000000E+00 -0.00000000000E+00 -0.45024888084E+03  0.45024888084E+03  0.00000000000E+00 0. -1.
        -13    1    1    2    0    0 -0.37560608521E+02  0.12401247733E+03 -0.65079107514E+02  0.14500067326E+03  0.10566000000E+00 0.  1.
         13    1    1    2    0    0  0.91314242432E+02 -0.15304402297E+03 -0.31101814729E+03  0.35845929050E+03  0.10566000000E+00 0. -1.
         -4    1    1    2    0  502 -0.53753633911E+02  0.29031545639E+02  0.78645941466E+02  0.99586484574E+02  0.00000000000E+00 0. -1.
</event>
<event>
 5    1  0.4419198E-005  0.2913634E+03  0.7818608E-02  0.1010935E+00
          4   -1    0    0  502    0 -0.00000000000E+00  0.00000000000E+00  0.87147729528E+03  0.87147729528E+03  0.00000000000E+00 0.  1.
         21   -1    0    0  501  502  0.00000000000E+00 -0.00000000000E+00 -0.72645323497E+03  0.72645323497E+03  0.00000000000E+00 0.  1.
        -13    1    1    2    0    0  0.30405634223E+03  0.28876253190E+03  0.25667822081E+03  0.49164802378E+03  0.10566000000E+00 0.  1.
         13    1    1    2    0    0 -0.22582536203E+03 -0.12258960266E+03  0.44844153245E+03  0.51684148828E+03  0.10566000000E+00 0. -1.
          4    1    1    2  501    0 -0.78230980205E+02 -0.16617292924E+03 -0.56009569295E+03  0.58944101820E+03  0.00000000000E+00 0.  1.
</event>
<event>
 5    1  0.4419198E-005  0.4746411E+03  0.7818608E-02  0.9793126E-01
          4   -1    0    0  502    0 -0.00000000000E+00  0.00000000000E+00  0.25296274934E+04  0.25296274934E+04  0.00000000000E+00 0.  1.
         21   -1    0    0  501  502  0.00000000000E+00 -0.00000000000E+00 -0.14750770657E+03  0.14750770657E+03  0.00000000000E+00 0.  1.
        -13    1    1    2    0    0 -0.47469575267E+03 -0.13050676382E+03  0.60371650505E+03  0.77900045099E+03  0.10566000000E+00 0.  1.
         13    1    1    2    0    0  0.10740874260E+03 -0.15919401646E+03  0.61202560740E+03  0.64144736974E+03  0.10566000000E+00 0. -1.
          4    1    1    2  501    0  0.36728701007E+03  0.28970078028E+03  0.11663776743E+04  0.12566873792E+04  0.00000000000E+00 0.  1.
</event>
<event>
 5    1  0.4419198E-005  0.9141362E+02  0.7818608E-02  0.1179601E+00
         21   -1    0    0  501  502  0.00000000000E+00  0.00000000000E+00  0.31212524784E+02  0.31212524784E+02  0.00000000000E+00 0.  1.
         -4   -1    0    0    0  501 -0.00000000000E+00 -0.00000000000E+00 -0.58423166005E+03  0.58423166005E+03  0.00000000000E+00 0. -1.
        -13    1    1    2    0    0  0.91291859592E+01  0.86517324234E+02 -0.71268263172E+02  0.11246228669E+03  0.10566000000E+00 0.  1.
         13    1    1    2    0    0 -0.18662979509E+02 -0.90521991215E+02 -0.48370670157E+03  0.49245783780E+03  0.10566000000E+00 0. -1.
         -4    1    1    2    0  502  0.95337935495E+01  0.40046669807E+01  0.19558294811E+01  0.10524060339E+02  0.00000000000E+00 0. -1.
</event>
<event>
 5    1  0.4419198E-005  0.4648561E+03  0.7818608E-02  0.9900302E-01
          4   -1    0    0  502    0 -0.00000000000E+00  0.00000000000E+00  0.20426096509E+04  0.20426096509E+04  0.00000000000E+00 0.  1.
         21   -1    0    0  501  502  0.00000000000E+00 -0.00000000000E+00 -0.18370597866E+03  0.18370597866E+03  0.00000000000E+00 0.  1.
        -13    1    1    2    0    0 -0.35197571748E+03 -0.22266606413E+03  0.91171654793E+03  0.10023443304E+04  0.10566000000E+00 0.  1.
         13    1    1    2    0    0 -0.11958367364E+03  0.77077971202E+02  0.60972666863E+03  0.62610533478E+03  0.10566000000E+00 0. -1.
          4    1    1    2  501    0  0.47155939112E+03  0.14558809293E+03  0.33746045563E+03  0.59786596430E+03  0.00000000000E+00 0.  1.
</event>
<event>
 5    1  0.4419198E-005  0.1986350E+03  0.7818608E-02  0.1061076E+00
         -4   -1    0    0    0  501 -0.00000000000E+00  0.00000000000E+00  0.98593774659E+02  0.98593774659E+02  0.00000000000E+00 0. -1.
         21   -1    0    0  501  502  0.00000000000E+00 -0.00000000000E+00 -0.65121714096E+03  0.65121714096E+03  0.00000000000E+00 0.  1.
        -13    1    1    2    0    0  0.17413731709E+03  0.47620633380E+02 -0.18210236157E+03  0.25642310968E+03  0.10566000000E+00 0.  1.
         13    1    1    2    0    0 -0.18351823758E+03 -0.14026166046E+03 -0.24041379862E+03  0.33339328525E+03  0.10566000000E+00 0. -1.
         -4    1    1    2    0  502  0.93809204873E+01  0.92641027078E+02 -0.13010720611E+03  0.15999452069E+03  0.00000000000E+00 0. -1.
</event>
<event>
 5    1  0.4419198E-005  0.2125194E+03  0.7818608E-02  0.1066230E+00
         -4   -1    0    0    0  501 -0.00000000000E+00  0.00000000000E+00  0.13939501338E+04  0.13939501338E+04  0.00000000000E+00 0. -1.
         21   -1    0    0  501  502  0.00000000000E+00 -0.00000000000E+00 -0.24258495697E+03  0.24258495697E+03  0.00000000000E+00 0. -1.
        -13    1    1    2    0    0  0.12242700988E+03 -0.67262589620E+02  0.21483437648E+03  0.25625465692E+03  0.10566000000E+00 0.  1.
         13    1    1    2    0    0 -0.95124225283E+02  0.27552596366E+03  0.10847334700E+04  0.11232140878E+04  0.10566000000E+00 0. -1.
         -4    1    1    2    0  502 -0.27302784598E+02 -0.20826337404E+03 -0.14820266963E+03  0.25706634610E+03  0.00000000000E+00 0. -1.
</event>
<event>
 5    1  0.4419198E-005  0.2061212E+03  0.7818608E-02  0.1056019E+00
         -4   -1    0    0    0  501 -0.00000000000E+00  0.00000000000E+00  0.31685813989E+03  0.31685813989E+03  0.00000000000E+00 0. -1.
         21   -1    0    0  501  502  0.00000000000E+00 -0.00000000000E+00 -0.23246008462E+03  0.23246008462E+03  0.00000000000E+00 0.  1.
        -13    1    1    2    0    0 -0.16159231966E+03  0.13974093598E+03 -0.75250399015E+02  0.22649997942E+03  0.10566000000E+00 0.  1.
         13    1    1    2    0    0  0.15239040002E+03 -0.13558041091E+03  0.19733248255E+03  0.28380451313E+03  0.10566000000E+00 0. -1.
         -4    1    1    2    0  502  0.92019196409E+01 -0.41605250743E+01 -0.37684028268E+02  0.39013731947E+02  0.00000000000E+00 0. -1.
</event>
<event>
 5    1  0.4419198E-005  0.1107224E+03  0.7818608E-02  0.1147939E+00
         -4   -1    0    0    0  501 -0.00000000000E+00  0.00000000000E+00  0.60056482421E+03  0.60056482421E+03  0.00000000000E+00 0. -1.
         21   -1    0    0  501  502  0.00000000000E+00 -0.00000000000E+00 -0.30761487869E+03  0.30761487869E+03  0.00000000000E+00 0. -1.
        -13    1    1    2    0    0 -0.90688963343E+01  0.10851419099E+03 -0.72119636838E+02  0.13060944724E+03  0.10566000000E+00 0.  1.
         13    1    1    2    0    0  0.19084773996E+02 -0.10918606431E+03  0.56581724893E+03  0.57657176100E+03  0.10566000000E+00 0. -1.
         -4    1    1    2    0  502 -0.10015877662E+02  0.67187332511E+00 -0.20074766657E+03  0.20099849465E+03  0.00000000000E+00 0. -1.
</event>
<event>
 5    1  0.4419198E-005  0.2826158E+03  0.7818608E-02  0.1014751E+00
          4   -1    0    0  502    0 -0.00000000000E+00  0.00000000000E+00  0.21850150823E+03  0.21850150823E+03  0.00000000000E+00 0.  1.
         21   -1    0    0  501  502  0.00000000000E+00 -0.00000000000E+00 -0.57582043379E+03  0.57582043379E+03  0.00000000000E+00 0. -1.
        -13    1    1    2    0    0 -0.14456572691E+03  0.23010717047E+03 -0.83114203359E+01  0.27187800605E+03  0.10566000000E+00 0.  1.
         13    1    1    2    0    0  0.15327182622E+03 -0.26224583981E+03 -0.18623020683E+03  0.35629599255E+03  0.10566000000E+00 0. -1.
          4    1    1    2  501    0 -0.87060993043E+01  0.32138669340E+02 -0.16277729839E+03  0.16614794343E+03  0.00000000000E+00 0.  1.
</event>
<event>
 5    1  0.4419198E-005  0.3788829E+03  0.7818608E-02  0.9792095E-01
         21   -1    0    0  501  502  0.00000000000E+00  0.00000000000E+00  0.15540312420E+03  0.15540312420E+03  0.00000000000E+00 0.  1.
         -4   -1    0    0    0  501 -0.00000000000E+00 -0.00000000000E+00 -0.17279566111E+04  0.17279566111E+04  0.00000000000E+00 0. -1.
        -13    1    1    2    0    0  0.24804105603E+03  0.16243519768E+03 -0.23180521208E+03  0.37635518653E+03  0.10566000000E+00 0.  1.
         13    1    1    2    0    0 -0.28838119059E+03 -0.30538948212E+03 -0.12788925741E+04  0.13461027725E+04  0.10566000000E+00 0. -1.
         -4    1    1    2    0  502  0.40340134561E+02  0.14295428445E+03 -0.61855700749E+02  0.16090177629E+03  0.00000000000E+00 0. -1.
</event>
<event>
 5    1  0.4419198E-005  0.1578574E+03  0.7818608E-02  0.1093611E+00
         -4   -1    0    0    0  501 -0.00000000000E+00  0.00000000000E+00  0.22156066042E+03  0.22156066042E+03  0.00000000000E+00 0. -1.
         21   -1    0    0  501  502  0.00000000000E+00 -0.00000000000E+00 -0.59265525054E+03  0.59265525054E+03  0.00000000000E+00 0.  1.
        -13    1    1    2    0    0 -0.20107378099E+03  0.45228336935E+02 -0.17920808339E+03  0.27311502372E+03  0.10566000000E+00 0.  1.
         13    1    1    2    0    0  0.15110647673E+03 -0.51300055136E+01  0.13820970232E+03  0.20484486141E+03  0.10566000000E+00 0. -1.
         -4    1    1    2    0  502  0.49967304256E+02 -0.40098331421E+02 -0.33009620905E+03  0.33625602583E+03  0.00000000000E+00 0. -1.
</event>
<event>
 5    1  0.4419198E-005  0.5019741E+03  0.7818608E-02  0.9630674E-01
         -4   -1    0    0    0  501 -0.00000000000E+00  0.00000000000E+00  0.15326433214E+04  0.15326433214E+04  0.00000000000E+00 0. -1.
         21   -1    0    0  501  502  0.00000000000E+00 -0.00000000000E+00 -0.41363931422E+03  0.41363931422E+03  0.00000000000E+00 0. -1.
        -13    1    1    2    0    0  0.87107094670E+02 -0.27189855262E+03  0.78821647931E+03  0.83833268950E+03  0.10566000000E+00 0.  1.
         13    1    1    2    0    0 -0.51708773570E+03  0.34446074785E+03  0.18950214299E+03  0.64957217196E+03  0.10566000000E+00 0. -1.
         -4    1    1    2    0  502  0.42998064103E+03 -0.72562195237E+02  0.14128538483E+03  0.45837777411E+03  0.00000000000E+00 0. -1.
</event>
<event>
 5    1  0.4419198E-005  0.4746185E+03  0.7818608E-02  0.9739978E-01
          4   -1    0    0  502    0 -0.00000000000E+00  0.00000000000E+00  0.11703698305E+04  0.11703698305E+04  0.00000000000E+00 0.  1.
         21   -1    0    0  501  502  0.00000000000E+00 -0.00000000000E+00 -0.61825767225E+03  0.61825767225E+03  0.00000000000E+00 0.  1.
        -13    1    1    2    0    0  0.12384313733E+03 -0.34367137798E+03  0.19303327738E+03  0.41316945198E+03  0.10566000000E+00 0.  1.
         13    1    1    2    0    0  0.22078114566E+03 -0.66435868931E+02  0.70235190310E+03  0.73922678923E+03  0.10566000000E+00 0. -1.
          4    1    1    2  501    0 -0.34462428299E+03  0.41010724692E+03 -0.34327302221E+03  0.63623126155E+03  0.00000000000E+00 0.  1.
</event>
<event>
 5    1  0.4419198E-005  0.4403146E+03  0.7818608E-02  0.9681628E-01
         -4   -1    0    0    0  501 -0.00000000000E+00  0.00000000000E+00  0.69985559516E+03  0.69985559516E+03  0.00000000000E+00 0. -1.
         21   -1    0    0  501  502  0.00000000000E+00 -0.00000000000E+00 -0.93408197257E+03  0.93408197257E+03  0.00000000000E+00 0. -1.
        -13    1    1    2    0    0 -0.43637700091E+02 -0.35096435544E+03  0.27272107918E+03  0.44660611936E+03  0.10566000000E+00 0.  1.
         13    1    1    2    0    0  0.45132499280E+03  0.88281528930E+02 -0.53011776131E+03  0.70179251172E+03  0.10566000000E+00 0. -1.
         -4    1    1    2    0  502 -0.40768729271E+03  0.26268282651E+03  0.23170304726E+02  0.48553893665E+03  0.00000000000E+00 0. -1.
</event>
<event>
 5    1  0.4419198E-005  0.1569946E+03  0.7818608E-02  0.1094411E+00
         21   -1    0    0  501  502  0.00000000000E+00  0.00000000000E+00  0.34548122627E+03  0.34548122627E+03  0.00000000000E+00 0.  1.
         -4   -1    0    0    0  501 -0.00000000000E+00 -0.00000000000E+00 -0.33038145864E+03  0.33038145864E+03  0.00000000000E+00 0. -1.
        -13    1    1    2    0    0  0.31433805559E+02 -0.94173252384E+02  0.16970456438E+03  0.19661214594E+03  0.10566000000E+00 0.  1.
         13    1    1    2    0    0 -0.11258070625E+03  0.12074089171E+03 -0.28148043408E+03  0.32631889967E+03  0.10566000000E+00 0. -1.
         -4    1    1    2    0  502  0.81146900690E+02 -0.26567639322E+02  0.12687563732E+03  0.15293163929E+03  0.00000000000E+00 0. -1.
</event>
<event>
 5    1  0.4419198E-005  0.3396625E+03  0.7818608E-02  0.9921606E-01
          4   -1    0    0  502    0 -0.00000000000E+00  0.00000000000E+00  0.24668483046E+04  0.24668483046E+04  0.00000000000E+00 0.  1.
         21   -1    0    0  501  502  0.00000000000E+00 -0.00000000000E+00 -0.33965182652E+03  0.33965182652E+03  0.00000000000E+00 0.  1.
        -13    1    1    2    0    0  0.28509970557E+03  0.17714075579E+03  0.12451100381E+04  0.12895579505E+04  0.10566000000E+00 0.  1.
         13    1    1    2    0    0 -0.28860184535E+03 -0.18749024489E+03  0.11747245169E+04  0.12241002079E+04  0.10566000000E+00 0. -1.
          4    1    1    2  501    0  0.35021397749E+01  0.10349489098E+02 -0.29263807698E+03  0.29284197276E+03  0.00000000000E+00 0.  1.
</event>
<event>
 5    1  0.4419198E-005  0.1903814E+03  0.7818608E-02  0.1066938E+00
         21   -1    0    0  501  502  0.00000000000E+00  0.00000000000E+00  0.22462106450E+03  0.22462106450E+03  0.00000000000E+00 0.  1.
         -4   -1    0    0    0  501 -0.00000000000E+00 -0.00000000000E+00 -0.30595913067E+03  0.30595913067E+03  0.00000000000E+00 0. -1.
        -13    1    1    2    0    0  0.18743440088E+02  0.19664915686E+03 -0.18701896824E+03  0.27202630955E+03  0.10566000000E+00 0.  1.
         13    1    1    2    0    0 -0.67239306868E+02 -0.16151008044E+03  0.67430715859E+02  0.18749278140E+03  0.10566000000E+00 0. -1.
         -4    1    1    2    0  502  0.48495866779E+02 -0.35139076416E+02  0.38250186216E+02  0.71061104211E+02  0.00000000000E+00 0. -1.
</event>
<event>
 5    1  0.4419198E-005  0.1195922E+03  0.7818608E-02  0.1135680E+00
         21   -1    0    0  501  502  0.00000000000E+00  0.00000000000E+00  0.22857439693E+03  0.22857439693E+03  0.00000000000E+00 0.  1.
         -4   -1    0    0    0  501 -0.00000000000E+00 -0.00000000000E+00 -0.15802272214E+03  0.15802272214E+03  0.00000000000E+00 0. -1.
        -13    1    1    2    0    0 -0.81852788076E+02 -0.73497413593E+02  0.11449949498E+03  0.15878253757E+03  0.10566000000E+00 0.  1.
         13    1    1    2    0    0  0.66757436796E+02  0.10239748209E+03 -0.10333720020E+03  0.16006369924E+03  0.10566000000E+00 0. -1.
         -4    1    1    2    0  502  0.15095351280E+02 -0.28900068496E+02  0.59389380007E+02  0.67750882259E+02  0.00000000000E+00 0. -1.
</event>
<event>
 5    1  0.4419198E-005  0.1037854E+03  0.7818608E-02  0.1158440E+00
         21   -1    0    0  501  502  0.00000000000E+00  0.00000000000E+00  0.69806268280E+03  0.69806268280E+03  0.00000000000E+00 0. -1.
         -4   -1    0    0    0  501 -0.00000000000E+00 -0.00000000000E+00 -0.10882373471E+03  0.10882373471E+03  0.00000000000E+00 0. -1.
        -13    1    1    2    0    0 -0.96427945627E+02 -0.93550660959E+02  0.55745214788E+02  0.14545657427E+03  0.10566000000E+00 0.  1.
         13    1    1    2    0    0  0.92480250015E+02  0.26864665997E+02 -0.24565076024E+02  0.99386925931E+02  0.10566000000E+00 0. -1.
         -4    1    1    2    0  502  0.39476956120E+01  0.66685994963E+02  0.55805880933E+03  0.56204291731E+03  0.00000000000E+00 0. -1.
</event>
<event>
 5    1  0.4419198E-005  0.3621428E+03  0.7818608E-02  0.9845240E-01
         21   -1    0    0  501  502  0.00000000000E+00  0.00000000000E+00  0.10150397347E+04  0.10150397347E+04  0.00000000000E+00 0.  1.
         -4   -1    0    0    0  501 -0.00000000000E+00 -0.00000000000E+00 -0.15861228261E+03  0.15861228261E+03  0.00000000000E+00 0. -1.
        -13    1    1    2    0    0 -0.36524615539E+03 -0.10412456958E+02  0.27815686394E+03  0.45922154284E+03  0.10566000000E+00 0.  1.
         13    1    1    2    0    0  0.35461168930E+03  0.60205994433E+02  0.44774547916E+03  0.57432589810E+03  0.10566000000E+00 0. -1.
         -4    1    1    2    0  502  0.10634466092E+02 -0.49793537475E+02  0.13052510897E+03  0.14010457635E+03  0.00000000000E+00 0. -1.
</event>
<event>
 5    1  0.4419198E-005  0.4531379E+03  0.7818608E-02  0.1012184E+00
         -4   -1    0    0    0  501 -0.00000000000E+00  0.00000000000E+00  0.10728403792E+04  0.10728403792E+04  0.00000000000E+00 0. -1.
         21   -1    0    0  501  502  0.00000000000E+00 -0.00000000000E+00 -0.26754764439E+03  0.26754764439E+03  0.00000000000E+00 0. -1.
        -13    1    1    2    0    0  0.34876589472E+02  0.65738496939E+02  0.56970259199E+02  0.93720585093E+02  0.10566000000E+00 0.  1.
         13    1    1    2    0    0 -0.44321154797E+03  0.12712688929E+03  0.62842144249E+03  0.77943007562E+03  0.10566000000E+00 0. -1.
         -4    1    1    2    0  502  0.40833495850E+03 -0.19286538623E+03  0.11990103315E+03  0.46723736290E+03  0.00000000000E+00 0. -1.
</event>
<event>
 5    1  0.4419198E-005  0.9447029E+02  0.7818608E-02  0.1174043E+00
          4   -1    0    0  502    0 -0.00000000000E+00  0.00000000000E+00  0.21370612378E+03  0.21370612378E+03  0.00000000000E+00 0.  1.
         21   -1    0    0  501  502  0.00000000000E+00 -0.00000000000E+00 -0.62808550612E+02  0.62808550612E+02  0.00000000000E+00 0. -1.
        -13    1    1    2    0    0  0.78070307567E+02  0.51664503841E+02  0.13933412001E+03  0.16786364122E+03  0.10566000000E+00 0.  1.
         13    1    1    2    0    0 -0.75370769422E+02 -0.61694418103E+02  0.12599717608E+02  0.98212617093E+02  0.10566000000E+00 0. -1.
          4    1    1    2  501    0 -0.26995381450E+01  0.10029914262E+02 -0.10362644479E+01  0.10438416082E+02  0.00000000000E+00 0.  1.
</event>
<event>
 5    1  0.4419198E-005  0.6207463E+03  0.7818608E-02  0.9246630E-01
         21   -1    0    0  501  502  0.00000000000E+00  0.00000000000E+00  0.32077485727E+03  0.32077485727E+03  0.00000000000E+00 0.  1.
         -4   -1    0    0    0  501 -0.00000000000E+00 -0.00000000000E+00 -0.18851295037E+04  0.18851295037E+04  0.00000000000E+00 0. -1.
        -13    1    1    2    0    0  0.34546168670E+03 -0.51915821937E+03 -0.44743316114E+03  0.76750601208E+03  0.10566000000E+00 0.  1.
         13    1    1    2    0    0 -0.35437905737E+03  0.50807747201E+03 -0.12019504915E+04  0.13521879415E+04  0.10566000000E+00 0. -1.
         -4    1    1    2    0  502  0.89173706743E+01  0.11080747369E+02  0.85029006181E+02  0.86210407458E+02  0.00000000000E+00 0. -1.
</event>
<event>
 5    1  0.4419198E-005  0.2762320E+03  0.7818608E-02  0.1029242E+00
         21   -1    0    0  501  502  0.00000000000E+00  0.00000000000E+00  0.11508401893E+04  0.11508401893E+04  0.00000000000E+00 0. -1.
         -4   -1    0    0    0  501 -0.00000000000E+00 -0.00000000000E+00 -0.46870764865E+03  0.46870764865E+03  0.00000000000E+00 0. -1.
        -13    1    1    2    0    0 -0.20069411376E+03  0.38291273126E+03  0.40489627047E+03  0.59231856975E+03  0.10566000000E+00 0.  1.
         13    1    1    2    0    0 -0.81649721228E+02 -0.20959012203E+03 -0.29200768691E+03  0.36859625148E+03  0.10566000000E+00 0. -1.
         -4    1    1    2    0  502  0.28234383499E+03 -0.17332260923E+03  0.56924395706E+03  0.65863301669E+03  0.00000000000E+00 0. -1.
</event>
<event>
 5    1  0.4419198E-005  0.4066201E+03  0.7818608E-02  0.9794480E-01
          4   -1    0    0  502    0 -0.00000000000E+00  0.00000000000E+00  0.37317933087E+04  0.37317933087E+04  0.00000000000E+00 0.  1.
         21   -1    0    0  501  502  0.00000000000E+00 -0.00000000000E+00 -0.13121860204E+03  0.13121860204E+03  0.00000000000E+00 0.  1.
        -13    1    1    2    0    0  0.46461522379E+03 -0.39184638033E+03  0.18725300270E+04  0.19686999784E+04  0.10566000000E+00 0.  1.
         13    1    1    2    0    0 -0.12030531601E+03  0.27921076741E+03  0.12926209716E+04  0.13278934479E+04  0.10566000000E+00 0. -1.
          4    1    1    2  501    0 -0.34430990778E+03  0.11263561292E+03  0.43542370812E+03  0.56641848442E+03  0.00000000000E+00 0.  1.
</event>
<event>
 5    1  0.4419198E-005  0.6030839E+03  0.7818608E-02  0.9276840E-01
         -4   -1    0    0    0  501 -0.00000000000E+00  0.00000000000E+00  0.62455161774E+03  0.62455161774E+03  0.00000000000E+00 0. -1.
         21   -1    0    0  501  502  0.00000000000E+00 -0.00000000000E+00 -0.10007158627E+04  0.10007158627E+04  0.00000000000E+00 0.  1.
        -13    1    1    2    0    0 -0.41080579884E+03 -0.15769037074E+03 -0.28171565212E+03  0.52248576746E+03  0.10566000000E+00 0.  1.
         13    1    1    2    0    0  0.71214121757E+03  0.28990908401E+03 -0.47167672794E+02  0.77033576528E+03  0.10566000000E+00 0. -1.
         -4    1    1    2    0  502 -0.30133541873E+03 -0.13221871328E+03 -0.47280920006E+02  0.33244594767E+03  0.00000000000E+00 0. -1.
</event>
<event>
 5    1  0.4419198E-005  0.5006311E+03  0.7818608E-02  0.9611142E-01
         21   -1    0    0  501  502  0.00000000000E+00  0.00000000000E+00  0.18539678994E+03  0.18539678994E+03  0.00000000000E+00 0.  1.
         -4   -1    0    0    0  501 -0.00000000000E+00 -0.00000000000E+00 -0.24869976684E+04  0.24869976684E+04  0.00000000000E+00 0. -1.
        -13    1    1    2    0    0  0.13765447860E+03 -0.27600633939E+03 -0.56892926836E+03  0.64715436985E+03  0.10566000000E+00 0.  1.
         13    1    1    2    0    0 -0.56486774746E+03  0.91168801886E+02 -0.80881582579E+03  0.99074233470E+03  0.10566000000E+00 0. -1.
         -4    1    1    2    0  502  0.42721326887E+03  0.18483753751E+03 -0.92385578434E+03  0.10344977538E+04  0.00000000000E+00 0. -1.
</event>
<event>
 5    1  0.4419198E-005  0.3994952E+03  0.7818608E-02  0.9801532E-01
         21   -1    0    0  501  502  0.00000000000E+00  0.00000000000E+00  0.25846934080E+03  0.25846934080E+03  0.00000000000E+00 0.  1.
          4   -1    0    0  502    0 -0.00000000000E+00 -0.00000000000E+00 -0.23831483979E+04  0.23831483979E+04  0.00000000000E+00 0.  1.
        -13    1    1    2    0    0  0.76488572376E+02  0.39290292355E+03 -0.55843033008E+02  0.40415549549E+03  0.10566000000E+00 0.  1.
         13    1    1    2    0    0 -0.31136507386E+03  0.31523357833E+02 -0.12229488142E+04  0.12623572175E+04  0.10566000000E+00 0. -1.
          4    1    1    2  501    0  0.23487650148E+03 -0.42442628138E+03 -0.84588720988E+03  0.97510502568E+03  0.00000000000E+00 0.  1.
</event>
<event>
 5    1  0.4419198E-005  0.2658522E+03  0.7818608E-02  0.1028068E+00
         21   -1    0    0  501  502  0.00000000000E+00  0.00000000000E+00  0.11943730133E+04  0.11943730133E+04  0.00000000000E+00 0.  1.
          4   -1    0    0  502    0 -0.00000000000E+00 -0.00000000000E+00 -0.50542749765E+03  0.50542749765E+03  0.00000000000E+00 0.  1.
        -13    1    1    2    0    0  0.13442664774E+03  0.41208021367E+03  0.10387072982E+02  0.43357643913E+03  0.10566000000E+00 0.  1.
         13    1    1    2    0    0  0.33615745792E+02 -0.22085349961E+03 -0.23121404128E+03  0.32150619077E+03  0.10566000000E+00 0. -1.
          4    1    1    2  501    0 -0.16804239354E+03 -0.19122671406E+03  0.90977248397E+03  0.94471788105E+03  0.00000000000E+00 0.  1.
</event>
<event>
 5    1  0.4419198E-005  0.1728526E+03  0.7818608E-02  0.1080528E+00
          4   -1    0    0  502    0 -0.00000000000E+00  0.00000000000E+00  0.89025557739E+03  0.89025557739E+03  0.00000000000E+00 0.  1.
         21   -1    0    0  501  502  0.00000000000E+00 -0.00000000000E+00 -0.77610530872E+02  0.77610530872E+02  0.00000000000E+00 0. -1.
        -13    1    1    2    0    0 -0.37120995834E+02  0.16775571373E+03  0.70870748915E+03  0.72923676825E+03  0.10566000000E+00 0.  1.
         13    1    1    2    0    0  0.12708264402E+02 -0.17906760065E+03  0.11067489488E+03  0.21089250605E+03  0.10566000000E+00 0. -1.
          4    1    1    2  501    0  0.24412731432E+02  0.11311886918E+02 -0.67373375097E+01  0.27736833964E+02  0.00000000000E+00 0.  1.
</event>
<event>
 5    1  0.4419198E-005  0.5382926E+02  0.7818608E-02  0.1276937E+00
         21   -1    0    0  501  502  0.00000000000E+00  0.00000000000E+00  0.25507143512E+03  0.25507143512E+03  0.00000000000E+00 0.  1.
          4   -1    0    0  502    0 -0.00000000000E+00 -0.00000000000E+00 -0.41470550444E+02  0.41470550444E+02  0.00000000000E+00 0.  1.
        -13    1    1    2    0    0 -0.33965300096E+02  0.63538934419E+02  0.14915106421E+03  0.16564084314E+03  0.10566000000E+00 0.  1.
         13    1    1    2    0    0  0.19893027445E+02 -0.47449815920E+02 -0.10887214796E+02  0.52590495166E+02  0.10566000000E+00 0. -1.
          4    1    1    2  501    0  0.14072272651E+02 -0.16089118499E+02  0.75337035260E+02  0.78310647254E+02  0.00000000000E+00 0.  1.
</event>
<event>
 5    1  0.4419198E-005  0.1216506E+03  0.7818608E-02  0.1136232E+00
         21   -1    0    0  501  502  0.00000000000E+00  0.00000000000E+00  0.34431705859E+03  0.34431705859E+03  0.00000000000E+00 0. -1.
          4   -1    0    0  502    0 -0.00000000000E+00 -0.00000000000E+00 -0.11208636141E+04  0.11208636141E+04  0.00000000000E+00 0.  1.
        -13    1    1    2    0    0 -0.22563790880E+02 -0.56331134442E+02  0.24110294553E+03  0.24862212869E+03  0.10566000000E+00 0.  1.
         13    1    1    2    0    0 -0.86825843459E+02  0.12037971335E+03  0.38091314582E+02  0.15323498912E+03  0.10566000000E+00 0. -1.
          4    1    1    2  501    0  0.10938963434E+03 -0.64048578912E+02 -0.10557408156E+04  0.10633235549E+04  0.00000000000E+00 0.  1.
</event>
<event>
 5    1  0.4419198E-005  0.3588037E+03  0.7818608E-02  0.1004882E+00
          4   -1    0    0  502    0 -0.00000000000E+00  0.00000000000E+00  0.76272586323E+03  0.76272586323E+03  0.00000000000E+00 0.  1.
         21   -1    0    0  501  502  0.00000000000E+00 -0.00000000000E+00 -0.53196976283E+03  0.53196976283E+03  0.00000000000E+00 0.  1.
        -13    1    1    2    0    0  0.32412021324E+03 -0.35205968258E+03  0.30739587708E+03  0.56876371996E+03  0.10566000000E+00 0.  1.
         13    1    1    2    0    0 -0.18518086557E+03  0.41008076730E+02  0.20836686927E+03  0.28176298320E+03  0.10566000000E+00 0. -1.
          4    1    1    2  501    0 -0.13893934767E+03  0.31105160585E+03 -0.28500664594E+03  0.44416892290E+03  0.00000000000E+00 0.  1.
</event>
<event>
 5    1  0.4419198E-005  0.6497213E+03  0.7818608E-02  0.9199290E-01
         21   -1    0    0  501  502  0.00000000000E+00  0.00000000000E+00  0.74659231163E+03  0.74659231163E+03  0.00000000000E+00 0.  1.
          4   -1    0    0  502    0 -0.00000000000E+00 -0.00000000000E+00 -0.12891640746E+04  0.12891640746E+04  0.00000000000E+00 0.  1.
        -13    1    1    2    0    0  0.56996988359E+03  0.28555740130E+03 -0.47252135826E+03  0.79352702715E+03  0.10566000000E+00 0.  1.
         13    1    1    2    0    0 -0.40094702440E+03 -0.59832377715E+03 -0.33939683125E+03  0.79620354113E+03  0.10566000000E+00 0. -1.
          4    1    1    2  501    0 -0.16902285919E+03  0.31276637585E+03  0.26934642654E+03  0.44602581795E+03  0.00000000000E+00 0.  1.
</event>
<event>
 5    1  0.4419198E-005  0.3063733E+03  0.7818608E-02  0.1042824E+00
         -4   -1    0    0    0  501 -0.00000000000E+00  0.00000000000E+00  0.52373732578E+03  0.52373732578E+03  0.00000000000E+00 0. -1.
         21   -1    0    0  501  502  0.00000000000E+00 -0.00000000000E+00 -0.57791329576E+03  0.57791329576E+03  0.00000000000E+00 0. -1.
        -13    1    1    2    0    0 -0.71024175374E+02  0.59988179767E+02 -0.50458352228E+02  0.10577840835E+03  0.10566000000E+00 0.  1.
         13    1    1    2    0    0  0.36812965876E+03 -0.85566720743E+02  0.36244101075E+03  0.52364549726E+03  0.10566000000E+00 0. -1.
         -4    1    1    2    0  502 -0.29710548339E+03  0.25578540976E+02 -0.36615862851E+03  0.47222671594E+03  0.00000000000E+00 0. -1.
</event>
<event>
 5    1  0.4419198E-005  0.5033947E+02  0.7818608E-02  0.1290413E+00
          4   -1    0    0  502    0 -0.00000000000E+00  0.00000000000E+00  0.28223348258E+02  0.28223348258E+02  0.00000000000E+00 0.  1.
         21   -1    0    0  501  502  0.00000000000E+00 -0.00000000000E+00 -0.12151824369E+03  0.12151824369E+03  0.00000000000E+00 0. -1.
        -13    1    1    2    0    0 -0.34605284413E+02  0.28184382605E+02 -0.68033228443E+02  0.81365941699E+02  0.10566000000E+00 0.  1.
         13    1    1    2    0    0  0.37691216524E+02 -0.37817076949E+02 -0.20454865303E+02  0.57176671734E+02  0.10566000000E+00 0. -1.
          4    1    1    2  501    0 -0.30859321106E+01  0.96326943436E+01 -0.48068016861E+01  0.11198978514E+02  0.00000000000E+00 0.  1.
</event>
<event>
 5    1  0.4419198E-005  0.2982778E+03  0.7818608E-02  0.1008019E+00
         21   -1    0    0  501  502  0.00000000000E+00  0.00000000000E+00  0.43011366857E+03  0.43011366857E+03  0.00000000000E+00 0.  1.
          4   -1    0    0  502    0 -0.00000000000E+00 -0.00000000000E+00 -0.12763134670E+04  0.12763134670E+04  0.00000000000E+00 0.  1.
        -13    1    1    2    0    0  0.19993929887E+03  0.31486622559E+03 -0.60596225479E+03  0.71155233725E+03  0.10566000000E+00 0.  1.
         13    1    1    2    0    0 -0.90171580225E+02 -0.24495553460E+03 -0.57729584675E+03  0.63356501928E+03  0.10566000000E+00 0. -1.
          4    1    1    2  501    0 -0.10976771864E+03 -0.69910690987E+02  0.33705830309E+03  0.36130977907E+03  0.00000000000E+00 0.  1.
</event>
<event>
 5    1  0.4419198E-005  0.1675165E+03  0.7818608E-02  0.1085014E+00
          4   -1    0    0  502    0 -0.00000000000E+00  0.00000000000E+00  0.29238605250E+03  0.29238605250E+03  0.00000000000E+00 0.  1.
         21   -1    0    0  501  502  0.00000000000E+00 -0.00000000000E+00 -0.34490592360E+03  0.34490592360E+03  0.00000000000E+00 0. -1.
        -13    1    1    2    0    0  0.17277855046E+03 -0.92743624924E+01  0.21526718739E+03  0.27618547107E+03  0.10566000000E+00 0.  1.
         13    1    1    2    0    0 -0.11422063927E+03  0.41276464596E+02 -0.26815225625E+03  0.29437347819E+03  0.10566000000E+00 0. -1.
          4    1    1    2  501    0 -0.58557911191E+02 -0.32002102104E+02  0.36519776848E+00  0.66733026843E+02  0.00000000000E+00 0.  1.
</event>
<event>
 5    1  0.4419198E-005  0.1172064E+03  0.7818608E-02  0.1138860E+00
          4   -1    0    0  502    0 -0.00000000000E+00  0.00000000000E+00  0.98923492044E+03  0.98923492044E+03  0.00000000000E+00 0.  1.
         21   -1    0    0  501  502  0.00000000000E+00 -0.00000000000E+00 -0.22196079900E+02  0.22196079900E+02  0.00000000000E+00 0.  1.
        -13    1    1    2    0    0 -0.91090233007E+02  0.83378970083E+02  0.70835884522E+03  0.71904224352E+03  0.10566000000E+00 0.  1.
         13    1    1    2    0    0  0.87976134806E+02 -0.57261171615E+02  0.23334820861E+03  0.25587113885E+03  0.10566000000E+00 0. -1.
          4    1    1    2  501    0  0.31140982011E+01 -0.26117798468E+02  0.25331786712E+02  0.36517617973E+02  0.00000000000E+00 0.  1.
</event>
<event>
 5    1  0.4419198E-005  0.5006641E+03  0.7818608E-02  0.9575210E-01
         21   -1    0    0  501  502  0.00000000000E+00  0.00000000000E+00  0.31316561716E+03  0.31316561716E+03  0.00000000000E+00 0. -1.
         -4   -1    0    0    0  501 -0.00000000000E+00 -0.00000000000E+00 -0.22798634151E+04  0.22798634151E+04  0.00000000000E+00 0. -1.
        -13    1    1    2    0    0  0.26456236203E+03 -0.22987555242E+03 -0.12730658550E+04  0.13204289816E+04  0.10566000000E+00 0.  1.
         13    1    1    2    0    0 -0.15273261345E+03  0.60140151836E+03 -0.21549797395E+03  0.65684886042E+03  0.10566000000E+00 0. -1.
         -4    1    1    2    0  502 -0.11182974858E+03 -0.37152596594E+03 -0.47813396899E+03  0.61575119028E+03  0.00000000000E+00 0. -1.
</event>
<event>
 5    1  0.4419198E-005  0.2199377E+03  0.7818608E-02  0.1047265E+00
          4   -1    0    0  502    0 -0.00000000000E+00  0.00000000000E+00  0.60751815510E+03  0.60751815510E+03  0.00000000000E+00 0.  1.
         21   -1    0    0  501  502  0.00000000000E+00 -0.00000000000E+00 -0.24750722237E+03  0.24750722237E+03  0.00000000000E+00 0. -1.
        -13    1    1    2    0    0  0.20563752651E+03  0.81589607447E+02  0.52575098312E+03  0.57040140582E+03  0.10566000000E+00 0.  1.
         13    1    1    2    0    0 -0.19008527733E+03 -0.87278632554E+02 -0.13281714953E+03  0.24777081896E+03  0.10566000000E+00 0. -1.
          4    1    1    2  501    0 -0.15552249187E+02  0.56890251064E+01 -0.32922900854E+02  0.36853152675E+02  0.00000000000E+00 0.  1.
</event>
<event>
 5    1  0.4419198E-005  0.4894031E+03  0.7818608E-02  0.9524640E-01
         -4   -1    0    0    0  501 -0.00000000000E+00  0.00000000000E+00  0.82716314395E+03  0.82716314395E+03  0.00000000000E+00 0. -1.
         21   -1    0    0  501  502  0.00000000000E+00 -0.00000000000E+00 -0.75859817911E+03  0.75859817911E+03  0.00000000000E+00 0. -1.
        -13    1    1    2    0    0 -0.26010288079E+03  0.36727747363E+03  0.20652747329E+03  0.49517659438E+03  0.10566000000E+00 0.  1.
         13    1    1    2    0    0 -0.17306372736E+03 -0.55939559725E+03 -0.18577783832E+03  0.61431905744E+03  0.10566000000E+00 0. -1.
         -4    1    1    2    0  502  0.43316660815E+03  0.19211812362E+03  0.47815329881E+02  0.47626567125E+03  0.00000000000E+00 0. -1.
</event>
<event>
 5    1  0.4419198E-005  0.1413774E+03  0.7818608E-02  0.1109941E+00
         -4   -1    0    0    0  501 -0.00000000000E+00  0.00000000000E+00  0.28179966476E+03  0.28179966476E+03  0.00000000000E+00 0. -1.
         21   -1    0    0  501  502  0.00000000000E+00 -0.00000000000E+00 -0.94668534438E+02  0.94668534438E+02  0.00000000000E+00 0.  1.
        -13    1    1    2    0    0 -0.56245261764E+02 -0.10923478984E+03  0.44893191652E+02  0.13080970378E+03  0.10566000000E+00 0.  1.
         13    1    1    2    0    0  0.58481380011E+02  0.14565216556E+03  0.13787642904E+03  0.20891277124E+03  0.10566000000E+00 0. -1.
         -4    1    1    2    0  502 -0.22361182467E+01 -0.36417375723E+02  0.43615096344E+01  0.36745724182E+02  0.00000000000E+00 0. -1.
</event>
<event>
 5    1  0.5504900E-005  0.4149021E+03  0.7818608E-02  0.1021400E+00
         21   -1    0    0  501  502  0.00000000000E+00  0.00000000000E+00  0.76094942801E+03  0.76094942801E+03  0.00000000000E+00 0. -1.
         -4   -1    0    0    0  501 -0.00000000000E+00 -0.00000000000E+00 -0.38014453173E+03  0.38014453173E+03  0.00000000000E+00 0. -1.
        -13    1    1    2    0    0  0.21817307652E+02 -0.69008622000E+02  0.22513142069E+02  0.75796025974E+02  0.10566000000E+00 0.  1.
         13    1    1    2    0    0  0.28828138487E+03 -0.22718395335E+03 -0.15328599929E+03  0.39776288699E+03  0.10566000000E+00 0. -1.
         -4    1    1    2    0  502 -0.31009869253E+03  0.29619257535E+03  0.51157775350E+03  0.66753504678E+03  0.00000000000E+00 0. -1.
</event>
<event>
 5    1  0.4419198E-005  0.4840931E+03  0.7818608E-02  0.9968561E-01
         21   -1    0    0  501  502  0.00000000000E+00  0.00000000000E+00  0.28553077863E+03  0.28553077863E+03  0.00000000000E+00 0. -1.
         -4   -1    0    0    0  501 -0.00000000000E+00 -0.00000000000E+00 -0.13287804162E+04  0.13287804162E+04  0.00000000000E+00 0. -1.
        -13    1    1    2    0    0  0.45896359996E+02  0.89315347697E+02 -0.42510503806E+03  0.43680431745E+03  0.10566000000E+00 0.  1.
         13    1    1    2    0    0  0.46663355745E+03 -0.32214485596E+02 -0.18130079033E+03  0.50165190895E+03  0.10566000000E+00 0. -1.
         -4    1    1    2    0  502 -0.51252991744E+03 -0.57100862101E+02 -0.43684380918E+03  0.67585496843E+03  0.00000000000E+00 0. -1.
</event>
<event>
 5    1  0.4419198E-005  0.1844787E+03  0.7818608E-02  0.1071331E+00
         -4   -1    0    0    0  501 -0.00000000000E+00  0.00000000000E+00  0.91567970486E+02  0.91567970486E+02  0.00000000000E+00 0. -1.
         21   -1    0    0  501  502  0.00000000000E+00 -0.00000000000E+00 -0.65749938031E+03  0.65749938031E+03  0.00000000000E+00 0.  1.
        -13    1    1    2    0    0 -0.13974992094E+03 -0.24639160980E+02 -0.25683513695E+03  0.29343044729E+03  0.10566000000E+00 0.  1.
         13    1    1    2    0    0  0.20852121470E+03  0.21918268183E+02 -0.93961919554E+02  0.22976153062E+03  0.10566000000E+00 0. -1.
         -4    1    1    2    0  502 -0.68771293764E+02  0.27208927969E+01 -0.21513435332E+03  0.22587537290E+03  0.00000000000E+00 0. -1.
</event>
<event>
 5    1  0.4419198E-005  0.8091918E+02  0.7818608E-02  0.1200678E+00
          4   -1    0    0  502    0 -0.00000000000E+00  0.00000000000E+00  0.41409022856E+03  0.41409022856E+03  0.00000000000E+00 0.  1.
         21   -1    0    0  501  502  0.00000000000E+00 -0.00000000000E+00 -0.25012790943E+03  0.25012790943E+03  0.00000000000E+00 0. -1.
        -13    1    1    2    0    0 -0.41310668278E+01 -0.79502454366E+02  0.36778813411E+03  0.37630549919E+03  0.10566000000E+00 0.  1.
         13    1    1    2    0    0 -0.31251470809E+02  0.13440903960E+03 -0.14063281472E+03  0.19702802870E+03  0.10566000000E+00 0. -1.
          4    1    1    2  501    0  0.35382537636E+02 -0.54906585232E+02 -0.63193000260E+02  0.90884610102E+02  0.00000000000E+00 0.  1.
</event>
<event>
 5    1  0.4419198E-005  0.6157299E+03  0.7818608E-02  0.9255102E-01
          4   -1    0    0  502    0 -0.00000000000E+00  0.00000000000E+00  0.22536047634E+04  0.22536047634E+04  0.00000000000E+00 0.  1.
         21   -1    0    0  501  502  0.00000000000E+00 -0.00000000000E+00 -0.72139782107E+03  0.72139782107E+03  0.00000000000E+00 0.  1.
        -13    1    1    2    0    0 -0.61055846800E+03 -0.16682205982E+02  0.17526681398E+04  0.18560456779E+04  0.10566000000E+00 0.  1.
         13    1    1    2    0    0  0.63797082375E+03 -0.16453092610E+02  0.22103069052E+03  0.67537549077E+03  0.10566000000E+00 0. -1.
          4    1    1    2  501    0 -0.27412355751E+02  0.33135298592E+02 -0.44149188803E+03  0.44358141582E+03  0.00000000000E+00 0.  1.
</event>
<event>
 5    1  0.4940008E-005  0.4081617E+03  0.7818608E-02  0.9764495E-01
         21   -1    0    0  501  502  0.00000000000E+00  0.00000000000E+00  0.35099326019E+03  0.35099326019E+03  0.00000000000E+00 0.  1.
          4   -1    0    0  502    0 -0.00000000000E+00 -0.00000000000E+00 -0.24553718266E+04  0.24553718266E+04  0.00000000000E+00 0.  1.
        -13    1    1    2    0    0  0.14248921528E+03 -0.84459972090E+02 -0.63217434138E+03  0.65351440109E+03  0.10566000000E+00 0.  1.
         13    1    1    2    0    0  0.33219201949E+03  0.25068839395E+02 -0.16186332658E+04  0.16525597251E+04  0.10566000000E+00 0. -1.
          4    1    1    2  501    0 -0.47468123477E+03  0.59391132695E+02  0.14642904082E+03  0.50029096062E+03  0.00000000000E+00 0.  1.
</event>
<event>
 5    1  0.4419198E-005  0.4338766E+03  0.7818608E-02  0.9743712E-01
         21   -1    0    0  501  502  0.00000000000E+00  0.00000000000E+00  0.39988360982E+03  0.39988360982E+03  0.00000000000E+00 0.  1.
          4   -1    0    0  502    0 -0.00000000000E+00 -0.00000000000E+00 -0.93352096935E+03  0.93352096935E+03  0.00000000000E+00 0.  1.
        -13    1    1    2    0    0 -0.13712784301E+03  0.32309051186E+03 -0.22704915319E+03  0.41802255119E+03  0.10566000000E+00 0.  1.
         13    1    1    2    0    0 -0.29764150211E+03  0.13170501409E+02 -0.19048123597E+03  0.35361990655E+03  0.10566000000E+00 0. -1.
          4    1    1    2  501    0  0.43476934512E+03 -0.33626101326E+03 -0.11610697037E+03  0.56176212143E+03  0.00000000000E+00 0.  1.
</event>
<event>
 5    1  0.4419198E-005  0.3803082E+03  0.7818608E-02  0.9860201E-01
         -4   -1    0    0    0  501 -0.00000000000E+00  0.00000000000E+00  0.30693827487E+04  0.30693827487E+04  0.00000000000E+00 0. -1.
         21   -1    0    0  501  502  0.00000000000E+00 -0.00000000000E+00 -0.17837589253E+03  0.17837589253E+03  0.00000000000E+00 0. -1.
        -13    1    1    2    0    0  0.14599706166E+03 -0.40461674105E+03  0.11742285206E+04  0.12505368763E+04  0.10566000000E+00 0.  1.
         13    1    1    2    0    0 -0.30730277517E+03 -0.11596719649E+03  0.19776724325E+03  0.38339963479E+03  0.10566000000E+00 0. -1.
         -4    1    1    2    0  502  0.16130571351E+03  0.52058393754E+03  0.15190110923E+04  0.16138221302E+04  0.00000000000E+00 0. -1.
</event>
<event>
 5    1  0.4419198E-005  0.6284280E+03  0.7818608E-02  0.9233820E-01
         -4   -1    0    0    0  501 -0.00000000000E+00  0.00000000000E+00  0.12064065515E+04  0.12064065515E+04  0.00000000000E+00 0. -1.
         21   -1    0    0  501  502  0.00000000000E+00 -0.00000000000E+00 -0.54961368359E+03  0.54961368359E+03  0.00000000000E+00 0.  1.
        -13    1    1    2    0    0  0.17200875896E+03  0.47906540370E+03  0.36016162986E+02  0.51028212720E+03  0.10566000000E+00 0.  1.
         13    1    1    2    0    0 -0.70491564152E+02 -0.76001476412E+03  0.33931317153E+03  0.83529931272E+03  0.10566000000E+00 0. -1.
         -4    1    1    2    0  502 -0.10151719481E+03  0.28094936042E+03  0.28146353343E+03  0.41043879521E+03  0.00000000000E+00 0. -1.
</event>
<event>
 5    1  0.4419198E-005  0.4904343E+03  0.7818608E-02  0.9850053E-01
         21   -1    0    0  501  502  0.00000000000E+00  0.00000000000E+00  0.81589290775E+03  0.81589290775E+03  0.00000000000E+00 0.  1.
          4   -1    0    0  502    0 -0.00000000000E+00 -0.00000000000E+00 -0.56088107715E+03  0.56088107715E+03  0.00000000000E+00 0.  1.
        -13    1    1    2    0    0 -0.39480167619E+03  0.33866821269E+03  0.15856448798E+03  0.54378969264E+03  0.10566000000E+00 0.  1.
         13    1    1    2    0    0  0.13040459528E+03  0.59776701978E+02 -0.21778856587E+03  0.26078819597E+03  0.10566000000E+00 0. -1.
          4    1    1    2  501    0  0.26439708091E+03 -0.39844491467E+03  0.31423590849E+03  0.57219609628E+03  0.00000000000E+00 0.  1.
</event>
<event>
 5    1  0.4419198E-005  0.4694058E+03  0.7818608E-02  0.1015407E+00
         -4   -1    0    0    0  501 -0.00000000000E+00  0.00000000000E+00  0.11381177086E+04  0.11381177086E+04  0.00000000000E+00 0. -1.
         21   -1    0    0  501  502  0.00000000000E+00 -0.00000000000E+00 -0.28907642209E+03  0.28907642209E+03  0.00000000000E+00 0. -1.
        -13    1    1    2    0    0  0.56728091368E+02 -0.20754172072E+02  0.23795030267E+03  0.24549779982E+03  0.10566000000E+00 0.  1.
         13    1    1    2    0    0 -0.23891445469E+03 -0.41041749375E+03  0.52112127372E+03  0.70504611829E+03  0.10566000000E+00 0. -1.
         -4    1    1    2    0  502  0.18218636332E+03  0.43117166582E+03  0.89969710088E+02  0.47665021254E+03  0.00000000000E+00 0. -1.
</event>
<event>
 5    1  0.4419198E-005  0.4709714E+03  0.7818608E-02  0.9686952E-01
         -4   -1    0    0    0  501 -0.00000000000E+00  0.00000000000E+00  0.20787536933E+04  0.20787536933E+04  0.00000000000E+00 0. -1.
         21   -1    0    0  501  502  0.00000000000E+00 -0.00000000000E+00 -0.20070067854E+03  0.20070067854E+03  0.00000000000E+00 0. -1.
        -13    1    1    2    0    0 -0.64178880563E+02  0.27631978853E+03  0.27278487098E+03  0.39355196765E+03  0.10566000000E+00 0.  1.
         13    1    1    2    0    0  0.39081417641E+03 -0.46360928087E+03  0.87927230640E+03  0.10680772845E+04  0.10566000000E+00 0. -1.
         -4    1    1    2    0  502 -0.32663529585E+03  0.18728949234E+03  0.72599583741E+03  0.81782511968E+03  0.00000000000E+00 0. -1.
</event>
<event>
 5    1  0.6298456E-005  0.4329218E+03  0.7818608E-02  0.9841764E-01
         21   -1    0    0  501  502  0.00000000000E+00  0.00000000000E+00  0.24672549029E+03  0.24672549029E+03  0.00000000000E+00 0. -1.
         -4   -1    0    0    0  501 -0.00000000000E+00 -0.00000000000E+00 -0.16349345050E+04  0.16349345050E+04  0.00000000000E+00 0. -1.
        -13    1    1    2    0    0 -0.17191765997E+03  0.12825242912E+03 -0.43416339780E+03  0.48425430772E+03  0.10566000000E+00 0.  1.
         13    1    1    2    0    0 -0.90895877528E+02  0.27702761389E+03 -0.85630669965E+03  0.90458141394E+03  0.10566000000E+00 0. -1.
         -4    1    1    2    0  502  0.26281353750E+03 -0.40528004301E+03 -0.97738917281E+02  0.49282427366E+03  0.00000000000E+00 0. -1.
</event>
<event>
 5    1  0.4419198E-005  0.6568422E+02  0.7818608E-02  0.1238528E+00
         21   -1    0    0  501  502  0.00000000000E+00  0.00000000000E+00  0.49251024997E+02  0.49251024997E+02  0.00000000000E+00 0. -1.
         -4   -1    0    0    0  501 -0.00000000000E+00 -0.00000000000E+00 -0.24703026536E+03  0.24703026536E+03  0.00000000000E+00 0. -1.
        -13    1    1    2    0    0  0.75533370157E+02 -0.14554412722E+02 -0.71027835765E+02  0.10469997877E+03  0.10566000000E+00 0.  1.
         13    1    1    2    0    0 -0.54580707430E+02  0.30271024982E+02 -0.14619551428E+03  0.15896077546E+03  0.10566000000E+00 0. -1.
         -4    1    1    2    0  502 -0.20952662727E+02 -0.15716612260E+02  0.19444109675E+02  0.32620536129E+02  0.00000000000E+00 0. -1.
</event>
<event>
 5    1  0.4419198E-005  0.1063543E+03  0.7818608E-02  0.1154450E+00
         21   -1    0    0  501  502  0.00000000000E+00  0.00000000000E+00  0.25091221747E+03  0.25091221747E+03  0.00000000000E+00 0. -1.
         -4   -1    0    0    0  501 -0.00000000000E+00 -0.00000000000E+00 -0.12815255739E+04  0.12815255739E+04  0.00000000000E+00 0. -1.
        -13    1    1    2    0    0  0.92367714960E+02 -0.55706621022E+02 -0.18924234398E+03  0.21782492583E+03  0.10566000000E+00 0.  1.
         13    1    1    2    0    0 -0.94406661339E+02 -0.15282721638E+00  0.22644415050E+03  0.24533569965E+03  0.10566000000E+00 0. -1.
         -4    1    1    2    0  502  0.20389463794E+01  0.55859448239E+02 -0.10678151630E+04  0.10692771659E+04  0.00000000000E+00 0. -1.
</event>
<event>
 5    1  0.4419198E-005  0.6870698E+02  0.7818608E-02  0.1258219E+00
          4   -1    0    0  502    0 -0.00000000000E+00  0.00000000000E+00  0.40501666084E+03  0.40501666084E+03  0.00000000000E+00 0.  1.
         21   -1    0    0  501  502  0.00000000000E+00 -0.00000000000E+00 -0.34129500011E+02  0.34129500011E+02  0.00000000000E+00 0. -1.
        -13    1    1    2    0    0  0.38647316714E+01 -0.99134514928E+02  0.29601415145E+03  0.31219701668E+03  0.10566000000E+00 0.  1.
         13    1    1    2    0    0 -0.11419009295E+01  0.37906365966E+02  0.13609748779E+02  0.40291847120E+02  0.10566000000E+00 0. -1.
          4    1    1    2  501    0 -0.27228307419E+01  0.61228148962E+02  0.61263260597E+02  0.86657297047E+02  0.00000000000E+00 0.  1.
</event>
<event>
 5    1  0.4419198E-005  0.2566469E+02  0.7818608E-02  0.1443530E+00
         21   -1    0    0  501  502  0.00000000000E+00  0.00000000000E+00  0.54833391609E+02  0.54833391609E+02  0.00000000000E+00 0.  1.
          4   -1    0    0  502    0 -0.00000000000E+00 -0.00000000000E+00 -0.31341258495E+02  0.31341258495E+02  0.00000000000E+00 0.  1.
        -13    1    1    2    0    0  0.24338380465E+02 -0.23136163153E+02 -0.47872919347E+01  0.33920025608E+02  0.10566000000E+00 0.  1.
         13    1    1    2    0    0 -0.88457091831E+01  0.18544245699E+02  0.10271131804E+01  0.20571867806E+02  0.10566000000E+00 0. -1.
          4    1    1    2  501    0 -0.15492671282E+02  0.45919174539E+01  0.27252311868E+02  0.31682756691E+02  0.00000000000E+00 0.  1.
</event>
<event>
 5    1  0.4419198E-005  0.3651408E+03  0.7818608E-02  0.9835501E-01
         -4   -1    0    0    0  501 -0.00000000000E+00  0.00000000000E+00  0.20783565683E+03  0.20783565683E+03  0.00000000000E+00 0. -1.
         21   -1    0    0  501  502  0.00000000000E+00 -0.00000000000E+00 -0.31640604612E+04  0.31640604612E+04  0.00000000000E+00 0. -1.
        -13    1    1    2    0    0 -0.31977593223E+03  0.20698292150E+02 -0.11487097705E+03  0.34041213061E+03  0.10566000000E+00 0.  1.
         13    1    1    2    0    0  0.49616763513E+03 -0.79789594862E+02 -0.60100724823E+03  0.78342735795E+03  0.10566000000E+00 0. -1.
         -4    1    1    2    0  502 -0.17639170290E+03  0.59091302712E+02 -0.22403465791E+04  0.22480566295E+04  0.00000000000E+00 0. -1.
</event>
<event>
 5    1  0.4419198E-005  0.3794645E+03  0.7818608E-02  0.9790300E-01
         21   -1    0    0  501  502  0.00000000000E+00  0.00000000000E+00  0.73237253149E+03  0.73237253149E+03  0.00000000000E+00 0.  1.
          4   -1    0    0  502    0 -0.00000000000E+00 -0.00000000000E+00 -0.22478640305E+04  0.22478640305E+04  0.00000000000E+00 0.  1.
        -13    1    1    2    0    0 -0.58389570697E+03  0.15246356547E+03 -0.26967240153E+02  0.60407497765E+03  0.10566000000E+00 0.  1.
         13    1    1    2    0    0  0.30827466099E+03 -0.19969856446E+03 -0.18685662553E+04  0.19043247215E+04  0.10566000000E+00 0. -1.
          4    1    1    2  501    0  0.27562104598E+03  0.47234998991E+02  0.38004199643E+03  0.47183686287E+03  0.00000000000E+00 0.  1.
</event>
<event>
 5    1  0.4419198E-005  0.2961313E+03  0.7818608E-02  0.1008915E+00
          4   -1    0    0  502    0 -0.00000000000E+00  0.00000000000E+00  0.23640751878E+03  0.23640751878E+03  0.00000000000E+00 0.  1.
         21   -1    0    0  501  502  0.00000000000E+00 -0.00000000000E+00 -0.46103066629E+03  0.46103066629E+03  0.00000000000E+00 0. -1.
        -13    1    1    2    0    0 -0.20883523570E+03  0.19555666667E+03 -0.89949512127E+02  0.29990913865E+03  0.10566000000E+00 0.  1.
         13    1    1    2    0    0  0.21962960270E+03 -0.21213780527E+03 -0.48580811681E+02  0.30919203941E+03  0.10566000000E+00 0. -1.
          4    1    1    2  501    0 -0.10794367003E+02  0.16581138594E+02 -0.86092823701E+02  0.88337007018E+02  0.00000000000E+00 0.  1.
</event>
<event>
 5    1  0.4419198E-005  0.3285323E+03  0.7818608E-02  0.1024785E+00
         21   -1    0    0  501  502  0.00000000000E+00  0.00000000000E+00  0.47853004166E+03  0.47853004166E+03  0.00000000000E+00 0.  1.
          4   -1    0    0  502    0 -0.00000000000E+00 -0.00000000000E+00 -0.66639822412E+03  0.66639822412E+03  0.00000000000E+00 0.  1.
        -13    1    1    2    0    0 -0.42199788905E+03  0.13057943903E+03 -0.42999213174E+03  0.61646285596E+03  0.10566000000E+00 0.  1.
         13    1    1    2    0    0  0.11913403270E+03 -0.54750124420E+02 -0.35866632736E+01  0.13116161477E+03  0.10566000000E+00 0. -1.
          4    1    1    2  501    0  0.30286385635E+03 -0.75829314608E+02  0.24571061256E+03  0.39730379505E+03  0.00000000000E+00 0.  1.
</event>
<event>
 5    1  0.4805706E-005  0.4844752E+03  0.7818608E-02  0.9899437E-01
         -4   -1    0    0    0  501 -0.00000000000E+00  0.00000000000E+00  0.12371330656E+04  0.12371330656E+04  0.00000000000E+00 0. -1.
         21   -1    0    0  501  502  0.00000000000E+00 -0.00000000000E+00 -0.32318332606E+03  0.32318332606E+03  0.00000000000E+00 0. -1.
        -13    1    1    2    0    0 -0.10453219686E+02 -0.12560803061E+03  0.42208977790E+03  0.44050702483E+03  0.10566000000E+00 0.  1.
         13    1    1    2    0    0  0.36360759525E+03 -0.24951165923E+03  0.40222568730E+03  0.59686855010E+03  0.10566000000E+00 0. -1.
         -4    1    1    2    0  502 -0.35315437556E+03  0.37511968984E+03  0.89634274367E+02  0.52294081675E+03  0.00000000000E+00 0. -1.
</event>
<event>
 5    1  0.4419198E-005  0.3872833E+03  0.7818608E-02  0.1012351E+00
         21   -1    0    0  501  502  0.00000000000E+00  0.00000000000E+00  0.24569303391E+03  0.24569303391E+03  0.00000000000E+00 0. -1.
         -4   -1    0    0    0  501 -0.00000000000E+00 -0.00000000000E+00 -0.13350978136E+04  0.13350978136E+04  0.00000000000E+00 0. -1.
        -13    1    1    2    0    0  0.99323872648E+02 -0.64752341114E+02 -0.64925692708E+02  0.13517934049E+03  0.10566000000E+00 0.  1.
         13    1    1    2    0    0 -0.86911025674E+01 -0.37566886412E+03 -0.58751465135E+02  0.38033455871E+03  0.10566000000E+00 0. -1.
         -4    1    1    2    0  502 -0.90632770081E+02  0.44042120523E+03 -0.96572762188E+03  0.10652769484E+04  0.00000000000E+00 0. -1.
</event>
<event>
 5    1  0.4419198E-005  0.2237755E+03  0.7818608E-02  0.1044955E+00
         21   -1    0    0  501  502  0.00000000000E+00  0.00000000000E+00  0.27263676127E+03  0.27263676127E+03  0.00000000000E+00 0. -1.
         -4   -1    0    0    0  501 -0.00000000000E+00 -0.00000000000E+00 -0.13463455877E+04  0.13463455877E+04  0.00000000000E+00 0. -1.
        -13    1    1    2    0    0  0.22912574352E+03 -0.63008447810E+02 -0.20369813439E+03  0.31298819779E+03  0.10566000000E+00 0.  1.
         13    1    1    2    0    0 -0.17550127968E+03 -0.55707446378E+01  0.18053799710E+03  0.25184461861E+03  0.10566000000E+00 0. -1.
         -4    1    1    2    0  502 -0.53624463842E+02  0.68579192448E+02 -0.10505486892E+04  0.10541495326E+04  0.00000000000E+00 0. -1.
</event>
<event>
 5    1  0.4419198E-005  0.2273430E+03  0.7818608E-02  0.1042852E+00
         -4   -1    0    0    0  501 -0.00000000000E+00  0.00000000000E+00  0.14278004738E+04  0.14278004738E+04  0.00000000000E+00 0. -1.
         21   -1    0    0  501  502  0.00000000000E+00 -0.00000000000E+00 -0.83720951183E+03  0.83720951183E+03  0.00000000000E+00 0. -1.
        -13    1    1    2    0    0  0.22358559293E+03  0.18262924164E+02  0.11294427863E+04  0.11515055669E+04  0.10566000000E+00 0.  1.
         13    1    1    2    0    0 -0.44038195542E+03  0.56456297534E+01 -0.71051517173E+03  0.83594255797E+03  0.10566000000E+00 0. -1.
         -4    1    1    2    0  502  0.21679636250E+03 -0.23908553917E+02  0.17166334738E+03  0.27756186081E+03  0.00000000000E+00 0. -1.
</event>
<event>
 5    1  0.4419198E-005  0.3035429E+03  0.7818608E-02  0.1005854E+00
          4   -1    0    0  502    0 -0.00000000000E+00  0.00000000000E+00  0.11190172623E+04  0.11190172623E+04  0.00000000000E+00 0.  1.
         21   -1    0    0  501  502  0.00000000000E+00 -0.00000000000E+00 -0.22761956480E+03  0.22761956480E+03  0.00000000000E+00 0.  1.
        -13    1    1    2    0    0 -0.25160245999E+03 -0.22795345504E+03  0.65608528049E+03  0.73872490277E+03  0.10566000000E+00 0.  1.
         13    1    1    2    0    0  0.27958833862E+03  0.45572059724E+02  0.29978809694E+03  0.41245528964E+03  0.10566000000E+00 0. -1.
          4    1    1    2  501    0 -0.27985878628E+02  0.18238139532E+03 -0.64475679900E+02  0.19545663473E+03  0.00000000000E+00 0.  1.
</event>
<event>
 5    1  0.4419198E-005  0.2857129E+03  0.7818608E-02  0.1020670E+00
         -4   -1    0    0    0  501 -0.00000000000E+00  0.00000000000E+00  0.19360610570E+04  0.19360610570E+04  0.00000000000E+00 0. -1.
         21   -1    0    0  501  502  0.00000000000E+00 -0.00000000000E+00 -0.22979818322E+03  0.22979818322E+03  0.00000000000E+00 0. -1.
        -13    1    1    2    0    0  0.21045449743E+03  0.84490203445E+02  0.57908785760E+03  0.62191032147E+03  0.10566000000E+00 0.  1.
         13    1    1    2    0    0 -0.13762587049E+03  0.25221689077E+03 -0.72054875869E+02  0.29621977739E+03  0.10566000000E+00 0. -1.
         -4    1    1    2    0  502 -0.72828626938E+02 -0.33670709422E+03  0.11992298921E+04  0.12477291414E+04  0.00000000000E+00 0. -1.
</event>
<event>
 5    1  0.4419198E-005  0.2077951E+03  0.7818608E-02  0.1060173E+00
         21   -1    0    0  501  502  0.00000000000E+00  0.00000000000E+00  0.25858062337E+03  0.25858062337E+03  0.00000000000E+00 0. -1.
         -4   -1    0    0    0  501 -0.00000000000E+00 -0.00000000000E+00 -0.18888064120E+04  0.18888064120E+04  0.00000000000E+00 0. -1.
        -13    1    1    2    0    0  0.24853130083E+03 -0.90491069698E+02 -0.71826754269E+03  0.76541800033E+03  0.10566000000E+00 0.  1.
         13    1    1    2    0    0 -0.15859916940E+03 -0.11513434274E+03 -0.10824967896E+04  0.11000949614E+04  0.10566000000E+00 0. -1.
         -4    1    1    2    0  502 -0.89932131428E+02  0.20562541244E+03  0.17053854368E+03  0.28187407363E+03  0.00000000000E+00 0. -1.
</event>
<event>
 5    1  0.4419198E-005  0.4886031E+03  0.7818608E-02  0.9899857E-01
          4   -1    0    0  502    0 -0.00000000000E+00  0.00000000000E+00  0.41887055694E+03  0.41887055694E+03  0.00000000000E+00 0.  1.
         21   -1    0    0  501  502  0.00000000000E+00 -0.00000000000E+00 -0.87898690059E+03  0.87898690059E+03  0.00000000000E+00 0.  1.
        -13    1    1    2    0    0  0.55745814378E+03  0.23003953845E+02 -0.28845251620E+03  0.62808727835E+03  0.10566000000E+00 0.  1.
         13    1    1    2    0    0 -0.12093930549E+03  0.20723798547E+02  0.96057036118E+02  0.15582925525E+03  0.10566000000E+00 0. -1.
          4    1    1    2  501    0 -0.43651883829E+03 -0.43727752393E+02 -0.26772086356E+03  0.51394092393E+03  0.00000000000E+00 0.  1.
</event>
<event>
 5    1  0.4419198E-005  0.5267006E+03  0.7818608E-02  0.9582138E-01
          4   -1    0    0  502    0 -0.00000000000E+00  0.00000000000E+00  0.67351132966E+03  0.67351132966E+03  0.00000000000E+00 0.  1.
         21   -1    0    0  501  502  0.00000000000E+00 -0.00000000000E+00 -0.89864515464E+03  0.89864515464E+03  0.00000000000E+00 0.  1.
        -13    1    1    2    0    0 -0.33158253846E+03 -0.19094573473E+03 -0.21659909127E+02  0.38324459063E+03  0.10566000000E+00 0.  1.
         13    1    1    2    0    0 -0.28275449233E+03 -0.79319045870E+02  0.24437886910E+03  0.38205059455E+03  0.10566000000E+00 0. -1.
          4    1    1    2  501    0  0.61433703078E+03  0.27026478060E+03 -0.44785278495E+03  0.80686129912E+03  0.00000000000E+00 0.  1.
</event>
<event>
 5    1  0.4419198E-005  0.4935889E+03  0.7818608E-02  0.9661818E-01
         21   -1    0    0  501  502  0.00000000000E+00  0.00000000000E+00  0.65842584787E+03  0.65842584787E+03  0.00000000000E+00 0.  1.
          4   -1    0    0  502    0 -0.00000000000E+00 -0.00000000000E+00 -0.70678311186E+03  0.70678311186E+03  0.00000000000E+00 0.  1.
        -13    1    1    2    0    0  0.57163851225E+03  0.15994980837E+03  0.22573177129E+03  0.63506643244E+03  0.10566000000E+00 0.  1.
         13    1    1    2    0    0 -0.18141300060E+03 -0.19876767926E+03 -0.18905242870E+03  0.32887702727E+03  0.10566000000E+00 0. -1.
          4    1    1    2  501    0 -0.39022551165E+03  0.38817870886E+02 -0.85036606579E+02  0.40126550002E+03  0.00000000000E+00 0.  1.
</event>
<event>
 5    1  0.4419198E-005  0.4954822E+03  0.7818608E-02  0.9511306E-01
          4   -1    0    0  502    0 -0.00000000000E+00  0.00000000000E+00  0.16589564843E+04  0.16589564843E+04  0.00000000000E+00 0.  1.
         21   -1    0    0  501  502  0.00000000000E+00 -0.00000000000E+00 -0.56716160405E+03  0.56716160405E+03  0.00000000000E+00 0.  1.
        -13    1    1    2    0    0 -0.38131596459E+03 -0.43161930180E+03  0.10763212443E+03  0.58590252765E+03  0.10566000000E+00 0.  1.
         13    1    1    2    0    0  0.44726209484E+03 -0.84278969996E+02  0.10219818576E+04  0.11187462870E+04  0.10566000000E+00 0. -1.
          4    1    1    2  501    0 -0.65946130247E+02  0.51589827179E+03 -0.37819101785E+02  0.52146927368E+03  0.00000000000E+00 0.  1.
</event>
<event>
 5    1  0.4419198E-005  0.4604318E+03  0.7818608E-02  0.9786523E-01
         -4   -1    0    0    0  501 -0.00000000000E+00  0.00000000000E+00  0.66799670011E+03  0.66799670011E+03  0.00000000000E+00 0. -1.
         21   -1    0    0  501  502  0.00000000000E+00 -0.00000000000E+00 -0.67361784672E+03  0.67361784672E+03  0.00000000000E+00 0. -1.
        -13    1    1    2    0    0 -0.99353516120E+02 -0.19086991816E+03  0.12799623647E+03  0.25037071422E+03  0.10566000000E+00 0.  1.
         13    1    1    2    0    0 -0.23421318179E+03  0.48460841998E+03  0.15643209700E+03  0.56051061308E+03  0.10566000000E+00 0. -1.
         -4    1    1    2    0  502  0.33356669791E+03 -0.29373850182E+03 -0.29004948008E+03  0.53073321952E+03  0.00000000000E+00 0. -1.
</event>
<event>
 5    1  0.4419198E-005  0.1430284E+03  0.7818608E-02  0.1108198E+00
         21   -1    0    0  501  502  0.00000000000E+00  0.00000000000E+00  0.57856465216E+03  0.57856465216E+03  0.00000000000E+00 0.  1.
          4   -1    0    0  502    0 -0.00000000000E+00 -0.00000000000E+00 -0.49334735939E+03  0.49334735939E+03  0.00000000000E+00 0.  1.
        -13    1    1    2    0    0 -0.12977577996E+03 -0.49584110840E+02 -0.20266908182E+03  0.24571346118E+03  0.10566000000E+00 0.  1.
         13    1    1    2    0    0  0.13290623461E+03  0.62962963358E+02 -0.24897252471E+03  0.28916384832E+03  0.10566000000E+00 0. -1.
          4    1    1    2  501    0 -0.31304546478E+01 -0.13378852518E+02  0.53685889930E+03  0.53703470204E+03  0.00000000000E+00 0.  1.
</event>
<event>
 5    1  0.4419198E-005  0.2902299E+03  0.7818608E-02  0.1011422E+00
         21   -1    0    0  501  502  0.00000000000E+00  0.00000000000E+00  0.88054485623E+02  0.88054485623E+02  0.00000000000E+00 0. -1.
          4   -1    0    0  502    0 -0.00000000000E+00 -0.00000000000E+00 -0.15218242278E+04  0.15218242278E+04  0.00000000000E+00 0.  1.
        -13    1    1    2    0    0  0.22595855618E+03 -0.14003827876E+03 -0.66462466397E+03  0.71581697643E+03  0.10566000000E+00 0.  1.
         13    1    1    2    0    0 -0.28087807307E+03  0.15522874065E+03 -0.77298049133E+03  0.83695119631E+03  0.10566000000E+00 0. -1.
          4    1    1    2  501    0  0.54919516887E+02 -0.15190461891E+02  0.38354130902E+01  0.57110540719E+02  0.00000000000E+00 0.  1.
</event>
<event>
 5    1  0.4419198E-005  0.4916894E+03  0.7818608E-02  0.9519105E-01
         21   -1    0    0  501  502  0.00000000000E+00  0.00000000000E+00  0.34039305303E+03  0.34039305303E+03  0.00000000000E+00 0. -1.
         -4   -1    0    0    0  501 -0.00000000000E+00 -0.00000000000E+00 -0.20668954484E+04  0.20668954484E+04  0.00000000000E+00 0. -1.
        -13    1    1    2    0    0 -0.17974704932E+03 -0.41556805297E+03 -0.90369413544E+03  0.10107763897E+04  0.10566000000E+00 0.  1.
         13    1    1    2    0    0  0.10513499681E+03 -0.21979677585E+03 -0.70514338048E+03  0.74605039269E+03  0.10566000000E+00 0. -1.
         -4    1    1    2    0  502  0.74612052517E+02  0.63536482883E+03 -0.11766487946E+03  0.65046171905E+03  0.00000000000E+00 0. -1.
</event>
<event>
 5    1  0.4419198E-005  0.6708798E+02  0.7818608E-02  0.1234582E+00
          4   -1    0    0  502    0 -0.00000000000E+00  0.00000000000E+00  0.22767557160E+03  0.22767557160E+03  0.00000000000E+00 0.  1.
         21   -1    0    0  501  502  0.00000000000E+00 -0.00000000000E+00 -0.13921525419E+03  0.13921525419E+03  0.00000000000E+00 0. -1.
        -13    1    1    2    0    0  0.94052734066E+02 -0.36774605744E+01 -0.49401087860E+02  0.10630107783E+03  0.10566000000E+00 0.  1.
         13    1    1    2    0    0 -0.63801730486E+02 -0.14251605565E+02  0.18817386062E+03  0.19920638056E+03  0.10566000000E+00 0. -1.
          4    1    1    2  501    0 -0.30251003580E+02  0.17929066139E+02 -0.50312455348E+02  0.61383367400E+02  0.00000000000E+00 0.  1.
</event>
<event>
 5    1  0.4419198E-005  0.4375149E+03  0.7818608E-02  0.9718994E-01
          4   -1    0    0  502    0 -0.00000000000E+00  0.00000000000E+00  0.27278701043E+04  0.27278701043E+04  0.00000000000E+00 0.  1.
         21   -1    0    0  501  502  0.00000000000E+00 -0.00000000000E+00 -0.27223330555E+03  0.27223330555E+03  0.00000000000E+00 0.  1.
        -13    1    1    2    0    0 -0.17673368222E+03 -0.44120176047E+03  0.63646674663E+02  0.47952549278E+03  0.10566000000E+00 0.  1.
         13    1    1    2    0    0 -0.18194179983E+03  0.25899501624E+03  0.16138280844E+04  0.16445736026E+04  0.10566000000E+00 0. -1.
          4    1    1    2  501    0  0.35867548205E+03  0.18220674422E+03  0.77816203960E+03  0.87600431445E+03  0.00000000000E+00 0.  1.
</event>
<event>
 5    1  0.4419198E-005  0.2104813E+03  0.7818608E-02  0.1053179E+00
         21   -1    0    0  501  502  0.00000000000E+00  0.00000000000E+00  0.88026789306E+02  0.88026789306E+02  0.00000000000E+00 0.  1.
         -4   -1    0    0    0  501 -0.00000000000E+00 -0.00000000000E+00 -0.73552098337E+03  0.73552098337E+03  0.00000000000E+00 0. -1.
        -13    1    1    2    0    0  0.12458047875E+03 -0.16340091164E+03 -0.46743203610E+03  0.51060050249E+03  0.10566000000E+00 0.  1.
         13    1    1    2    0    0 -0.12915144396E+03  0.18114254638E+03 -0.18959055838E+03  0.29229661062E+03  0.10566000000E+00 0. -1.
         -4    1    1    2    0  502  0.45709652174E+01 -0.17741634742E+02  0.95284004143E+01  0.20650659572E+02  0.00000000000E+00 0. -1.
</event>
<event>
 5    1  0.4419198E-005  0.4981402E+03  0.7818608E-02  0.9763305E-01
          4   -1    0    0  502    0 -0.00000000000E+00  0.00000000000E+00  0.39279571139E+03  0.39279571139E+03  0.00000000000E+00 0.  1.
         21   -1    0    0  501  502  0.00000000000E+00 -0.00000000000E+00 -0.12022203639E+04  0.12022203639E+04  0.00000000000E+00 0.  1.
        -13    1    1    2    0    0  0.32728779885E+02 -0.47448479828E+03 -0.35793353551E+03  0.59525072351E+03  0.10566000000E+00 0.  1.
         13    1    1    2    0    0  0.18362175358E+03 -0.11940989063E+02  0.11925362138E+03  0.21927373984E+03  0.10566000000E+00 0. -1.
          4    1    1    2  501    0 -0.21635053346E+03  0.48642578734E+03 -0.57074473836E+03  0.78049161192E+03  0.00000000000E+00 0.  1.
</event>
<event>
 5    1  0.4419198E-005  0.1062077E+03  0.7818608E-02  0.1154674E+00
         21   -1    0    0  501  502  0.00000000000E+00  0.00000000000E+00  0.14556762565E+03  0.14556762565E+03  0.00000000000E+00 0. -1.
         -4   -1    0    0    0  501 -0.00000000000E+00 -0.00000000000E+00 -0.24329853092E+04  0.24329853092E+04  0.00000000000E+00 0. -1.
        -13    1    1    2    0    0  0.43674017624E+01  0.10823115597E+03 -0.65534890260E+03  0.66424035757E+03  0.10566000000E+00 0.  1.
         13    1    1    2    0    0  0.42476568405E+02 -0.41093942179E+02  0.13394395439E+03  0.14640343244E+03  0.10566000000E+00 0. -1.
         -4    1    1    2    0  502 -0.46843970167E+02 -0.67137213791E+02 -0.17660127354E+04  0.17679091449E+04  0.00000000000E+00 0. -1.
</event>
<event>
 5    1  0.4419198E-005  0.3826071E+03  0.7818608E-02  0.9845766E-01
         21   -1    0    0  501  502  0.00000000000E+00  0.00000000000E+00  0.18927239946E+04  0.18927239946E+04  0.00000000000E+00 0.  1.
          4   -1    0    0  502    0 -0.00000000000E+00 -0.00000000000E+00 -0.26609101897E+03  0.26609101897E+03  0.00000000000E+00 0.  1.
        -13    1    1    2    0    0  0.20975405288E+03  0.34793758475E+02 -0.40128290071E+02  0.21637388742E+03  0.10566000000E+00 0.  1.
         13    1    1    2    0    0  0.64784471187E+02  0.29961594385E+03  0.10841696757E+03  0.32514764575E+03  0.10566000000E+00 0. -1.
          4    1    1    2  501    0 -0.27453852407E+03 -0.33440970233E+03  0.15583442981E+04  0.16172934804E+04  0.00000000000E+00 0.  1.
</event>
<event>
 5    1  0.4419198E-005  0.5628342E+03  0.7818608E-02  0.9390632E-01
         -4   -1    0    0    0  501 -0.00000000000E+00  0.00000000000E+00  0.38474483869E+04  0.38474483869E+04  0.00000000000E+00 0. -1.
         21   -1    0    0  501  502  0.00000000000E+00 -0.00000000000E+00 -0.22114070686E+03  0.22114070686E+03  0.00000000000E+00 0. -1.
        -13    1    1    2    0    0  0.34548076879E+01  0.62012703561E+03  0.17108091856E+04  0.18197355733E+04  0.10566000000E+00 0.  1.
         13    1    1    2    0    0 -0.30057881030E+03 -0.14211094023E+03  0.98626048710E+02  0.34680001324E+03  0.10566000000E+00 0. -1.
         -4    1    1    2    0  502  0.29712400261E+03 -0.47801609538E+03  0.18168724458E+04  0.19020535073E+04  0.00000000000E+00 0. -1.
</event>
<event>
 5    1  0.4482711E-005  0.4850325E+03  0.7818608E-02  0.9632026E-01
         21   -1    0    0  501  502  0.00000000000E+00  0.00000000000E+00  0.59389331445E+03  0.59389331445E+03  0.00000000000E+00 0.  1.
          4   -1    0    0  502    0 -0.00000000000E+00 -0.00000000000E+00 -0.95031552567E+03  0.95031552567E+03  0.00000000000E+00 0.  1.
        -13    1    1    2    0    0  0.23639950567E+03 -0.23244216015E+03 -0.24407328145E+03  0.41168660650E+03  0.10566000000E+00 0.  1.
         13    1    1    2    0    0 -0.22822548039E+02 -0.31414927140E+03 -0.37487992518E+03  0.48963823675E+03  0.10566000000E+00 0. -1.
          4    1    1    2  501    0 -0.21357695763E+03  0.54659143155E+03  0.26253099542E+03  0.64288399686E+03  0.00000000000E+00 0.  1.
</event>
<event>
 5    1  0.4419198E-005  0.4627431E+03  0.7818608E-02  0.1004165E+00
         -4   -1    0    0    0  501 -0.00000000000E+00  0.00000000000E+00  0.11893678064E+04  0.11893678064E+04  0.00000000000E+00 0. -1.
         21   -1    0    0  501  502  0.00000000000E+00 -0.00000000000E+00 -0.32191623772E+03  0.32191623772E+03  0.00000000000E+00 0. -1.
        -13    1    1    2    0    0  0.83657188607E+02  0.34525395321E+02  0.41554395095E+03  0.42528498029E+03  0.10566000000E+00 0.  1.
         13    1    1    2    0    0 -0.43474654118E+03  0.20865597342E+03  0.26129088652E+02  0.48293333986E+03  0.10566000000E+00 0. -1.
         -4    1    1    2    0  502  0.35108935257E+03 -0.24318136874E+03  0.42577852904E+03  0.60306572393E+03  0.00000000000E+00 0. -1.
</event>
<event>
 5    1  0.4419198E-005  0.6388117E+02  0.7818608E-02  0.1243759E+00
         -4   -1    0    0    0  501 -0.00000000000E+00  0.00000000000E+00  0.91449572882E+02  0.91449572882E+02  0.00000000000E+00 0. -1.
         21   -1    0    0  501  502  0.00000000000E+00 -0.00000000000E+00 -0.43055584689E+03  0.43055584689E+03  0.00000000000E+00 0. -1.
        -13    1    1    2    0    0 -0.54260629114E+02  0.44792539378E+02 -0.60651708932E+02  0.92893640343E+02  0.10566000000E+00 0.  1.
         13    1    1    2    0    0  0.54890060208E+02 -0.30781101854E+02  0.62015216969E+02  0.88353229939E+02  0.10566000000E+00 0. -1.
         -4    1    1    2    0  502 -0.62943109374E+00 -0.14011437524E+02 -0.34046978204E+03  0.34075854949E+03  0.00000000000E+00 0. -1.
</event>
<event>
 5    1  0.4419198E-005  0.2499125E+03  0.7818608E-02  0.1030438E+00
         -4   -1    0    0    0  501 -0.00000000000E+00  0.00000000000E+00  0.13401789048E+04  0.13401789048E+04  0.00000000000E+00 0. -1.
         21   -1    0    0  501  502  0.00000000000E+00 -0.00000000000E+00 -0.35115605555E+03  0.35115605555E+03  0.00000000000E+00 0. -1.
        -13    1    1    2    0    0  0.14636930605E+02  0.23947560998E+03  0.65865498673E+03  0.70099159069E+03  0.10566000000E+00 0.  1.
         13    1    1    2    0    0 -0.21581906593E+02 -0.26134923884E+03  0.63387038440E+03  0.68597440092E+03  0.10566000000E+00 0. -1.
         -4    1    1    2    0  502  0.69449759874E+01  0.21873628859E+02 -0.30350252189E+03  0.30436896873E+03  0.00000000000E+00 0. -1.
</event>
<event>
 5    1  0.4419198E-005  0.4250836E+03  0.7818608E-02  0.9659278E-01
          4   -1    0    0  502    0 -0.00000000000E+00  0.00000000000E+00  0.21689088285E+04  0.21689088285E+04  0.00000000000E+00 0.  1.
         21   -1    0    0  501  502  0.00000000000E+00 -0.00000000000E+00 -0.99778890002E+02  0.99778890002E+02  0.00000000000E+00 0. -1.
        -13    1    1    2    0    0 -0.83941443727E+02 -0.41322905744E+03  0.11160455962E+04  0.11930474441E+04  0.10566000000E+00 0.  1.
         13    1    1    2    0    0  0.97925226668E+02  0.41790716225E+03  0.96534136603E+03  0.10564656693E+04  0.10566000000E+00 0. -1.
          4    1    1    2  501    0 -0.13983782941E+02 -0.46781048122E+01 -0.12257023742E+02  0.19174605107E+02  0.00000000000E+00 0.  1.
</event>
<event>
 5    1  0.4419198E-005  0.2335144E+03  0.7818608E-02  0.1039309E+00
         -4   -1    0    0    0  501 -0.00000000000E+00  0.00000000000E+00  0.20841903127E+04  0.20841903127E+04  0.00000000000E+00 0. -1.
         21   -1    0    0  501  502  0.00000000000E+00 -0.00000000000E+00 -0.11302542414E+03  0.11302542414E+03  0.00000000000E+00 0. -1.
        -13    1    1    2    0    0 -0.11732988199E+02 -0.20120487091E+03  0.93643702264E+03  0.95788066669E+03  0.10566000000E+00 0.  1.
         13    1    1    2    0    0 -0.47606414545E+02  0.29359011724E+03  0.10802684120E+04  0.11204648057E+04  0.10566000000E+00 0. -1.
         -4    1    1    2    0  502  0.59339402745E+02 -0.92385246327E+02 -0.45540546010E+02  0.11887026452E+03  0.00000000000E+00 0. -1.
</event>
<event>
 5    1  0.4419198E-005  0.2324588E+03  0.7818608E-02  0.1039906E+00
         21   -1    0    0  501  502  0.00000000000E+00  0.00000000000E+00  0.26506404781E+03  0.26506404781E+03  0.00000000000E+00 0. -1.
          4   -1    0    0  502    0 -0.00000000000E+00 -0.00000000000E+00 -0.35274588512E+03  0.35274588512E+03  0.00000000000E+00 0.  1.
        -13    1    1    2    0    0  0.22824697682E+03  0.62917339391E+02 -0.23754755099E+03  0.33538652950E+03  0.10566000000E+00 0.  1.
         13    1    1    2    0    0 -0.20908576494E+03 -0.54524568575E+02  0.12390255126E+03  0.24908159115E+03  0.10566000000E+00 0. -1.
          4    1    1    2  501    0 -0.19161211887E+02 -0.83927708163E+01  0.25963162423E+02  0.33341812277E+02  0.00000000000E+00 0.  1.
</event>
<event>
 5    1  0.4419198E-005  0.4907825E+03  0.7818608E-02  0.9573311E-01
         21   -1    0    0  501  502  0.00000000000E+00  0.00000000000E+00  0.22004228564E+03  0.22004228564E+03  0.00000000000E+00 0. -1.
         -4   -1    0    0    0  501 -0.00000000000E+00 -0.00000000000E+00 -0.28250428141E+04  0.28250428141E+04  0.00000000000E+00 0. -1.
        -13    1    1    2    0    0 -0.19689622323E+03  0.31869638419E+03 -0.13542919268E+04  0.14051484413E+04  0.10566000000E+00 0.  1.
         13    1    1    2    0    0 -0.40608653385E+03 -0.10911744564E+03 -0.54462298779E+03  0.68806038973E+03  0.10566000000E+00 0. -1.
         -4    1    1    2    0  502  0.60298275708E+03 -0.20957893855E+03 -0.70608561393E+03  0.95187626875E+03  0.00000000000E+00 0. -1.
</event>
<event>
 5    1  0.4419198E-005  0.1176958E+03  0.7818608E-02  0.1138201E+00
         -4   -1    0    0    0  501 -0.00000000000E+00  0.00000000000E+00  0.48126606092E+03  0.48126606092E+03  0.00000000000E+00 0. -1.
         21   -1    0    0  501  502  0.00000000000E+00 -0.00000000000E+00 -0.47411653796E+03  0.47411653796E+03  0.00000000000E+00 0. -1.
        -13    1    1    2    0    0  0.17405907316E+02 -0.11359573059E+03  0.19854940007E+03  0.22940974489E+03  0.10566000000E+00 0.  1.
         13    1    1    2    0    0 -0.81178314195E+01  0.12005294732E+03  0.25366874897E+03  0.28076049351E+03  0.10566000000E+00 0. -1.
         -4    1    1    2    0  502 -0.92880758965E+01 -0.64572167373E+01 -0.44506862608E+03  0.44521236048E+03  0.00000000000E+00 0. -1.
</event>
<event>
 5    1  0.4419198E-005  0.2638144E+03  0.7818608E-02  0.1043340E+00
         21   -1    0    0  501  502  0.00000000000E+00  0.00000000000E+00  0.42474628492E+03  0.42474628492E+03  0.00000000000E+00 0.  1.
         -4   -1    0    0    0  501 -0.00000000000E+00 -0.00000000000E+00 -0.93516429625E+03  0.93516429625E+03  0.00000000000E+00 0. -1.
        -13    1    1    2    0    0 -0.12321205823E+03 -0.73295810012E+02  0.95887988755E+02  0.17247609866E+03  0.10566000000E+00 0.  1.
         13    1    1    2    0    0  0.36650757202E+01  0.30746999912E+03 -0.80248970358E+03  0.85938406353E+03  0.10566000000E+00 0. -1.
         -4    1    1    2    0  502  0.11954698251E+03 -0.23417418911E+03  0.19618370350E+03  0.32805041898E+03  0.00000000000E+00 0. -1.
</event>
<event>
 5    1  0.4419198E-005  0.1455517E+03  0.7818608E-02  0.1105583E+00
         21   -1    0    0  501  502  0.00000000000E+00  0.00000000000E+00  0.46699724500E+03  0.46699724500E+03  0.00000000000E+00 0.  1.
          4   -1    0    0  502    0 -0.00000000000E+00 -0.00000000000E+00 -0.29565623148E+03  0.29565623148E+03  0.00000000000E+00 0.  1.
        -13    1    1    2    0    0 -0.12431991475E+03  0.51387670916E+02 -0.12326618675E+03  0.18245738650E+03  0.10566000000E+00 0.  1.
         13    1    1    2    0    0  0.15230938354E+03 -0.58016198261E+02 -0.95584537650E+02  0.18894560746E+03  0.10566000000E+00 0. -1.
          4    1    1    2  501    0 -0.27989468792E+02  0.66285273446E+01  0.39019173792E+03  0.39125048253E+03  0.00000000000E+00 0.  1.
</event>
<event>
 5    1  0.4419198E-005  0.4487954E+03  0.7818608E-02  0.9861659E-01
          4   -1    0    0  502    0 -0.00000000000E+00  0.00000000000E+00  0.22662409046E+04  0.22662409046E+04  0.00000000000E+00 0.  1.
         21   -1    0    0  501  502  0.00000000000E+00 -0.00000000000E+00 -0.15775618474E+03  0.15775618474E+03  0.00000000000E+00 0.  1.
        -13    1    1    2    0    0 -0.94264818820E+02  0.44932587800E+03  0.13781793490E+04  0.14526382653E+04  0.10566000000E+00 0.  1.
         13    1    1    2    0    0  0.17998808795E+03 -0.26408910870E+01  0.26781820154E+03  0.32269069765E+03  0.10566000000E+00 0. -1.
          4    1    1    2  501    0 -0.85723269125E+02 -0.44668498692E+03  0.46248716939E+03  0.64866812644E+03  0.00000000000E+00 0.  1.
</event>
<event>
 5    1  0.4419198E-005  0.3422134E+03  0.7818608E-02  0.9912629E-01
          4   -1    0    0  502    0 -0.00000000000E+00  0.00000000000E+00  0.75058949115E+03  0.75058949115E+03  0.00000000000E+00 0.  1.
         21   -1    0    0  501  502  0.00000000000E+00 -0.00000000000E+00 -0.73961464651E+03  0.73961464651E+03  0.00000000000E+00 0.  1.
        -13    1    1    2    0    0 -0.10235351377E+03  0.50366075880E+03 -0.50733065886E+03  0.72217367047E+03  0.10566000000E+00 0.  1.
         13    1    1    2    0    0 -0.54510306144E+02 -0.32036458814E+03  0.28069277800E+03  0.42941039763E+03  0.10566000000E+00 0. -1.
          4    1    1    2  501    0  0.15686381992E+03 -0.18329617066E+03  0.23761272551E+03  0.33862006955E+03  0.00000000000E+00 0.  1.
</event>
<event>
 5    1  0.4419198E-005  0.1382578E+03  0.7818608E-02  0.1113307E+00
         21   -1    0    0  501  502  0.00000000000E+00  0.00000000000E+00  0.49451434992E+02  0.49451434992E+02  0.00000000000E+00 0. -1.
         -4   -1    0    0    0  501 -0.00000000000E+00 -0.00000000000E+00 -0.10636116251E+04  0.10636116251E+04  0.00000000000E+00 0. -1.
        -13    1    1    2    0    0  0.31909860248E+02  0.11248788974E+03 -0.16062078507E+03  0.19867262590E+03  0.10566000000E+00 0.  1.
         13    1    1    2    0    0 -0.44833406131E+02 -0.13790517766E+03 -0.86963834761E+03  0.88164547247E+03  0.10566000000E+00 0. -1.
         -4    1    1    2    0  502  0.12923545883E+02  0.25417287915E+02  0.16098942606E+02  0.32744961692E+02  0.00000000000E+00 0. -1.
</event>
<event>
 5    1  0.4419198E-005  0.3741307E+02  0.7818608E-02  0.1396299E+00
          4   -1    0    0  502    0 -0.00000000000E+00  0.00000000000E+00  0.43971272194E+02  0.43971272194E+02  0.00000000000E+00 0.  1.
         21   -1    0    0  501  502  0.00000000000E+00 -0.00000000000E+00 -0.25784612655E+03  0.25784612655E+03  0.00000000000E+00 0.  1.
        -13    1    1    2    0    0  0.53147450607E+01  0.40138288571E+02 -0.13549014319E+03  0.14141046209E+03  0.10566000000E+00 0.  1.
         13    1    1    2    0    0  0.14903775573E+02 -0.98412693316E+01  0.36095231441E+02  0.40272198912E+02  0.10566000000E+00 0. -1.
          4    1    1    2  501    0 -0.20218520634E+02 -0.30297019239E+02 -0.11447994261E+03  0.12013473774E+03  0.00000000000E+00 0.  1.
</event>
<event>
 5    1  0.4419198E-005  0.3026918E+03  0.7818608E-02  0.1006201E+00
         21   -1    0    0  501  502  0.00000000000E+00  0.00000000000E+00  0.13283399448E+03  0.13283399448E+03  0.00000000000E+00 0.  1.
          4   -1    0    0  502    0 -0.00000000000E+00 -0.00000000000E+00 -0.19146923652E+04  0.19146923652E+04  0.00000000000E+00 0.  1.
        -13    1    1    2    0    0 -0.22057994025E+03  0.18718328125E+03 -0.84197174656E+03  0.89028620341E+03  0.10566000000E+00 0.  1.
         13    1    1    2    0    0  0.19801484984E+03 -0.25056594426E+03 -0.10104647419E+04  0.10597321260E+04  0.10566000000E+00 0. -1.
          4    1    1    2  501    0  0.22565090407E+02  0.63382663009E+02  0.70578117681E+02  0.97508030288E+02  0.00000000000E+00 0.  1.
</event>
<event>
 5    1  0.4419198E-005  0.1790317E+03  0.7818608E-02  0.1086503E+00
         -4   -1    0    0    0  501 -0.00000000000E+00  0.00000000000E+00  0.54602729411E+03  0.54602729411E+03  0.00000000000E+00 0. -1.
         21   -1    0    0  501  502  0.00000000000E+00 -0.00000000000E+00 -0.10090879838E+04  0.10090879838E+04  0.00000000000E+00 0. -1.
        -13    1    1    2    0    0  0.20517530947E+03 -0.20473597410E+03  0.17845438943E+03  0.34038170776E+03  0.10566000000E+00 0.  1.
         13    1    1    2    0    0 -0.13580150103E+03  0.78304792962E+01  0.25780978006E+03  0.29149486779E+03  0.10566000000E+00 0. -1.
         -4    1    1    2    0  502 -0.69373808439E+02  0.19690549480E+03 -0.89932485916E+03  0.92323870233E+03  0.00000000000E+00 0. -1.
</event>
<event>
 5    1  0.4419198E-005  0.3712079E+03  0.7818608E-02  0.9816092E-01
          4   -1    0    0  502    0 -0.00000000000E+00  0.00000000000E+00  0.56237909056E+03  0.56237909056E+03  0.00000000000E+00 0.  1.
         21   -1    0    0  501  502  0.00000000000E+00 -0.00000000000E+00 -0.40097574754E+03  0.40097574754E+03  0.00000000000E+00 0. -1.
        -13    1    1    2    0    0  0.22033774574E+03  0.29677623094E+03 -0.38742731375E+02  0.37165288085E+03  0.10566000000E+00 0.  1.
         13    1    1    2    0    0 -0.20343171669E+03 -0.31154749023E+03  0.30708054791E+03  0.48243629226E+03  0.10566000000E+00 0. -1.
          4    1    1    2  501    0 -0.16906029049E+02  0.14771259296E+02 -0.10693447352E+03  0.10926566499E+03  0.00000000000E+00 0.  1.
</event>
<event>
 5    1  0.4419198E-005  0.2384922E+03  0.7818608E-02  0.1036535E+00
         -4   -1    0    0    0  501 -0.00000000000E+00  0.00000000000E+00  0.59142621514E+03  0.59142621514E+03  0.00000000000E+00 0. -1.
         21   -1    0    0  501  502  0.00000000000E+00 -0.00000000000E+00 -0.16419198200E+03  0.16419198200E+03  0.00000000000E+00 0.  1.
        -13    1    1    2    0    0 -0.22212278955E+03 -0.10697805394E+03  0.29575137563E+03  0.38503470625E+03  0.10566000000E+00 0.  1.
         13    1    1    2    0    0  0.20631130691E+03  0.99449472654E+02  0.19741243817E+03  0.30236771468E+03  0.10566000000E+00 0. -1.
         -4    1    1    2    0  502  0.15811482639E+02  0.75285812849E+01 -0.65929580665E+02  0.68215776226E+02  0.00000000000E+00 0. -1.
</event>
<event>
 5    1  0.4419198E-005  0.7657587E+03  0.7818608E-02  0.9032680E-01
         -4   -1    0    0    0  501 -0.00000000000E+00  0.00000000000E+00  0.29765742225E+04  0.29765742225E+04  0.00000000000E+00 0. -1.
         21   -1    0    0  501  502  0.00000000000E+00 -0.00000000000E+00 -0.52563298243E+03  0.52563298243E+03  0.00000000000E+00 0. -1.
        -13    1    1    2    0    0  0.16418560180E+03  0.81890429988E+03  0.19310996753E+04  0.21039741280E+04  0.10566000000E+00 0.  1.
         13    1    1    2    0    0 -0.54861890648E+03 -0.47375806794E+03  0.50118532545E+03  0.88125827832E+03  0.10566000000E+00 0. -1.
         -4    1    1    2    0  502  0.38443330468E+03 -0.34514623194E+03  0.18656239356E+02  0.51697479865E+03  0.00000000000E+00 0. -1.
</event>
<event>
 5    1  0.4419198E-005  0.3822134E+03  0.7818608E-02  0.9815014E-01
         -4   -1    0    0    0  501 -0.00000000000E+00  0.00000000000E+00  0.35082463443E+04  0.35082463443E+04  0.00000000000E+00 0. -1.
         21   -1    0    0  501  502  0.00000000000E+00 -0.00000000000E+00 -0.14111248520E+03  0.14111248520E+03  0.00000000000E+00 0. -1.
        -13    1    1    2    0    0 -0.52823354504E+01  0.34126616337E+03  0.94913675209E+03  0.10086382318E+04  0.10566000000E+00 0.  1.
         13    1    1    2    0    0 -0.10177853430E+03  0.30831006518E+03  0.38414358814E+03  0.50297144433E+03  0.10566000000E+00 0. -1.
         -4    1    1    2    0  502  0.10706086975E+03 -0.64957622855E+03  0.20338535188E+04  0.21377491533E+04  0.00000000000E+00 0. -1.
</event>
<event>
 5    1  0.4419198E-005  0.4870347E+03  0.7818608E-02  0.9536486E-01
          4   -1    0    0  502    0 -0.00000000000E+00  0.00000000000E+00  0.25401876256E+04  0.25401876256E+04  0.00000000000E+00 0.  1.
         21   -1    0    0  501  502  0.00000000000E+00 -0.00000000000E+00 -0.26933046885E+03  0.26933046885E+03  0.00000000000E+00 0.  1.
        -13    1    1    2    0    0  0.13830601473E+03  0.35460661617E+03  0.73015221207E+03  0.82340553186E+03  0.10566000000E+00 0.  1.
         13    1    1    2    0    0  0.42247843312E+03 -0.11378293168E+03  0.12212344107E+04  0.12972463448E+04  0.10566000000E+00 0. -1.
          4    1    1    2  501    0 -0.56078444785E+03 -0.24082368449E+03  0.31947053398E+03  0.68886621781E+03  0.00000000000E+00 0.  1.
</event>
<event>
 5    1  0.4419198E-005  0.4168229E+03  0.7818608E-02  0.9965743E-01
         21   -1    0    0  501  502  0.00000000000E+00  0.00000000000E+00  0.14780002587E+03  0.14780002587E+03  0.00000000000E+00 0. -1.
         -4   -1    0    0    0  501 -0.00000000000E+00 -0.00000000000E+00 -0.26382703419E+04  0.26382703419E+04  0.00000000000E+00 0. -1.
        -13    1    1    2    0    0  0.15804942656E+03 -0.15154274681E+02 -0.99101885955E+02  0.18716428143E+03  0.10566000000E+00 0.  1.
         13    1    1    2    0    0  0.24549935719E+02  0.40157592903E+03 -0.19238696967E+04  0.19654873562E+04  0.10566000000E+00 0. -1.
         -4    1    1    2    0  502 -0.18259936228E+03 -0.38642165435E+03 -0.46749873335E+03  0.63341873018E+03  0.00000000000E+00 0. -1.
</event>
<event>
 5    1  0.4419198E-005  0.2388938E+03  0.7818608E-02  0.1036314E+00
         21   -1    0    0  501  502  0.00000000000E+00  0.00000000000E+00  0.22347544285E+03  0.22347544285E+03  0.00000000000E+00 0.  1.
          4   -1    0    0  502    0 -0.00000000000E+00 -0.00000000000E+00 -0.18275270475E+04  0.18275270475E+04  0.00000000000E+00 0.  1.
        -13    1    1    2    0    0 -0.19970256250E+03 -0.16554193246E+03 -0.12490112782E+04  0.12756623492E+04  0.10566000000E+00 0.  1.
         13    1    1    2    0    0  0.16510547584E+03  0.12821872718E+03 -0.54234839415E+03  0.58124147474E+03  0.10566000000E+00 0. -1.
          4    1    1    2  501    0  0.34597086654E+02  0.37323205274E+02  0.18730806774E+03  0.19409866640E+03  0.00000000000E+00 0.  1.
</event>
<event>
 5    1  0.4419198E-005  0.3166989E+03  0.7818608E-02  0.1001326E+00
         -4   -1    0    0    0  501 -0.00000000000E+00  0.00000000000E+00  0.92883314752E+03  0.92883314752E+03  0.00000000000E+00 0. -1.
         21   -1    0    0  501  502  0.00000000000E+00 -0.00000000000E+00 -0.72812513314E+03  0.72812513314E+03  0.00000000000E+00 0. -1.
        -13    1    1    2    0    0  0.22539403371E+03  0.21236582886E+03 -0.35619331069E+03  0.47199089128E+03  0.10566000000E+00 0.  1.
         13    1    1    2    0    0  0.10621778904E+03 -0.26966708739E+03  0.74503419085E+03  0.79942386344E+03  0.10566000000E+00 0. -1.
         -4    1    1    2    0  502 -0.33161182275E+03  0.57301258525E+02 -0.18813286578E+03  0.38554352595E+03  0.00000000000E+00 0. -1.
</event>
<event>
 5    1  0.4419198E-005  0.7833396E+02  0.7818608E-02  0.1286622E+00
         21   -1    0    0  501  502  0.00000000000E+00  0.00000000000E+00  0.97692838912E+02  0.97692838912E+02  0.00000000000E+00 0. -1.
          4   -1    0    0  502    0 -0.00000000000E+00 -0.00000000000E+00 -0.91857807478E+02  0.91857807478E+02  0.00000000000E+00 0.  1.
        -13    1    1    2    0    0 -0.16058650890E+02  0.82761145883E+02  0.42715274105E+01  0.84412941227E+02  0.10566000000E+00 0.  1.
         13    1    1    2    0    0  0.75199247515E+01 -0.12277549832E+02  0.26274998772E+02  0.29961211969E+02  0.10566000000E+00 0. -1.
          4    1    1    2  501    0  0.85387261381E+01 -0.70483596050E+02 -0.24711494748E+02  0.75176493194E+02  0.00000000000E+00 0.  1.
</event>
<event>
 5    1  0.4419198E-005  0.4852981E+03  0.7818608E-02  0.9700711E-01
         21   -1    0    0  501  502  0.00000000000E+00  0.00000000000E+00  0.24009844334E+03  0.24009844334E+03  0.00000000000E+00 0. -1.
         -4   -1    0    0    0  501 -0.00000000000E+00 -0.00000000000E+00 -0.17317487642E+04  0.17317487642E+04  0.00000000000E+00 0. -1.
        -13    1    1    2    0    0  0.17158617129E+03 -0.17786673400E+03 -0.28785741114E+03  0.37939463564E+03  0.10566000000E+00 0.  1.
         13    1    1    2    0    0 -0.19461808280E+03 -0.36358507140E+03 -0.85138877725E+03  0.94600907157E+03  0.10566000000E+00 0. -1.
         -4    1    1    2    0  502  0.23031911510E+02  0.54145180540E+03 -0.35240413242E+03  0.64644350029E+03  0.00000000000E+00 0. -1.
</event>
<event>
 5    1  0.4419198E-005  0.6682864E+02  0.7818608E-02  0.1235303E+00
         -4   -1    0    0    0  501 -0.00000000000E+00  0.00000000000E+00  0.10280231354E+03  0.10280231354E+03  0.00000000000E+00 0. -1.
         21   -1    0    0  501  502  0.00000000000E+00 -0.00000000000E+00 -0.14200942479E+03  0.14200942479E+03  0.00000000000E+00 0.  1.
        -13    1    1    2    0    0 -0.44023229042E+02  0.20573606147E+02 -0.94212639170E+02  0.10600637013E+03  0.10566000000E+00 0.  1.
         13    1    1    2    0    0  0.66393519336E+02 -0.19688770276E+02  0.79626346955E+02  0.10552778486E+03  0.10566000000E+00 0. -1.
         -4    1    1    2    0  502 -0.22370290294E+02 -0.88483587038E+00 -0.24620819033E+02  0.33277583329E+02  0.00000000000E+00 0. -1.
</event>
<event>
 5    1  0.4419198E-005  0.7390956E+02  0.7818608E-02  0.1216828E+00
         21   -1    0    0  501  502  0.00000000000E+00  0.00000000000E+00  0.27070827578E+03  0.27070827578E+03  0.00000000000E+00 0.  1.
         -4   -1    0    0    0  501 -0.00000000000E+00 -0.00000000000E+00 -0.58534854156E+02  0.58534854156E+02  0.00000000000E+00 0. -1.
        -13    1    1    2    0    0  0.58672406430E+02  0.71721365314E+02  0.14406874927E+03  0.17129571273E+03  0.10566000000E+00 0.  1.
         13    1    1    2    0    0 -0.57352735502E+02 -0.41576920288E+02 -0.12453297781E+02  0.71924073576E+02  0.10566000000E+00 0. -1.
         -4    1    1    2    0  502 -0.13196709286E+01 -0.30144445026E+02  0.80557970134E+02  0.86023343631E+02  0.00000000000E+00 0. -1.
</event>
<event>
 5    1  0.4419198E-005  0.5694782E+03  0.7818608E-02  0.9337448E-01
         -4   -1    0    0    0  501 -0.00000000000E+00  0.00000000000E+00  0.13376839021E+04  0.13376839021E+04  0.00000000000E+00 0. -1.
         21   -1    0    0  501  502  0.00000000000E+00 -0.00000000000E+00 -0.94863409327E+03  0.94863409327E+03  0.00000000000E+00 0. -1.
        -13    1    1    2    0    0  0.14899129821E+03  0.60094959542E+03  0.79235780917E+03  0.10055693572E+04  0.10566000000E+00 0.  1.
         13    1    1    2    0    0  0.18667544389E+03 -0.51178039621E+03  0.20353818042E+03  0.58154509485E+03  0.10566000000E+00 0. -1.
         -4    1    1    2    0  502 -0.33566674210E+03 -0.89169199218E+02 -0.60684618079E+03  0.69920354332E+03  0.00000000000E+00 0. -1.
</event>
<event>
 5    1  0.4419198E-005  0.2923005E+03  0.7818608E-02  0.1047368E+00
          4   -1    0    0  502    0 -0.00000000000E+00  0.00000000000E+00  0.44799041498E+03  0.44799041498E+03  0.00000000000E+00 0.  1.
         21   -1    0    0  501  502  0.00000000000E+00 -0.00000000000E+00 -0.63351263343E+03  0.63351263343E+03  0.00000000000E+00 0.  1.
        -13    1    1    2    0    0  0.21727796548E+03  0.18416016002E+03 -0.44781366522E+03  0.53071816319E+03  0.10566000000E+00 0.  1.
         13    1    1    2    0    0  0.93365157497E+02  0.27582447642E+01 -0.14675935264E+02  0.94551862956E+02  0.10566000000E+00 0. -1.
          4    1    1    2  501    0 -0.31064312298E+03 -0.18691840478E+03  0.27696738203E+03  0.45623302227E+03  0.00000000000E+00 0.  1.
</event>
<event>
 5    1  0.4419198E-005  0.4214425E+03  0.7818608E-02  0.9859523E-01
         21   -1    0    0  501  502  0.00000000000E+00  0.00000000000E+00  0.26754869706E+03  0.26754869706E+03  0.00000000000E+00 0. -1.
         -4   -1    0    0    0  501 -0.00000000000E+00 -0.00000000000E+00 -0.17032985278E+04  0.17032985278E+04  0.00000000000E+00 0. -1.
        -13    1    1    2    0    0 -0.21888470127E+03 -0.54357637597E+01 -0.64922737110E+03  0.68515418011E+03  0.10566000000E+00 0.  1.
         13    1    1    2    0    0  0.34262745677E+03  0.38741147766E+03 -0.70765304085E+03  0.87650103511E+03  0.10566000000E+00 0. -1.
         -4    1    1    2    0  502 -0.12374275551E+03 -0.38197571390E+03 -0.78869418820E+02  0.40919200966E+03  0.00000000000E+00 0. -1.
</event>
<event>
 5    1  0.4419198E-005  0.3586283E+03  0.7818608E-02  0.1004515E+00
         21   -1    0    0  501  502  0.00000000000E+00  0.00000000000E+00  0.90957232377E+03  0.90957232377E+03  0.00000000000E+00 0. -1.
         -4   -1    0    0    0  501 -0.00000000000E+00 -0.00000000000E+00 -0.41621754713E+03  0.41621754713E+03  0.00000000000E+00 0. -1.
        -13    1    1    2    0    0 -0.16592658785E+03  0.97051027028E+02  0.81650022968E+02  0.20884748458E+03  0.10566000000E+00 0.  1.
         13    1    1    2    0    0  0.50033983461E+03 -0.69431165040E+02 -0.90276182724E+02  0.51313783441E+03  0.10566000000E+00 0. -1.
         -4    1    1    2    0  502 -0.33441324676E+03 -0.27619861989E+02  0.50198093640E+03  0.60380455190E+03  0.00000000000E+00 0. -1.
</event>
<event>
 5    1  0.4419198E-005  0.3843450E+03  0.7818608E-02  0.1003696E+00
          4   -1    0    0  502    0 -0.00000000000E+00  0.00000000000E+00  0.15425935618E+04  0.15425935618E+04  0.00000000000E+00 0.  1.
         21   -1    0    0  501  502  0.00000000000E+00 -0.00000000000E+00 -0.24025380519E+03  0.24025380519E+03  0.00000000000E+00 0.  1.
        -13    1    1    2    0    0  0.36226482431E+03 -0.17008622655E+03  0.91524825532E+03  0.99892167232E+03  0.10566000000E+00 0.  1.
         13    1    1    2    0    0 -0.10641607645E+03 -0.11998270418E+03  0.36246843457E+03  0.39636297488E+03  0.10566000000E+00 0. -1.
          4    1    1    2  501    0 -0.25584874786E+03  0.29006893073E+03  0.24623066708E+02  0.38756271978E+03  0.00000000000E+00 0.  1.
</event>
<event>
 5    1  0.4419198E-005  0.4983923E+03  0.7818608E-02  0.9481503E-01
         21   -1    0    0  501  502  0.00000000000E+00  0.00000000000E+00  0.20218831560E+03  0.20218831560E+03  0.00000000000E+00 0.  1.
         -4   -1    0    0    0  501 -0.00000000000E+00 -0.00000000000E+00 -0.34740111680E+04  0.34740111680E+04  0.00000000000E+00 0. -1.
        -13    1    1    2    0    0 -0.19154895285E+02 -0.44341472313E+03 -0.38112304208E+03  0.58501137687E+03  0.10566000000E+00 0.  1.
         13    1    1    2    0    0 -0.19453347050E+03  0.48104509293E+03 -0.28134042151E+04  0.28608549319E+04  0.10566000000E+00 0. -1.
         -4    1    1    2    0  502  0.21368836579E+03 -0.37630369807E+02 -0.77295595258E+02  0.23033317488E+03  0.00000000000E+00 0. -1.
</event>
<event>
 5    1  0.4419198E-005  0.3371748E+03  0.7818608E-02  0.9978072E-01
          4   -1    0    0  502    0 -0.00000000000E+00  0.00000000000E+00  0.18479341727E+04  0.18479341727E+04  0.00000000000E+00 0.  1.
         21   -1    0    0  501  502  0.00000000000E+00 -0.00000000000E+00 -0.60061844676E+03  0.60061844676E+03  0.00000000000E+00 0.  1.
        -13    1    1    2    0    0 -0.23748855836E+03  0.13494230238E+03 -0.26449895089E+03  0.38022354807E+03  0.10566000000E+00 0.  1.
         13    1    1    2    0    0 -0.75352116388E+02  0.35694851065E+03  0.14346387511E+04  0.14802967736E+04  0.10566000000E+00 0. -1.
          4    1    1    2  501    0  0.31284067475E+03 -0.49189081303E+03  0.77175925753E+02  0.58803229778E+03  0.00000000000E+00 0.  1.
</event>
<event>
 5    1  0.4419198E-005  0.2670760E+02  0.7818608E-02  0.1433473E+00
         -4   -1    0    0    0  501 -0.00000000000E+00  0.00000000000E+00  0.84175490754E+02  0.84175490754E+02  0.00000000000E+00 0. -1.
         21   -1    0    0  501  502  0.00000000000E+00 -0.00000000000E+00 -0.25352806320E+02  0.25352806320E+02  0.00000000000E+00 0. -1.
        -13    1    1    2    0    0  0.30307570422E+02  0.76019401310E+01  0.29303830536E+02  0.42837646606E+02  0.10566000000E+00 0.  1.
         13    1    1    2    0    0 -0.15341871745E+02 -0.21792581190E+02  0.36252819480E+02  0.44995196497E+02  0.10566000000E+00 0. -1.
         -4    1    1    2    0  502 -0.14965698677E+02  0.14190641059E+02 -0.67339655821E+01  0.21695453971E+02  0.00000000000E+00 0. -1.
</event>
<event>
 5    1  0.4419198E-005  0.4585474E+03  0.7818608E-02  0.9890719E-01
          4   -1    0    0  502    0 -0.00000000000E+00  0.00000000000E+00  0.17744803187E+04  0.17744803187E+04  0.00000000000E+00 0.  1.
         21   -1    0    0  501  502  0.00000000000E+00 -0.00000000000E+00 -0.29140995761E+03  0.29140995761E+03  0.00000000000E+00 0.  1.
        -13    1    1    2    0    0  0.19341489099E+03 -0.36555649124E+03  0.11745417734E+03  0.42992599745E+03  0.10566000000E+00 0.  1.
         13    1    1    2    0    0  0.22631919620E+02 -0.15137559503E+03  0.88398689702E+03  0.89713968803E+03  0.10566000000E+00 0. -1.
          4    1    1    2  501    0 -0.21604681061E+03  0.51693208627E+03  0.48162928675E+03  0.73882459085E+03  0.00000000000E+00 0.  1.
</event>
<event>
 5    1  0.4419198E-005  0.2159659E+03  0.7818608E-02  0.1076426E+00
         21   -1    0    0  501  502  0.00000000000E+00  0.00000000000E+00  0.10943586759E+03  0.10943586759E+03  0.00000000000E+00 0.  1.
          4   -1    0    0  502    0 -0.00000000000E+00 -0.00000000000E+00 -0.76609281447E+03  0.76609281447E+03  0.00000000000E+00 0.  1.
        -13    1    1    2    0    0 -0.24095235604E+03  0.47793038243E+02 -0.11254426329E+03  0.27020073047E+03  0.10566000000E+00 0.  1.
         13    1    1    2    0    0  0.91843459475E+02 -0.38234820473E+02 -0.12122356659E+03  0.15681928072E+03  0.10566000000E+00 0. -1.
          4    1    1    2  501    0  0.14910889656E+03 -0.95582177695E+01 -0.42288911701E+03  0.44850867087E+03  0.00000000000E+00 0.  1.
</event>
<event>
 5    1  0.4419198E-005  0.3281854E+03  0.7818608E-02  0.9963064E-01
         -4   -1    0    0    0  501 -0.00000000000E+00  0.00000000000E+00  0.85244530976E+03  0.85244530976E+03  0.00000000000E+00 0. -1.
         21   -1    0    0  501  502  0.00000000000E+00 -0.00000000000E+00 -0.51874504076E+03  0.51874504076E+03  0.00000000000E+00 0.  1.
        -13    1    1    2    0    0 -0.32861121853E+03 -0.44374111908E+02  0.22233480343E+03  0.39923322849E+03  0.10566000000E+00 0.  1.
         13    1    1    2    0    0  0.31354380955E+03  0.95714390679E+02  0.49000509337E+03  0.58955573764E+03  0.10566000000E+00 0. -1.
         -4    1    1    2    0  502  0.15067408976E+02 -0.51340278771E+02 -0.37863962780E+03  0.38240138439E+03  0.00000000000E+00 0. -1.
</event>
<event>
 5    1  0.4419198E-005  0.1123872E+03  0.7818608E-02  0.1145544E+00
         21   -1    0    0  501  502  0.00000000000E+00  0.00000000000E+00  0.26591613139E+03  0.26591613139E+03  0.00000000000E+00 0. -1.
         -4   -1    0    0    0  501 -0.00000000000E+00 -0.00000000000E+00 -0.20519578115E+03  0.20519578115E+03  0.00000000000E+00 0. -1.
        -13    1    1    2    0    0 -0.66828433084E+02 -0.74705416911E+02  0.30873307986E+02  0.10488141444E+03  0.10566000000E+00 0.  1.
         13    1    1    2    0    0  0.28484727119E+02  0.11581192167E+03 -0.14199034795E+03  0.18543206561E+03  0.10566000000E+00 0. -1.
         -4    1    1    2    0  502  0.38343705965E+02 -0.41106504756E+02  0.17183739021E+03  0.18079843250E+03  0.00000000000E+00 0. -1.
</event>
<event>
 5    1  0.4419198E-005  0.5609307E+03  0.7818608E-02  0.9353571E-01
         21   -1    0    0  501  502  0.00000000000E+00  0.00000000000E+00  0.34161454384E+03  0.34161454384E+03  0.00000000000E+00 0.  1.
         -4   -1    0    0    0  501 -0.00000000000E+00 -0.00000000000E+00 -0.21493639243E+04  0.21493639243E+04  0.00000000000E+00 0. -1.
        -13    1    1    2    0    0  0.33885227890E+03  0.42236633434E+03 -0.69627934446E+03  0.88205392351E+03  0.10566000000E+00 0.  1.
         13    1    1    2    0    0 -0.62106246959E+03 -0.23983234994E+03 -0.29927244790E+03  0.72993298079E+03  0.10566000000E+00 0. -1.
         -4    1    1    2    0  502  0.28221019069E+03 -0.18253398440E+03 -0.81219758810E+03  0.87899156384E+03  0.00000000000E+00 0. -1.
</event>
<event>
 5    1  0.4419198E-005  0.2733768E+03  0.7818608E-02  0.1030559E+00
         -4   -1    0    0    0  501 -0.00000000000E+00  0.00000000000E+00  0.95075955498E+03  0.95075955498E+03  0.00000000000E+00 0. -1.
         21   -1    0    0  501  502  0.00000000000E+00 -0.00000000000E+00 -0.49637950257E+03  0.49637950257E+03  0.00000000000E+00 0. -1.
        -13    1    1    2    0    0 -0.31762995843E+03 -0.19258977373E+02  0.23038594401E+02  0.31904621405E+03  0.10566000000E+00 0.  1.
         13    1    1    2    0    0  0.88965337310E+02  0.16908347147E+03  0.71146935000E+03  0.73667679394E+03  0.10566000000E+00 0. -1.
         -4    1    1    2    0  502  0.22866462112E+03 -0.14982449410E+03 -0.28012789199E+03  0.39141604956E+03  0.00000000000E+00 0. -1.
</event>
<event>
 5    1  0.4419198E-005  0.4721996E+03  0.7818608E-02  0.1002436E+00
         -4   -1    0    0    0  501 -0.00000000000E+00  0.00000000000E+00  0.13431517078E+04  0.13431517078E+04  0.00000000000E+00 0. -1.
         21   -1    0    0  501  502  0.00000000000E+00 -0.00000000000E+00 -0.22136953917E+03  0.22136953917E+03  0.00000000000E+00 0. -1.
        -13    1    1    2    0    0  0.60734040194E+02 -0.66558817167E+02  0.28703491406E+03  0.30084506450E+03  0.10566000000E+00 0.  1.
         13    1    1    2    0    0 -0.39831559348E+03  0.32983916821E+03  0.40274498336E+03  0.65547900171E+03  0.10566000000E+00 0. -1.
         -4    1    1    2    0  502  0.33758155328E+03 -0.26328035105E+03  0.43200227123E+03  0.60819718079E+03  0.00000000000E+00 0. -1.
</event>
<event>
 5    1  0.4419198E-005  0.1274728E+03  0.7818608E-02  0.1165462E+00
         -4   -1    0    0    0  501 -0.00000000000E+00  0.00000000000E+00  0.43275009292E+03  0.43275009292E+03  0.00000000000E+00 0. -1.
         21   -1    0    0  501  502  0.00000000000E+00 -0.00000000000E+00 -0.13029019404E+03  0.13029019404E+03  0.00000000000E+00 0.  1.
        -13    1    1    2    0    0 -0.28061556583E+02 -0.37992832520E+02 -0.49487194376E+02  0.68409793539E+02  0.10566000000E+00 0.  1.
         13    1    1    2    0    0  0.63514241091E+02  0.15278173798E+03  0.33456220004E+03  0.37324013067E+03  0.10566000000E+00 0. -1.
         -4    1    1    2    0  502 -0.35452684508E+02 -0.11478890546E+03  0.17384893209E+02  0.12139036275E+03  0.00000000000E+00 0. -1.
</event>
<event>
 5    1  0.4419198E-005  0.4612572E+03  0.7818608E-02  0.1002340E+00
         21   -1    0    0  501  502  0.00000000000E+00  0.00000000000E+00  0.71617568047E+03  0.71617568047E+03  0.00000000000E+00 0. -1.
         -4   -1    0    0    0  501 -0.00000000000E+00 -0.00000000000E+00 -0.63044613247E+03  0.63044613247E+03  0.00000000000E+00 0. -1.
        -13    1    1    2    0    0  0.68215228740E+02  0.68920722866E+02 -0.26619295384E+03  0.28330563587E+03  0.10566000000E+00 0.  1.
         13    1    1    2    0    0  0.40083772775E+03 -0.15740844360E+03 -0.57493806301E+02  0.43445811194E+03  0.10566000000E+00 0. -1.
         -4    1    1    2    0  502 -0.46905295649E+03  0.88487720734E+02  0.40941630815E+03  0.62885806514E+03  0.00000000000E+00 0. -1.
</event>
<event>
 5    1  0.4419198E-005  0.4897782E+03  0.7818608E-02  0.9509017E-01
          4   -1    0    0  502    0 -0.00000000000E+00  0.00000000000E+00  0.65459638612E+03  0.65459638612E+03  0.00000000000E+00 0.  1.
         21   -1    0    0  501  502  0.00000000000E+00 -0.00000000000E+00 -0.97857379863E+03  0.97857379863E+03  0.00000000000E+00 0. -1.
        -13    1    1    2    0    0  0.23762479920E+03 -0.26175382844E+02  0.13683896940E+03  0.27545527871E+03  0.10566000000E+00 0.  1.
         13    1    1    2    0    0  0.45489824663E+03 -0.13723463563E+03  0.55789981937E+02  0.47841226286E+03  0.10566000000E+00 0. -1.
          4    1    1    2  501    0 -0.69252304583E+03  0.16341001848E+03 -0.51660636384E+03  0.87930264318E+03  0.00000000000E+00 0.  1.
</event>
<event>
 5    1  0.4419198E-005  0.1017055E+03  0.7818608E-02  0.1161764E+00
         -4   -1    0    0    0  501 -0.00000000000E+00  0.00000000000E+00  0.28089499507E+03  0.28089499507E+03  0.00000000000E+00 0. -1.
         21   -1    0    0  501  502  0.00000000000E+00 -0.00000000000E+00 -0.96305199980E+02  0.96305199980E+02  0.00000000000E+00 0.  1.
        -13    1    1    2    0    0  0.12025922975E+03  0.42426046742E+02 -0.91542975806E+01  0.12785172705E+03  0.10566000000E+00 0.  1.
         13    1    1    2    0    0 -0.95074890427E+02 -0.21433126166E+02  0.19338986122E+03  0.21656006851E+03  0.10566000000E+00 0. -1.
         -4    1    1    2    0  502 -0.25184339319E+02 -0.20992920576E+02  0.35423145270E+00  0.32788399491E+02  0.00000000000E+00 0. -1.
</event>
<event>
 5    1  0.4419198E-005  0.3085603E+03  0.7818608E-02  0.1003833E+00
         21   -1    0    0  501  502  0.00000000000E+00  0.00000000000E+00  0.22639523401E+03  0.22639523401E+03  0.00000000000E+00 0.  1.
          4   -1    0    0  502    0 -0.00000000000E+00 -0.00000000000E+00 -0.18898975595E+04  0.18898975595E+04  0.00000000000E+00 0.  1.
        -13    1    1    2    0    0  0.21390525721E+03  0.28192384286E+03 -0.13136597365E+04  0.13604919797E+04  0.10566000000E+00 0.  1.
         13    1    1    2    0    0 -0.25113445418E+03 -0.92441886623E+02 -0.46095979324E+03  0.53300840389E+03  0.10566000000E+00 0. -1.
          4    1    1    2  501    0  0.37229196971E+02 -0.18948195624E+03  0.11111720426E+03  0.22279240995E+03  0.00000000000E+00 0.  1.
</event>
<event>
 5    1  0.4419198E-005  0.6167421E+02  0.7818608E-02  0.1300245E+00
          4   -1    0    0  502    0 -0.00000000000E+00  0.00000000000E+00  0.70148125153E+02  0.70148125153E+02  0.00000000000E+00 0.  1.
         21   -1    0    0  501  502  0.00000000000E+00 -0.00000000000E+00 -0.12074997213E+03  0.12074997213E+03  0.00000000000E+00 0.  1.
        -13    1    1    2    0    0 -0.24265184819E+02  0.62899931987E+02 -0.28267344340E+02  0.73104408611E+02  0.10566000000E+00 0.  1.
         13    1    1    2    0    0  0.22340184873E+02 -0.33342636322E+01  0.30633293040E+02  0.38060622442E+02  0.10566000000E+00 0. -1.
          4    1    1    2  501    0  0.19249999460E+01 -0.59565668355E+02 -0.52967795672E+02  0.79733066225E+02  0.00000000000E+00 0.  1.
</event>
<event>
 5    1  0.4419198E-005  0.1693823E+03  0.7818608E-02  0.1083425E+00
         21   -1    0    0  501  502  0.00000000000E+00  0.00000000000E+00  0.20305863125E+03  0.20305863125E+03  0.00000000000E+00 0.  1.
         -4   -1    0    0    0  501 -0.00000000000E+00 -0.00000000000E+00 -0.52486699980E+03  0.52486699980E+03  0.00000000000E+00 0. -1.
        -13    1    1    2    0    0 -0.11075146017E+03 -0.59565306059E+02  0.98963618419E+02  0.16002412490E+03  0.10566000000E+00 0.  1.
         13    1    1    2    0    0  0.17579059264E+03 -0.36404070220E+02 -0.41460943316E+03  0.45180591189E+03  0.10566000000E+00 0. -1.
         -4    1    1    2    0  502 -0.65039132467E+02  0.95969376278E+02 -0.61625538137E+01  0.11609559425E+03  0.00000000000E+00 0. -1.
</event>
<event>
 5    1  0.4419198E-005  0.5055150E+03  0.7818608E-02  0.9982421E-01
         -4   -1    0    0    0  501 -0.00000000000E+00  0.00000000000E+00  0.58337700497E+03  0.58337700497E+03  0.00000000000E+00 0. -1.
         21   -1    0    0  501  502  0.00000000000E+00 -0.00000000000E+00 -0.60854121725E+03  0.60854121725E+03  0.00000000000E+00 0. -1.
        -13    1    1    2    0    0 -0.82509088292E+02  0.17035336886E+02  0.78800132391E+02  0.11535781024E+03  0.10566000000E+00 0.  1.
         13    1    1    2    0    0 -0.35432602378E+03 -0.33655439094E+03 -0.19792257175E+03  0.52724675889E+03  0.10566000000E+00 0. -1.
         -4    1    1    2    0  502  0.43683511207E+03  0.31951905405E+03  0.93958227068E+02  0.54931365310E+03  0.00000000000E+00 0. -1.
</event>
<event>
 5    1  0.4419198E-005  0.4678158E+03  0.7818608E-02  0.9650232E-01
         -4   -1    0    0    0  501 -0.00000000000E+00  0.00000000000E+00  0.15729299877E+04  0.15729299877E+04  0.00000000000E+00 0. -1.
         21   -1    0    0  501  502  0.00000000000E+00 -0.00000000000E+00 -0.33143034766E+03  0.33143034766E+03  0.00000000000E+00 0. -1.
        -13    1    1    2    0    0 -0.27843630856E+03  0.17566674004E+03  0.47015068337E+03  0.57395754000E+03  0.10566000000E+00 0.  1.
         13    1    1    2    0    0  0.15466881578E+03  0.34076831668E+03  0.70109127173E+03  0.79471659771E+03  0.10566000000E+00 0. -1.
         -4    1    1    2    0  502  0.12376749278E+03 -0.51643505672E+03  0.70257684964E+02  0.53568619767E+03  0.00000000000E+00 0. -1.
</event>
<event>
 5    1  0.4419198E-005  0.4862850E+03  0.7818608E-02  0.9832528E-01
         -4   -1    0    0    0  501 -0.00000000000E+00  0.00000000000E+00  0.35081114560E+03  0.35081114560E+03  0.00000000000E+00 0. -1.
         21   -1    0    0  501  502  0.00000000000E+00 -0.00000000000E+00 -0.13598946720E+04  0.13598946720E+04  0.00000000000E+00 0. -1.
        -13    1    1    2    0    0  0.15543755688E+03 -0.14914054519E+02  0.12116531908E+03  0.19764692971E+03  0.10566000000E+00 0.  1.
         13    1    1    2    0    0 -0.54203528844E+03  0.82172757377E+02 -0.91186272145E+03  0.10639775608E+04  0.10566000000E+00 0. -1.
         -4    1    1    2    0  502  0.38659773155E+03 -0.67258702857E+02 -0.21838612398E+03  0.44908132704E+03  0.00000000000E+00 0. -1.
</event>
<event>
 5    1  0.4419198E-005  0.4979922E+03  0.7818608E-02  0.9850235E-01
         21   -1    0    0  501  502  0.00000000000E+00  0.00000000000E+00  0.11512867718E+04  0.11512867718E+04  0.00000000000E+00 0. -1.
         -4   -1    0    0    0  501 -0.00000000000E+00 -0.00000000000E+00 -0.49653063476E+03  0.49653063476E+03  0.00000000000E+00 0. -1.
        -13    1    1    2    0    0 -0.98646205519E+02  0.94974999190E+02 -0.25170352744E+03  0.28654144766E+03  0.10566000000E+00 0.  1.
         13    1    1    2    0    0 -0.80677297690E+02  0.44187132684E+03  0.42008296323E+03  0.61500309187E+03  0.10566000000E+00 0. -1.
         -4    1    1    2    0  502  0.17932350321E+03 -0.53684632603E+03  0.48637670129E+03  0.74627286707E+03  0.00000000000E+00 0. -1.
</event>
<event>
 5    1  0.4419198E-005  0.5346978E+02  0.7818608E-02  0.1278272E+00
         -4   -1    0    0    0  501 -0.00000000000E+00  0.00000000000E+00  0.15451844986E+03  0.15451844986E+03  0.00000000000E+00 0. -1.
         21   -1    0    0  501  502  0.00000000000E+00 -0.00000000000E+00 -0.16498802447E+03  0.16498802447E+03  0.00000000000E+00 0. -1.
        -13    1    1    2    0    0 -0.96612365743E+01 -0.33621842812E+02 -0.33656499193E+02  0.48544195412E+02  0.10566000000E+00 0.  1.
         13    1    1    2    0    0  0.16165989869E+02  0.53482059005E+02  0.14081385482E+03  0.15149330922E+03  0.10566000000E+00 0. -1.
         -4    1    1    2    0  502 -0.65047532945E+01 -0.19860216193E+02 -0.11762693024E+03  0.11946896970E+03  0.00000000000E+00 0. -1.
</event>
<event>
 5    1  0.4419198E-005  0.3023251E+03  0.7818608E-02  0.1054738E+00
         -4   -1    0    0    0  501 -0.00000000000E+00  0.00000000000E+00  0.32054275863E+03  0.32054275863E+03  0.00000000000E+00 0. -1.
         21   -1    0    0  501  502  0.00000000000E+00 -0.00000000000E+00 -0.86081516224E+03  0.86081516224E+03  0.00000000000E+00 0. -1.
        -13    1    1    2    0    0 -0.21321884256E+02 -0.64395394887E+02  0.75567044328E+02  0.10154692996E+03  0.10566000000E+00 0.  1.
         13    1    1    2    0    0  0.29527283757E+03 -0.65814962537E+02  0.86608568707E+02  0.31467239033E+03  0.10566000000E+00 0. -1.
         -4    1    1    2    0  502 -0.27395095331E+03  0.13021035742E+03 -0.70244801665E+03  0.76513860058E+03  0.00000000000E+00 0. -1.
</event>
<event>
 5    1  0.4419198E-005  0.4419853E+03  0.7818608E-02  0.1002152E+00
         21   -1    0    0  501  502  0.00000000000E+00  0.00000000000E+00  0.20202969388E+03  0.20202969388E+03  0.00000000000E+00 0. -1.
         -4   -1    0    0    0  501 -0.00000000000E+00 -0.00000000000E+00 -0.15242553876E+04  0.15242553876E+04  0.00000000000E+00 0. -1.
        -13    1    1    2    0    0 -0.12358504692E+02  0.11020582666E+03 -0.24102067760E+03  0.26530931960E+03  0.10566000000E+00 0.  1.
         13    1    1    2    0    0  0.37568285665E+03  0.16798110668E+03 -0.85855702309E+03  0.95209003463E+03  0.10566000000E+00 0. -1.
         -4    1    1    2    0  502 -0.36332435196E+03 -0.27818693334E+03 -0.22264799302E+03  0.50888572726E+03  0.00000000000E+00 0. -1.
</event>
<event>
 5    1  0.4419198E-005  0.2777349E+03  0.7818608E-02  0.1016944E+00
         21   -1    0    0  501  502  0.00000000000E+00  0.00000000000E+00  0.17469795091E+04  0.17469795091E+04  0.00000000000E+00 0.  1.
         -4   -1    0    0    0  501 -0.00000000000E+00 -0.00000000000E+00 -0.16062347145E+03  0.16062347145E+03  0.00000000000E+00 0. -1.
        -13    1    1    2    0    0 -0.27116410039E+03  0.75797556062E+02  0.20298368632E+03  0.34709887197E+03  0.10566000000E+00 0.  1.
         13    1    1    2    0    0  0.24090172254E+03 -0.14012289691E+03  0.13421332206E+03  0.30932392915E+03  0.10566000000E+00 0. -1.
         -4    1    1    2    0  502  0.30262377856E+02  0.64325340852E+02  0.12491590293E+04  0.12511801794E+04  0.00000000000E+00 0. -1.
</event>
<event>
 5    1  0.4419198E-005  0.4940557E+03  0.7818608E-02  0.9625118E-01
         21   -1    0    0  501  502  0.00000000000E+00  0.00000000000E+00  0.59371681165E+03  0.59371681165E+03  0.00000000000E+00 0.  1.
          4   -1    0    0  502    0 -0.00000000000E+00 -0.00000000000E+00 -0.80139350596E+03  0.80139350596E+03  0.00000000000E+00 0.  1.
        -13    1    1    2    0    0  0.33372173679E+03  0.25915953799E+03 -0.16294376294E+03  0.45286261138E+03  0.10566000000E+00 0.  1.
         13    1    1    2    0    0 -0.12420652857E+03  0.27900401977E+03 -0.17253158103E+03  0.35076724819E+03  0.10566000000E+00 0. -1.
          4    1    1    2  501    0 -0.20951520822E+03 -0.53816355776E+03  0.12779864966E+03  0.59148045803E+03  0.00000000000E+00 0.  1.
</event>
<event>
 5    1  0.6072636E-005  0.4940947E+03  0.7818608E-02  0.9875382E-01
          4   -1    0    0  502    0 -0.00000000000E+00  0.00000000000E+00  0.16024952484E+04  0.16024952484E+04  0.00000000000E+00 0.  1.
         21   -1    0    0  501  502  0.00000000000E+00 -0.00000000000E+00 -0.23690446590E+03  0.23690446590E+03  0.00000000000E+00 0.  1.
        -13    1    1    2    0    0  0.28866680017E+03  0.30183668005E+03  0.60705131733E+03  0.73684816345E+03  0.10566000000E+00 0.  1.
         13    1    1    2    0    0  0.96801020077E+02  0.84975406474E+02  0.46512598779E+03  0.48263179845E+03  0.10566000000E+00 0. -1.
          4    1    1    2  501    0 -0.38546782025E+03 -0.38681208652E+03  0.29341347741E+03  0.61991975243E+03  0.00000000000E+00 0.  1.
</event>
<event>
 5    1  0.4419198E-005  0.4655512E+03  0.7818608E-02  0.1014060E+00
         21   -1    0    0  501  502  0.00000000000E+00  0.00000000000E+00  0.49323833637E+03  0.49323833637E+03  0.00000000000E+00 0. -1.
         -4   -1    0    0    0  501 -0.00000000000E+00 -0.00000000000E+00 -0.58853399417E+03  0.58853399417E+03  0.00000000000E+00 0. -1.
        -13    1    1    2    0    0  0.48533811788E+02 -0.42681726833E+02 -0.35234796341E+02  0.73612245784E+02  0.10566000000E+00 0.  1.
         13    1    1    2    0    0 -0.36259739768E+03 -0.29981399393E+03 -0.21639793921E+03  0.51787390649E+03  0.10566000000E+00 0. -1.
         -4    1    1    2    0  502  0.31406358589E+03  0.34249572077E+03  0.15633707775E+03  0.49028617827E+03  0.00000000000E+00 0. -1.
</event>
<event>
 5    1  0.4419198E-005  0.4795029E+03  0.7818608E-02  0.9524065E-01
         21   -1    0    0  501  502  0.00000000000E+00  0.00000000000E+00  0.20274599460E+03  0.20274599460E+03  0.00000000000E+00 0. -1.
          4   -1    0    0  502    0 -0.00000000000E+00 -0.00000000000E+00 -0.12580769022E+04  0.12580769022E+04  0.00000000000E+00 0.  1.
        -13    1    1    2    0    0 -0.20687128396E+03  0.45030968173E+03 -0.61607943644E+03  0.79065063129E+03  0.10566000000E+00 0.  1.
         13    1    1    2    0    0  0.16860867137E+03 -0.42807811027E+03 -0.38326463930E+03  0.59880843970E+03  0.10566000000E+00 0. -1.
          4    1    1    2  501    0  0.38262612585E+02 -0.22231571461E+02 -0.55986831855E+02  0.71363825799E+02  0.00000000000E+00 0.  1.
</event>
<event>
 5    1  0.4419198E-005  0.1421005E+03  0.7818608E-02  0.1109174E+00
         21   -1    0    0  501  502  0.00000000000E+00  0.00000000000E+00  0.79017112217E+03  0.79017112217E+03  0.00000000000E+00 0.  1.
          4   -1    0    0  502    0 -0.00000000000E+00 -0.00000000000E+00 -0.58525978677E+02  0.58525978677E+02  0.00000000000E+00 0.  1.
        -13    1    1    2    0    0 -0.38682531670E+02 -0.15301799317E+03  0.17301866137E+03  0.23419289664E+03  0.10566000000E+00 0.  1.
         13    1    1    2    0    0  0.51464374670E+01  0.13106960436E+03  0.13232006823E+03  0.18631784301E+03  0.10566000000E+00 0. -1.
          4    1    1    2  501    0  0.33536094203E+02  0.21948388810E+02  0.42630641390E+03  0.42818636120E+03  0.00000000000E+00 0.  1.
</event>
<event>
 5    1  0.4419198E-005  0.6813030E+02  0.7818608E-02  0.1231720E+00
         -4   -1    0    0    0  501 -0.00000000000E+00  0.00000000000E+00  0.31419048693E+03  0.31419048693E+03  0.00000000000E+00 0. -1.
         21   -1    0    0  501  502  0.00000000000E+00 -0.00000000000E+00 -0.16138535137E+03  0.16138535137E+03  0.00000000000E+00 0.  1.
        -13    1    1    2    0    0 -0.64577109627E+02  0.42073137815E+02 -0.32118908445E+02  0.83498427872E+02  0.10566000000E+00 0.  1.
         13    1    1    2    0    0  0.60955458706E+02 -0.29133242254E+02  0.28408615765E+03  0.29200902363E+03  0.10566000000E+00 0. -1.
         -4    1    1    2    0  502  0.36216509208E+01 -0.12939895561E+02 -0.99162113643E+02  0.10006838679E+03  0.00000000000E+00 0. -1.
</event>
<event>
 5    1  0.4419198E-005  0.3609457E+03  0.7818608E-02  0.9956375E-01
          4   -1    0    0  502    0 -0.00000000000E+00  0.00000000000E+00  0.97717981213E+03  0.97717981213E+03  0.00000000000E+00 0.  1.
         21   -1    0    0  501  502  0.00000000000E+00 -0.00000000000E+00 -0.79530034169E+03  0.79530034169E+03  0.00000000000E+00 0.  1.
        -13    1    1    2    0    0 -0.25826476986E+03 -0.16166015214E+03 -0.50713220424E+03  0.59162300486E+03  0.10566000000E+00 0.  1.
         13    1    1    2    0    0 -0.17582315895E+03  0.39438731436E+03  0.48045966092E+03  0.64598501058E+03  0.10566000000E+00 0. -1.
          4    1    1    2  501    0  0.43408792881E+03 -0.23272716222E+03  0.20855201376E+03  0.53487213838E+03  0.00000000000E+00 0.  1.
</event>
<event>
 5    1  0.4419198E-005  0.7816314E+02  0.7818608E-02  0.1206804E+00
         21   -1    0    0  501  502  0.00000000000E+00  0.00000000000E+00  0.10501308368E+03  0.10501308368E+03  0.00000000000E+00 0. -1.
         -4   -1    0    0    0  501 -0.00000000000E+00 -0.00000000000E+00 -0.31233778152E+03  0.31233778152E+03  0.00000000000E+00 0. -1.
        -13    1    1    2    0    0  0.77261580373E+02  0.14275985693E+02  0.63613989731E+02  0.10109355283E+03  0.10566000000E+00 0.  1.
         13    1    1    2    0    0 -0.73864659995E+02 -0.25648602962E+02 -0.28633385651E+03  0.29681800380E+03  0.10566000000E+00 0. -1.
         -4    1    1    2    0  502 -0.33969203784E+01  0.11372617268E+02  0.15395168938E+02  0.19439308583E+02  0.00000000000E+00 0. -1.
</event>
<event>
 5    1  0.4419198E-005  0.1110340E+03  0.7818608E-02  0.1147487E+00
         21   -1    0    0  501  502  0.00000000000E+00  0.00000000000E+00  0.90683452529E+02  0.90683452529E+02  0.00000000000E+00 0.  1.
          4   -1    0    0  502    0 -0.00000000000E+00 -0.00000000000E+00 -0.48845658139E+03  0.48845658139E+03  0.00000000000E+00 0.  1.
        -13    1    1    2    0    0  0.44843227823E+02  0.14701189598E+03 -0.14337452273E+02  0.15436640290E+03  0.10566000000E+00 0.  1.
         13    1    1    2    0    0 -0.67101680060E+02 -0.82790303899E+02 -0.29202457916E+03  0.31086208499E+03  0.10566000000E+00 0. -1.
          4    1    1    2  501    0  0.22258452237E+02 -0.64221592085E+02 -0.91411097424E+02  0.11391154603E+03  0.00000000000E+00 0.  1.
</event>
<event>
 5    1  0.4419198E-005  0.3124325E+03  0.7818608E-02  0.1002301E+00
         21   -1    0    0  501  502  0.00000000000E+00  0.00000000000E+00  0.42885286912E+03  0.42885286912E+03  0.00000000000E+00 0. -1.
         -4   -1    0    0    0  501 -0.00000000000E+00 -0.00000000000E+00 -0.11602864919E+04  0.11602864919E+04  0.00000000000E+00 0. -1.
        -13    1    1    2    0    0  0.28549906349E+03 -0.11643397862E+03 -0.38512088092E+03  0.49334033964E+03  0.10566000000E+00 0.  1.
         13    1    1    2    0    0 -0.26791943547E+03  0.23691668026E+03  0.28221724825E+03  0.45558415651E+03  0.10566000000E+00 0. -1.
         -4    1    1    2    0  502 -0.17579628025E+02 -0.12048270164E+03 -0.62852999010E+03  0.64021486485E+03  0.00000000000E+00 0. -1.
</event>
<event>
 5    1  0.4419198E-005  0.1250489E+03  0.7818608E-02  0.1128703E+00
         -4   -1    0    0    0  501 -0.00000000000E+00  0.00000000000E+00  0.12698450437E+03  0.12698450437E+03  0.00000000000E+00 0. -1.
         21   -1    0    0  501  502  0.00000000000E+00 -0.00000000000E+00 -0.30449501687E+03  0.30449501687E+03  0.00000000000E+00 0. -1.
        -13    1    1    2    0    0 -0.74886494188E+02 -0.82353594299E+02  0.20199159187E+02  0.11312877044E+03  0.10566000000E+00 0.  1.
         13    1    1    2    0    0  0.93946680332E+02  0.15022339843E+03 -0.12337076691E+03  0.21590137904E+03  0.10566000000E+00 0. -1.
         -4    1    1    2    0  502 -0.19060186143E+02 -0.67869804135E+02 -0.74338904785E+02  0.10244937176E+03  0.00000000000E+00 0. -1.
</event>
<event>
 5    1  0.4419198E-005  0.4333201E+03  0.7818608E-02  0.9637475E-01
         21   -1    0    0  501  502  0.00000000000E+00  0.00000000000E+00  0.43911819440E+03  0.43911819440E+03  0.00000000000E+00 0.  1.
          4   -1    0    0  502    0 -0.00000000000E+00 -0.00000000000E+00 -0.15695722144E+04  0.15695722144E+04  0.00000000000E+00 0.  1.
        -13    1    1    2    0    0 -0.59120192526E+03 -0.17309847372E+03  0.68510073956E+02  0.61981968300E+03  0.10566000000E+00 0.  1.
         13    1    1    2    0    0  0.40997271446E+03 -0.43975761328E+02 -0.79788192203E+03  0.89812419345E+03  0.10566000000E+00 0. -1.
          4    1    1    2  501    0  0.18122921080E+03  0.21707423505E+03 -0.40108217188E+03  0.49074653231E+03  0.00000000000E+00 0.  1.
</event>
<event>
 5    1  0.4419198E-005  0.4687200E+03  0.7818608E-02  0.9549299E-01
         -4   -1    0    0    0  501 -0.00000000000E+00  0.00000000000E+00  0.55998454257E+03  0.55998454257E+03  0.00000000000E+00 0. -1.
         21   -1    0    0  501  502  0.00000000000E+00 -0.00000000000E+00 -0.41330723656E+03  0.41330723656E+03  0.00000000000E+00 0.  1.
        -13    1    1    2    0    0 -0.43521486056E+03  0.16420466992E+03  0.92514277132E+02  0.47427212770E+03  0.10566000000E+00 0.  1.
         13    1    1    2    0    0  0.44558484445E+03 -0.15739113122E+03  0.71246286903E+02  0.47790570864E+03  0.10566000000E+00 0. -1.
         -4    1    1    2    0  502 -0.10369983888E+02 -0.68135386991E+01 -0.17083258022E+02  0.21113942789E+02  0.00000000000E+00 0. -1.
</event>
<event>
 5    1  0.4419198E-005  0.1157502E+03  0.7818608E-02  0.1140842E+00
          4   -1    0    0  502    0 -0.00000000000E+00  0.00000000000E+00  0.17798403216E+03  0.17798403216E+03  0.00000000000E+00 0.  1.
         21   -1    0    0  501  502  0.00000000000E+00 -0.00000000000E+00 -0.17198856006E+03  0.17198856006E+03  0.00000000000E+00 0.  1.
        -13    1    1    2    0    0 -0.10622769513E+03 -0.50775476774E+02  0.11612137529E+03  0.16536824731E+03  0.10566000000E+00 0.  1.
         13    1    1    2    0    0  0.93476503765E+02  0.57135098747E+02 -0.45840594558E+02  0.11875877878E+03  0.10566000000E+00 0. -1.
          4    1    1    2  501    0  0.12751191360E+02 -0.63596219730E+01 -0.64285308634E+02  0.65845566130E+02  0.00000000000E+00 0.  1.
</event>
<event>
 5    1  0.4419198E-005  0.4415276E+03  0.7818608E-02  0.9875319E-01
         -4   -1    0    0    0  501 -0.00000000000E+00  0.00000000000E+00  0.22398926078E+04  0.22398926078E+04  0.00000000000E+00 0. -1.
         21   -1    0    0  501  502  0.00000000000E+00 -0.00000000000E+00 -0.15222681744E+03  0.15222681744E+03  0.00000000000E+00 0. -1.
        -13    1    1    2    0    0  0.79212025086E+02  0.16224156762E+03  0.34364109869E+03  0.38818305869E+03  0.10566000000E+00 0.  1.
         13    1    1    2    0    0 -0.43052460716E+03  0.11912444661E+03  0.12877200908E+04  0.13629985747E+04  0.10566000000E+00 0. -1.
         -4    1    1    2    0  502  0.35131258207E+03 -0.28136601423E+03  0.45630460089E+03  0.64093779190E+03  0.00000000000E+00 0. -1.
</event>
<event>
 5    1  0.4419198E-005  0.7263891E+03  0.7818608E-02  0.9085552E-01
         21   -1    0    0  501  502  0.00000000000E+00  0.00000000000E+00  0.28924382727E+03  0.28924382727E+03  0.00000000000E+00 0.  1.
         -4   -1    0    0    0  501 -0.00000000000E+00 -0.00000000000E+00 -0.22979514136E+04  0.22979514136E+04  0.00000000000E+00 0. -1.
        -13    1    1    2    0    0  0.67000530444E+03 -0.24380558476E+03 -0.67448610165E+03  0.98146817759E+03  0.10566000000E+00 0.  1.
         13    1    1    2    0    0 -0.67361284698E+03  0.29413013111E+03 -0.13623316666E+04  0.15479710536E+04  0.10566000000E+00 0. -1.
         -4    1    1    2    0  502  0.36075425356E+01 -0.50324546348E+02  0.28110181946E+02  0.57756009708E+02  0.00000000000E+00 0. -1.
</event>
<event>
 5    1  0.4419198E-005  0.8623535E+02  0.7818608E-02  0.1189587E+00
         21   -1    0    0  501  502  0.00000000000E+00  0.00000000000E+00  0.16921323979E+03  0.16921323979E+03  0.00000000000E+00 0. -1.
         -4   -1    0    0    0  501 -0.00000000000E+00 -0.00000000000E+00 -0.91446069585E+02  0.91446069585E+02  0.00000000000E+00 0. -1.
        -13    1    1    2    0    0 -0.52238683698E+02 -0.46550247174E+02  0.82189548651E+01  0.70451174366E+02  0.10566000000E+00 0.  1.
         13    1    1    2    0    0  0.97282441213E+02  0.55361676189E+02  0.63636530067E+01  0.11211287082E+03  0.10566000000E+00 0. -1.
         -4    1    1    2    0  502 -0.45043757515E+02 -0.88114290153E+01  0.63184562332E+02  0.78095264194E+02  0.00000000000E+00 0. -1.
</event>
<event>
 5    1  0.4419198E-005  0.1488162E+03  0.7818608E-02  0.1102285E+00
          4   -1    0    0  502    0 -0.00000000000E+00  0.00000000000E+00  0.24147564289E+03  0.24147564289E+03  0.00000000000E+00 0.  1.
         21   -1    0    0  501  502  0.00000000000E+00 -0.00000000000E+00 -0.19357220379E+03  0.19357220379E+03  0.00000000000E+00 0. -1.
        -13    1    1    2    0    0 -0.12240449973E+03  0.81772634886E+02  0.15728639254E+03  0.21542665994E+03  0.10566000000E+00 0.  1.
         13    1    1    2    0    0  0.12433076579E+03 -0.92695438426E+02 -0.55664933629E+02  0.16477008110E+03  0.10566000000E+00 0. -1.
          4    1    1    2  501    0 -0.19262660586E+01  0.10922803541E+02 -0.53718019810E+02  0.54851105644E+02  0.00000000000E+00 0.  1.
</event>
<event>
 5    1  0.4419198E-005  0.4470100E+03  0.7818608E-02  0.1002127E+00
         21   -1    0    0  501  502  0.00000000000E+00  0.00000000000E+00  0.25364527842E+03  0.25364527842E+03  0.00000000000E+00 0. -1.
         -4   -1    0    0    0  501 -0.00000000000E+00 -0.00000000000E+00 -0.14803790188E+04  0.14803790188E+04  0.00000000000E+00 0. -1.
        -13    1    1    2    0    0 -0.35085488597E+02 -0.10138689808E+03 -0.28607072289E+03  0.30552702707E+03  0.10566000000E+00 0.  1.
         13    1    1    2    0    0  0.44866957328E+03 -0.51633725130E+02 -0.76147198811E+02  0.45800527792E+03  0.10566000000E+00 0. -1.
         -4    1    1    2    0  502 -0.41358408468E+03  0.15302062321E+03 -0.86451581869E+03  0.97049199224E+03  0.00000000000E+00 0. -1.
</event>
<event>
 5    1  0.4419198E-005  0.8703166E+02  0.7818608E-02  0.1232950E+00
         21   -1    0    0  501  502  0.00000000000E+00  0.00000000000E+00  0.18069100987E+03  0.18069100987E+03  0.00000000000E+00 0. -1.
         -4   -1    0    0    0  501 -0.00000000000E+00 -0.00000000000E+00 -0.12529268506E+03  0.12529268506E+03  0.00000000000E+00 0. -1.
        -13    1    1    2    0    0  0.28047396289E+02 -0.15044991307E+02  0.10513199418E+03  0.10984423319E+03  0.10566000000E+00 0.  1.
         13    1    1    2    0    0 -0.92926388403E+02  0.56454412130E+02 -0.48765107288E+02  0.11916568786E+03  0.10566000000E+00 0. -1.
         -4    1    1    2    0  502  0.64878992114E+02 -0.41409420824E+02 -0.96856208095E+00  0.76973773866E+02  0.00000000000E+00 0. -1.
</event>
<event>
 5    1  0.4419198E-005  0.2060197E+03  0.7818608E-02  0.1066766E+00
         21   -1    0    0  501  502  0.00000000000E+00  0.00000000000E+00  0.10271759913E+03  0.10271759913E+03  0.00000000000E+00 0.  1.
          4   -1    0    0  502    0 -0.00000000000E+00 -0.00000000000E+00 -0.21027794777E+04  0.21027794777E+04  0.00000000000E+00 0.  1.
        -13    1    1    2    0    0 -0.17268596469E+03 -0.27373384395E+03 -0.15549828590E+04  0.15883080189E+04  0.10566000000E+00 0.  1.
         13    1    1    2    0    0  0.12678778103E+03  0.81977191320E+02 -0.38106423312E+03  0.40988457186E+03  0.10566000000E+00 0. -1.
          4    1    1    2  501    0  0.45898183651E+02  0.19175665263E+03 -0.64014786450E+02  0.20730448614E+03  0.00000000000E+00 0.  1.
</event>
<event>
 5    1  0.4419198E-005  0.4975736E+03  0.7818608E-02  0.9971726E-01
         21   -1    0    0  501  502  0.00000000000E+00  0.00000000000E+00  0.29500540075E+03  0.29500540075E+03  0.00000000000E+00 0.  1.
          4   -1    0    0  502    0 -0.00000000000E+00 -0.00000000000E+00 -0.10495887730E+04  0.10495887730E+04  0.00000000000E+00 0.  1.
        -13    1    1    2    0    0  0.43232678668E+03 -0.27743158416E+03 -0.27417606639E+03  0.58227764933E+03  0.10566000000E+00 0.  1.
         13    1    1    2    0    0  0.14343641302E+02  0.90383762682E+02 -0.15126718503E+03  0.17679574948E+03  0.10566000000E+00 0. -1.
          4    1    1    2  501    0 -0.44667042798E+03  0.18704782148E+03 -0.32914012084E+03  0.58552077495E+03  0.00000000000E+00 0.  1.
</event>
<event>
 5    1  0.4419198E-005  0.4599734E+03  0.7818608E-02  0.9570300E-01
         21   -1    0    0  501  502  0.00000000000E+00  0.00000000000E+00  0.35909119926E+03  0.35909119926E+03  0.00000000000E+00 0.  1.
          4   -1    0    0  502    0 -0.00000000000E+00 -0.00000000000E+00 -0.19657672498E+04  0.19657672498E+04  0.00000000000E+00 0.  1.
        -13    1    1    2    0    0  0.70098681714E+03  0.15113114763E+03 -0.46989827430E+03  0.85733747202E+03  0.10566000000E+00 0.  1.
         13    1    1    2    0    0 -0.31230191768E+03 -0.27383363716E+03 -0.91183228215E+03  0.10019757834E+04  0.10566000000E+00 0. -1.
          4    1    1    2  501    0 -0.38868489946E+03  0.12270248953E+03 -0.22494549411E+03  0.46554519364E+03  0.00000000000E+00 0.  1.
</event>
<event>
 5    1  0.4419198E-005  0.3241721E+03  0.7818608E-02  0.9994961E-01
         -4   -1    0    0    0  501 -0.00000000000E+00  0.00000000000E+00  0.11563771009E+04  0.11563771009E+04  0.00000000000E+00 0. -1.
         21   -1    0    0  501  502  0.00000000000E+00 -0.00000000000E+00 -0.32698269618E+03  0.32698269618E+03  0.00000000000E+00 0. -1.
        -13    1    1    2    0    0  0.10465573056E+03  0.28816983521E+03  0.35453710336E+03  0.46871232615E+03  0.10566000000E+00 0.  1.
         13    1    1    2    0    0 -0.28579628438E+03  0.13194715851E+03 -0.49616435284E+02  0.31867125791E+03  0.10566000000E+00 0. -1.
         -4    1    1    2    0  502  0.18114055382E+03 -0.42011699372E+03  0.52447373663E+03  0.69597621300E+03  0.00000000000E+00 0. -1.
</event>
<event>
 5    1  0.4419198E-005  0.7689405E+03  0.7818608E-02  0.9028552E-01
          4   -1    0    0  502    0 -0.00000000000E+00  0.00000000000E+00  0.16263273257E+04  0.16263273257E+04  0.00000000000E+00 0.  1.
         21   -1    0    0  501  502  0.00000000000E+00 -0.00000000000E+00 -0.61792108467E+03  0.61792108467E+03  0.00000000000E+00 0. -1.
        -13    1    1    2    0    0  0.83152513342E+03 -0.58560625448E+02  0.10423037218E+04  0.13346386980E+04  0.10566000000E+00 0.  1.
         13    1    1    2    0    0 -0.61773750449E+03 -0.11355431608E+03 -0.73240064807E+02  0.63234351852E+03  0.10566000000E+00 0. -1.
          4    1    1    2  501    0 -0.21378762893E+03  0.17211494153E+03  0.39342584024E+02  0.27726619393E+03  0.00000000000E+00 0.  1.
</event>
<event>
 5    1  0.4419198E-005  0.4837902E+03  0.7818608E-02  0.9715550E-01
          4   -1    0    0  502    0 -0.00000000000E+00  0.00000000000E+00  0.32022718482E+04  0.32022718482E+04  0.00000000000E+00 0.  1.
         21   -1    0    0  501  502  0.00000000000E+00 -0.00000000000E+00 -0.18116375299E+03  0.18116375299E+03  0.00000000000E+00 0. -1.
        -13    1    1    2    0    0 -0.31265202924E+03 -0.20735274297E+03  0.19123649452E+04  0.19488166014E+04  0.10566000000E+00 0.  1.
         13    1    1    2    0    0 -0.22611858171E+03  0.70701199690E+02  0.54921810667E+02  0.24319681142E+03  0.10566000000E+00 0. -1.
          4    1    1    2  501    0  0.53877061095E+03  0.13665154328E+03  0.10538213394E+04  0.11914221883E+04  0.00000000000E+00 0.  1.
</event>
<event>
 5    1  0.4419198E-005  0.2222573E+03  0.7818608E-02  0.1045863E+00
         -4   -1    0    0    0  501 -0.00000000000E+00  0.00000000000E+00  0.23712592115E+03  0.23712592115E+03  0.00000000000E+00 0. -1.
         21   -1    0    0  501  502  0.00000000000E+00 -0.00000000000E+00 -0.30608548987E+03  0.30608548987E+03  0.00000000000E+00 0.  1.
        -13    1    1    2    0    0 -0.23748108722E+03 -0.11223536932E+02  0.43663845624E+02  0.24172252097E+03  0.10566000000E+00 0.  1.
         13    1    1    2    0    0  0.19439662075E+03  0.67239374323E+02 -0.62966723656E+02  0.21511856980E+03  0.10566000000E+00 0. -1.
         -4    1    1    2    0  502  0.43084466467E+02 -0.56015837392E+02 -0.49656690687E+02  0.86370320246E+02  0.00000000000E+00 0. -1.
</event>
<event>
 5    1  0.4419198E-005  0.4591511E+03  0.7818608E-02  0.9725321E-01
         21   -1    0    0  501  502  0.00000000000E+00  0.00000000000E+00  0.21311441118E+03  0.21311441118E+03  0.00000000000E+00 0.  1.
          4   -1    0    0  502    0 -0.00000000000E+00 -0.00000000000E+00 -0.27126946413E+04  0.27126946413E+04  0.00000000000E+00 0.  1.
        -13    1    1    2    0    0 -0.14888562296E+03  0.32506415585E+03 -0.70419246594E+03  0.78975988401E+03  0.10566000000E+00 0.  1.
         13    1    1    2    0    0 -0.26751840502E+03  0.14336018233E+02 -0.14985173475E+04  0.15222765420E+04  0.10566000000E+00 0. -1.
          4    1    1    2  501    0  0.41640402798E+03 -0.33940017409E+03 -0.29687041667E+03  0.61377262646E+03  0.00000000000E+00 0.  1.
</event>
<event>
 5    1  0.4419198E-005  0.4380958E+02  0.7818608E-02  0.1368285E+00
         21   -1    0    0  501  502  0.00000000000E+00  0.00000000000E+00  0.19084344069E+03  0.19084344069E+03  0.00000000000E+00 0. -1.
         -4   -1    0    0    0  501 -0.00000000000E+00 -0.00000000000E+00 -0.19321496358E+02  0.19321496358E+02  0.00000000000E+00 0. -1.
        -13    1    1    2    0    0 -0.16745681018E+02 -0.65738358720E+01  0.31000132747E+02  0.35842049958E+02  0.10566000000E+00 0.  1.
         13    1    1    2    0    0 -0.21517985059E+02  0.32420127173E+02  0.17019276712E+02  0.42470640103E+02  0.10566000000E+00 0. -1.
         -4    1    1    2    0  502  0.38263666077E+02 -0.25846291301E+02  0.12350253487E+03  0.13185224698E+03  0.00000000000E+00 0. -1.
</event>
<event>
 5    1  0.4419198E-005  0.8672160E+02  0.7818608E-02  0.1188617E+00
          4   -1    0    0  502    0 -0.00000000000E+00  0.00000000000E+00  0.11545806796E+03  0.11545806796E+03  0.00000000000E+00 0.  1.
         21   -1    0    0  501  502  0.00000000000E+00 -0.00000000000E+00 -0.33305996097E+03  0.33305996097E+03  0.00000000000E+00 0. -1.
        -13    1    1    2    0    0  0.72679064831E+02  0.48979898822E+02  0.76682923127E+02  0.11645410605E+03  0.10566000000E+00 0.  1.
         13    1    1    2    0    0 -0.50863045201E+02 -0.69629441979E+02 -0.86565777850E+02  0.12218409723E+03  0.10566000000E+00 0. -1.
          4    1    1    2  501    0 -0.21816019630E+02  0.20649543157E+02 -0.20771903829E+03  0.20987982565E+03  0.00000000000E+00 0.  1.
</event>
<event>
 5    1  0.4419198E-005  0.4083074E+03  0.7818608E-02  0.9705356E-01
         -4   -1    0    0    0  501 -0.00000000000E+00  0.00000000000E+00  0.15765663931E+04  0.15765663931E+04  0.00000000000E+00 0. -1.
         21   -1    0    0  501  502  0.00000000000E+00 -0.00000000000E+00 -0.60706513400E+03  0.60706513400E+03  0.00000000000E+00 0.  1.
        -13    1    1    2    0    0 -0.39570475211E+03 -0.34990092735E+03  0.88131143062E+03  0.10274837024E+04  0.10566000000E+00 0.  1.
         13    1    1    2    0    0 -0.63884041658E+01  0.37685040889E+03  0.46900843129E+03  0.60168593317E+03  0.10566000000E+00 0. -1.
         -4    1    1    2    0  502  0.40209315628E+03 -0.26949481544E+02 -0.38081860282E+03  0.55446189151E+03  0.00000000000E+00 0. -1.
</event>
<event>
 5    1  0.4419198E-005  0.3681826E+03  0.7818608E-02  0.1000982E+00
         -4   -1    0    0    0  501 -0.00000000000E+00  0.00000000000E+00  0.92241860719E+03  0.92241860719E+03  0.00000000000E+00 0. -1.
         21   -1    0    0  501  502  0.00000000000E+00 -0.00000000000E+00 -0.43858320623E+03  0.43858320623E+03  0.00000000000E+00 0. -1.
        -13    1    1    2    0    0  0.19461376762E+03  0.43048856225E+02  0.25722123265E+03  0.32540819944E+03  0.10566000000E+00 0.  1.
         13    1    1    2    0    0 -0.28004654208E+03 -0.38480318169E+03  0.41911372984E+03  0.63415761769E+03  0.10566000000E+00 0. -1.
         -4    1    1    2    0  502  0.85432774459E+02  0.34175432546E+03 -0.19249956153E+03  0.40143599628E+03  0.00000000000E+00 0. -1.
</event>
<event>
 5    1  0.4419198E-005  0.6298815E+02  0.7818608E-02  0.1246421E+00
          4   -1    0    0  502    0 -0.00000000000E+00  0.00000000000E+00  0.28119466503E+03  0.28119466503E+03  0.00000000000E+00 0.  1.
         21   -1    0    0  501  502  0.00000000000E+00 -0.00000000000E+00 -0.16248000294E+03  0.16248000294E+03  0.00000000000E+00 0. -1.
        -13    1    1    2    0    0  0.21589261522E+02  0.59867704331E+02  0.25214259119E+03  0.26005025609E+03  0.10566000000E+00 0.  1.
         13    1    1    2    0    0 -0.43561005393E+02 -0.26582861224E+02 -0.13436612753E+03  0.14373057118E+03  0.10566000000E+00 0. -1.
          4    1    1    2  501    0  0.21971743871E+02 -0.33284843107E+02  0.93819843165E+00  0.39893840699E+02  0.00000000000E+00 0.  1.
</event>
<event>
 5    1  0.4419198E-005  0.4404138E+03  0.7818608E-02  0.9751961E-01
         21   -1    0    0  501  502  0.00000000000E+00  0.00000000000E+00  0.38215663858E+03  0.38215663858E+03  0.00000000000E+00 0.  1.
          4   -1    0    0  502    0 -0.00000000000E+00 -0.00000000000E+00 -0.12156773996E+04  0.12156773996E+04  0.00000000000E+00 0.  1.
        -13    1    1    2    0    0  0.32324992290E+02  0.25374604724E+03 -0.57206433279E+03  0.62664948227E+03  0.10566000000E+00 0.  1.
         13    1    1    2    0    0 -0.12609028487E+03  0.24649219310E+03 -0.35859994366E+03  0.45304645673E+03  0.10566000000E+00 0. -1.
          4    1    1    2  501    0  0.93765292580E+02 -0.50023824033E+03  0.97143515466E+02  0.51813809914E+03  0.00000000000E+00 0.  1.
</event>
<event>
 5    1  0.4419198E-005  0.1300551E+03  0.7818608E-02  0.1122635E+00
         -4   -1    0    0    0  501 -0.00000000000E+00  0.00000000000E+00  0.57008523403E+03  0.57008523403E+03  0.00000000000E+00 0. -1.
         21   -1    0    0  501  502  0.00000000000E+00 -0.00000000000E+00 -0.19909822988E+03  0.19909822988E+03  0.00000000000E+00 0.  1.
        -13    1    1    2    0    0 -0.79060452031E+02  0.10620487850E+03 -0.13841150703E+02  0.13312257476E+03  0.10566000000E+00 0.  1.
         13    1    1    2    0    0  0.97170500836E+02 -0.86461037515E+02  0.50060413406E+03  0.51722541260E+03  0.10566000000E+00 0. -1.
         -4    1    1    2    0  502 -0.18110048805E+02 -0.19743840987E+02 -0.11577597921E+03  0.11883547655E+03  0.00000000000E+00 0. -1.
</event>
<event>
 5    1  0.4419198E-005  0.4639939E+03  0.7818608E-02  0.9991750E-01
          4   -1    0    0  502    0 -0.00000000000E+00  0.00000000000E+00  0.14077480931E+04  0.14077480931E+04  0.00000000000E+00 0.  1.
         21   -1    0    0  501  502  0.00000000000E+00 -0.00000000000E+00 -0.28538018145E+03  0.28538018145E+03  0.00000000000E+00 0.  1.
        -13    1    1    2    0    0  0.26208759513E+03 -0.33010811620E+03  0.48821994975E+03  0.64499612899E+03  0.10566000000E+00 0.  1.
         13    1    1    2    0    0 -0.31701818172E+02 -0.10079410481E+03  0.54035241475E+03  0.55058623314E+03  0.10566000000E+00 0. -1.
          4    1    1    2  501    0 -0.23038577696E+03  0.43090222101E+03  0.93795547160E+02  0.49754591242E+03  0.00000000000E+00 0.  1.
</event>
<event>
 5    1  0.4419198E-005  0.4895095E+03  0.7818608E-02  0.9879151E-01
         21   -1    0    0  501  502  0.00000000000E+00  0.00000000000E+00  0.22358546277E+04  0.22358546277E+04  0.00000000000E+00 0.  1.
          4   -1    0    0  502    0 -0.00000000000E+00 -0.00000000000E+00 -0.17857675907E+03  0.17857675907E+03  0.00000000000E+00 0.  1.
        -13    1    1    2    0    0 -0.51670252286E+03  0.67310539133E+02  0.13296239598E+04  0.14280798617E+04  0.10566000000E+00 0.  1.
         13    1    1    2    0    0  0.64176180881E+02 -0.11396600140E+03  0.31126899877E+01  0.13083016346E+03  0.10566000000E+00 0. -1.
          4    1    1    2  501    0  0.45252634198E+03  0.46655462266E+02  0.72454121881E+03  0.85552136157E+03  0.00000000000E+00 0.  1.
</event>
<event>
 5    1  0.4419198E-005  0.4714372E+03  0.7818608E-02  0.9542873E-01
          4   -1    0    0  502    0 -0.00000000000E+00  0.00000000000E+00  0.13146765007E+04  0.13146765007E+04  0.00000000000E+00 0.  1.
         21   -1    0    0  501  502  0.00000000000E+00 -0.00000000000E+00 -0.48278692861E+03  0.48278692861E+03  0.00000000000E+00 0.  1.
        -13    1    1    2    0    0  0.53592063620E+03 -0.35773092148E+03  0.24587935765E+03  0.68966586850E+03  0.10566000000E+00 0.  1.
         13    1    1    2    0    0 -0.94914601829E+02  0.43861008288E+03  0.45870200862E+03  0.64171265401E+03  0.10566000000E+00 0. -1.
          4    1    1    2  501    0 -0.44100603437E+03 -0.80879161396E+02  0.12730820584E+03  0.46608490683E+03  0.00000000000E+00 0.  1.
</event>
<event>
 5    1  0.4419198E-005  0.4514169E+03  0.7818608E-02  0.9669741E-01
         -4   -1    0    0    0  501 -0.00000000000E+00  0.00000000000E+00  0.15754938619E+04  0.15754938619E+04  0.00000000000E+00 0. -1.
         21   -1    0    0  501  502  0.00000000000E+00 -0.00000000000E+00 -0.44561731954E+03  0.44561731954E+03  0.00000000000E+00 0. -1.
        -13    1    1    2    0    0 -0.34215245776E+03 -0.21180057507E+00  0.84927176571E+03  0.91560411336E+03  0.10566000000E+00 0.  1.
         13    1    1    2    0    0  0.21899178968E+02 -0.39015947081E+03  0.42794839701E+03  0.57952034336E+03  0.10566000000E+00 0. -1.
         -4    1    1    2    0  502  0.32025327879E+03  0.39037127138E+03 -0.14734362037E+03  0.52598672470E+03  0.00000000000E+00 0. -1.
</event>
<event>
 5    1  0.4419198E-005  0.4776697E+03  0.7818608E-02  0.9749840E-01
         -4   -1    0    0    0  501 -0.00000000000E+00  0.00000000000E+00  0.44102992046E+03  0.44102992046E+03  0.00000000000E+00 0. -1.
         21   -1    0    0  501  502  0.00000000000E+00 -0.00000000000E+00 -0.87924547534E+03  0.87924547534E+03  0.00000000000E+00 0. -1.
        -13    1    1    2    0    0 -0.28665366276E+02  0.21671283223E+03  0.40250315315E+02  0.22227517614E+03  0.10566000000E+00 0.  1.
         13    1    1    2    0    0  0.15925313418E+03  0.36050824796E+03 -0.15446754262E+03  0.42330602462E+03  0.10566000000E+00 0. -1.
         -4    1    1    2    0  502 -0.13058776791E+03 -0.57722108019E+03 -0.32399832757E+03  0.67469419504E+03  0.00000000000E+00 0. -1.
</event>
<event>
 5    1  0.4419198E-005  0.9897297E+03  0.7818608E-02  0.8784301E-01
         -4   -1    0    0    0  501 -0.00000000000E+00  0.00000000000E+00  0.10532430735E+04  0.10532430735E+04  0.00000000000E+00 0. -1.
         21   -1    0    0  501  502  0.00000000000E+00 -0.00000000000E+00 -0.18435271209E+04  0.18435271209E+04  0.00000000000E+00 0.  1.
        -13    1    1    2    0    0 -0.68487047387E+03  0.80294040678E+03  0.20048479986E+03  0.10742229885E+04  0.10566000000E+00 0.  1.
         13    1    1    2    0    0  0.28418782489E+03 -0.89966724623E+03 -0.25198691788E+03  0.97655583133E+03  0.10566000000E+00 0. -1.
         -4    1    1    2    0  502  0.40068264899E+03  0.96726839452E+02 -0.73878192937E+03  0.84599137456E+03  0.00000000000E+00 0. -1.
</event>
<event>
 5    1  0.4419198E-005  0.4524919E+03  0.7818608E-02  0.9588659E-01
         -4   -1    0    0    0  501 -0.00000000000E+00  0.00000000000E+00  0.25335661099E+04  0.25335661099E+04  0.00000000000E+00 0. -1.
         21   -1    0    0  501  502  0.00000000000E+00 -0.00000000000E+00 -0.26685547152E+03  0.26685547152E+03  0.00000000000E+00 0. -1.
        -13    1    1    2    0    0 -0.43925086853E+03  0.19021689119E+03  0.14808804130E+04  0.15563195687E+04  0.10566000000E+00 0.  1.
         13    1    1    2    0    0  0.12868754295E+03 -0.50349842568E+03  0.37063284212E+03  0.63831016222E+03  0.10566000000E+00 0. -1.
         -4    1    1    2    0  502  0.31056332558E+03  0.31328153450E+03  0.41519738332E+03  0.60579185053E+03  0.00000000000E+00 0. -1.
</event>
<event>
 5    1  0.4419198E-005  0.9273009E+02  0.7818608E-02  0.1177178E+00
         21   -1    0    0  501  502  0.00000000000E+00  0.00000000000E+00  0.13493723129E+03  0.13493723129E+03  0.00000000000E+00 0. -1.
          4   -1    0    0  502    0 -0.00000000000E+00 -0.00000000000E+00 -0.15006316203E+03  0.15006316203E+03  0.00000000000E+00 0.  1.
        -13    1    1    2    0    0 -0.95056088443E+02  0.21443898251E+02 -0.54459057675E+02  0.11163019685E+03  0.10566000000E+00 0.  1.
         13    1    1    2    0    0  0.88759569388E+02  0.41431571448E+02 -0.18036500296E+01  0.97969896336E+02  0.10566000000E+00 0. -1.
          4    1    1    2  501    0  0.62965190548E+01 -0.62875469699E+02  0.41136776964E+02  0.75400300139E+02  0.00000000000E+00 0.  1.
</event>
<event>
 5    1  0.4419198E-005  0.2534949E+03  0.7818608E-02  0.1060039E+00
         -4   -1    0    0    0  501 -0.00000000000E+00  0.00000000000E+00  0.18652295909E+03  0.18652295909E+03  0.00000000000E+00 0. -1.
         21   -1    0    0  501  502  0.00000000000E+00 -0.00000000000E+00 -0.15898431868E+04  0.15898431868E+04  0.00000000000E+00 0. -1.
        -13    1    1    2    0    0 -0.94189720768E+02  0.28825316084E+02 -0.35522308648E+02  0.10471125976E+03  0.10566000000E+00 0.  1.
         13    1    1    2    0    0  0.21956461109E+03 -0.24271436259E+03 -0.50420734912E+02  0.33115123724E+03  0.10566000000E+00 0. -1.
         -4    1    1    2    0  502 -0.12537489033E+03  0.21388904651E+03 -0.13173771841E+04  0.13405036489E+04  0.00000000000E+00 0. -1.
</event>
<event>
 5    1  0.4419198E-005  0.4143104E+03  0.7818608E-02  0.9688602E-01
         -4   -1    0    0    0  501 -0.00000000000E+00  0.00000000000E+00  0.12076367047E+04  0.12076367047E+04  0.00000000000E+00 0. -1.
         21   -1    0    0  501  502  0.00000000000E+00 -0.00000000000E+00 -0.35075515288E+03  0.35075515288E+03  0.00000000000E+00 0.  1.
        -13    1    1    2    0    0  0.20757360728E+03 -0.33303378724E+03  0.35145546116E+03  0.52680096642E+03  0.10566000000E+00 0.  1.
         13    1    1    2    0    0 -0.22080434251E+03  0.36820504221E+03  0.70666993937E+03  0.82686874724E+03  0.10566000000E+00 0. -1.
         -4    1    1    2    0  502  0.13230735231E+02 -0.35171254976E+02 -0.20124384876E+03  0.20472214388E+03  0.00000000000E+00 0. -1.
</event>
<event>
 5    1  0.8412847E-005  0.2708068E+03  0.7818608E-02  0.1044477E+00
         -4   -1    0    0    0  501 -0.00000000000E+00  0.00000000000E+00  0.36364846843E+03  0.36364846843E+03  0.00000000000E+00 0. -1.
         21   -1    0    0  501  502  0.00000000000E+00 -0.00000000000E+00 -0.10266016020E+04  0.10266016020E+04  0.00000000000E+00 0. -1.
        -13    1    1    2    0    0 -0.10681638851E+03  0.70690896175E+02  0.72012267624E+02  0.14694462055E+03  0.10566000000E+00 0.  1.
         13    1    1    2    0    0  0.10891286707E+01  0.18780423768E+03  0.19593856583E+03  0.27141029942E+03  0.10566000000E+00 0. -1.
         -4    1    1    2    0  502  0.10572725984E+03 -0.25849513385E+03 -0.93090396706E+03  0.97189515051E+03  0.00000000000E+00 0. -1.
</event>
<event>
 5    1  0.4419198E-005  0.5808499E+03  0.7818608E-02  0.9393255E-01
         21   -1    0    0  501  502  0.00000000000E+00  0.00000000000E+00  0.30455942308E+03  0.30455942308E+03  0.00000000000E+00 0. -1.
         -4   -1    0    0    0  501 -0.00000000000E+00 -0.00000000000E+00 -0.32169617501E+04  0.32169617501E+04  0.00000000000E+00 0. -1.
        -13    1    1    2    0    0  0.57623680255E+03  0.34315694842E+03 -0.16112121269E+04  0.17452249348E+04  0.10566000000E+00 0.  1.
         13    1    1    2    0    0 -0.39862056408E+03  0.31829696016E+03 -0.69190867094E+03  0.85962138703E+03  0.10566000000E+00 0. -1.
         -4    1    1    2    0  502 -0.17761623846E+03 -0.66145390858E+03 -0.60928152914E+03  0.91667485135E+03  0.00000000000E+00 0. -1.
</event>
<event>
 5    1  0.4419198E-005  0.4153388E+03  0.7818608E-02  0.1006154E+00
         -4   -1    0    0    0  501 -0.00000000000E+00  0.00000000000E+00  0.26221591351E+04  0.26221591351E+04  0.00000000000E+00 0. -1.
         21   -1    0    0  501  502  0.00000000000E+00 -0.00000000000E+00 -0.12138801045E+03  0.12138801045E+03  0.00000000000E+00 0. -1.
        -13    1    1    2    0    0 -0.47351580365E+02  0.10736108855E+03  0.41322481256E+03  0.42956179110E+03  0.10566000000E+00 0.  1.
         13    1    1    2    0    0  0.17953536375E+03 -0.47295213912E+03  0.16634407235E+04  0.17386637756E+04  0.10566000000E+00 0. -1.
         -4    1    1    2    0  502 -0.13218378338E+03  0.36559105057E+03  0.42410558863E+03  0.57532157891E+03  0.00000000000E+00 0. -1.
</event>
<event>
 5    1  0.4419198E-005  0.3911941E+02  0.7818608E-02  0.1343766E+00
         21   -1    0    0  501  502  0.00000000000E+00  0.00000000000E+00  0.24235049155E+02  0.24235049155E+02  0.00000000000E+00 0.  1.
         -4   -1    0    0    0  501 -0.00000000000E+00 -0.00000000000E+00 -0.23303866270E+03  0.23303866270E+03  0.00000000000E+00 0. -1.
        -13    1    1    2    0    0  0.12492107449E+02 -0.32042735441E+02  0.18530608932E+01  0.34441757240E+02  0.10566000000E+00 0.  1.
         13    1    1    2    0    0 -0.53666395177E+01  0.39332608179E+02 -0.20871274804E+03  0.21245441215E+03  0.10566000000E+00 0. -1.
         -4    1    1    2    0  502 -0.71254679316E+01 -0.72898727386E+01 -0.19439264048E+01  0.10377542467E+02  0.00000000000E+00 0. -1.
</event>
<event>
 5    1  0.4419198E-005  0.1847454E+03  0.7818608E-02  0.1071129E+00
          4   -1    0    0  502    0 -0.00000000000E+00  0.00000000000E+00  0.99139053845E+03  0.99139053845E+03  0.00000000000E+00 0.  1.
         21   -1    0    0  501  502  0.00000000000E+00 -0.00000000000E+00 -0.57036752235E+03  0.57036752235E+03  0.00000000000E+00 0.  1.
        -13    1    1    2    0    0 -0.78149318608E+02 -0.12763810511E+03 -0.52993319609E+03  0.55066142534E+03  0.10566000000E+00 0.  1.
         13    1    1    2    0    0 -0.70687761989E+02  0.17382978678E+03  0.51458313468E+03  0.54773110933E+03  0.10566000000E+00 0. -1.
          4    1    1    2  501    0  0.14883708060E+03 -0.46191681666E+02  0.43637307752E+03  0.46336552612E+03  0.00000000000E+00 0.  1.
</event>
<event>
 5    1  0.4419198E-005  0.2964634E+02  0.7818608E-02  0.1407772E+00
         21   -1    0    0  501  502  0.00000000000E+00  0.00000000000E+00  0.25828837512E+02  0.25828837512E+02  0.00000000000E+00 0. -1.
          4   -1    0    0  502    0 -0.00000000000E+00 -0.00000000000E+00 -0.15397890164E+03  0.15397890164E+03  0.00000000000E+00 0.  1.
        -13    1    1    2    0    0  0.60759718015E+01  0.35765619938E+02 -0.11588724032E+03  0.12143294707E+03  0.10566000000E+00 0.  1.
         13    1    1    2    0    0  0.46311687416E+00 -0.21386418613E+02 -0.28557058955E+02  0.35680669255E+02  0.10566000000E+00 0. -1.
          4    1    1    2  501    0 -0.65390886757E+01 -0.14379201326E+02  0.16294235147E+02  0.22694122818E+02  0.00000000000E+00 0.  1.
</event>
<event>
 5    1  0.4419198E-005  0.5494104E+02  0.7818608E-02  0.1272882E+00
         21   -1    0    0  501  502  0.00000000000E+00  0.00000000000E+00  0.42848551289E+03  0.42848551289E+03  0.00000000000E+00 0. -1.
          4   -1    0    0  502    0 -0.00000000000E+00 -0.00000000000E+00 -0.12454812924E+02  0.12454812924E+02  0.00000000000E+00 0.  1.
        -13    1    1    2    0    0 -0.12872007391E+02  0.53891438187E+02  0.75112463118E+02  0.93337393170E+02  0.10566000000E+00 0.  1.
         13    1    1    2    0    0 -0.29758546104E+00 -0.54583752607E+02  0.28060489142E+03  0.28586463730E+03  0.10566000000E+00 0. -1.
          4    1    1    2  501    0  0.13169592852E+02  0.69231442068E+00  0.60313345427E+02  0.61738295342E+02  0.00000000000E+00 0.  1.
</event>
<event>
 5    1  0.4419198E-005  0.5049033E+03  0.7818608E-02  0.9953759E-01
         21   -1    0    0  501  502  0.00000000000E+00  0.00000000000E+00  0.27190003502E+04  0.27190003502E+04  0.00000000000E+00 0. -1.
         -4   -1    0    0    0  501 -0.00000000000E+00 -0.00000000000E+00 -0.11459551645E+03  0.11459551645E+03  0.00000000000E+00 0. -1.
        -13    1    1    2    0    0 -0.65660325148E+02  0.65778840063E+02  0.13550855540E+03  0.16431893941E+03  0.10566000000E+00 0.  1.
         13    1    1    2    0    0 -0.22091240598E+02 -0.53377260317E+03  0.14274616668E+04  0.15241548597E+04  0.10566000000E+00 0. -1.
         -4    1    1    2    0  502  0.87751565746E+02  0.46799376311E+03  0.10414346115E+04  0.11451220676E+04  0.00000000000E+00 0. -1.
</event>
<event>
 5    1  0.4419198E-005  0.3306232E+03  0.7818608E-02  0.1064550E+00
          4   -1    0    0  502    0 -0.00000000000E+00  0.00000000000E+00  0.24398253120E+04  0.24398253120E+04  0.00000000000E+00 0.  1.
         21   -1    0    0  501  502  0.00000000000E+00 -0.00000000000E+00 -0.10958312256E+03  0.10958312256E+03  0.00000000000E+00 0.  1.
        -13    1    1    2    0    0  0.12676104556E+03  0.30999534283E+03  0.19741538401E+03  0.38876512222E+03  0.10566000000E+00 0.  1.
         13    1    1    2    0    0  0.56598454046E+01 -0.38529567871E+02  0.15142997147E+03  0.15635731155E+03  0.10566000000E+00 0. -1.
          4    1    1    2  501    0 -0.13242089096E+03 -0.27146577496E+03  0.19813968339E+04  0.20042860008E+04  0.00000000000E+00 0.  1.
</event>
<event>
 5    1  0.4419198E-005  0.1444331E+03  0.7818608E-02  0.1106735E+00
         21   -1    0    0  501  502  0.00000000000E+00  0.00000000000E+00  0.40347935134E+03  0.40347935134E+03  0.00000000000E+00 0. -1.
          4   -1    0    0  502    0 -0.00000000000E+00 -0.00000000000E+00 -0.20501299806E+03  0.20501299806E+03  0.00000000000E+00 0.  1.
        -13    1    1    2    0    0  0.11060934218E+03 -0.10136526405E+03 -0.15751163900E+03  0.21752993108E+03  0.10566000000E+00 0.  1.
         13    1    1    2    0    0 -0.83086659908E+02  0.69212741872E+02  0.18016351379E+03  0.21012543767E+03  0.10566000000E+00 0. -1.
          4    1    1    2  501    0 -0.27522682267E+02  0.32152522176E+02  0.17581447849E+03  0.18083698065E+03  0.00000000000E+00 0.  1.
</event>
<event>
 5    1  0.4419198E-005  0.4621630E+02  0.7818608E-02  0.1308011E+00
         21   -1    0    0  501  502  0.00000000000E+00  0.00000000000E+00  0.40272160845E+03  0.40272160845E+03  0.00000000000E+00 0.  1.
          4   -1    0    0  502    0 -0.00000000000E+00 -0.00000000000E+00 -0.26726664398E+03  0.26726664398E+03  0.00000000000E+00 0.  1.
        -13    1    1    2    0    0  0.41654781393E+02 -0.19337427492E+02 -0.17831385580E+03  0.18413283045E+03  0.10566000000E+00 0.  1.
         13    1    1    2    0    0 -0.20570797243E+02  0.57767954672E+02 -0.73722760273E+02  0.95892391943E+02  0.10566000000E+00 0. -1.
          4    1    1    2  501    0 -0.21083984150E+02 -0.38430527180E+02  0.38749158054E+03  0.38996303004E+03  0.00000000000E+00 0.  1.
</event>
<event>
 5    1  0.4419198E-005  0.4785514E+03  0.7818608E-02  0.9638314E-01
         21   -1    0    0  501  502  0.00000000000E+00  0.00000000000E+00  0.83539004186E+03  0.83539004186E+03  0.00000000000E+00 0.  1.
          4   -1    0    0  502    0 -0.00000000000E+00 -0.00000000000E+00 -0.63118116665E+03  0.63118116665E+03  0.00000000000E+00 0.  1.
        -13    1    1    2    0    0  0.30556413724E+03 -0.12138516860E+03 -0.20464971542E+03  0.38727938017E+03  0.10566000000E+00 0.  1.
         13    1    1    2    0    0  0.24509655645E+03  0.20689849538E+03 -0.88100234903E+02  0.33262737700E+03  0.10566000000E+00 0. -1.
          4    1    1    2  501    0 -0.55066069369E+03 -0.85513326775E+02  0.49695882553E+03  0.74666445134E+03  0.00000000000E+00 0.  1.
</event>
<event>
 5    1  0.4419198E-005  0.4981815E+03  0.7818608E-02  0.9829104E-01
          4   -1    0    0  502    0 -0.00000000000E+00  0.00000000000E+00  0.31065528462E+03  0.31065528462E+03  0.00000000000E+00 0.  1.
         21   -1    0    0  501  502  0.00000000000E+00 -0.00000000000E+00 -0.12481683786E+04  0.12481683786E+04  0.00000000000E+00 0.  1.
        -13    1    1    2    0    0 -0.39447932236E+03 -0.36662107287E+03 -0.49512394365E+03  0.73155497235E+03  0.10566000000E+00 0.  1.
         13    1    1    2    0    0 -0.23362440971E+02  0.14505748102E+03  0.39419548678E+02  0.15212293854E+03  0.10566000000E+00 0. -1.
          4    1    1    2  501    0  0.41784176333E+03  0.22156359185E+03 -0.48180869897E+03  0.67514575228E+03  0.00000000000E+00 0.  1.
</event>
<event>
 5    1  0.4419198E-005  0.4568090E+03  0.7818608E-02  0.9771205E-01
          4   -1    0    0  502    0 -0.00000000000E+00  0.00000000000E+00  0.39430907885E+03  0.39430907885E+03  0.00000000000E+00 0.  1.
         21   -1    0    0  501  502  0.00000000000E+00 -0.00000000000E+00 -0.10125897407E+04  0.10125897407E+04  0.00000000000E+00 0.  1.
        -13    1    1    2    0    0 -0.34536192252E+03  0.26566977363E+03 -0.42775361739E+03  0.61059680191E+03  0.10566000000E+00 0.  1.
         13    1    1    2    0    0  0.94038321852E+02  0.21232869998E+03 -0.75086568992E+02  0.24405877739E+03  0.10566000000E+00 0. -1.
          4    1    1    2  501    0  0.25132360066E+03 -0.47799847362E+03 -0.11544047546E+03  0.55224324025E+03  0.00000000000E+00 0.  1.
</event>
<event>
 5    1  0.4419198E-005  0.4558474E+03  0.7818608E-02  0.9638695E-01
         -4   -1    0    0    0  501 -0.00000000000E+00  0.00000000000E+00  0.25544168806E+04  0.25544168806E+04  0.00000000000E+00 0. -1.
         21   -1    0    0  501  502  0.00000000000E+00 -0.00000000000E+00 -0.23572395228E+03  0.23572395228E+03  0.00000000000E+00 0. -1.
        -13    1    1    2    0    0  0.23354695589E+03  0.28775323657E+03  0.11481683193E+04  0.12064976611E+04  0.10566000000E+00 0.  1.
         13    1    1    2    0    0  0.23976387796E+03 -0.41310574640E+03  0.91306267341E+03  0.10304496745E+04  0.10566000000E+00 0. -1.
         -4    1    1    2    0  502 -0.47331083384E+03  0.12535250983E+03  0.25746193566E+03  0.55319349731E+03  0.00000000000E+00 0. -1.
</event>
<event>
 5    1  0.4419198E-005  0.1364101E+03  0.7818608E-02  0.1115346E+00
         -4   -1    0    0    0  501 -0.00000000000E+00  0.00000000000E+00  0.82032503348E+02  0.82032503348E+02  0.00000000000E+00 0. -1.
         21   -1    0    0  501  502  0.00000000000E+00 -0.00000000000E+00 -0.61769025371E+03  0.61769025371E+03  0.00000000000E+00 0.  1.
        -13    1    1    2    0    0  0.12599780619E+03  0.67756265152E+02 -0.47661064274E+03  0.49761840257E+03  0.10566000000E+00 0.  1.
         13    1    1    2    0    0 -0.10722064539E+03 -0.83238855202E+02  0.26670378272E+01  0.13576486315E+03  0.10566000000E+00 0. -1.
         -4    1    1    2    0  502 -0.18777160807E+02  0.15482590050E+02 -0.61714145448E+02  0.66339491339E+02  0.00000000000E+00 0. -1.
</event>
<event>
 5    1  0.4419198E-005  0.4830713E+03  0.7818608E-02  0.9515868E-01
         21   -1    0    0  501  502  0.00000000000E+00  0.00000000000E+00  0.23331146640E+03  0.23331146640E+03  0.00000000000E+00 0. -1.
         -4   -1    0    0    0  501 -0.00000000000E+00 -0.00000000000E+00 -0.24013899853E+04  0.24013899853E+04  0.00000000000E+00 0. -1.
        -13    1    1    2    0    0 -0.98025045978E+02 -0.39399157969E+03 -0.43581643905E+03  0.59562929261E+03  0.10566000000E+00 0.  1.
         13    1    1    2    0    0  0.32456876079E+03  0.42438294209E+03 -0.17298598626E+04  0.18104863759E+04  0.10566000000E+00 0. -1.
         -4    1    1    2    0  502 -0.22654371481E+03 -0.30391362399E+02 -0.24022172766E+01  0.22858578319E+03  0.00000000000E+00 0. -1.
</event>
<event>
 5    1  0.4419198E-005  0.1421491E+03  0.7818608E-02  0.1109123E+00
         21   -1    0    0  501  502  0.00000000000E+00  0.00000000000E+00  0.18904745511E+03  0.18904745511E+03  0.00000000000E+00 0.  1.
          4   -1    0    0  502    0 -0.00000000000E+00 -0.00000000000E+00 -0.17786057543E+03  0.17786057543E+03  0.00000000000E+00 0.  1.
        -13    1    1    2    0    0  0.14711343582E+03  0.49164687681E+02 -0.68934341408E+02  0.16973945948E+03  0.10566000000E+00 0.  1.
         13    1    1    2    0    0 -0.12278212125E+03  0.27510953770E+01  0.55483450851E+02  0.13476439555E+03  0.10566000000E+00 0. -1.
          4    1    1    2  501    0 -0.24331314573E+02 -0.51915783058E+02  0.24637770231E+02  0.62404175512E+02  0.00000000000E+00 0.  1.
</event>
<event>
 5    1  0.4419198E-005  0.3826622E+03  0.7818608E-02  0.9780497E-01
         21   -1    0    0  501  502  0.00000000000E+00  0.00000000000E+00  0.13936942174E+03  0.13936942174E+03  0.00000000000E+00 0. -1.
         -4   -1    0    0    0  501 -0.00000000000E+00 -0.00000000000E+00 -0.22886163187E+04  0.22886163187E+04  0.00000000000E+00 0. -1.
        -13    1    1    2    0    0  0.13332004313E+03  0.34945167595E+03 -0.10211773338E+04  0.10875172945E+04  0.10566000000E+00 0.  1.
         13    1    1    2    0    0 -0.15198704816E+03 -0.36008468729E+03 -0.12017549911E+04  0.12637152031E+04  0.10566000000E+00 0. -1.
         -4    1    1    2    0  502  0.18667005034E+02  0.10633011339E+02  0.73685427855E+02  0.76753242833E+02  0.00000000000E+00 0. -1.
</event>
<event>
 5    1  0.4419198E-005  0.1195432E+03  0.7818608E-02  0.1135745E+00
         21   -1    0    0  501  502  0.00000000000E+00  0.00000000000E+00  0.34240926622E+03  0.34240926622E+03  0.00000000000E+00 0. -1.
          4   -1    0    0  502    0 -0.00000000000E+00 -0.00000000000E+00 -0.86740751466E+02  0.86740751466E+02  0.00000000000E+00 0.  1.
        -13    1    1    2    0    0  0.79079922483E+02 -0.90705353745E+02  0.49983726932E+00  0.12033850730E+03  0.10566000000E+00 0.  1.
         13    1    1    2    0    0 -0.11146279079E+03  0.55054898930E+02  0.16506136893E+03  0.20664041788E+03  0.10566000000E+00 0. -1.
          4    1    1    2  501    0  0.32382868305E+02  0.35650454814E+02  0.90107308555E+02  0.10217109250E+03  0.00000000000E+00 0.  1.
</event>
<event>
 5    1  0.4419198E-005  0.1074160E+03  0.7818608E-02  0.1152836E+00
         21   -1    0    0  501  502  0.00000000000E+00  0.00000000000E+00  0.25772534300E+03  0.25772534300E+03  0.00000000000E+00 0.  1.
         -4   -1    0    0    0  501 -0.00000000000E+00 -0.00000000000E+00 -0.13276103029E+03  0.13276103029E+03  0.00000000000E+00 0. -1.
        -13    1    1    2    0    0  0.10912958230E+02 -0.10704595644E+03  0.75658202622E+02  0.13153746324E+03  0.10566000000E+00 0.  1.
         13    1    1    2    0    0  0.27414802787E+00  0.10748905039E+03 -0.76952060449E+02  0.13219531717E+03  0.10566000000E+00 0. -1.
         -4    1    1    2    0  502 -0.11187106258E+02 -0.44309395035E+00  0.12625817054E+03  0.12675359287E+03  0.00000000000E+00 0. -1.
</event>
<event>
 5    1  0.4419198E-005  0.3013663E+03  0.7818608E-02  0.1006743E+00
          4   -1    0    0  502    0 -0.00000000000E+00  0.00000000000E+00  0.13651250525E+04  0.13651250525E+04  0.00000000000E+00 0.  1.
         21   -1    0    0  501  502  0.00000000000E+00 -0.00000000000E+00 -0.10928121828E+03  0.10928121828E+03  0.00000000000E+00 0. -1.
        -13    1    1    2    0    0 -0.24893276603E+03  0.12013696024E+03  0.67033426096E+03  0.72508512866E+03  0.10566000000E+00 0.  1.
         13    1    1    2    0    0  0.30045326214E+03 -0.16881108901E+03  0.58438441086E+03  0.67843533025E+03  0.10566000000E+00 0. -1.
          4    1    1    2  501    0 -0.51520496115E+02  0.48674128774E+02  0.11251623747E+01  0.70885811854E+02  0.00000000000E+00 0.  1.
</event>
<event>
 5    1  0.4419198E-005  0.7120275E+03  0.7818608E-02  0.9105711E-01
         21   -1    0    0  501  502  0.00000000000E+00  0.00000000000E+00  0.96913299985E+03  0.96913299985E+03  0.00000000000E+00 0.  1.
         -4   -1    0    0    0  501 -0.00000000000E+00 -0.00000000000E+00 -0.10650423367E+04  0.10650423367E+04  0.00000000000E+00 0. -1.
        -13    1    1    2    0    0  0.49550514482E+03 -0.44131643848E+03  0.37211894856E+03  0.76076150695E+03  0.10566000000E+00 0.  1.
         13    1    1    2    0    0 -0.47040164503E+03  0.55377697852E+03 -0.70343436837E+03  0.10113192233E+04  0.10566000000E+00 0. -1.
         -4    1    1    2    0  502 -0.25103499791E+02 -0.11246054004E+03  0.23540608296E+03  0.26209460632E+03  0.00000000000E+00 0. -1.
</event>
<event>
 5    1  0.4419198E-005  0.3372643E+03  0.7818608E-02  0.9957185E-01
         -4   -1    0    0    0  501 -0.00000000000E+00  0.00000000000E+00  0.55918738633E+03  0.55918738633E+03  0.00000000000E+00 0. -1.
         21   -1    0    0  501  502  0.00000000000E+00 -0.00000000000E+00 -0.98324740600E+03  0.98324740600E+03  0.00000000000E+00 0. -1.
        -13    1    1    2    0    0  0.34730351332E+03  0.61688978624E+02  0.95098038489E+02  0.36533396850E+03  0.10566000000E+00 0.  1.
         13    1    1    2    0    0 -0.16483101053E+03  0.29054207858E+03 -0.67322544600E+03  0.75154272917E+03  0.10566000000E+00 0. -1.
         -4    1    1    2    0  502 -0.18247250280E+03 -0.35223105720E+03  0.15406738784E+03  0.42555809466E+03  0.00000000000E+00 0. -1.
</event>
<event>
 5    1  0.4419198E-005  0.3456358E+03  0.7818608E-02  0.9900714E-01
         21   -1    0    0  501  502  0.00000000000E+00  0.00000000000E+00  0.16146760845E+03  0.16146760845E+03  0.00000000000E+00 0. -1.
         -4   -1    0    0    0  501 -0.00000000000E+00 -0.00000000000E+00 -0.24887452165E+04  0.24887452165E+04  0.00000000000E+00 0. -1.
        -13    1    1    2    0    0 -0.28160470122E+03 -0.16742161233E+03 -0.16358848206E+04  0.16683675738E+04  0.10566000000E+00 0.  1.
         13    1    1    2    0    0  0.27125210100E+03  0.35998192186E+03 -0.63907327865E+03  0.78203539115E+03  0.10566000000E+00 0. -1.
         -4    1    1    2    0  502  0.10352600224E+02 -0.19256030954E+03 -0.52319508816E+02  0.19980985997E+03  0.00000000000E+00 0. -1.
</event>
<event>
 5    1  0.4419198E-005  0.3427479E+03  0.7818608E-02  0.1017875E+00
         -4   -1    0    0    0  501 -0.00000000000E+00  0.00000000000E+00  0.30386558701E+03  0.30386558701E+03  0.00000000000E+00 0. -1.
         21   -1    0    0  501  502  0.00000000000E+00 -0.00000000000E+00 -0.11609979544E+04  0.11609979544E+04  0.00000000000E+00 0. -1.
        -13    1    1    2    0    0 -0.13269722342E+01 -0.14347271576E+03 -0.11025092532E+02  0.14390185841E+03  0.10566000000E+00 0.  1.
         13    1    1    2    0    0  0.34103062515E+03  0.16838805985E+03  0.29457357222E+02  0.38147630732E+03  0.10566000000E+00 0. -1.
         -4    1    1    2    0  502 -0.33970365292E+03 -0.24915344083E+02 -0.87556463212E+03  0.93948537572E+03  0.00000000000E+00 0. -1.
</event>
<event>
 5    1  0.4419198E-005  0.4980495E+03  0.7818608E-02  0.9485656E-01
         21   -1    0    0  501  502  0.00000000000E+00  0.00000000000E+00  0.81386105741E+03  0.81386105741E+03  0.00000000000E+00 0. -1.
         -4   -1    0    0    0  501 -0.00000000000E+00 -0.00000000000E+00 -0.84640414230E+03  0.84640414230E+03  0.00000000000E+00 0. -1.
        -13    1    1    2    0    0  0.34329662354E+03 -0.35231986057E+03 -0.21009958752E+03  0.53490532221E+03  0.10566000000E+00 0.  1.
         13    1    1    2    0    0  0.13775461629E+03  0.56747581133E+03  0.10708887267E+03  0.59369450778E+03  0.10566000000E+00 0. -1.
         -4    1    1    2    0  502 -0.48105123983E+03 -0.21515595076E+03  0.70467629961E+02  0.53166536972E+03  0.00000000000E+00 0. -1.
</event>
<event>
 5    1  0.4419198E-005  0.4628382E+03  0.7818608E-02  0.9616654E-01
         -4   -1    0    0    0  501 -0.00000000000E+00  0.00000000000E+00  0.56985111505E+03  0.56985111505E+03  0.00000000000E+00 0. -1.
         21   -1    0    0  501  502  0.00000000000E+00 -0.00000000000E+00 -0.10609319226E+04  0.10609319226E+04  0.00000000000E+00 0. -1.
        -13    1    1    2    0    0 -0.36925700678E+03  0.10078090804E+03  0.29837623950E+02  0.38392424181E+03  0.10566000000E+00 0.  1.
         13    1    1    2    0    0 -0.12965724018E+03  0.14700712944E+03  0.23616741103E+03  0.30691554739E+03  0.10566000000E+00 0. -1.
         -4    1    1    2    0  502  0.49891424696E+03 -0.24778803748E+03 -0.75708584253E+03  0.93994324844E+03  0.00000000000E+00 0. -1.
</event>
<event>
 5    1  0.4419198E-005  0.3151435E+03  0.7818608E-02  0.1001243E+00
         21   -1    0    0  501  502  0.00000000000E+00  0.00000000000E+00  0.14239429309E+03  0.14239429309E+03  0.00000000000E+00 0.  1.
          4   -1    0    0  502    0 -0.00000000000E+00 -0.00000000000E+00 -0.17222500869E+04  0.17222500869E+04  0.00000000000E+00 0.  1.
        -13    1    1    2    0    0  0.38400466775E+03 -0.21450630414E+03 -0.91741627772E+03  0.10174110168E+04  0.10566000000E+00 0.  1.
         13    1    1    2    0    0 -0.22012624254E+03  0.12204872083E+03 -0.59721648757E+03  0.64808872626E+03  0.10566000000E+00 0. -1.
          4    1    1    2  501    0 -0.16387842520E+03  0.92457583311E+02 -0.65223028505E+02  0.19914463690E+03  0.00000000000E+00 0.  1.
</event>
<event>
 5    1  0.4419198E-005  0.2671451E+03  0.7818608E-02  0.1021872E+00
         21   -1    0    0  501  502  0.00000000000E+00  0.00000000000E+00  0.53084214822E+02  0.53084214822E+02  0.00000000000E+00 0. -1.
          4   -1    0    0  502    0 -0.00000000000E+00 -0.00000000000E+00 -0.14556570295E+04  0.14556570295E+04  0.00000000000E+00 0.  1.
        -13    1    1    2    0    0 -0.25727156250E+03  0.60616633362E+02 -0.66916636883E+03  0.71947666637E+03  0.10566000000E+00 0.  1.
         13    1    1    2    0    0  0.26604680696E+03 -0.48335403955E+02 -0.64201606549E+03  0.69663609889E+03  0.10566000000E+00 0. -1.
          4    1    1    2  501    0 -0.87752444628E+01 -0.12281229407E+02 -0.91390380357E+02  0.92628479060E+02  0.00000000000E+00 0.  1.
</event>
<event>
 5    1  0.4419198E-005  0.5189227E+02  0.7818608E-02  0.1284271E+00
         21   -1    0    0  501  502  0.00000000000E+00  0.00000000000E+00  0.32976445928E+03  0.32976445928E+03  0.00000000000E+00 0. -1.
         -4   -1    0    0    0  501 -0.00000000000E+00 -0.00000000000E+00 -0.28622548346E+02  0.28622548346E+02  0.00000000000E+00 0. -1.
        -13    1    1    2    0    0 -0.11455697105E+02 -0.53179056758E+02  0.54316891403E+02  0.76873798719E+02  0.10566000000E+00 0.  1.
         13    1    1    2    0    0  0.21515720916E+02  0.46167436598E+02  0.20578955210E+02  0.54935079960E+02  0.10566000000E+00 0. -1.
         -4    1    1    2    0  502 -0.10060023811E+02  0.70116201596E+01  0.22624606432E+03  0.22657812895E+03  0.00000000000E+00 0. -1.
</event>
<event>
 5    1  0.4419198E-005  0.4675421E+02  0.7818608E-02  0.1305599E+00
         -4   -1    0    0    0  501 -0.00000000000E+00  0.00000000000E+00  0.20416125098E+03  0.20416125098E+03  0.00000000000E+00 0. -1.
         21   -1    0    0  501  502  0.00000000000E+00 -0.00000000000E+00 -0.69315047436E+02  0.69315047436E+02  0.00000000000E+00 0. -1.
        -13    1    1    2    0    0 -0.22049517606E+02 -0.30379588791E+02 -0.16896959421E+02  0.41165750856E+02  0.10566000000E+00 0.  1.
         13    1    1    2    0    0  0.36837381959E+02  0.30491135562E+02  0.18756045731E+03  0.19356042563E+03  0.10566000000E+00 0. -1.
         -4    1    1    2    0  502 -0.14787864353E+02 -0.11154677087E+00 -0.35817294352E+02  0.38750121929E+02  0.00000000000E+00 0. -1.
</event>
<event>
 5    1  0.4419198E-005  0.4739914E+03  0.7818608E-02  0.9563586E-01
         21   -1    0    0  501  502  0.00000000000E+00  0.00000000000E+00  0.38063111045E+03  0.38063111045E+03  0.00000000000E+00 0.  1.
          4   -1    0    0  502    0 -0.00000000000E+00 -0.00000000000E+00 -0.24865937616E+04  0.24865937616E+04  0.00000000000E+00 0.  1.
        -13    1    1    2    0    0 -0.69664408464E+01 -0.39951297781E+03 -0.50475060464E+03  0.64376419192E+03  0.10566000000E+00 0.  1.
         13    1    1    2    0    0 -0.42851442925E+03  0.42246186738E+02 -0.16033653432E+04  0.16601776385E+04  0.10566000000E+00 0. -1.
          4    1    1    2  501    0  0.43548087010E+03  0.35726679108E+03  0.21532967841E+01  0.56328304156E+03  0.00000000000E+00 0.  1.
</event>
<event>
 5    1  0.4419198E-005  0.3158487E+03  0.7818608E-02  0.1021305E+00
          4   -1    0    0  502    0 -0.00000000000E+00  0.00000000000E+00  0.41258320314E+03  0.41258320314E+03  0.00000000000E+00 0.  1.
         21   -1    0    0  501  502  0.00000000000E+00 -0.00000000000E+00 -0.96282392363E+03  0.96282392363E+03  0.00000000000E+00 0.  1.
        -13    1    1    2    0    0 -0.12824784207E+03 -0.43067950124E+03  0.40075646330E+02  0.45115231394E+03  0.10566000000E+00 0.  1.
         13    1    1    2    0    0  0.97077986763E+02  0.13285713869E+03  0.85234296816E+02  0.18531068866E+03  0.10566000000E+00 0. -1.
          4    1    1    2  501    0  0.31169855306E+02  0.29782236255E+03 -0.67555066363E+03  0.73894412417E+03  0.00000000000E+00 0.  1.
</event>
<event>
 5    1  0.4419198E-005  0.4855389E+03  0.7818608E-02  0.9886769E-01
         21   -1    0    0  501  502  0.00000000000E+00  0.00000000000E+00  0.10416609234E+03  0.10416609234E+03  0.00000000000E+00 0. -1.
         -4   -1    0    0    0  501 -0.00000000000E+00 -0.00000000000E+00 -0.31802555750E+04  0.31802555750E+04  0.00000000000E+00 0. -1.
        -13    1    1    2    0    0  0.12067037798E+03 -0.50065356941E+02 -0.61400260477E+03  0.62774763235E+03  0.10566000000E+00 0.  1.
         13    1    1    2    0    0 -0.55219417708E+03  0.10102387743E+03 -0.14733782965E+04  0.15766952302E+04  0.10566000000E+00 0. -1.
         -4    1    1    2    0  502  0.43152379910E+03 -0.50958520488E+02 -0.98870858132E+03  0.10799788048E+04  0.00000000000E+00 0. -1.
</event>
<event>
 5    1  0.4419198E-005  0.3301086E+03  0.7818608E-02  0.9955992E-01
         -4   -1    0    0    0  501 -0.00000000000E+00  0.00000000000E+00  0.20549467593E+04  0.20549467593E+04  0.00000000000E+00 0. -1.
         21   -1    0    0  501  502  0.00000000000E+00 -0.00000000000E+00 -0.13601891378E+03  0.13601891378E+03  0.00000000000E+00 0. -1.
        -13    1    1    2    0    0 -0.32194135694E+03 -0.31686151998E+02  0.75837869322E+03  0.82449287628E+03  0.10566000000E+00 0.  1.
         13    1    1    2    0    0  0.31449954693E+03  0.13163947141E+03  0.12082786722E+04  0.12554585920E+04  0.10566000000E+00 0. -1.
         -4    1    1    2    0  502  0.74418100062E+01 -0.99953319414E+02 -0.47729519878E+02  0.11101420479E+03  0.00000000000E+00 0. -1.
</event>
<event>
 5    1  0.4419198E-005  0.4368491E+03  0.7818608E-02  0.9628291E-01
          4   -1    0    0  502    0 -0.00000000000E+00  0.00000000000E+00  0.19267839021E+04  0.19267839021E+04  0.00000000000E+00 0.  1.
         21   -1    0    0  501  502  0.00000000000E+00 -0.00000000000E+00 -0.58424555028E+03  0.58424555028E+03  0.00000000000E+00 0. -1.
        -13    1    1    2    0    0 -0.85721424290E+02 -0.50039218698E+03  0.70782901312E+03  0.87106970235E+03  0.10566000000E+00 0.  1.
         13    1    1    2    0    0  0.17137683838E+03  0.37198331847E+03  0.10872428698E+04  0.11618255803E+04  0.10566000000E+00 0. -1.
          4    1    1    2  501    0 -0.85655414089E+02  0.12840886850E+03 -0.45253353111E+03  0.47813416972E+03  0.00000000000E+00 0.  1.
</event>
<event>
 5    1  0.4419198E-005  0.4919409E+03  0.7818608E-02  0.9636373E-01
          4   -1    0    0  502    0 -0.00000000000E+00  0.00000000000E+00  0.22772627756E+04  0.22772627756E+04  0.00000000000E+00 0.  1.
         21   -1    0    0  501  502  0.00000000000E+00 -0.00000000000E+00 -0.19344295812E+03  0.19344295812E+03  0.00000000000E+00 0.  1.
        -13    1    1    2    0    0  0.71263191006E+02  0.60472430872E+03  0.84120157199E+03  0.10384555974E+04  0.10566000000E+00 0.  1.
         13    1    1    2    0    0  0.15111031980E+03 -0.25602581703E+03  0.47668362838E+03  0.56179252439E+03  0.10566000000E+00 0. -1.
          4    1    1    2  501    0 -0.22237351081E+03 -0.34869849169E+03  0.76593461709E+03  0.87045761187E+03  0.00000000000E+00 0.  1.
</event>
<event>
 5    1  0.4419198E-005  0.4006824E+03  0.7818608E-02  0.9727077E-01
         21   -1    0    0  501  502  0.00000000000E+00  0.00000000000E+00  0.19030413737E+04  0.19030413737E+04  0.00000000000E+00 0.  1.
          4   -1    0    0  502    0 -0.00000000000E+00 -0.00000000000E+00 -0.48782079603E+03  0.48782079603E+03  0.00000000000E+00 0.  1.
        -13    1    1    2    0    0  0.55867358557E+03 -0.49249465909E+02  0.36866740624E+03  0.67116119725E+03  0.10566000000E+00 0.  1.
         13    1    1    2    0    0 -0.36647553196E+03  0.42159966090E+02 -0.22605199762E+03  0.43264453661E+03  0.10566000000E+00 0. -1.
          4    1    1    2  501    0 -0.19219805362E+03  0.70894998187E+01  0.12726051690E+04  0.12870564359E+04  0.00000000000E+00 0.  1.
</event>
<event>
 5    1  0.4419198E-005  0.5916453E+03  0.7818608E-02  0.9396785E-01
         21   -1    0    0  501  502  0.00000000000E+00  0.00000000000E+00  0.19847249063E+04  0.19847249063E+04  0.00000000000E+00 0.  1.
          4   -1    0    0  502    0 -0.00000000000E+00 -0.00000000000E+00 -0.70859167697E+03  0.70859167697E+03  0.00000000000E+00 0.  1.
        -13    1    1    2    0    0 -0.11605305196E+02  0.14972702009E+03 -0.78197082457E+02  0.16931526370E+03  0.10566000000E+00 0.  1.
         13    1    1    2    0    0 -0.66908030845E+03  0.24761818760E+03 -0.23403327112E+03  0.75083607341E+03  0.10566000000E+00 0. -1.
          4    1    1    2  501    0  0.68068561365E+03 -0.39734520769E+03  0.15883635829E+04  0.17731652461E+04  0.00000000000E+00 0.  1.
</event>
<event>
 5    1  0.4419198E-005  0.8034267E+02  0.7818608E-02  0.1201937E+00
         -4   -1    0    0    0  501 -0.00000000000E+00  0.00000000000E+00  0.69918840065E+03  0.69918840065E+03  0.00000000000E+00 0. -1.
         21   -1    0    0  501  502  0.00000000000E+00 -0.00000000000E+00 -0.17425364446E+02  0.17425364446E+02  0.00000000000E+00 0.  1.
        -13    1    1    2    0    0 -0.97901352819E+02 -0.66927399033E+01  0.21243663037E+03  0.23400598440E+03  0.10566000000E+00 0.  1.
         13    1    1    2    0    0  0.74110499176E+02  0.11868144880E+02  0.42888632596E+03  0.43540407751E+03  0.10566000000E+00 0. -1.
         -4    1    1    2    0  502  0.23790853643E+02 -0.51754049765E+01  0.40440079872E+02  0.47203703179E+02  0.00000000000E+00 0. -1.
</event>
<event>
 5    1  0.4419198E-005  0.4993148E+03  0.7818608E-02  0.9546067E-01
         21   -1    0    0  501  502  0.00000000000E+00  0.00000000000E+00  0.57799189819E+03  0.57799189819E+03  0.00000000000E+00 0.  1.
          4   -1    0    0  502    0 -0.00000000000E+00 -0.00000000000E+00 -0.21552095093E+04  0.21552095093E+04  0.00000000000E+00 0.  1.
        -13    1    1    2    0    0  0.15706123685E+03 -0.27780019521E+03 -0.13630697295E+03  0.34701697742E+03  0.10566000000E+00 0.  1.
         13    1    1    2    0    0  0.24689042363E+03 -0.30482386866E+03 -0.16101986625E+04  0.16572906251E+04  0.10566000000E+00 0. -1.
          4    1    1    2  501    0 -0.40395166048E+03  0.58262406387E+03  0.16928802429E+03  0.72889380500E+03  0.00000000000E+00 0.  1.
</event>
<event>
 5    1  0.4419198E-005  0.3954224E+03  0.7818608E-02  0.9742360E-01
          4   -1    0    0  502    0 -0.00000000000E+00  0.00000000000E+00  0.18101764352E+04  0.18101764352E+04  0.00000000000E+00 0.  1.
         21   -1    0    0  501  502  0.00000000000E+00 -0.00000000000E+00 -0.12546735669E+03  0.12546735669E+03  0.00000000000E+00 0. -1.
        -13    1    1    2    0    0  0.21244015163E+03  0.35785326152E+03  0.12663678102E+04  0.13329955801E+04  0.10566000000E+00 0.  1.
         13    1    1    2    0    0 -0.16489541292E+03 -0.31336196296E+03  0.40160165297E+03  0.53541583453E+03  0.10566000000E+00 0. -1.
          4    1    1    2  501    0 -0.47544738702E+02 -0.44491298553E+02  0.16739615338E+02  0.67232377221E+02  0.00000000000E+00 0.  1.
</event>
<event>
 5    1  0.4419198E-005  0.3131105E+02  0.7818608E-02  0.1394680E+00
          4   -1    0    0  502    0 -0.00000000000E+00  0.00000000000E+00  0.11182784234E+03  0.11182784234E+03  0.00000000000E+00 0.  1.
         21   -1    0    0  501  502  0.00000000000E+00 -0.00000000000E+00 -0.12006449157E+03  0.12006449157E+03  0.00000000000E+00 0. -1.
        -13    1    1    2    0    0 -0.18605046753E+02 -0.25551020787E+02  0.10603485451E+03  0.11064539739E+03  0.10566000000E+00 0.  1.
         13    1    1    2    0    0  0.43664425947E+01  0.25207031239E+02 -0.62021869836E+02  0.67090861873E+02  0.10566000000E+00 0. -1.
          4    1    1    2  501    0  0.14238604158E+02  0.34398954793E+00 -0.52249633906E+02  0.54156074641E+02  0.00000000000E+00 0.  1.
</event>
<event>
 5    1  0.4419198E-005  0.1007754E+03  0.7818608E-02  0.1163279E+00
         21   -1    0    0  501  502  0.00000000000E+00  0.00000000000E+00  0.25977570216E+03  0.25977570216E+03  0.00000000000E+00 0.  1.
          4   -1    0    0  502    0 -0.00000000000E+00 -0.00000000000E+00 -0.21127930512E+03  0.21127930512E+03  0.00000000000E+00 0.  1.
        -13    1    1    2    0    0 -0.88712504848E+02  0.67666865786E+02 -0.17353373284E+03  0.20630724864E+03  0.10566000000E+00 0.  1.
         13    1    1    2    0    0  0.55859832888E+02 -0.31366486507E+02  0.38373686401E+02  0.74677495795E+02  0.10566000000E+00 0. -1.
          4    1    1    2  501    0  0.32852671960E+02 -0.36300379279E+02  0.18365644347E+03  0.19007026285E+03  0.00000000000E+00 0.  1.
</event>
<event>
 5    1  0.4419198E-005  0.4393821E+03  0.7818608E-02  0.9621755E-01
         21   -1    0    0  501  502  0.00000000000E+00  0.00000000000E+00  0.66099281392E+03  0.66099281392E+03  0.00000000000E+00 0.  1.
         -4   -1    0    0    0  501 -0.00000000000E+00 -0.00000000000E+00 -0.14111065581E+04  0.14111065581E+04  0.00000000000E+00 0. -1.
        -13    1    1    2    0    0  0.56244368648E+03 -0.26942501939E+03 -0.65384093244E+03  0.90357109163E+03  0.10566000000E+00 0.  1.
         13    1    1    2    0    0 -0.14658275047E+03  0.35666291988E+03 -0.46629679658E+03  0.60508483274E+03  0.10566000000E+00 0. -1.
         -4    1    1    2    0  502 -0.41586093601E+03 -0.87237900487E+02  0.37002398482E+03  0.56344344767E+03  0.00000000000E+00 0. -1.
</event>
<event>
 5    1  0.4419198E-005  0.5359746E+02  0.7818608E-02  0.1277797E+00
         -4   -1    0    0    0  501 -0.00000000000E+00  0.00000000000E+00  0.12457326473E+02  0.12457326473E+02  0.00000000000E+00 0. -1.
         21   -1    0    0  501  502  0.00000000000E+00 -0.00000000000E+00 -0.46795439110E+03  0.46795439110E+03  0.00000000000E+00 0. -1.
        -13    1    1    2    0    0  0.35418356512E+02  0.17404100450E+02 -0.19051193424E+03  0.19455634388E+03  0.10566000000E+00 0.  1.
         13    1    1    2    0    0 -0.57281092788E+02 -0.19814120437E+02 -0.84252717452E+02  0.10378947211E+03  0.10566000000E+00 0. -1.
         -4    1    1    2    0  502  0.21862736276E+02  0.24100199878E+01 -0.18073241294E+03  0.18206590159E+03  0.00000000000E+00 0. -1.
</event>
<event>
 5    1  0.4419198E-005  0.4310802E+03  0.7818608E-02  0.9643353E-01
          4   -1    0    0  502    0 -0.00000000000E+00  0.00000000000E+00  0.80559527978E+03  0.80559527978E+03  0.00000000000E+00 0.  1.
         21   -1    0    0  501  502  0.00000000000E+00 -0.00000000000E+00 -0.70322579899E+03  0.70322579899E+03  0.00000000000E+00 0.  1.
        -13    1    1    2    0    0  0.14179245610E+03  0.55188294393E+03 -0.35183361525E+03  0.66967662972E+03  0.10566000000E+00 0.  1.
         13    1    1    2    0    0  0.62810800053E+02 -0.39554972808E+03  0.12168316063E+03  0.41858283138E+03  0.10566000000E+00 0. -1.
          4    1    1    2  501    0 -0.20460325616E+03 -0.15633321585E+03  0.33251993541E+03  0.42056161767E+03  0.00000000000E+00 0.  1.
</event>
<event>
 5    1  0.4419198E-005  0.3502423E+03  0.7818608E-02  0.1009474E+00
         -4   -1    0    0    0  501 -0.00000000000E+00  0.00000000000E+00  0.87939352983E+03  0.87939352983E+03  0.00000000000E+00 0. -1.
         21   -1    0    0  501  502  0.00000000000E+00 -0.00000000000E+00 -0.10392672601E+04  0.10392672601E+04  0.00000000000E+00 0. -1.
        -13    1    1    2    0    0  0.18889779555E+03 -0.58143159333E+03  0.26443120506E+03  0.66608479059E+03  0.10566000000E+00 0.  1.
         13    1    1    2    0    0  0.10474718762E+03  0.18373254138E+03  0.30521623770E+03  0.37133082689E+03  0.10566000000E+00 0. -1.
         -4    1    1    2    0  502 -0.29364498317E+03  0.39769905195E+03 -0.72952117301E+03  0.88124517243E+03  0.00000000000E+00 0. -1.
</event>
<event>
 5    1  0.4419198E-005  0.3486773E+03  0.7818608E-02  0.9890249E-01
          4   -1    0    0  502    0 -0.00000000000E+00  0.00000000000E+00  0.17670280086E+04  0.17670280086E+04  0.00000000000E+00 0.  1.
         21   -1    0    0  501  502  0.00000000000E+00 -0.00000000000E+00 -0.12090822082E+03  0.12090822082E+03  0.00000000000E+00 0. -1.
        -13    1    1    2    0    0  0.15322009343E+03 -0.30229054998E+03  0.12652865858E+04  0.13098878307E+04  0.10566000000E+00 0.  1.
         13    1    1    2    0    0 -0.17603713959E+03  0.34297320340E+03  0.35805342461E+03  0.52613872582E+03  0.10566000000E+00 0. -1.
          4    1    1    2  501    0  0.22817046159E+02 -0.40682653415E+02  0.22779777360E+02  0.51909672903E+02  0.00000000000E+00 0.  1.
</event>
<event>
 5    1  0.4419198E-005  0.4418235E+02  0.7818608E-02  0.1317477E+00
         -4   -1    0    0    0  501 -0.00000000000E+00  0.00000000000E+00  0.83506108471E+02  0.83506108471E+02  0.00000000000E+00 0. -1.
         21   -1    0    0  501  502  0.00000000000E+00 -0.00000000000E+00 -0.36077310959E+03  0.36077310959E+03  0.00000000000E+00 0.  1.
        -13    1    1    2    0    0 -0.78149549665E+02 -0.20723844224E+02 -0.20945991125E+03  0.22452237175E+03  0.10566000000E+00 0.  1.
         13    1    1    2    0    0  0.43180609784E+02 -0.27075006547E+00  0.66557406491E+02  0.79338123811E+02  0.10566000000E+00 0. -1.
         -4    1    1    2    0  502  0.34968939881E+02  0.20994594289E+02 -0.13436449635E+03  0.14041872249E+03  0.00000000000E+00 0. -1.
</event>
<event>
 5    1  0.4419198E-005  0.4532180E+03  0.7818608E-02  0.9624947E-01
         21   -1    0    0  501  502  0.00000000000E+00  0.00000000000E+00  0.58777962905E+03  0.58777962905E+03  0.00000000000E+00 0. -1.
         -4   -1    0    0    0  501 -0.00000000000E+00 -0.00000000000E+00 -0.12575468674E+04  0.12575468674E+04  0.00000000000E+00 0. -1.
        -13    1    1    2    0    0  0.22803351672E+03  0.42798348355E+03 -0.12621989018E+01  0.48494407023E+03  0.10566000000E+00 0.  1.
         13    1    1    2    0    0  0.15441224553E+03 -0.93315785665E+02 -0.81240861301E+03  0.83220114341E+03  0.10566000000E+00 0. -1.
         -4    1    1    2    0  502 -0.38244576225E+03 -0.33466769788E+03  0.14390357354E+03  0.52818128285E+03  0.00000000000E+00 0. -1.
</event>
<event>
 5    1  0.4419198E-005  0.5410187E+02  0.7818608E-02  0.1275933E+00
         21   -1    0    0  501  502  0.00000000000E+00  0.00000000000E+00  0.11433433679E+02  0.11433433679E+02  0.00000000000E+00 0. -1.
          4   -1    0    0  502    0 -0.00000000000E+00 -0.00000000000E+00 -0.36175081345E+03  0.36175081345E+03  0.00000000000E+00 0.  1.
        -13    1    1    2    0    0  0.18670616708E+01  0.49714557836E+02 -0.15886288035E+03  0.16647056526E+03  0.10566000000E+00 0.  1.
         13    1    1    2    0    0  0.61051520405E+01 -0.61774481628E+02 -0.13762819018E+03  0.15097976473E+03  0.10566000000E+00 0. -1.
          4    1    1    2  501    0 -0.79722137113E+01  0.12059923793E+02 -0.53826309241E+02  0.55733917141E+02  0.00000000000E+00 0.  1.
</event>
<event>
 5    1  0.4419198E-005  0.4446987E+03  0.7818608E-02  0.9690985E-01
         -4   -1    0    0    0  501 -0.00000000000E+00  0.00000000000E+00  0.24579973369E+04  0.24579973369E+04  0.00000000000E+00 0. -1.
         21   -1    0    0  501  502  0.00000000000E+00 -0.00000000000E+00 -0.28729013903E+03  0.28729013903E+03  0.00000000000E+00 0. -1.
        -13    1    1    2    0    0 -0.28179450432E+03 -0.17605855856E+03  0.13600686312E+04  0.14000683739E+04  0.10566000000E+00 0.  1.
         13    1    1    2    0    0  0.23811547086E+03  0.57504882260E+03  0.68297382388E+03  0.92403104986E+03  0.10566000000E+00 0. -1.
         -4    1    1    2    0  502  0.43679033457E+02 -0.39899026404E+03  0.12766474274E+03  0.42118805218E+03  0.00000000000E+00 0. -1.
</event>
<event>
 5    1  0.4419198E-005  0.5909258E+02  0.7818608E-02  0.1276445E+00
         21   -1    0    0  501  502  0.00000000000E+00  0.00000000000E+00  0.53812524687E+03  0.53812524687E+03  0.00000000000E+00 0. -1.
          4   -1    0    0  502    0 -0.00000000000E+00 -0.00000000000E+00 -0.13238581321E+02  0.13238581321E+02  0.00000000000E+00 0.  1.
        -13    1    1    2    0    0 -0.36514313999E+02  0.53024256031E+02  0.20487512332E+03  0.21475263485E+03  0.10566000000E+00 0.  1.
         13    1    1    2    0    0  0.40341822940E+02  0.78219417645E+01  0.95431001293E+02  0.10390251500E+03  0.10566000000E+00 0. -1.
          4    1    1    2  501    0 -0.38275089408E+01 -0.60846197795E+02  0.22458054093E+03  0.23270867834E+03  0.00000000000E+00 0.  1.
</event>
<event>
 5    1  0.5185503E-005  0.4960593E+03  0.7818608E-02  0.1019614E+00
         -4   -1    0    0    0  501 -0.00000000000E+00  0.00000000000E+00  0.63820611851E+03  0.63820611851E+03  0.00000000000E+00 0. -1.
         21   -1    0    0  501  502  0.00000000000E+00 -0.00000000000E+00 -0.50536640154E+03  0.50536640154E+03  0.00000000000E+00 0. -1.
        -13    1    1    2    0    0  0.10715948031E+02 -0.43496345528E+02  0.14048580446E+03  0.14745520010E+03  0.10566000000E+00 0.  1.
         13    1    1    2    0    0 -0.38571888110E+03 -0.29550213466E+03  0.44411648051E+02  0.48792722047E+03  0.10566000000E+00 0. -1.
         -4    1    1    2    0  502  0.37500293307E+03  0.33899848019E+03 -0.52057735535E+02  0.50819009948E+03  0.00000000000E+00 0. -1.
</event>
<event>
 5    1  0.4419198E-005  0.3168466E+03  0.7818608E-02  0.1002786E+00
         21   -1    0    0  501  502  0.00000000000E+00  0.00000000000E+00  0.83131083563E+03  0.83131083563E+03  0.00000000000E+00 0. -1.
         -4   -1    0    0    0  501 -0.00000000000E+00 -0.00000000000E+00 -0.57998045366E+03  0.57998045366E+03  0.00000000000E+00 0. -1.
        -13    1    1    2    0    0  0.32391421688E+03 -0.54373822659E+02  0.26477250639E+02  0.32951174251E+03  0.10566000000E+00 0.  1.
         13    1    1    2    0    0  0.23968534895E+03  0.14301146577E+03  0.39749921050E+03  0.48570256264E+03  0.10566000000E+00 0. -1.
         -4    1    1    2    0  502 -0.56359956582E+03 -0.88637643114E+02 -0.17264607917E+03  0.59607698414E+03  0.00000000000E+00 0. -1.
</event>
<event>
 5    1  0.4419198E-005  0.4833007E+03  0.7818608E-02  0.1006152E+00
         -4   -1    0    0    0  501 -0.00000000000E+00  0.00000000000E+00  0.39219500398E+03  0.39219500398E+03  0.00000000000E+00 0. -1.
         21   -1    0    0  501  502  0.00000000000E+00 -0.00000000000E+00 -0.84311198065E+03  0.84311198065E+03  0.00000000000E+00 0. -1.
        -13    1    1    2    0    0 -0.60953093974E+02  0.42801367605E+02  0.74623688969E+02  0.10543217181E+03  0.10566000000E+00 0.  1.
         13    1    1    2    0    0  0.29314738559E+03 -0.41684086225E+03 -0.45665202763E+03  0.68426806123E+03  0.10566000000E+00 0. -1.
         -4    1    1    2    0  502 -0.23219429162E+03  0.37403949464E+03 -0.68888638003E+02  0.44560675159E+03  0.00000000000E+00 0. -1.
</event>
<event>
 5    1  0.4419198E-005  0.1488572E+03  0.7818608E-02  0.1102244E+00
         -4   -1    0    0    0  501 -0.00000000000E+00  0.00000000000E+00  0.12334613504E+03  0.12334613504E+03  0.00000000000E+00 0. -1.
         21   -1    0    0  501  502  0.00000000000E+00 -0.00000000000E+00 -0.49277361253E+03  0.49277361253E+03  0.00000000000E+00 0.  1.
        -13    1    1    2    0    0  0.15920285856E+03  0.13557661568E+02 -0.10917307991E+03  0.19351520070E+03  0.10566000000E+00 0.  1.
         13    1    1    2    0    0 -0.14308444293E+03 -0.18374831888E+02  0.16625223020E+02  0.14521432939E+03  0.10566000000E+00 0. -1.
         -4    1    1    2    0  502 -0.16118415625E+02  0.48171703207E+01 -0.27687962059E+03  0.27739021748E+03  0.00000000000E+00 0. -1.
</event>
<event>
 5    1  0.4419198E-005  0.5530421E+03  0.7818608E-02  0.9415880E-01
         21   -1    0    0  501  502  0.00000000000E+00  0.00000000000E+00  0.61015303192E+03  0.61015303192E+03  0.00000000000E+00 0.  1.
          4   -1    0    0  502    0 -0.00000000000E+00 -0.00000000000E+00 -0.17034568297E+04  0.17034568297E+04  0.00000000000E+00 0.  1.
        -13    1    1    2    0    0 -0.40266631486E+03 -0.53923775351E+02 -0.27681887979E+03  0.49160618186E+03  0.10566000000E+00 0.  1.
         13    1    1    2    0    0  0.13552699976E+03 -0.58826378107E+03 -0.93846131930E+03  0.11158546065E+04  0.10566000000E+00 0. -1.
          4    1    1    2  501    0  0.26713931510E+03  0.64218755642E+03  0.12197640127E+03  0.70614907332E+03  0.00000000000E+00 0.  1.
</event>
<event>
 5    1  0.4419198E-005  0.2512533E+02  0.7818608E-02  0.1456520E+00
          4   -1    0    0  502    0 -0.00000000000E+00  0.00000000000E+00  0.82989698135E+02  0.82989698135E+02  0.00000000000E+00 0.  1.
         21   -1    0    0  501  502  0.00000000000E+00 -0.00000000000E+00 -0.40184707543E+03  0.40184707543E+03  0.00000000000E+00 0.  1.
        -13    1    1    2    0    0 -0.31887585853E+02 -0.13695226857E+02  0.74911011362E+02  0.82559361417E+02  0.10566000000E+00 0.  1.
         13    1    1    2    0    0  0.78327057526E+01  0.20921072827E+02 -0.28813097613E+02  0.36458857987E+02  0.10566000000E+00 0. -1.
          4    1    1    2  501    0  0.24054880101E+02 -0.72258459693E+01 -0.36495529105E+03  0.36581855416E+03  0.00000000000E+00 0.  1.
</event>
<event>
 5    1  0.4419198E-005  0.3483403E+03  0.7818608E-02  0.9891403E-01
          4   -1    0    0  502    0 -0.00000000000E+00  0.00000000000E+00  0.32838265487E+04  0.32838265487E+04  0.00000000000E+00 0.  1.
         21   -1    0    0  501  502  0.00000000000E+00 -0.00000000000E+00 -0.14326570590E+03  0.14326570590E+03  0.00000000000E+00 0.  1.
        -13    1    1    2    0    0 -0.63892961103E+02 -0.39977698282E+03  0.21316171228E+04  0.21697224514E+04  0.10566000000E+00 0.  1.
         13    1    1    2    0    0 -0.10043922611E+02  0.29303445903E+03  0.10731715076E+04  0.11125049081E+04  0.10566000000E+00 0. -1.
          4    1    1    2  501    0  0.73936883714E+02  0.10674252379E+03 -0.64227787613E+02  0.14486489520E+03  0.00000000000E+00 0.  1.
</event>
<event>
 5    1  0.4419198E-005  0.1839319E+03  0.7818608E-02  0.1071747E+00
         21   -1    0    0  501  502  0.00000000000E+00  0.00000000000E+00  0.17305183922E+03  0.17305183922E+03  0.00000000000E+00 0. -1.
          4   -1    0    0  502    0 -0.00000000000E+00 -0.00000000000E+00 -0.94979785459E+03  0.94979785459E+03  0.00000000000E+00 0.  1.
        -13    1    1    2    0    0 -0.12812379547E+03 -0.12966472580E+03 -0.85293293821E+03  0.87219450602E+03  0.10566000000E+00 0.  1.
         13    1    1    2    0    0  0.13430293333E+03  0.15891319958E+03  0.59431874324E+02  0.21638586311E+03  0.10566000000E+00 0. -1.
          4    1    1    2  501    0 -0.61791378605E+01 -0.29248473783E+02  0.16755048511E+02  0.34269324679E+02  0.00000000000E+00 0.  1.
</event>
<event>
 5    1  0.4419198E-005  0.4783012E+03  0.7818608E-02  0.9856372E-01
         21   -1    0    0  501  502  0.00000000000E+00  0.00000000000E+00  0.13361201959E+03  0.13361201959E+03  0.00000000000E+00 0. -1.
         -4   -1    0    0    0  501 -0.00000000000E+00 -0.00000000000E+00 -0.27448266688E+04  0.27448266688E+04  0.00000000000E+00 0. -1.
        -13    1    1    2    0    0 -0.10227788017E+03  0.11160714960E+03 -0.71583517930E+03  0.73166723017E+03  0.10566000000E+00 0.  1.
         13    1    1    2    0    0  0.41897105909E+03  0.24744754384E+03 -0.64564934310E+03  0.80847394560E+03  0.10566000000E+00 0. -1.
         -4    1    1    2    0  502 -0.31669317892E+03 -0.35905469344E+03 -0.12497301268E+04  0.13382975126E+04  0.00000000000E+00 0. -1.
</event>
<event>
 5    1  0.4419198E-005  0.3889074E+03  0.7818608E-02  0.1002845E+00
          4   -1    0    0  502    0 -0.00000000000E+00  0.00000000000E+00  0.79165145957E+03  0.79165145957E+03  0.00000000000E+00 0.  1.
         21   -1    0    0  501  502  0.00000000000E+00 -0.00000000000E+00 -0.33996987855E+03  0.33996987855E+03  0.00000000000E+00 0.  1.
        -13    1    1    2    0    0 -0.46432476146E+03 -0.95788994976E+02  0.56683309758E+02  0.47747882092E+03  0.10566000000E+00 0.  1.
         13    1    1    2    0    0  0.15771872021E+03  0.21255966414E+02  0.27268927677E+03  0.31573163232E+03  0.10566000000E+00 0. -1.
          4    1    1    2  501    0  0.30660604124E+03  0.74533028562E+02  0.12230899448E+03  0.33841088488E+03  0.00000000000E+00 0.  1.
</event>
<event>
 5    1  0.4419198E-005  0.5950340E+02  0.7818608E-02  0.1257302E+00
         21   -1    0    0  501  502  0.00000000000E+00  0.00000000000E+00  0.53623476208E+02  0.53623476208E+02  0.00000000000E+00 0. -1.
          4   -1    0    0  502    0 -0.00000000000E+00 -0.00000000000E+00 -0.20063438608E+03  0.20063438608E+03  0.00000000000E+00 0.  1.
        -13    1    1    2    0    0  0.41093528857E+01  0.50616442015E+02 -0.60305381470E+02  0.78839464621E+02  0.10566000000E+00 0.  1.
         13    1    1    2    0    0  0.68588638303E+01 -0.68296471297E+02 -0.11878012779E+03  0.13718666818E+03  0.10566000000E+00 0. -1.
          4    1    1    2  501    0 -0.10968216716E+02  0.17680029282E+02  0.32074599390E+02  0.38231729484E+02  0.00000000000E+00 0.  1.
</event>
<event>
 5    1  0.4419198E-005  0.7688076E+02  0.7818608E-02  0.1209750E+00
         -4   -1    0    0    0  501 -0.00000000000E+00  0.00000000000E+00  0.17313952664E+03  0.17313952664E+03  0.00000000000E+00 0. -1.
         21   -1    0    0  501  502  0.00000000000E+00 -0.00000000000E+00 -0.26072658733E+03  0.26072658733E+03  0.00000000000E+00 0.  1.
        -13    1    1    2    0    0 -0.43022175869E+02 -0.11373419114E+03 -0.12823049692E+03  0.17671854842E+03  0.10566000000E+00 0.  1.
         13    1    1    2    0    0  0.34739142744E+02  0.65470181086E+02  0.13320186077E+03  0.15243326253E+03  0.10566000000E+00 0. -1.
         -4    1    1    2    0  502  0.82830331249E+01  0.48264010056E+02 -0.92558424531E+02  0.10471430302E+03  0.00000000000E+00 0. -1.
</event>
<event>
 5    1  0.4419198E-005  0.5253931E+03  0.7818608E-02  0.9423987E-01
         21   -1    0    0  501  502  0.00000000000E+00  0.00000000000E+00  0.12798597525E+04  0.12798597525E+04  0.00000000000E+00 0.  1.
         -4   -1    0    0    0  501 -0.00000000000E+00 -0.00000000000E+00 -0.55865262285E+03  0.55865262285E+03  0.00000000000E+00 0. -1.
        -13    1    1    2    0    0  0.27189742163E+03 -0.15615383554E+03  0.83889238492E+03  0.89557393490E+03  0.10566000000E+00 0.  1.
         13    1    1    2    0    0 -0.44702294734E+03  0.35262439367E+03 -0.27920578606E+03  0.63413670497E+03  0.10566000000E+00 0. -1.
         -4    1    1    2    0  502  0.17512552572E+03 -0.19647055812E+03  0.16152053080E+03  0.30880173548E+03  0.00000000000E+00 0. -1.
</event>
<event>
 5    1  0.4419198E-005  0.1014592E+03  0.7818608E-02  0.1180354E+00
          4   -1    0    0  502    0 -0.00000000000E+00  0.00000000000E+00  0.43113393548E+03  0.43113393548E+03  0.00000000000E+00 0.  1.
         21   -1    0    0  501  502  0.00000000000E+00 -0.00000000000E+00 -0.58904257986E+02  0.58904257986E+02  0.00000000000E+00 0.  1.
        -13    1    1    2    0    0 -0.61957379213E+02 -0.47873865675E+02  0.22567378640E+03  0.23887087074E+03  0.10566000000E+00 0.  1.
         13    1    1    2    0    0  0.28363955839E+02 -0.59246372175E+02  0.11844108888E+03  0.13543614475E+03  0.10566000000E+00 0. -1.
          4    1    1    2  501    0  0.33593423374E+02  0.10712023785E+03  0.28114802206E+02  0.11573117797E+03  0.00000000000E+00 0.  1.
</event>
<event>
 5    1  0.4419198E-005  0.3727095E+03  0.7818608E-02  0.9965007E-01
         21   -1    0    0  501  502  0.00000000000E+00  0.00000000000E+00  0.33563835509E+03  0.33563835509E+03  0.00000000000E+00 0.  1.
          4   -1    0    0  502    0 -0.00000000000E+00 -0.00000000000E+00 -0.11770504517E+04  0.11770504517E+04  0.00000000000E+00 0.  1.
        -13    1    1    2    0    0  0.13634866382E+03  0.24780458765E+03 -0.22708469308E+03  0.36271964488E+03  0.10566000000E+00 0.  1.
         13    1    1    2    0    0  0.22196450577E+03  0.17165075417E+02 -0.66516871955E+03  0.70143589747E+03  0.10566000000E+00 0. -1.
          4    1    1    2  501    0 -0.35831316959E+03 -0.26496966307E+03  0.50841316056E+02  0.44853326439E+03  0.00000000000E+00 0.  1.
</event>
<event>
 5    1  0.4419198E-005  0.4608689E+02  0.7818608E-02  0.1308596E+00
         21   -1    0    0  501  502  0.00000000000E+00  0.00000000000E+00  0.22435383286E+03  0.22435383286E+03  0.00000000000E+00 0.  1.
         -4   -1    0    0    0  501 -0.00000000000E+00 -0.00000000000E+00 -0.21576129951E+02  0.21576129951E+02  0.00000000000E+00 0. -1.
        -13    1    1    2    0    0 -0.23798008709E+02  0.41731897891E+02  0.60405073042E+02  0.77179534420E+02  0.10566000000E+00 0.  1.
         13    1    1    2    0    0  0.55674518367E+00 -0.47217334796E+02  0.35060830657E+02  0.58813771183E+02  0.10566000000E+00 0. -1.
         -4    1    1    2    0  502  0.23241263525E+02  0.54854369051E+01  0.10731179921E+03  0.10993665721E+03  0.00000000000E+00 0. -1.
</event>
<event>
 5    1  0.4419198E-005  0.1059127E+03  0.7818608E-02  0.1155127E+00
         -4   -1    0    0    0  501 -0.00000000000E+00  0.00000000000E+00  0.29272299299E+02  0.29272299299E+02  0.00000000000E+00 0. -1.
         21   -1    0    0  501  502  0.00000000000E+00 -0.00000000000E+00 -0.78686291174E+03  0.78686291174E+03  0.00000000000E+00 0.  1.
        -13    1    1    2    0    0  0.12568990875E+03  0.72569401353E+00 -0.28357992958E+03  0.31018714903E+03  0.10566000000E+00 0.  1.
         13    1    1    2    0    0 -0.85075002710E+02  0.51197267209E+02 -0.18991983748E+03  0.21430929072E+03  0.10566000000E+00 0. -1.
         -4    1    1    2    0  502 -0.40614906044E+02 -0.51922961222E+02 -0.28409084538E+03  0.29163877129E+03  0.00000000000E+00 0. -1.
</event>
<event>
 5    1  0.4419198E-005  0.1155734E+03  0.7818608E-02  0.1141084E+00
          4   -1    0    0  502    0 -0.00000000000E+00  0.00000000000E+00  0.39339836912E+02  0.39339836912E+02  0.00000000000E+00 0.  1.
         21   -1    0    0  501  502  0.00000000000E+00 -0.00000000000E+00 -0.59338569514E+03  0.59338569514E+03  0.00000000000E+00 0. -1.
        -13    1    1    2    0    0  0.34371247042E+02  0.10620359363E+03 -0.15256982457E+03  0.18904536084E+03  0.10566000000E+00 0.  1.
         13    1    1    2    0    0  0.11235987027E+02 -0.12556334511E+03 -0.20173057683E+03  0.23788156261E+03  0.10566000000E+00 0. -1.
          4    1    1    2  501    0 -0.45607234069E+02  0.19359751483E+02 -0.19974545684E+03  0.20579860861E+03  0.00000000000E+00 0.  1.
</event>
<event>
 5    1  0.4419198E-005  0.4933616E+03  0.7818608E-02  0.9964086E-01
         21   -1    0    0  501  502  0.00000000000E+00  0.00000000000E+00  0.50307641680E+03  0.50307641680E+03  0.00000000000E+00 0. -1.
         -4   -1    0    0    0  501 -0.00000000000E+00 -0.00000000000E+00 -0.73287614677E+03  0.73287614677E+03  0.00000000000E+00 0. -1.
        -13    1    1    2    0    0  0.89379056935E+02  0.35780861316E+02 -0.21291060981E+03  0.23366605399E+03  0.10566000000E+00 0.  1.
         13    1    1    2    0    0 -0.25560766175E+03 -0.45811107032E+03  0.99005584579E+02  0.53385685950E+03  0.10566000000E+00 0. -1.
         -4    1    1    2    0  502  0.16622860482E+03  0.42233020900E+03 -0.11589470474E+03  0.46842965009E+03  0.00000000000E+00 0. -1.
</event>
<event>
 5    1  0.4419198E-005  0.9457727E+02  0.7818608E-02  0.1173853E+00
         21   -1    0    0  501  502  0.00000000000E+00  0.00000000000E+00  0.45694574054E+02  0.45694574054E+02  0.00000000000E+00 0.  1.
          4   -1    0    0  502    0 -0.00000000000E+00 -0.00000000000E+00 -0.63882045130E+03  0.63882045130E+03  0.00000000000E+00 0.  1.
        -13    1    1    2    0    0 -0.89732121995E+02  0.15393875651E+02 -0.43934252703E+03  0.44867660107E+03  0.10566000000E+00 0.  1.
         13    1    1    2    0    0  0.10536096320E+03 -0.99442321611E+01 -0.17765635950E+03  0.20678881390E+03  0.10566000000E+00 0. -1.
          4    1    1    2  501    0 -0.15628841209E+02 -0.54496434902E+01  0.23873009279E+02  0.29049610389E+02  0.00000000000E+00 0.  1.
</event>
<event>
 5    1  0.4419198E-005  0.3887944E+03  0.7818608E-02  0.9960931E-01
         21   -1    0    0  501  502  0.00000000000E+00  0.00000000000E+00  0.43945640870E+03  0.43945640870E+03  0.00000000000E+00 0. -1.
         -4   -1    0    0    0  501 -0.00000000000E+00 -0.00000000000E+00 -0.85674844441E+03  0.85674844441E+03  0.00000000000E+00 0. -1.
        -13    1    1    2    0    0  0.18048316656E+03 -0.83306789827E+02 -0.28662922612E+01  0.19880246839E+03  0.10566000000E+00 0.  1.
         13    1    1    2    0    0 -0.42180475000E+03 -0.92451095945E+01  0.17271657598E+03  0.45589005906E+03  0.10566000000E+00 0. -1.
         -4    1    1    2    0  502  0.24132158344E+03  0.92551899422E+02 -0.58714231942E+03  0.64151232566E+03  0.00000000000E+00 0. -1.
</event>
<event>
 5    1  0.4419198E-005  0.2033041E+03  0.7818608E-02  0.1057894E+00
         -4   -1    0    0    0  501 -0.00000000000E+00  0.00000000000E+00  0.17452309480E+03  0.17452309480E+03  0.00000000000E+00 0. -1.
         21   -1    0    0  501  502  0.00000000000E+00 -0.00000000000E+00 -0.32496044080E+03  0.32496044080E+03  0.00000000000E+00 0.  1.
        -13    1    1    2    0    0  0.15829089786E+03 -0.93897257999E+02 -0.17902003407E+03  0.25675063226E+03  0.10566000000E+00 0.  1.
         13    1    1    2    0    0 -0.17694291195E+03  0.11563542905E+03  0.32365430152E+02  0.21384077902E+03  0.10566000000E+00 0. -1.
         -4    1    1    2    0  502  0.18652014087E+02 -0.21738171049E+02 -0.37827420859E+01  0.28892124320E+02  0.00000000000E+00 0. -1.
</event>
<event>
 5    1  0.4419198E-005  0.6341299E+03  0.7818608E-02  0.9224434E-01
          4   -1    0    0  502    0 -0.00000000000E+00  0.00000000000E+00  0.18430116493E+04  0.18430116493E+04  0.00000000000E+00 0.  1.
         21   -1    0    0  501  502  0.00000000000E+00 -0.00000000000E+00 -0.55193479313E+03  0.55193479313E+03  0.00000000000E+00 0. -1.
        -13    1    1    2    0    0 -0.52197547042E+03 -0.34649482413E+03  0.64517022725E+03  0.89931178585E+03  0.10566000000E+00 0.  1.
         13    1    1    2    0    0  0.73970437767E+03 -0.10460585021E+03  0.65663514938E+03  0.99462288371E+03  0.10566000000E+00 0. -1.
          4    1    1    2  501    0 -0.21772890724E+03  0.45110067434E+03 -0.10728520430E+02  0.50101177290E+03  0.00000000000E+00 0.  1.
</event>
<event>
 5    1  0.4419198E-005  0.3629648E+03  0.7818608E-02  0.9987062E-01
         21   -1    0    0  501  502  0.00000000000E+00  0.00000000000E+00  0.31089494958E+03  0.31089494958E+03  0.00000000000E+00 0. -1.
         -4   -1    0    0    0  501 -0.00000000000E+00 -0.00000000000E+00 -0.25369856489E+04  0.25369856489E+04  0.00000000000E+00 0. -1.
        -13    1    1    2    0    0  0.43078624646E+03 -0.16658150150E+03 -0.14289338305E+04  0.15017250380E+04  0.10566000000E+00 0.  1.
         13    1    1    2    0    0  0.14941493116E+03  0.22867421987E+03  0.87109891528E+02  0.28671390768E+03  0.10566000000E+00 0. -1.
         -4    1    1    2    0  502 -0.58020117762E+03 -0.62092718370E+02 -0.88426676044E+03  0.10594416529E+04  0.00000000000E+00 0. -1.
</event>
<event>
 5    1  0.4419198E-005  0.9962867E+02  0.7818608E-02  0.1165171E+00
         21   -1    0    0  501  502  0.00000000000E+00  0.00000000000E+00  0.84366468359E+03  0.84366468359E+03  0.00000000000E+00 0. -1.
         -4   -1    0    0    0  501 -0.00000000000E+00 -0.00000000000E+00 -0.53082280499E+02  0.53082280499E+02  0.00000000000E+00 0. -1.
        -13    1    1    2    0    0  0.55862464826E+02  0.11888571514E+03  0.21239834786E+03  0.24973485455E+03  0.10566000000E+00 0.  1.
         13    1    1    2    0    0 -0.38644356761E+02 -0.82562699859E+02  0.28001252578E+02  0.95362817846E+02  0.10566000000E+00 0. -1.
         -4    1    1    2    0  502 -0.17218108065E+02 -0.36323015284E+02  0.55018280265E+03  0.55164929169E+03  0.00000000000E+00 0. -1.
</event>
<event>
 5    1  0.4419198E-005  0.9865745E+02  0.7818608E-02  0.1166796E+00
         -4   -1    0    0    0  501 -0.00000000000E+00  0.00000000000E+00  0.12532024669E+03  0.12532024669E+03  0.00000000000E+00 0. -1.
         21   -1    0    0  501  502  0.00000000000E+00 -0.00000000000E+00 -0.29187276860E+03  0.29187276860E+03  0.00000000000E+00 0.  1.
        -13    1    1    2    0    0 -0.33208919140E+02  0.10171629821E+03 -0.23521827235E+03  0.25841185043E+03  0.10566000000E+00 0.  1.
         13    1    1    2    0    0 -0.20106672789E+01 -0.98345116632E+02  0.73877092501E+02  0.12301886322E+03  0.10566000000E+00 0. -1.
         -4    1    1    2    0  502  0.35219586419E+02 -0.33711815821E+01 -0.52113420610E+01  0.35762301643E+02  0.00000000000E+00 0. -1.
</event>
<event>
 5    1  0.8648291E-005  0.3636144E+03  0.7818608E-02  0.1019698E+00
         -4   -1    0    0    0  501 -0.00000000000E+00  0.00000000000E+00  0.25137049043E+04  0.25137049043E+04  0.00000000000E+00 0. -1.
         21   -1    0    0  501  502  0.00000000000E+00 -0.00000000000E+00 -0.13346521380E+03  0.13346521380E+03  0.00000000000E+00 0. -1.
        -13    1    1    2    0    0 -0.94550252342E+02  0.62687021905E+02  0.51670622609E+03  0.52901299434E+03  0.10566000000E+00 0.  1.
         13    1    1    2    0    0 -0.25178910701E+03 -0.20220939948E+03  0.16635172019E+04  0.16945724794E+04  0.10566000000E+00 0. -1.
         -4    1    1    2    0  502  0.34633935935E+03  0.13952237758E+03  0.20001626248E+03  0.42358464436E+03  0.00000000000E+00 0. -1.
</event>
<event>
 5    1  0.4419198E-005  0.3976445E+03  0.7818608E-02  0.9770656E-01
         21   -1    0    0  501  502  0.00000000000E+00  0.00000000000E+00  0.41106247886E+03  0.41106247886E+03  0.00000000000E+00 0.  1.
          4   -1    0    0  502    0 -0.00000000000E+00 -0.00000000000E+00 -0.12482635429E+04  0.12482635429E+04  0.00000000000E+00 0.  1.
        -13    1    1    2    0    0  0.35892053735E+03  0.18162608698E+03 -0.60924161767E+03  0.73005982459E+03  0.10566000000E+00 0.  1.
         13    1    1    2    0    0 -0.26389707752E+03  0.23404089318E+03 -0.33839940719E+03  0.48880566399E+03  0.10566000000E+00 0. -1.
          4    1    1    2  501    0 -0.95023459836E+02 -0.41566698017E+03  0.11043996084E+03  0.44046053316E+03  0.00000000000E+00 0.  1.
</event>
<event>
 5    1  0.4419198E-005  0.4253735E+03  0.7818608E-02  0.9780925E-01
         -4   -1    0    0    0  501 -0.00000000000E+00  0.00000000000E+00  0.71193599342E+03  0.71193599342E+03  0.00000000000E+00 0. -1.
         21   -1    0    0  501  502  0.00000000000E+00 -0.00000000000E+00 -0.50771721321E+03  0.50771721321E+03  0.00000000000E+00 0. -1.
        -13    1    1    2    0    0 -0.26074825232E+03  0.96902359013E+02 -0.22145892788E+02  0.27905227109E+03  0.10566000000E+00 0.  1.
         13    1    1    2    0    0 -0.23594204882E+03 -0.29491054543E+03  0.77303522162E+02  0.38550839927E+03  0.10566000000E+00 0. -1.
         -4    1    1    2    0  502  0.49669030113E+03  0.19800818642E+03  0.14906115084E+03  0.55509253627E+03  0.00000000000E+00 0. -1.
</event>
<event>
 5    1  0.4419198E-005  0.4520287E+03  0.7818608E-02  0.9638875E-01
         -4   -1    0    0    0  501 -0.00000000000E+00  0.00000000000E+00  0.26103397751E+04  0.26103397751E+04  0.00000000000E+00 0. -1.
         21   -1    0    0  501  502  0.00000000000E+00 -0.00000000000E+00 -0.26876367734E+03  0.26876367734E+03  0.00000000000E+00 0. -1.
        -13    1    1    2    0    0 -0.49092920853E+03 -0.46432854289E+02  0.15577413121E+04  0.16339294674E+04  0.10566000000E+00 0.  1.
         13    1    1    2    0    0  0.11733323077E+03 -0.36039807433E+03  0.49017484348E+03  0.61961701668E+03  0.10566000000E+00 0. -1.
         -4    1    1    2    0  502  0.37359597775E+03  0.40683092862E+03  0.29365994220E+03  0.62555696841E+03  0.00000000000E+00 0. -1.
</event>
<event>
 5    1  0.4419198E-005  0.5980362E+02  0.7818608E-02  0.1288913E+00
         21   -1    0    0  501  502  0.00000000000E+00  0.00000000000E+00  0.93022165311E+02  0.93022165311E+02  0.00000000000E+00 0. -1.
          4   -1    0    0  502    0 -0.00000000000E+00 -0.00000000000E+00 -0.13965607464E+03  0.13965607464E+03  0.00000000000E+00 0.  1.
        -13    1    1    2    0    0 -0.66597738386E+02 -0.51295514073E+02 -0.89286500311E+02  0.12263188339E+03  0.10566000000E+00 0.  1.
         13    1    1    2    0    0  0.24404180385E+02  0.18992156701E+02  0.47507635441E+02  0.56685559234E+02  0.10566000000E+00 0. -1.
          4    1    1    2  501    0  0.42193558000E+02  0.32303357372E+02 -0.48550444538E+01  0.53360797322E+02  0.00000000000E+00 0.  1.
</event>
<event>
 5    1  0.4419198E-005  0.3788833E+03  0.7818608E-02  0.1003780E+00
         21   -1    0    0  501  502  0.00000000000E+00  0.00000000000E+00  0.18382261859E+03  0.18382261859E+03  0.00000000000E+00 0.  1.
          4   -1    0    0  502    0 -0.00000000000E+00 -0.00000000000E+00 -0.26083001577E+04  0.26083001577E+04  0.00000000000E+00 0.  1.
        -13    1    1    2    0    0 -0.11956566859E+02 -0.24845805528E+03 -0.14390229827E+04  0.14603634892E+04  0.10566000000E+00 0.  1.
         13    1    1    2    0    0  0.77815346873E+02 -0.14770914445E+03 -0.90741171654E+03  0.92264253860E+03  0.10566000000E+00 0. -1.
          4    1    1    2  501    0 -0.65858780014E+02  0.39616719974E+03 -0.78042839897E+02  0.40911674851E+03  0.00000000000E+00 0.  1.
</event>
<event>
 5    1  0.6112397E-005  0.4086176E+03  0.7818608E-02  0.1040174E+00
         21   -1    0    0  501  502  0.00000000000E+00  0.00000000000E+00  0.28651786541E+03  0.28651786541E+03  0.00000000000E+00 0. -1.
         -4   -1    0    0    0  501 -0.00000000000E+00 -0.00000000000E+00 -0.97428083349E+03  0.97428083349E+03  0.00000000000E+00 0. -1.
        -13    1    1    2    0    0 -0.14091942348E+02 -0.40045648292E+02 -0.62853911613E+02  0.75847624586E+02  0.10566000000E+00 0.  1.
         13    1    1    2    0    0 -0.40220316566E+03 -0.44837619842E+02  0.28349366588E+02  0.40568645081E+03  0.10566000000E+00 0. -1.
         -4    1    1    2    0  502  0.41629510801E+03  0.84883268134E+02 -0.65325842305E+03  0.77926462351E+03  0.00000000000E+00 0. -1.
</event>
<event>
 5    1  0.4419198E-005  0.3379379E+03  0.7818608E-02  0.9939685E-01
         -4   -1    0    0    0  501 -0.00000000000E+00  0.00000000000E+00  0.85288574607E+03  0.85288574607E+03  0.00000000000E+00 0. -1.
         21   -1    0    0  501  502  0.00000000000E+00 -0.00000000000E+00 -0.74583156699E+03  0.74583156699E+03  0.00000000000E+00 0. -1.
        -13    1    1    2    0    0 -0.29566396585E+03  0.13438460260E+03 -0.18324001263E+03  0.37289853246E+03  0.10566000000E+00 0.  1.
         13    1    1    2    0    0  0.27784964395E+03  0.21632008202E+03  0.63984651946E+03  0.73034127787E+03  0.10566000000E+00 0. -1.
         -4    1    1    2    0  502  0.17814321904E+02 -0.35070468462E+03 -0.34955232775E+03  0.49547750273E+03  0.00000000000E+00 0. -1.
</event>
<event>
 5    1  0.4419198E-005  0.5868494E+03  0.7818608E-02  0.9305584E-01
         21   -1    0    0  501  502  0.00000000000E+00  0.00000000000E+00  0.15759221691E+03  0.15759221691E+03  0.00000000000E+00 0. -1.
          4   -1    0    0  502    0 -0.00000000000E+00 -0.00000000000E+00 -0.36123073271E+04  0.36123073271E+04  0.00000000000E+00 0.  1.
        -13    1    1    2    0    0 -0.19277894728E+03 -0.66454397583E+03 -0.16311587304E+04  0.17718524863E+04  0.10566000000E+00 0.  1.
         13    1    1    2    0    0  0.23948659579E+03  0.47195501514E+03 -0.16560633202E+04  0.17385744441E+04  0.10566000000E+00 0. -1.
          4    1    1    2  501    0 -0.46707648506E+02  0.19258896069E+03 -0.16749305958E+03  0.25947261361E+03  0.00000000000E+00 0.  1.
</event>
<event>
 5    1  0.4419198E-005  0.4515977E+03  0.7818608E-02  0.9692445E-01
         -4   -1    0    0    0  501 -0.00000000000E+00  0.00000000000E+00  0.42079860804E+04  0.42079860804E+04  0.00000000000E+00 0. -1.
         21   -1    0    0  501  502  0.00000000000E+00 -0.00000000000E+00 -0.11621271805E+03  0.11621271805E+03  0.00000000000E+00 0. -1.
        -13    1    1    2    0    0 -0.44043765976E+02  0.31257545134E+03  0.15100815809E+04  0.15427215103E+04  0.10566000000E+00 0.  1.
         13    1    1    2    0    0  0.40938156520E+03  0.27356648671E+02  0.18557065330E+04  0.19005231911E+04  0.10566000000E+00 0. -1.
         -4    1    1    2    0  502 -0.36533779923E+03 -0.33993210001E+03  0.72598524841E+03  0.88095409703E+03  0.00000000000E+00 0. -1.
</event>
<event>
 5    1  0.4419198E-005  0.3382102E+03  0.7818608E-02  0.9926755E-01
         21   -1    0    0  501  502  0.00000000000E+00  0.00000000000E+00  0.22084424047E+03  0.22084424047E+03  0.00000000000E+00 0.  1.
         -4   -1    0    0    0  501 -0.00000000000E+00 -0.00000000000E+00 -0.23373040542E+04  0.23373040542E+04  0.00000000000E+00 0. -1.
        -13    1    1    2    0    0  0.22677563013E+03  0.10714172719E+03 -0.65643448418E+02  0.25925973388E+03  0.10566000000E+00 0.  1.
         13    1    1    2    0    0 -0.37969517587E+03 -0.23442402727E+03 -0.30206739498E+03  0.53885784156E+03  0.10566000000E+00 0. -1.
         -4    1    1    2    0  502  0.15291954574E+03  0.12728230008E+03 -0.17487489703E+04  0.17600307192E+04  0.00000000000E+00 0. -1.
</event>
<event>
 5    1  0.4419198E-005  0.4995325E+03  0.7818608E-02  0.9680376E-01
          4   -1    0    0  502    0 -0.00000000000E+00  0.00000000000E+00  0.21333965863E+04  0.21333965863E+04  0.00000000000E+00 0.  1.
         21   -1    0    0  501  502  0.00000000000E+00 -0.00000000000E+00 -0.22115110584E+03  0.22115110584E+03  0.00000000000E+00 0.  1.
        -13    1    1    2    0    0  0.89559648286E+02 -0.39218407424E+03  0.57290462466E+03  0.70003499827E+03  0.10566000000E+00 0.  1.
         13    1    1    2    0    0  0.19365259891E+03 -0.14724123077E+03  0.81553077241E+03  0.85104157420E+03  0.10566000000E+00 0. -1.
          4    1    1    2  501    0 -0.28321224720E+03  0.53942530501E+03  0.52381008335E+03  0.80347111963E+03  0.00000000000E+00 0.  1.
</event>
<event>
 5    1  0.4419198E-005  0.4722510E+03  0.7818608E-02  0.1000808E+00
         -4   -1    0    0    0  501 -0.00000000000E+00  0.00000000000E+00  0.37727166618E+03  0.37727166618E+03  0.00000000000E+00 0. -1.
         21   -1    0    0  501  502  0.00000000000E+00 -0.00000000000E+00 -0.82168805932E+03  0.82168805932E+03  0.00000000000E+00 0. -1.
        -13    1    1    2    0    0 -0.46911382992E+02  0.82603294355E+02  0.14237563695E+02  0.96055720686E+02  0.10566000000E+00 0.  1.
         13    1    1    2    0    0 -0.43689305036E+03 -0.11823233305E+03 -0.26774765206E+02  0.45339973671E+03  0.10566000000E+00 0. -1.
         -4    1    1    2    0  502  0.48380443335E+03  0.35629038695E+02 -0.43187919163E+03  0.64950426811E+03  0.00000000000E+00 0. -1.
</event>
<event>
 5    1  0.4419198E-005  0.4900202E+03  0.7818608E-02  0.9611310E-01
         -4   -1    0    0    0  501 -0.00000000000E+00  0.00000000000E+00  0.69144135176E+03  0.69144135176E+03  0.00000000000E+00 0. -1.
         21   -1    0    0  501  502  0.00000000000E+00 -0.00000000000E+00 -0.76502113306E+03  0.76502113306E+03  0.00000000000E+00 0.  1.
        -13    1    1    2    0    0  0.32167335767E+03  0.67627413559E+02 -0.21800296737E+03  0.39442682597E+03  0.10566000000E+00 0.  1.
         13    1    1    2    0    0  0.25653070318E+03 -0.23681771852E+03  0.27640574052E+03  0.44529852688E+03  0.10566000000E+00 0. -1.
         -4    1    1    2    0  502 -0.57820406085E+03  0.16919030496E+03 -0.13198255445E+03  0.61673713197E+03  0.00000000000E+00 0. -1.
</event>
<event>
 5    1  0.4419198E-005  0.2048369E+03  0.7818608E-02  0.1056870E+00
         21   -1    0    0  501  502  0.00000000000E+00  0.00000000000E+00  0.29333045571E+03  0.29333045571E+03  0.00000000000E+00 0. -1.
         -4   -1    0    0    0  501 -0.00000000000E+00 -0.00000000000E+00 -0.47212559795E+03  0.47212559795E+03  0.00000000000E+00 0. -1.
        -13    1    1    2    0    0 -0.15157947795E+03  0.12264011611E+03 -0.12690253542E+03  0.23263963737E+03  0.10566000000E+00 0.  1.
         13    1    1    2    0    0  0.23089752111E+03 -0.10658898772E+03  0.16376189849E+03  0.30247784732E+03  0.10566000000E+00 0. -1.
         -4    1    1    2    0  502 -0.79318043159E+02 -0.16051128389E+02 -0.21565450532E+03  0.23033856898E+03  0.00000000000E+00 0. -1.
</event>
<event>
 5    1  0.4419198E-005  0.4833285E+03  0.7818608E-02  0.9515280E-01
         21   -1    0    0  501  502  0.00000000000E+00  0.00000000000E+00  0.79066134161E+03  0.79066134161E+03  0.00000000000E+00 0. -1.
         -4   -1    0    0    0  501 -0.00000000000E+00 -0.00000000000E+00 -0.93199960933E+03  0.93199960933E+03  0.00000000000E+00 0. -1.
        -13    1    1    2    0    0  0.43906557436E+03  0.16288524063E+03 -0.35094679911E+03  0.58521265124E+03  0.10566000000E+00 0.  1.
         13    1    1    2    0    0 -0.35064221992E+03 -0.55093049659E+03  0.31599251991E+03  0.72548305443E+03  0.10566000000E+00 0. -1.
         -4    1    1    2    0  502 -0.88423354445E+02  0.38804525597E+03 -0.10638398852E+03  0.41196524526E+03  0.00000000000E+00 0. -1.
</event>
<event>
 5    1  0.4419198E-005  0.2207186E+03  0.7818608E-02  0.1046791E+00
          4   -1    0    0  502    0 -0.00000000000E+00  0.00000000000E+00  0.32273325250E+03  0.32273325250E+03  0.00000000000E+00 0.  1.
         21   -1    0    0  501  502  0.00000000000E+00 -0.00000000000E+00 -0.17977571548E+03  0.17977571548E+03  0.00000000000E+00 0. -1.
        -13    1    1    2    0    0  0.13733593920E+03  0.17941272293E+03  0.68513012897E+02  0.23610194715E+03  0.10566000000E+00 0.  1.
         13    1    1    2    0    0 -0.14934743464E+03 -0.15719038951E+03  0.92112590937E+02  0.23558059207E+03  0.10566000000E+00 0. -1.
          4    1    1    2  501    0  0.12011495441E+02 -0.22222333422E+02 -0.17668066810E+02  0.30826428763E+02  0.00000000000E+00 0.  1.
</event>
<event>
 5    1  0.4419198E-005  0.1198556E+03  0.7818608E-02  0.1135334E+00
         21   -1    0    0  501  502  0.00000000000E+00  0.00000000000E+00  0.31636263128E+03  0.31636263128E+03  0.00000000000E+00 0.  1.
          4   -1    0    0  502    0 -0.00000000000E+00 -0.00000000000E+00 -0.46928530766E+03  0.46928530766E+03  0.00000000000E+00 0.  1.
        -13    1    1    2    0    0 -0.11311317784E+03  0.36401676485E+01 -0.34616518283E+03  0.36419525915E+03  0.10566000000E+00 0.  1.
         13    1    1    2    0    0  0.17936954528E+03 -0.58853440311E+02 -0.21537951739E+02  0.19000277824E+03  0.10566000000E+00 0. -1.
          4    1    1    2  501    0 -0.66256367439E+02  0.55213272662E+02  0.21478045819E+03  0.23144990154E+03  0.00000000000E+00 0.  1.
</event>
<event>
 5    1  0.4419198E-005  0.4156399E+03  0.7818608E-02  0.9737622E-01
         21   -1    0    0  501  502  0.00000000000E+00  0.00000000000E+00  0.48097738128E+03  0.48097738128E+03  0.00000000000E+00 0.  1.
          4   -1    0    0  502    0 -0.00000000000E+00 -0.00000000000E+00 -0.10433790941E+04  0.10433790941E+04  0.00000000000E+00 0.  1.
        -13    1    1    2    0    0 -0.49032295152E+02 -0.14919334737E+03 -0.60175679936E+03  0.62191163167E+03  0.10566000000E+00 0.  1.
         13    1    1    2    0    0 -0.25697833994E+03 -0.23183678926E+03 -0.15149042703E+03  0.37780355305E+03  0.10566000000E+00 0. -1.
          4    1    1    2  501    0  0.30601063509E+03  0.38103013663E+03  0.19084551357E+03  0.52464129065E+03  0.00000000000E+00 0.  1.
</event>
<event>
 5    1  0.4419198E-005  0.2433107E+03  0.7818608E-02  0.1033919E+00
         -4   -1    0    0    0  501 -0.00000000000E+00  0.00000000000E+00  0.21890247272E+04  0.21890247272E+04  0.00000000000E+00 0. -1.
         21   -1    0    0  501  502  0.00000000000E+00 -0.00000000000E+00 -0.42750034830E+02  0.42750034830E+02  0.00000000000E+00 0. -1.
        -13    1    1    2    0    0  0.20001372397E+03  0.37574820339E+02  0.60927781189E+03  0.64236813443E+03  0.10566000000E+00 0.  1.
         13    1    1    2    0    0 -0.27385873440E+03 -0.24775029081E+02  0.14441009735E+04  0.14700476323E+04  0.10566000000E+00 0. -1.
         -4    1    1    2    0  502  0.73845010428E+02 -0.12799791258E+02  0.92895907001E+02  0.11935899530E+03  0.00000000000E+00 0. -1.
</event>
<event>
 5    1  0.4419198E-005  0.4746545E+03  0.7818608E-02  0.9671206E-01
         -4   -1    0    0    0  501 -0.00000000000E+00  0.00000000000E+00  0.44581774694E+03  0.44581774694E+03  0.00000000000E+00 0. -1.
         21   -1    0    0  501  502  0.00000000000E+00 -0.00000000000E+00 -0.10226219486E+04  0.10226219486E+04  0.00000000000E+00 0. -1.
        -13    1    1    2    0    0 -0.18384146234E+03 -0.22790711396E+03 -0.13616744607E+03  0.32292556480E+03  0.10566000000E+00 0.  1.
         13    1    1    2    0    0  0.46304260746E+03 -0.17831280745E+03 -0.18490383087E+02  0.49653380455E+03  0.10566000000E+00 0. -1.
         -4    1    1    2    0  502 -0.27920114512E+03  0.40621992141E+03 -0.42214637254E+03  0.64898032623E+03  0.00000000000E+00 0. -1.
</event>
<event>
 5    1  0.4419198E-005  0.4492014E+03  0.7818608E-02  0.9997426E-01
         21   -1    0    0  501  502  0.00000000000E+00  0.00000000000E+00  0.45860992613E+03  0.45860992613E+03  0.00000000000E+00 0.  1.
          4   -1    0    0  502    0 -0.00000000000E+00 -0.00000000000E+00 -0.77082500961E+03  0.77082500961E+03  0.00000000000E+00 0.  1.
        -13    1    1    2    0    0 -0.18801862539E+03 -0.40710728617E+03  0.15095341326E+03  0.47315355867E+03  0.10566000000E+00 0.  1.
         13    1    1    2    0    0 -0.10317936122E+03  0.49176835992E+02 -0.18510830016E+03  0.21755329401E+03  0.10566000000E+00 0. -1.
          4    1    1    2  501    0  0.29119798661E+03  0.35793045018E+03 -0.27806019658E+03  0.53872808307E+03  0.00000000000E+00 0.  1.
</event>
<event>
 5    1  0.4419198E-005  0.3081866E+03  0.7818608E-02  0.1003982E+00
         -4   -1    0    0    0  501 -0.00000000000E+00  0.00000000000E+00  0.17533118677E+04  0.17533118677E+04  0.00000000000E+00 0. -1.
         21   -1    0    0  501  502  0.00000000000E+00 -0.00000000000E+00 -0.16887005086E+03  0.16887005086E+03  0.00000000000E+00 0. -1.
        -13    1    1    2    0    0  0.67830301276E+02  0.24767158695E+03  0.61910441948E+03  0.67024805717E+03  0.10566000000E+00 0.  1.
         13    1    1    2    0    0 -0.19761864794E+03 -0.33157641275E+03  0.10179489879E+04  0.10886763526E+04  0.10566000000E+00 0. -1.
         -4    1    1    2    0  502  0.12978834667E+03  0.83904825799E+02 -0.52611590557E+02  0.16325750881E+03  0.00000000000E+00 0. -1.
</event>
<event>
 5    1  0.4419198E-005  0.1134943E+03  0.7818608E-02  0.1143976E+00
          4   -1    0    0  502    0 -0.00000000000E+00  0.00000000000E+00  0.11715187953E+03  0.11715187953E+03  0.00000000000E+00 0.  1.
         21   -1    0    0  501  502  0.00000000000E+00 -0.00000000000E+00 -0.16688911333E+03  0.16688911333E+03  0.00000000000E+00 0.  1.
        -13    1    1    2    0    0 -0.60298395787E+02 -0.10199654648E+03  0.54137625583E+01  0.11861075844E+03  0.10566000000E+00 0.  1.
         13    1    1    2    0    0  0.59131020698E+02  0.91286400745E+02  0.48016533751E+00  0.10876546461E+03  0.10566000000E+00 0. -1.
          4    1    1    2  501    0  0.11673750888E+01  0.10710145737E+02 -0.55631161688E+02  0.56664769805E+02  0.00000000000E+00 0.  1.
</event>
<event>
 5    1  0.4419198E-005  0.5052839E+03  0.7818608E-02  0.9476617E-01
         21   -1    0    0  501  502  0.00000000000E+00  0.00000000000E+00  0.30117914056E+03  0.30117914056E+03  0.00000000000E+00 0. -1.
          4   -1    0    0  502    0 -0.00000000000E+00 -0.00000000000E+00 -0.25587499838E+04  0.25587499838E+04  0.00000000000E+00 0.  1.
        -13    1    1    2    0    0 -0.36338073463E+02  0.55189875041E+03 -0.13086050574E+04  0.14206899358E+04  0.10566000000E+00 0.  1.
         13    1    1    2    0    0 -0.43879467656E+03 -0.26911296699E+03 -0.34100847605E+03  0.61745392466E+03  0.10566000000E+00 0. -1.
          4    1    1    2  501    0  0.47513275002E+03 -0.28278578342E+03 -0.60795730980E+03  0.82178526391E+03  0.00000000000E+00 0.  1.
</event>
<event>
 5    1  0.4419198E-005  0.3412590E+03  0.7818608E-02  0.1010164E+00
          4   -1    0    0  502    0 -0.00000000000E+00  0.00000000000E+00  0.73375756032E+03  0.73375756032E+03  0.00000000000E+00 0.  1.
         21   -1    0    0  501  502  0.00000000000E+00 -0.00000000000E+00 -0.57787821542E+03  0.57787821542E+03  0.00000000000E+00 0.  1.
        -13    1    1    2    0    0  0.32547515401E+03 -0.24867804218E+02 -0.35323961048E+03  0.48096851991E+03  0.10566000000E+00 0.  1.
         13    1    1    2    0    0  0.95105220037E+02 -0.15971259613E+03  0.21969251808E+03  0.28778104508E+03  0.10566000000E+00 0. -1.
          4    1    1    2  501    0 -0.42058037404E+03  0.18458040035E+03  0.28942643730E+03  0.54288621076E+03  0.00000000000E+00 0.  1.
</event>
<event>
 5    1  0.4419198E-005  0.4989972E+03  0.7818608E-02  0.9582236E-01
         -4   -1    0    0    0  501 -0.00000000000E+00  0.00000000000E+00  0.42922149324E+03  0.42922149324E+03  0.00000000000E+00 0. -1.
         21   -1    0    0  501  502  0.00000000000E+00 -0.00000000000E+00 -0.11673271693E+04  0.11673271693E+04  0.00000000000E+00 0. -1.
        -13    1    1    2    0    0  0.34355765011E+03 -0.33901776537E+02 -0.19104398801E+03  0.39456178974E+03  0.10566000000E+00 0.  1.
         13    1    1    2    0    0  0.21022315571E+03 -0.26234604581E+03  0.44617313179E+02  0.33913115273E+03  0.10566000000E+00 0. -1.
         -4    1    1    2    0  502 -0.55378080583E+03  0.29624782235E+03 -0.59167900121E+03  0.86285572005E+03  0.00000000000E+00 0. -1.
</event>
<event>
 5    1  0.4419198E-005  0.5276334E+03  0.7818608E-02  0.9535581E-01
         21   -1    0    0  501  502  0.00000000000E+00  0.00000000000E+00  0.11450059405E+04  0.11450059405E+04  0.00000000000E+00 0. -1.
         -4   -1    0    0    0  501 -0.00000000000E+00 -0.00000000000E+00 -0.78330468786E+03  0.78330468786E+03  0.00000000000E+00 0. -1.
        -13    1    1    2    0    0  0.11200921705E+03  0.32655691335E+03 -0.43840635101E+03  0.55801937434E+03  0.10566000000E+00 0.  1.
         13    1    1    2    0    0  0.21820477008E+03  0.30035140928E+03  0.12532531878E+03  0.39182998537E+03  0.10566000000E+00 0. -1.
         -4    1    1    2    0  502 -0.33021398713E+03 -0.62690832264E+03  0.67478228489E+03  0.97846126867E+03  0.00000000000E+00 0. -1.
</event>
<event>
 5    1  0.4419198E-005  0.4864229E+03  0.7818608E-02  0.9722834E-01
         21   -1    0    0  501  502  0.00000000000E+00  0.00000000000E+00  0.96046713207E+03  0.96046713207E+03  0.00000000000E+00 0.  1.
          4   -1    0    0  502    0 -0.00000000000E+00 -0.00000000000E+00 -0.14751932557E+04  0.14751932557E+04  0.00000000000E+00 0.  1.
        -13    1    1    2    0    0  0.94156098712E+02  0.26737367190E+03 -0.60410315573E+03  0.66730404261E+03  0.10566000000E+00 0.  1.
         13    1    1    2    0    0 -0.54806090818E+03 -0.81543711204E+03 -0.19562383277E+03  0.10017869723E+04  0.10566000000E+00 0. -1.
          4    1    1    2  501    0  0.45390480947E+03  0.54806344014E+03  0.28500086484E+03  0.76656937288E+03  0.00000000000E+00 0.  1.
</event>
<event>
 5    1  0.4419198E-005  0.4934629E+03  0.7818608E-02  0.9691462E-01
         -4   -1    0    0    0  501 -0.00000000000E+00  0.00000000000E+00  0.12756793998E+04  0.12756793998E+04  0.00000000000E+00 0. -1.
         21   -1    0    0  501  502  0.00000000000E+00 -0.00000000000E+00 -0.37474612864E+03  0.37474612864E+03  0.00000000000E+00 0. -1.
        -13    1    1    2    0    0  0.14874650447E+03  0.19187141100E+03  0.48448914952E+03  0.54191319242E+03  0.10566000000E+00 0.  1.
         13    1    1    2    0    0 -0.37508851377E+03 -0.50989785577E+03  0.20992721189E+03  0.66690078868E+03  0.10566000000E+00 0. -1.
         -4    1    1    2    0  502  0.22634200930E+03  0.31802644477E+03  0.20651690980E+03  0.44161154738E+03  0.00000000000E+00 0. -1.
</event>
<event>
 5    1  0.4419198E-005  0.4991060E+03  0.7818608E-02  0.9956805E-01
         21   -1    0    0  501  502  0.00000000000E+00  0.00000000000E+00  0.17791921454E+03  0.17791921454E+03  0.00000000000E+00 0.  1.
          4   -1    0    0  502    0 -0.00000000000E+00 -0.00000000000E+00 -0.19441073830E+04  0.19441073830E+04  0.00000000000E+00 0.  1.
        -13    1    1    2    0    0 -0.26557877844E+03 -0.45723326914E+03 -0.61208985650E+03  0.80885620079E+03  0.10566000000E+00 0.  1.
         13    1    1    2    0    0  0.93400730543E+02  0.18695263595E+02 -0.48853596767E+03  0.49773548419E+03  0.10566000000E+00 0. -1.
          4    1    1    2  501    0  0.17217804790E+03  0.43853800554E+03 -0.66556234427E+03  0.81543491254E+03  0.00000000000E+00 0.  1.
</event>
<event>
 5    1  0.8806711E-005  0.3059894E+03  0.7818608E-02  0.1030313E+00
          4   -1    0    0  502    0 -0.00000000000E+00  0.00000000000E+00  0.74134585896E+03  0.74134585896E+03  0.00000000000E+00 0.  1.
         21   -1    0    0  501  502  0.00000000000E+00 -0.00000000000E+00 -0.50466068055E+03  0.50466068055E+03  0.00000000000E+00 0.  1.
        -13    1    1    2    0    0  0.15413337320E+03  0.16878768132E+03  0.45066744883E+03  0.50531924433E+03  0.10566000000E+00 0.  1.
         13    1    1    2    0    0  0.13243237109E+03 -0.33821830914E+02  0.18577938001E+03  0.23064309736E+03  0.10566000000E+00 0. -1.
          4    1    1    2  501    0 -0.28656574428E+03 -0.13496585040E+03 -0.39976165042E+03  0.51004419781E+03  0.00000000000E+00 0.  1.
</event>
<event>
 5    1  0.4419198E-005  0.4733874E+03  0.7818608E-02  0.9680323E-01
         21   -1    0    0  501  502  0.00000000000E+00  0.00000000000E+00  0.43473664371E+03  0.43473664371E+03  0.00000000000E+00 0. -1.
         -4   -1    0    0    0  501 -0.00000000000E+00 -0.00000000000E+00 -0.10035057738E+04  0.10035057738E+04  0.00000000000E+00 0. -1.
        -13    1    1    2    0    0 -0.20703327513E+03  0.19717036340E+03 -0.15084524375E+03  0.32325412285E+03  0.10566000000E+00 0.  1.
         13    1    1    2    0    0  0.34453482400E+03  0.29598843719E+03 -0.39591512998E+03  0.60254643076E+03  0.10566000000E+00 0. -1.
         -4    1    1    2    0  502 -0.13750154888E+03 -0.49315880060E+03 -0.22008756379E+02  0.51244186393E+03  0.00000000000E+00 0. -1.
</event>
<event>
 5    1  0.4419198E-005  0.4830450E+03  0.7818608E-02  0.9755647E-01
         21   -1    0    0  501  502  0.00000000000E+00  0.00000000000E+00  0.34244273728E+03  0.34244273728E+03  0.00000000000E+00 0. -1.
         -4   -1    0    0    0  501 -0.00000000000E+00 -0.00000000000E+00 -0.10670536452E+04  0.10670536452E+04  0.00000000000E+00 0. -1.
        -13    1    1    2    0    0 -0.20614578950E+03  0.20828623240E+02 -0.20594914262E+03  0.29213862906E+03  0.10566000000E+00 0.  1.
         13    1    1    2    0    0  0.70895729871E+02  0.47253355496E+03 -0.23677757460E+03  0.53327084682E+03  0.10566000000E+00 0. -1.
         -4    1    1    2    0  502  0.13525005963E+03 -0.49336217820E+03 -0.28188419073E+03  0.58408690662E+03  0.00000000000E+00 0. -1.
</event>
<event>
 5    1  0.4419198E-005  0.1824795E+03  0.7818608E-02  0.1072860E+00
         -4   -1    0    0    0  501 -0.00000000000E+00  0.00000000000E+00  0.14041950645E+04  0.14041950645E+04  0.00000000000E+00 0. -1.
         21   -1    0    0  501  502  0.00000000000E+00 -0.00000000000E+00 -0.40416889588E+02  0.40416889588E+02  0.00000000000E+00 0.  1.
        -13    1    1    2    0    0  0.15529925586E+03  0.99570790748E+02  0.27603344892E+03  0.33200403209E+03  0.10566000000E+00 0.  1.
         13    1    1    2    0    0 -0.14042115404E+03 -0.11612610770E+03  0.10661014934E+04  0.10815617314E+04  0.10566000000E+00 0. -1.
         -4    1    1    2    0  502 -0.14878101818E+02  0.16555316957E+02  0.21643232520E+02  0.31046190542E+02  0.00000000000E+00 0. -1.
</event>
<event>
 5    1  0.4419198E-005  0.4749821E+03  0.7818608E-02  0.9728951E-01
          4   -1    0    0  502    0 -0.00000000000E+00  0.00000000000E+00  0.26027856262E+04  0.26027856262E+04  0.00000000000E+00 0.  1.
         21   -1    0    0  501  502  0.00000000000E+00 -0.00000000000E+00 -0.15737188287E+03  0.15737188287E+03  0.00000000000E+00 0.  1.
        -13    1    1    2    0    0  0.33744678300E+03 -0.32313797847E+02  0.10526826727E+04  0.11059183214E+04  0.10566000000E+00 0.  1.
         13    1    1    2    0    0  0.22757744065E+03  0.72918147543E+02  0.79749056548E+03  0.83252613228E+03  0.10566000000E+00 0. -1.
          4    1    1    2  501    0 -0.56502422365E+03 -0.40604349696E+02  0.59524050508E+03  0.82171305539E+03  0.00000000000E+00 0.  1.
</event>
<event>
 5    1  0.4419198E-005  0.1954922E+02  0.7818608E-02  0.1540846E+00
         21   -1    0    0  501  502  0.00000000000E+00  0.00000000000E+00  0.28582176519E+02  0.28582176519E+02  0.00000000000E+00 0. -1.
          4   -1    0    0  502    0 -0.00000000000E+00 -0.00000000000E+00 -0.50835556801E+02  0.50835556801E+02  0.00000000000E+00 0.  1.
        -13    1    1    2    0    0  0.53029095494E+00 -0.18840156289E+02 -0.35271382545E+02  0.39991427683E+02  0.10566000000E+00 0.  1.
         13    1    1    2    0    0 -0.13568490051E+02  0.27137735336E+01  0.12553383905E+02  0.18683337511E+02  0.10566000000E+00 0. -1.
          4    1    1    2  501    0  0.13038199096E+02  0.16126382756E+02  0.46461835746E+00  0.20742968126E+02  0.00000000000E+00 0.  1.
</event>
<event>
 5    1  0.4419198E-005  0.1897789E+02  0.7818608E-02  0.1535252E+00
         21   -1    0    0  501  502  0.00000000000E+00  0.00000000000E+00  0.71029983803E+02  0.71029983803E+02  0.00000000000E+00 0. -1.
         -4   -1    0    0    0  501 -0.00000000000E+00 -0.00000000000E+00 -0.48075873096E+02  0.48075873096E+02  0.00000000000E+00 0. -1.
        -13    1    1    2    0    0 -0.76424828885E+01 -0.14447252409E+02  0.94532124194E+01  0.18881340947E+02  0.10566000000E+00 0.  1.
         13    1    1    2    0    0 -0.35130990644E+01  0.29448084774E+02 -0.36391091978E+02  0.46945226608E+02  0.10566000000E+00 0. -1.
         -4    1    1    2    0  502  0.11155581953E+02 -0.15000832365E+02  0.49891990266E+02  0.53279289344E+02  0.00000000000E+00 0. -1.
</event>
<event>
 5    1  0.4419198E-005  0.2992343E+03  0.7818608E-02  0.1007622E+00
          4   -1    0    0  502    0 -0.00000000000E+00  0.00000000000E+00  0.15892789923E+04  0.15892789923E+04  0.00000000000E+00 0.  1.
         21   -1    0    0  501  502  0.00000000000E+00 -0.00000000000E+00 -0.39279504547E+03  0.39279504547E+03  0.00000000000E+00 0. -1.
        -13    1    1    2    0    0  0.79068098904E+01  0.29331003876E+03  0.12846343878E+04  0.13177172754E+04  0.10566000000E+00 0.  1.
         13    1    1    2    0    0 -0.21111895882E+03 -0.35267669327E+03  0.46188506040E+02  0.41362477440E+03  0.10566000000E+00 0. -1.
          4    1    1    2  501    0  0.20321214893E+03  0.59366654504E+02 -0.13433894694E+03  0.25073198800E+03  0.00000000000E+00 0.  1.
</event>
<event>
 5    1  0.4419198E-005  0.7967821E+03  0.7818608E-02  0.8993303E-01
         21   -1    0    0  501  502  0.00000000000E+00  0.00000000000E+00  0.50321927782E+03  0.50321927782E+03  0.00000000000E+00 0. -1.
          4   -1    0    0  502    0 -0.00000000000E+00 -0.00000000000E+00 -0.21917643095E+04  0.21917643095E+04  0.00000000000E+00 0.  1.
        -13    1    1    2    0    0  0.86636313129E+03  0.27120754091E+03 -0.67307700381E+03  0.11301200245E+04  0.10566000000E+00 0.  1.
         13    1    1    2    0    0 -0.65635208109E+03 -0.35484372446E+03 -0.10951606572E+04  0.13251750826E+04  0.10566000000E+00 0. -1.
          4    1    1    2  501    0 -0.21001105020E+03  0.83636183546E+02  0.79692629364E+02  0.23968848028E+03  0.00000000000E+00 0.  1.
</event>
<event>
 5    1  0.4419198E-005  0.1811158E+03  0.7818608E-02  0.1073914E+00
         -4   -1    0    0    0  501 -0.00000000000E+00  0.00000000000E+00  0.80111616403E+03  0.80111616403E+03  0.00000000000E+00 0. -1.
         21   -1    0    0  501  502  0.00000000000E+00 -0.00000000000E+00 -0.10590030587E+03  0.10590030587E+03  0.00000000000E+00 0.  1.
        -13    1    1    2    0    0  0.13707188743E+03  0.89250738400E+02  0.17459468529E+02  0.16449693260E+03  0.10566000000E+00 0.  1.
         13    1    1    2    0    0 -0.14606998793E+03 -0.11199203705E+03  0.69073103754E+03  0.71483427109E+03  0.10566000000E+00 0. -1.
         -4    1    1    2    0  502  0.89981005007E+01  0.22741298651E+02 -0.12974647911E+02  0.27685266214E+02  0.00000000000E+00 0. -1.
</event>
<event>
 5    1  0.4419198E-005  0.1663732E+03  0.7818608E-02  0.1085998E+00
         21   -1    0    0  501  502  0.00000000000E+00  0.00000000000E+00  0.11294925927E+03  0.11294925927E+03  0.00000000000E+00 0.  1.
          4   -1    0    0  502    0 -0.00000000000E+00 -0.00000000000E+00 -0.81951370294E+03  0.81951370294E+03  0.00000000000E+00 0.  1.
        -13    1    1    2    0    0  0.67112285077E+02  0.15732854329E+03 -0.53736398653E+03  0.56392942336E+03  0.10566000000E+00 0.  1.
         13    1    1    2    0    0 -0.58649532140E+02 -0.14692572761E+03 -0.24495626775E+03  0.29159993369E+03  0.10566000000E+00 0. -1.
          4    1    1    2  501    0 -0.84627529375E+01 -0.10402815683E+02  0.75755810609E+02  0.76933605157E+02  0.00000000000E+00 0.  1.
</event>
<event>
 5    1  0.4419198E-005  0.2616653E+03  0.7818608E-02  0.1024519E+00
         21   -1    0    0  501  502  0.00000000000E+00  0.00000000000E+00  0.12083503557E+03  0.12083503557E+03  0.00000000000E+00 0.  1.
          4   -1    0    0  502    0 -0.00000000000E+00 -0.00000000000E+00 -0.23028616228E+04  0.23028616228E+04  0.00000000000E+00 0.  1.
        -13    1    1    2    0    0  0.12662773260E+03  0.22671798296E+03 -0.15171372540E+04  0.15392014440E+04  0.10566000000E+00 0.  1.
         13    1    1    2    0    0 -0.13737435915E+03 -0.22762311495E+03 -0.75153778824E+03  0.79717818292E+03  0.10566000000E+00 0. -1.
          4    1    1    2  501    0  0.10746626553E+02  0.90513199065E+00  0.86648454971E+02  0.87317031529E+02  0.00000000000E+00 0.  1.
</event>
<event>
 5    1  0.4419198E-005  0.5017942E+03  0.7818608E-02  0.9474048E-01
         -4   -1    0    0    0  501 -0.00000000000E+00  0.00000000000E+00  0.10276662123E+04  0.10276662123E+04  0.00000000000E+00 0. -1.
         21   -1    0    0  501  502  0.00000000000E+00 -0.00000000000E+00 -0.56505839880E+03  0.56505839880E+03  0.00000000000E+00 0.  1.
        -13    1    1    2    0    0 -0.28367687965E+02  0.41030601465E+03  0.80214377470E+01  0.41136371499E+03  0.10566000000E+00 0.  1.
         13    1    1    2    0    0  0.22880884281E+03 -0.61772982703E+03  0.19112522577E+02  0.65902118739E+03  0.10566000000E+00 0. -1.
         -4    1    1    2    0  502 -0.20044115485E+03  0.20742381237E+03  0.43547385318E+03  0.52233970871E+03  0.00000000000E+00 0. -1.
</event>
<event>
 5    1  0.4419198E-005  0.7205431E+02  0.7818608E-02  0.1221438E+00
         -4   -1    0    0    0  501 -0.00000000000E+00  0.00000000000E+00  0.33518090365E+03  0.33518090365E+03  0.00000000000E+00 0. -1.
         21   -1    0    0  501  502  0.00000000000E+00 -0.00000000000E+00 -0.28698000033E+02  0.28698000033E+02  0.00000000000E+00 0. -1.
        -13    1    1    2    0    0  0.60042860627E+01 -0.58640556250E+02  0.57518934365E+02  0.82360216507E+02  0.10566000000E+00 0.  1.
         13    1    1    2    0    0  0.33206712655E+02  0.79486969004E+02  0.17901751740E+03  0.19866591733E+03  0.10566000000E+00 0. -1.
         -4    1    1    2    0  502 -0.39210998718E+02 -0.20846412754E+02  0.69946451852E+02  0.82852769850E+02  0.00000000000E+00 0. -1.
</event>
<event>
 5    1  0.4419198E-005  0.2190621E+03  0.7818608E-02  0.1047799E+00
          4   -1    0    0  502    0 -0.00000000000E+00  0.00000000000E+00  0.74970239277E+02  0.74970239277E+02  0.00000000000E+00 0.  1.
         21   -1    0    0  501  502  0.00000000000E+00 -0.00000000000E+00 -0.12323192015E+04  0.12323192015E+04  0.00000000000E+00 0. -1.
        -13    1    1    2    0    0  0.36886795132E+02  0.21664924444E+03 -0.13000279625E+03  0.25533951705E+03  0.10566000000E+00 0.  1.
         13    1    1    2    0    0 -0.26734668604E+02 -0.21396685394E+03 -0.97471049181E+03  0.99827707131E+03  0.10566000000E+00 0. -1.
          4    1    1    2  501    0 -0.10152126528E+02 -0.26823904957E+01 -0.52635674130E+02  0.53672852383E+02  0.00000000000E+00 0.  1.
</event>
<event>
 5    1  0.4419198E-005  0.4800920E+03  0.7818608E-02  0.1011559E+00
         -4   -1    0    0    0  501 -0.00000000000E+00  0.00000000000E+00  0.63011128462E+03  0.63011128462E+03  0.00000000000E+00 0. -1.
         21   -1    0    0  501  502  0.00000000000E+00 -0.00000000000E+00 -0.44888519102E+03  0.44888519102E+03  0.00000000000E+00 0. -1.
        -13    1    1    2    0    0  0.63577508030E+02  0.57734334266E+01  0.16083056447E+02  0.65833942078E+02  0.10566000000E+00 0.  1.
         13    1    1    2    0    0 -0.24125698751E+03 -0.43973024252E+03  0.20651798550E+03  0.54241802118E+03  0.10566000000E+00 0. -1.
         -4    1    1    2    0  502  0.17767947948E+03  0.43395680909E+03 -0.41374948345E+02  0.47074451238E+03  0.00000000000E+00 0. -1.
</event>
<event>
 5    1  0.4419198E-005  0.5149066E+03  0.7818608E-02  0.9884122E-01
         -4   -1    0    0    0  501 -0.00000000000E+00  0.00000000000E+00  0.26874107902E+04  0.26874107902E+04  0.00000000000E+00 0. -1.
         21   -1    0    0  501  502  0.00000000000E+00 -0.00000000000E+00 -0.13195331475E+03  0.13195331475E+03  0.00000000000E+00 0. -1.
        -13    1    1    2    0    0 -0.65505694331E+02  0.89012834574E+02  0.52307401379E+03  0.53462203076E+03  0.10566000000E+00 0.  1.
         13    1    1    2    0    0  0.54033646528E+03 -0.15782711589E+03  0.11485340220E+04  0.12790634484E+04  0.10566000000E+00 0. -1.
         -4    1    1    2    0  502 -0.47483077095E+03  0.68814281321E+02  0.88384943974E+03  0.10056786258E+04  0.00000000000E+00 0. -1.
</event>
<event>
 5    1  0.4419198E-005  0.4250392E+03  0.7818608E-02  0.9659397E-01
         -4   -1    0    0    0  501 -0.00000000000E+00  0.00000000000E+00  0.13653110986E+04  0.13653110986E+04  0.00000000000E+00 0. -1.
         21   -1    0    0  501  502  0.00000000000E+00 -0.00000000000E+00 -0.44459493721E+03  0.44459493721E+03  0.00000000000E+00 0. -1.
        -13    1    1    2    0    0 -0.85022501860E+02  0.35486772918E+03  0.56058318915E+03  0.66888971749E+03  0.10566000000E+00 0.  1.
         13    1    1    2    0    0  0.35278395861E+03 -0.49474588828E+03  0.51951558574E+03  0.79945385758E+03  0.10566000000E+00 0. -1.
         -4    1    1    2    0  502 -0.26776145675E+03  0.13987815909E+03 -0.15938261349E+03  0.34156246075E+03  0.00000000000E+00 0. -1.
</event>
<event>
 5    1  0.4419198E-005  0.5865884E+02  0.7818608E-02  0.1260065E+00
         21   -1    0    0  501  502  0.00000000000E+00  0.00000000000E+00  0.35909994290E+03  0.35909994290E+03  0.00000000000E+00 0. -1.
          4   -1    0    0  502    0 -0.00000000000E+00 -0.00000000000E+00 -0.15330725149E+02  0.15330725149E+02  0.00000000000E+00 0.  1.
        -13    1    1    2    0    0  0.47742806387E+01 -0.60524707167E+02  0.70993056528E+02  0.93413377910E+02  0.10566000000E+00 0.  1.
         13    1    1    2    0    0 -0.13712102586E+02  0.52465979294E+02  0.19856851664E+03  0.20584015086E+03  0.10566000000E+00 0. -1.
          4    1    1    2  501    0  0.89378219474E+01  0.80587278724E+01  0.74207644582E+02  0.75177139281E+02  0.00000000000E+00 0.  1.
</event>
<event>
 5    1  0.4419198E-005  0.6782370E+03  0.7818608E-02  0.9155160E-01
          4   -1    0    0  502    0 -0.00000000000E+00  0.00000000000E+00  0.19794813966E+04  0.19794813966E+04  0.00000000000E+00 0.  1.
         21   -1    0    0  501  502  0.00000000000E+00 -0.00000000000E+00 -0.47769231812E+03  0.47769231812E+03  0.00000000000E+00 0. -1.
        -13    1    1    2    0    0 -0.31644899597E+03  0.61080105829E+03  0.14946940619E+04  0.16453960768E+04  0.10566000000E+00 0.  1.
         13    1    1    2    0    0  0.31911228843E+03 -0.56123403579E+03  0.14802162239E+03  0.66236448230E+03  0.10566000000E+00 0. -1.
          4    1    1    2  501    0 -0.26632924611E+01 -0.49567022497E+02 -0.14092660579E+03  0.14941315560E+03  0.00000000000E+00 0.  1.
</event>
<event>
 5    1  0.4419198E-005  0.1369707E+03  0.7818608E-02  0.1114724E+00
          4   -1    0    0  502    0 -0.00000000000E+00  0.00000000000E+00  0.16353066143E+03  0.16353066143E+03  0.00000000000E+00 0.  1.
         21   -1    0    0  501  502  0.00000000000E+00 -0.00000000000E+00 -0.19175605746E+03  0.19175605746E+03  0.00000000000E+00 0. -1.
        -13    1    1    2    0    0 -0.45512228972E+02  0.13243513674E+03  0.92546576265E+02  0.16785502188E+03  0.10566000000E+00 0.  1.
         13    1    1    2    0    0  0.49361792589E+02 -0.11641285883E+03 -0.10203672965E+03  0.16248090851E+03  0.10566000000E+00 0. -1.
          4    1    1    2  501    0 -0.38495636169E+01 -0.16022277903E+02 -0.18735242641E+02  0.24950788486E+02  0.00000000000E+00 0.  1.
</event>
<event>
 5    1  0.4419198E-005  0.6186380E+02  0.7818608E-02  0.1249844E+00
          4   -1    0    0  502    0 -0.00000000000E+00  0.00000000000E+00  0.24231973589E+03  0.24231973589E+03  0.00000000000E+00 0.  1.
         21   -1    0    0  501  502  0.00000000000E+00 -0.00000000000E+00 -0.92099222281E+02  0.92099222281E+02  0.00000000000E+00 0.  1.
        -13    1    1    2    0    0 -0.71382102743E+01  0.61348386132E+02  0.21806795776E+03  0.22664559094E+03  0.10566000000E+00 0.  1.
         13    1    1    2    0    0 -0.90350024217E+01 -0.64645333030E+02 -0.43803880939E+02  0.78609423740E+02  0.10566000000E+00 0. -1.
          4    1    1    2  501    0  0.16173212696E+02  0.32969468976E+01 -0.24043563215E+02  0.29163943489E+02  0.00000000000E+00 0.  1.
</event>
<event>
 5    1  0.4958733E-005  0.5354306E+03  0.7818608E-02  0.9403523E-01
         21   -1    0    0  501  502  0.00000000000E+00  0.00000000000E+00  0.32449113756E+03  0.32449113756E+03  0.00000000000E+00 0.  1.
          4   -1    0    0  502    0 -0.00000000000E+00 -0.00000000000E+00 -0.24562837132E+04  0.24562837132E+04  0.00000000000E+00 0.  1.
        -13    1    1    2    0    0 -0.51234598953E+03  0.30187100738E+02 -0.14116114391E+04  0.15020174900E+04  0.10566000000E+00 0.  1.
         13    1    1    2    0    0  0.55683038152E+03 -0.25619702546E+03 -0.82327668360E+03  0.10263924681E+04  0.10566000000E+00 0. -1.
          4    1    1    2  501    0 -0.44484391989E+02  0.22600992472E+03  0.10309554711E+03  0.25236489264E+03  0.00000000000E+00 0.  1.
</event>
<event>
 5    1  0.4419198E-005  0.5348217E+03  0.7818608E-02  0.9631887E-01
         21   -1    0    0  501  502  0.00000000000E+00  0.00000000000E+00  0.71465418070E+03  0.71465418070E+03  0.00000000000E+00 0.  1.
          4   -1    0    0  502    0 -0.00000000000E+00 -0.00000000000E+00 -0.64914677154E+03  0.64914677154E+03  0.00000000000E+00 0.  1.
        -13    1    1    2    0    0 -0.26425097829E+02  0.42012917139E+03 -0.17696297639E+03  0.45664287209E+03  0.10566000000E+00 0.  1.
         13    1    1    2    0    0  0.11237830708E+03  0.20645605523E+03  0.11624224942E+03  0.26223130698E+03  0.10566000000E+00 0. -1.
          4    1    1    2  501    0 -0.85953209249E+02 -0.62658522662E+03  0.12622813613E+03  0.64492677317E+03  0.00000000000E+00 0.  1.
</event>
<event>
 5    1  0.4419198E-005  0.4659031E+03  0.7818608E-02  0.9556010E-01
         21   -1    0    0  501  502  0.00000000000E+00  0.00000000000E+00  0.48995894476E+03  0.48995894476E+03  0.00000000000E+00 0. -1.
          4   -1    0    0  502    0 -0.00000000000E+00 -0.00000000000E+00 -0.15262514601E+04  0.15262514601E+04  0.00000000000E+00 0.  1.
        -13    1    1    2    0    0 -0.21239097095E+03 -0.42025600952E+03 -0.13584909783E+04  0.14377839850E+04  0.10566000000E+00 0.  1.
         13    1    1    2    0    0  0.21439609289E+03  0.35976537025E+03  0.26824214715E+03  0.49734361054E+03  0.10566000000E+00 0. -1.
          4    1    1    2  501    0 -0.20051219414E+01  0.60490639277E+02  0.53956315838E+02  0.81082809355E+02  0.00000000000E+00 0.  1.
</event>
<event>
 5    1  0.4419198E-005  0.4383894E+03  0.7818608E-02  0.9733180E-01
          4   -1    0    0  502    0 -0.00000000000E+00  0.00000000000E+00  0.15554922698E+04  0.15554922698E+04  0.00000000000E+00 0.  1.
         21   -1    0    0  501  502  0.00000000000E+00 -0.00000000000E+00 -0.32225571853E+03  0.32225571853E+03  0.00000000000E+00 0. -1.
        -13    1    1    2    0    0 -0.51262515000E+03 -0.26005709956E+02  0.53395379122E+03  0.74065343021E+03  0.10566000000E+00 0.  1.
         13    1    1    2    0    0  0.17229652408E+03 -0.24501826356E+03  0.62861654019E+03  0.69633239724E+03  0.10566000000E+00 0. -1.
          4    1    1    2  501    0  0.34032862592E+03  0.27102397352E+03  0.70666219888E+02  0.44076216089E+03  0.00000000000E+00 0.  1.
</event>
<event>
 5    1  0.4419198E-005  0.4921698E+03  0.7818608E-02  0.9832211E-01
         -4   -1    0    0    0  501 -0.00000000000E+00  0.00000000000E+00  0.70909389362E+03  0.70909389362E+03  0.00000000000E+00 0. -1.
         21   -1    0    0  501  502  0.00000000000E+00 -0.00000000000E+00 -0.78286847249E+03  0.78286847249E+03  0.00000000000E+00 0. -1.
        -13    1    1    2    0    0 -0.13653199744E+03  0.63979262960E+02  0.36850885583E+03  0.39816217851E+03  0.10566000000E+00 0.  1.
         13    1    1    2    0    0  0.43426275851E+03 -0.35046857504E+03 -0.38194461894E+03  0.67623521694E+03  0.10566000000E+00 0. -1.
         -4    1    1    2    0  502 -0.29773076108E+03  0.28648931208E+03 -0.60338815753E+02  0.41756497065E+03  0.00000000000E+00 0. -1.
</event>
<event>
 5    1  0.4419198E-005  0.9563061E+02  0.7818608E-02  0.1171994E+00
         21   -1    0    0  501  502  0.00000000000E+00  0.00000000000E+00  0.43588091373E+03  0.43588091373E+03  0.00000000000E+00 0.  1.
         -4   -1    0    0    0  501 -0.00000000000E+00 -0.00000000000E+00 -0.12925645846E+03  0.12925645846E+03  0.00000000000E+00 0. -1.
        -13    1    1    2    0    0  0.37619116060E+02  0.12242892334E+03  0.17644609632E+03  0.21803044566E+03  0.10566000000E+00 0.  1.
         13    1    1    2    0    0  0.46060961610E+02 -0.84033880248E+02 -0.75346031163E+02  0.12190299746E+03  0.10566000000E+00 0. -1.
         -4    1    1    2    0  502 -0.83680077671E+02 -0.38395043096E+02  0.20552439012E+03  0.22520392907E+03  0.00000000000E+00 0. -1.
</event>
<event>
 5    1  0.4419198E-005  0.4789807E+03  0.7818608E-02  0.1000272E+00
         21   -1    0    0  501  502  0.00000000000E+00  0.00000000000E+00  0.32586492100E+03  0.32586492100E+03  0.00000000000E+00 0. -1.
         -4   -1    0    0    0  501 -0.00000000000E+00 -0.00000000000E+00 -0.11443576126E+04  0.11443576126E+04  0.00000000000E+00 0. -1.
        -13    1    1    2    0    0 -0.87833413732E+02  0.29507632951E+02 -0.35278260493E+03  0.36474783957E+03  0.10566000000E+00 0.  1.
         13    1    1    2    0    0 -0.34537759998E+02 -0.48919859834E+03 -0.38386676837E+03  0.62278554295E+03  0.10566000000E+00 0. -1.
         -4    1    1    2    0  502  0.12237117373E+03  0.45969096539E+03 -0.81843318308E+02  0.48268915108E+03  0.00000000000E+00 0. -1.
</event>
<event>
 5    1  0.4419198E-005  0.3403001E+03  0.7818608E-02  0.9919354E-01
         21   -1    0    0  501  502  0.00000000000E+00  0.00000000000E+00  0.20463129001E+03  0.20463129001E+03  0.00000000000E+00 0. -1.
          4   -1    0    0  502    0 -0.00000000000E+00 -0.00000000000E+00 -0.29270683137E+04  0.29270683137E+04  0.00000000000E+00 0.  1.
        -13    1    1    2    0    0  0.31648249459E+03 -0.13091432728E+03 -0.18199838638E+04  0.18519289960E+04  0.10566000000E+00 0.  1.
         13    1    1    2    0    0 -0.14694052042E+03  0.42012349643E+03 -0.82238580929E+03  0.93510090326E+03  0.10566000000E+00 0. -1.
          4    1    1    2  501    0 -0.16954197416E+03 -0.28920916915E+03 -0.80067350541E+02  0.34466970442E+03  0.00000000000E+00 0.  1.
</event>
<event>
 5    1  0.4419198E-005  0.1841464E+03  0.7818608E-02  0.1071584E+00
          4   -1    0    0  502    0 -0.00000000000E+00  0.00000000000E+00  0.30799277071E+03  0.30799277071E+03  0.00000000000E+00 0.  1.
         21   -1    0    0  501  502  0.00000000000E+00 -0.00000000000E+00 -0.16116804001E+03  0.16116804001E+03  0.00000000000E+00 0. -1.
        -13    1    1    2    0    0 -0.15302281468E+03  0.67634363016E+02  0.82484739878E+02  0.18653185344E+03  0.10566000000E+00 0.  1.
         13    1    1    2    0    0  0.19806189386E+03 -0.58198378525E+02  0.95090238370E+02  0.22728336864E+03  0.10566000000E+00 0. -1.
          4    1    1    2  501    0 -0.45039079188E+02 -0.94359844906E+01 -0.30750247545E+02  0.55345588636E+02  0.00000000000E+00 0.  1.
</event>
<event>
 5    1  0.4419198E-005  0.1032048E+03  0.7818608E-02  0.1159359E+00
          4   -1    0    0  502    0 -0.00000000000E+00  0.00000000000E+00  0.12155369490E+03  0.12155369490E+03  0.00000000000E+00 0.  1.
         21   -1    0    0  501  502  0.00000000000E+00 -0.00000000000E+00 -0.57008132277E+03  0.57008132277E+03  0.00000000000E+00 0. -1.
        -13    1    1    2    0    0  0.66314290420E+02  0.83298591036E+02  0.79945905164E+02  0.13314503107E+03  0.10566000000E+00 0.  1.
         13    1    1    2    0    0 -0.50870527553E+02 -0.71094290344E+02 -0.11454131631E+03  0.14409001700E+03  0.10566000000E+00 0. -1.
          4    1    1    2  501    0 -0.15443762867E+02 -0.12204300692E+02 -0.41393221671E+03  0.41439996960E+03  0.00000000000E+00 0.  1.
</event>
<event>
 5    1  0.4419198E-005  0.8343112E+02  0.7818608E-02  0.1195325E+00
         21   -1    0    0  501  502  0.00000000000E+00  0.00000000000E+00  0.70601433221E+02  0.70601433221E+02  0.00000000000E+00 0. -1.
         -4   -1    0    0    0  501 -0.00000000000E+00 -0.00000000000E+00 -0.23995997089E+03  0.23995997089E+03  0.00000000000E+00 0. -1.
        -13    1    1    2    0    0 -0.61562561751E+02  0.46151219221E+01 -0.28549453736E+02  0.68017136314E+02  0.10566000000E+00 0.  1.
         13    1    1    2    0    0  0.90909608297E+02 -0.50410703701E+02 -0.15472366993E+03  0.18640070045E+03  0.10566000000E+00 0. -1.
         -4    1    1    2    0  502 -0.29347046547E+02  0.45795581779E+02  0.13914585992E+02  0.56143567350E+02  0.00000000000E+00 0. -1.
</event>
<event>
 5    1  0.4419198E-005  0.9752059E+02  0.7818608E-02  0.1168724E+00
         -4   -1    0    0    0  501 -0.00000000000E+00  0.00000000000E+00  0.36836754852E+03  0.36836754852E+03  0.00000000000E+00 0. -1.
         21   -1    0    0  501  502  0.00000000000E+00 -0.00000000000E+00 -0.67753061602E+02  0.67753061602E+02  0.00000000000E+00 0.  1.
        -13    1    1    2    0    0  0.10656445831E+03 -0.18403428306E+02  0.37659084967E+02  0.11451151817E+03  0.10566000000E+00 0.  1.
         13    1    1    2    0    0 -0.83240888397E+02 -0.60324886889E+02  0.15453435538E+03  0.18560446017E+03  0.10566000000E+00 0. -1.
         -4    1    1    2    0  502 -0.23323569911E+02  0.78728315195E+02  0.10842104657E+03  0.13600463178E+03  0.00000000000E+00 0. -1.
</event>
<event>
 5    1  0.4419198E-005  0.5820584E+03  0.7818608E-02  0.9314255E-01
         21   -1    0    0  501  502  0.00000000000E+00  0.00000000000E+00  0.34804396551E+03  0.34804396551E+03  0.00000000000E+00 0. -1.
         -4   -1    0    0    0  501 -0.00000000000E+00 -0.00000000000E+00 -0.20695330321E+04  0.20695330321E+04  0.00000000000E+00 0. -1.
        -13    1    1    2    0    0 -0.53170125400E+03 -0.11407176645E+02 -0.78891457264E+03  0.95143184794E+03  0.10566000000E+00 0.  1.
         13    1    1    2    0    0  0.62625877437E+03 -0.26175851879E+03 -0.96006419814E+03  0.11757724484E+04  0.10566000000E+00 0. -1.
         -4    1    1    2    0  502 -0.94557520367E+02  0.27316569544E+03  0.27489704183E+02  0.29037270130E+03  0.00000000000E+00 0. -1.
</event>
<event>
 5    1  0.4419198E-005  0.4495926E+03  0.7818608E-02  0.9619611E-01
         -4   -1    0    0    0  501 -0.00000000000E+00  0.00000000000E+00  0.72470000503E+03  0.72470000503E+03  0.00000000000E+00 0. -1.
         21   -1    0    0  501  502  0.00000000000E+00 -0.00000000000E+00 -0.17490333369E+04  0.17490333369E+04  0.00000000000E+00 0. -1.
        -13    1    1    2    0    0 -0.36370318280E+03 -0.29602629810E+03  0.43541288921E+03  0.63991872109E+03  0.10566000000E+00 0.  1.
         13    1    1    2    0    0 -0.86215582905E+02  0.45859191518E+03 -0.24237002095E+03  0.52581642198E+03  0.10566000000E+00 0. -1.
         -4    1    1    2    0  502  0.44991876571E+03 -0.16256561708E+03 -0.12173762001E+04  0.13079981989E+04  0.00000000000E+00 0. -1.
</event>
<event>
 5    1  0.4419198E-005  0.1357429E+03  0.7818608E-02  0.1116091E+00
         21   -1    0    0  501  502  0.00000000000E+00  0.00000000000E+00  0.53534557920E+03  0.53534557920E+03  0.00000000000E+00 0. -1.
         -4   -1    0    0    0  501 -0.00000000000E+00 -0.00000000000E+00 -0.14523124239E+03  0.14523124239E+03  0.00000000000E+00 0. -1.
        -13    1    1    2    0    0  0.11878035505E+03  0.14365895574E+02  0.31176146308E+03  0.33393168872E+03  0.10566000000E+00 0.  1.
         13    1    1    2    0    0 -0.13693594702E+03 -0.12563341165E+02 -0.98312356010E+02  0.16904029590E+03  0.10566000000E+00 0. -1.
         -4    1    1    2    0  502  0.18155591974E+02 -0.18025544097E+01  0.17666522973E+03  0.17760483698E+03  0.00000000000E+00 0. -1.
</event>
<event>
 5    1  0.4419198E-005  0.2196889E+03  0.7818608E-02  0.1100736E+00
         21   -1    0    0  501  502  0.00000000000E+00  0.00000000000E+00  0.32640077986E+03  0.32640077986E+03  0.00000000000E+00 0. -1.
         -4   -1    0    0    0  501 -0.00000000000E+00 -0.00000000000E+00 -0.31326800827E+03  0.31326800827E+03  0.00000000000E+00 0. -1.
        -13    1    1    2    0    0 -0.20946778742E+02 -0.43447944636E+02  0.99971626614E+02  0.11099922849E+03  0.10566000000E+00 0.  1.
         13    1    1    2    0    0 -0.10041753015E+03  0.21957333525E+03 -0.17409372931E+03  0.29766552985E+03  0.10566000000E+00 0. -1.
         -4    1    1    2    0  502  0.12136430889E+03 -0.17612539061E+03  0.87254874281E+02  0.23100402979E+03  0.00000000000E+00 0. -1.
</event>
<event>
 5    1  0.4419198E-005  0.4655280E+03  0.7818608E-02  0.9724516E-01
          4   -1    0    0  502    0 -0.00000000000E+00  0.00000000000E+00  0.10224473419E+04  0.10224473419E+04  0.00000000000E+00 0.  1.
         21   -1    0    0  501  502  0.00000000000E+00 -0.00000000000E+00 -0.42176578078E+03  0.42176578078E+03  0.00000000000E+00 0.  1.
        -13    1    1    2    0    0 -0.61147749146E+03  0.13314541221E+03  0.36037970697E+03  0.72215370089E+03  0.10566000000E+00 0.  1.
         13    1    1    2    0    0  0.25304660154E+03  0.49073668054E+02  0.18251906783E+03  0.31583861185E+03  0.10566000000E+00 0. -1.
          4    1    1    2  501    0  0.35843088992E+03 -0.18221908027E+03  0.57782786356E+02  0.40622080998E+03  0.00000000000E+00 0.  1.
</event>
<event>
 5    1  0.4419198E-005  0.6908049E+02  0.7818608E-02  0.1229161E+00
         21   -1    0    0  501  502  0.00000000000E+00  0.00000000000E+00  0.62826622362E+02  0.62826622362E+02  0.00000000000E+00 0. -1.
         -4   -1    0    0    0  501 -0.00000000000E+00 -0.00000000000E+00 -0.12756743382E+03  0.12756743382E+03  0.00000000000E+00 0. -1.
        -13    1    1    2    0    0  0.41891881410E+00  0.53834054752E+02  0.48690388760E+01  0.54055523748E+02  0.10566000000E+00 0.  1.
         13    1    1    2    0    0  0.11928980250E+02 -0.82565381786E+02 -0.37328103124E+02  0.91393332832E+02  0.10566000000E+00 0. -1.
         -4    1    1    2    0  502 -0.12347899064E+02  0.28731327034E+02 -0.32281747211E+02  0.44945199604E+02  0.00000000000E+00 0. -1.
</event>
<event>
 5    1  0.4419198E-005  0.5052758E+03  0.7818608E-02  0.9926723E-01
          4   -1    0    0  502    0 -0.00000000000E+00  0.00000000000E+00  0.34953144687E+03  0.34953144687E+03  0.00000000000E+00 0.  1.
         21   -1    0    0  501  502  0.00000000000E+00 -0.00000000000E+00 -0.10849853515E+04  0.10849853515E+04  0.00000000000E+00 0.  1.
        -13    1    1    2    0    0 -0.22596663702E+03  0.39991797949E+03 -0.31245501126E+03  0.55553888847E+03  0.10566000000E+00 0.  1.
         13    1    1    2    0    0 -0.54341381645E+01  0.10129366970E+03  0.82271167587E+02  0.13060816804E+03  0.10566000000E+00 0. -1.
          4    1    1    2  501    0  0.23140077519E+03 -0.50121164920E+03 -0.50527006098E+03  0.74836974188E+03  0.00000000000E+00 0.  1.
</event>
<event>
 5    1  0.4419198E-005  0.3675257E+03  0.7818608E-02  0.1046044E+00
         -4   -1    0    0    0  501 -0.00000000000E+00  0.00000000000E+00  0.16462795210E+04  0.16462795210E+04  0.00000000000E+00 0. -1.
         21   -1    0    0  501  502  0.00000000000E+00 -0.00000000000E+00 -0.19572429522E+03  0.19572429522E+03  0.00000000000E+00 0. -1.
        -13    1    1    2    0    0  0.38967549625E+02 -0.29521702673E+02  0.15240905632E+03  0.16005790348E+03  0.10566000000E+00 0.  1.
         13    1    1    2    0    0  0.31764263469E+03  0.13358216140E+03  0.12625867025E+04  0.13087651545E+04  0.10566000000E+00 0. -1.
         -4    1    1    2    0  502 -0.35661018431E+03 -0.10406045873E+03  0.35559466985E+02  0.37318075824E+03  0.00000000000E+00 0. -1.
</event>
<event>
 5    1  0.4419198E-005  0.3122053E+03  0.7818608E-02  0.1002391E+00
         21   -1    0    0  501  502  0.00000000000E+00  0.00000000000E+00  0.43667501789E+03  0.43667501789E+03  0.00000000000E+00 0. -1.
         -4   -1    0    0    0  501 -0.00000000000E+00 -0.00000000000E+00 -0.96862779011E+03  0.96862779011E+03  0.00000000000E+00 0. -1.
        -13    1    1    2    0    0 -0.18979018994E+03  0.24695171306E+03 -0.64074828838E+03  0.71243515144E+03  0.10566000000E+00 0.  1.
         13    1    1    2    0    0  0.21235880390E+03 -0.23235854169E+03 -0.20647387092E+03  0.37645481007E+03  0.10566000000E+00 0. -1.
         -4    1    1    2    0  502 -0.22568613953E+02 -0.14593171366E+02  0.31526938708E+03  0.31641284648E+03  0.00000000000E+00 0. -1.
</event>
<event>
 5    1  0.4419198E-005  0.4789643E+03  0.7818608E-02  0.9616982E-01
         21   -1    0    0  501  502  0.00000000000E+00  0.00000000000E+00  0.15752159227E+03  0.15752159227E+03  0.00000000000E+00 0.  1.
          4   -1    0    0  502    0 -0.00000000000E+00 -0.00000000000E+00 -0.32165884746E+04  0.32165884746E+04  0.00000000000E+00 0.  1.
        -13    1    1    2    0    0  0.25553295343E+03 -0.39484072633E+03 -0.16708086206E+04  0.17357412674E+04  0.10566000000E+00 0.  1.
         13    1    1    2    0    0  0.24486832054E+03  0.24301453252E+03 -0.60869425323E+03  0.69966081961E+03  0.10566000000E+00 0. -1.
          4    1    1    2  501    0 -0.50040127397E+03  0.15182619382E+03 -0.77956400847E+03  0.93870797984E+03  0.00000000000E+00 0.  1.
</event>
<event>
 5    1  0.4419198E-005  0.1808489E+02  0.7818608E-02  0.1538380E+00
         21   -1    0    0  501  502  0.00000000000E+00  0.00000000000E+00  0.67285989312E+02  0.67285989312E+02  0.00000000000E+00 0.  1.
          4   -1    0    0  502    0 -0.00000000000E+00 -0.00000000000E+00 -0.10926750970E+03  0.10926750970E+03  0.00000000000E+00 0.  1.
        -13    1    1    2    0    0 -0.18963843461E+02  0.17178491758E+02 -0.41285484698E+02  0.48571909049E+02  0.10566000000E+00 0.  1.
         13    1    1    2    0    0  0.13909975321E+02 -0.81117121844E+01 -0.62894372938E+02  0.64923035968E+02  0.10566000000E+00 0. -1.
          4    1    1    2  501    0  0.50538681401E+01 -0.90667795737E+01  0.62198337250E+02  0.63058553993E+02  0.00000000000E+00 0.  1.
</event>
<event>
 5    1  0.4419198E-005  0.3430329E+03  0.7818608E-02  0.1006297E+00
         21   -1    0    0  501  502  0.00000000000E+00  0.00000000000E+00  0.52263720001E+03  0.52263720001E+03  0.00000000000E+00 0. -1.
         -4   -1    0    0    0  501 -0.00000000000E+00 -0.00000000000E+00 -0.53941390878E+03  0.53941390878E+03  0.00000000000E+00 0. -1.
        -13    1    1    2    0    0  0.16641954781E+03 -0.12363341665E+03 -0.57900244013E+02  0.21525133456E+03  0.10566000000E+00 0.  1.
         13    1    1    2    0    0 -0.27952518529E+03 -0.21246334639E+03 -0.21287786031E+03  0.41059955839E+03  0.10566000000E+00 0. -1.
         -4    1    1    2    0  502  0.11310563748E+03  0.33609676305E+03  0.25400139556E+03  0.43620021585E+03  0.00000000000E+00 0. -1.
</event>
<event>
 5    1  0.4419198E-005  0.9598741E+02  0.7818608E-02  0.1171371E+00
         -4   -1    0    0    0  501 -0.00000000000E+00  0.00000000000E+00  0.48042197408E+03  0.48042197408E+03  0.00000000000E+00 0. -1.
         21   -1    0    0  501  502  0.00000000000E+00 -0.00000000000E+00 -0.30049714431E+02  0.30049714431E+02  0.00000000000E+00 0. -1.
        -13    1    1    2    0    0 -0.13347370812E+01  0.86557224387E+02  0.15758064649E+03  0.17979323105E+03  0.10566000000E+00 0.  1.
         13    1    1    2    0    0 -0.27226184692E+02 -0.10261393506E+03  0.27171751578E+03  0.29172127853E+03  0.10566000000E+00 0. -1.
         -4    1    1    2    0  502  0.28560921773E+02  0.16056710675E+02  0.21074097374E+02  0.38957178932E+02  0.00000000000E+00 0. -1.
</event>
<event>
 5    1  0.4419198E-005  0.3348301E+03  0.7818608E-02  0.1051450E+00
         21   -1    0    0  501  502  0.00000000000E+00  0.00000000000E+00  0.34665732354E+03  0.34665732354E+03  0.00000000000E+00 0.  1.
          4   -1    0    0  502    0 -0.00000000000E+00 -0.00000000000E+00 -0.57012695951E+03  0.57012695951E+03  0.00000000000E+00 0.  1.
        -13    1    1    2    0    0  0.36872166990E+03  0.50885011821E+02 -0.34794597645E+03  0.50952072380E+03  0.10566000000E+00 0.  1.
         13    1    1    2    0    0 -0.52219205254E+02  0.17364567292E+02  0.51486938550E+02  0.75361061563E+02  0.10566000000E+00 0. -1.
          4    1    1    2  501    0 -0.31650246465E+03 -0.68249579113E+02  0.72989401936E+02  0.33190249769E+03  0.00000000000E+00 0.  1.
</event>
<event>
 5    1  0.4419198E-005  0.5853196E+03  0.7818608E-02  0.9401353E-01
         -4   -1    0    0    0  501 -0.00000000000E+00  0.00000000000E+00  0.14714772267E+04  0.14714772267E+04  0.00000000000E+00 0. -1.
         21   -1    0    0  501  502  0.00000000000E+00 -0.00000000000E+00 -0.66374233640E+03  0.66374233640E+03  0.00000000000E+00 0. -1.
        -13    1    1    2    0    0  0.41098457976E+03  0.56288394922E+03  0.55220598865E+03  0.88920083791E+03  0.10566000000E+00 0.  1.
         13    1    1    2    0    0 -0.48022571594E+03  0.13033612147E+03  0.23181259365E+03  0.54894565537E+03  0.10566000000E+00 0. -1.
         -4    1    1    2    0  502  0.69241136180E+02 -0.69322007069E+03  0.23716307963E+02  0.69707306978E+03  0.00000000000E+00 0. -1.
</event>
<event>
 5    1  0.4419198E-005  0.1630019E+03  0.7818608E-02  0.1088952E+00
         21   -1    0    0  501  502  0.00000000000E+00  0.00000000000E+00  0.12781247696E+03  0.12781247696E+03  0.00000000000E+00 0.  1.
          4   -1    0    0  502    0 -0.00000000000E+00 -0.00000000000E+00 -0.48737571129E+03  0.48737571129E+03  0.00000000000E+00 0.  1.
        -13    1    1    2    0    0 -0.98298438743E+01  0.17894072661E+03 -0.26215390140E+03  0.31755485929E+03  0.10566000000E+00 0.  1.
         13    1    1    2    0    0 -0.92998424476E+02 -0.12952325449E+03 -0.90484198729E+02  0.18333679880E+03  0.10566000000E+00 0. -1.
          4    1    1    2  501    0  0.10282826835E+03 -0.49417472120E+02 -0.69251341988E+01  0.11429653016E+03  0.00000000000E+00 0.  1.
</event>
<event>
 5    1  0.4419198E-005  0.9503571E+03  0.7818608E-02  0.8822686E-01
         21   -1    0    0  501  502  0.00000000000E+00  0.00000000000E+00  0.89956644535E+03  0.89956644535E+03  0.00000000000E+00 0.  1.
         -4   -1    0    0    0  501 -0.00000000000E+00 -0.00000000000E+00 -0.11063783250E+04  0.11063783250E+04  0.00000000000E+00 0. -1.
        -13    1    1    2    0    0 -0.39233020553E+03 -0.88474014640E+03 -0.16654191467E+03  0.98205108693E+03  0.10566000000E+00 0.  1.
         13    1    1    2    0    0  0.38881281606E+03  0.84783638382E+03 -0.11565973953E+03  0.93988250658E+03  0.10566000000E+00 0. -1.
         -4    1    1    2    0  502  0.35173894647E+01  0.36903762582E+02  0.75389774570E+02  0.84011176822E+02  0.00000000000E+00 0. -1.
</event>
<event>
 5    1  0.4419198E-005  0.8111642E+02  0.7818608E-02  0.1200250E+00
          4   -1    0    0  502    0 -0.00000000000E+00  0.00000000000E+00  0.13812587203E+03  0.13812587203E+03  0.00000000000E+00 0.  1.
         21   -1    0    0  501  502  0.00000000000E+00 -0.00000000000E+00 -0.15338663885E+03  0.15338663885E+03  0.00000000000E+00 0.  1.
        -13    1    1    2    0    0 -0.77956924581E+02 -0.12089115447E+02  0.77895716885E+02  0.11086560637E+03  0.10566000000E+00 0.  1.
         13    1    1    2    0    0  0.84403288466E+02  0.22955742716E+02 -0.84368007060E+00  0.87473448472E+02  0.10566000000E+00 0. -1.
          4    1    1    2  501    0 -0.64463638843E+01 -0.10866627269E+02 -0.92312803630E+02  0.93173456035E+02  0.00000000000E+00 0.  1.
</event>
<event>
 5    1  0.4419198E-005  0.8812140E+02  0.7818608E-02  0.1185862E+00
          4   -1    0    0  502    0 -0.00000000000E+00  0.00000000000E+00  0.21086300567E+03  0.21086300567E+03  0.00000000000E+00 0.  1.
         21   -1    0    0  501  502  0.00000000000E+00 -0.00000000000E+00 -0.93329353837E+02  0.93329353837E+02  0.00000000000E+00 0. -1.
        -13    1    1    2    0    0  0.35518055093E+02  0.76586178196E+02  0.12968721129E+03  0.15474417231E+03  0.10566000000E+00 0.  1.
         13    1    1    2    0    0 -0.50076355424E+02 -0.85760287377E+02  0.30144149443E+02  0.10378414702E+03  0.10566000000E+00 0. -1.
          4    1    1    2  501    0  0.14558300330E+02  0.91741091809E+01 -0.42297708894E+02  0.45664040178E+02  0.00000000000E+00 0.  1.
</event>
<event>
 5    1  0.4419198E-005  0.2572248E+03  0.7818608E-02  0.1026715E+00
         21   -1    0    0  501  502  0.00000000000E+00  0.00000000000E+00  0.19164934384E+03  0.19164934384E+03  0.00000000000E+00 0.  1.
         -4   -1    0    0    0  501 -0.00000000000E+00 -0.00000000000E+00 -0.63485063386E+03  0.63485063386E+03  0.00000000000E+00 0. -1.
        -13    1    1    2    0    0  0.92576894193E+02  0.22138954437E+03 -0.34030647377E+03  0.41640403329E+03  0.10566000000E+00 0.  1.
         13    1    1    2    0    0 -0.73753109829E+02 -0.30200769512E+03 -0.10238256405E+03  0.32730775992E+03  0.10566000000E+00 0. -1.
         -4    1    1    2    0  502 -0.18823784365E+02  0.80618150752E+02 -0.51225220218E+00  0.82788184488E+02  0.00000000000E+00 0. -1.
</event>
<event>
 5    1  0.4419198E-005  0.3701007E+02  0.7818608E-02  0.1356091E+00
         -4   -1    0    0    0  501 -0.00000000000E+00  0.00000000000E+00  0.33856698233E+02  0.33856698233E+02  0.00000000000E+00 0. -1.
         21   -1    0    0  501  502  0.00000000000E+00 -0.00000000000E+00 -0.83954775103E+02  0.83954775103E+02  0.00000000000E+00 0. -1.
        -13    1    1    2    0    0 -0.30268460109E+02 -0.15531308782E+02  0.46340422208E+01  0.34334920142E+02  0.10566000000E+00 0.  1.
         13    1    1    2    0    0  0.37764897286E+02  0.23658695779E+02 -0.23574286291E+02  0.50415072063E+02  0.10566000000E+00 0. -1.
         -4    1    1    2    0  502 -0.74964371772E+01 -0.81273869964E+01 -0.31157832801E+02  0.33061481131E+02  0.00000000000E+00 0. -1.
</event>
<event>
 5    1  0.4419198E-005  0.2485353E+03  0.7818608E-02  0.1031154E+00
         -4   -1    0    0    0  501 -0.00000000000E+00  0.00000000000E+00  0.56051708067E+03  0.56051708067E+03  0.00000000000E+00 0. -1.
         21   -1    0    0  501  502  0.00000000000E+00 -0.00000000000E+00 -0.11926120521E+04  0.11926120521E+04  0.00000000000E+00 0. -1.
        -13    1    1    2    0    0  0.19506064920E+03  0.13139787771E+03  0.28158061453E+03  0.36688106081E+03  0.10566000000E+00 0.  1.
         13    1    1    2    0    0 -0.25473971131E+03 -0.10904461838E+03  0.15376841586E+03  0.31690343356E+03  0.10566000000E+00 0. -1.
         -4    1    1    2    0  502  0.59679062111E+02 -0.22353259328E+02 -0.10674440018E+04  0.10693446384E+04  0.00000000000E+00 0. -1.
</event>
<event>
 5    1  0.4419198E-005  0.6825031E+03  0.7818608E-02  0.9148753E-01
          4   -1    0    0  502    0 -0.00000000000E+00  0.00000000000E+00  0.75759557911E+03  0.75759557911E+03  0.00000000000E+00 0.  1.
         21   -1    0    0  501  502  0.00000000000E+00 -0.00000000000E+00 -0.90538060849E+03  0.90538060849E+03  0.00000000000E+00 0. -1.
        -13    1    1    2    0    0  0.61549839883E+03  0.28970261095E+03  0.40966278048E+02  0.68150137847E+03  0.10566000000E+00 0.  1.
         13    1    1    2    0    0 -0.63851100367E+03 -0.24899321373E+03  0.96777875478E+02  0.69214152501E+03  0.10566000000E+00 0. -1.
          4    1    1    2  501    0  0.23012604837E+02 -0.40709397219E+02 -0.28552918291E+03  0.28933328412E+03  0.00000000000E+00 0.  1.
</event>
<event>
 5    1  0.4419198E-005  0.5170736E+03  0.7818608E-02  0.9719845E-01
         -4   -1    0    0    0  501 -0.00000000000E+00  0.00000000000E+00  0.12483119067E+04  0.12483119067E+04  0.00000000000E+00 0. -1.
         21   -1    0    0  501  502  0.00000000000E+00 -0.00000000000E+00 -0.33881486390E+03  0.33881486390E+03  0.00000000000E+00 0. -1.
        -13    1    1    2    0    0  0.14995049657E+03 -0.11858661936E+03  0.34229990177E+03  0.39206781509E+03  0.10566000000E+00 0.  1.
         13    1    1    2    0    0  0.25763751363E+03  0.45525968179E+03  0.27305436498E+03  0.59008233637E+03  0.10566000000E+00 0. -1.
         -4    1    1    2    0  502 -0.40758801019E+03 -0.33667306243E+03  0.29414277604E+03  0.60497661915E+03  0.00000000000E+00 0. -1.
</event>
<event>
 5    1  0.4419198E-005  0.5396383E+03  0.7818608E-02  0.9395082E-01
         21   -1    0    0  501  502  0.00000000000E+00  0.00000000000E+00  0.32294801835E+03  0.32294801835E+03  0.00000000000E+00 0.  1.
          4   -1    0    0  502    0 -0.00000000000E+00 -0.00000000000E+00 -0.27223732518E+04  0.27223732518E+04  0.00000000000E+00 0.  1.
        -13    1    1    2    0    0  0.14691709934E+02  0.78301991897E+03 -0.52773523632E+03  0.94437308870E+03  0.10566000000E+00 0.  1.
         13    1    1    2    0    0  0.12785212297E+03 -0.48245084348E+03 -0.15852469642E+04  0.16619605683E+04  0.10566000000E+00 0. -1.
          4    1    1    2  501    0 -0.14254383291E+03 -0.30056907549E+03 -0.28644303295E+03  0.43898761323E+03  0.00000000000E+00 0.  1.
</event>
<event>
 5    1  0.4419198E-005  0.1089067E+03  0.7818608E-02  0.1150605E+00
         -4   -1    0    0    0  501 -0.00000000000E+00  0.00000000000E+00  0.34647273853E+03  0.34647273853E+03  0.00000000000E+00 0. -1.
         21   -1    0    0  501  502  0.00000000000E+00 -0.00000000000E+00 -0.47359790879E+02  0.47359790879E+02  0.00000000000E+00 0. -1.
        -13    1    1    2    0    0 -0.46210179650E+02  0.82477906523E+02  0.97299626523E+02  0.13566581829E+03  0.10566000000E+00 0.  1.
         13    1    1    2    0    0  0.57853527753E+02 -0.11286526868E+03  0.14454833068E+03  0.19230140564E+03  0.10566000000E+00 0. -1.
         -4    1    1    2    0  502 -0.11643348103E+02  0.30387362152E+02  0.57264990455E+02  0.65865305476E+02  0.00000000000E+00 0. -1.
</event>
<event>
 5    1  0.4419198E-005  0.2984791E+03  0.7818608E-02  0.1019169E+00
         -4   -1    0    0    0  501 -0.00000000000E+00  0.00000000000E+00  0.14900776980E+04  0.14900776980E+04  0.00000000000E+00 0. -1.
         21   -1    0    0  501  502  0.00000000000E+00 -0.00000000000E+00 -0.23479580386E+03  0.23479580386E+03  0.00000000000E+00 0. -1.
        -13    1    1    2    0    0 -0.68604878116E+02 -0.19694014726E+03  0.97130391438E+03  0.99344016234E+03  0.10566000000E+00 0.  1.
         13    1    1    2    0    0  0.17022773330E+03  0.40609538226E+03  0.20633880526E+03  0.48627837130E+03  0.10566000000E+00 0. -1.
         -4    1    1    2    0  502 -0.10162285518E+03 -0.20915523501E+03  0.77639174512E+02  0.24515496822E+03  0.00000000000E+00 0. -1.
</event>
<event>
 5    1  0.4419198E-005  0.4118775E+02  0.7818608E-02  0.1332511E+00
         21   -1    0    0  501  502  0.00000000000E+00  0.00000000000E+00  0.60699684062E+03  0.60699684062E+03  0.00000000000E+00 0.  1.
         -4   -1    0    0    0  501 -0.00000000000E+00 -0.00000000000E+00 -0.76122180756E+01  0.76122180756E+01  0.00000000000E+00 0. -1.
        -13    1    1    2    0    0 -0.41351996894E+02 -0.34027909785E+02  0.21792356745E+03  0.22440717169E+03  0.10566000000E+00 0.  1.
         13    1    1    2    0    0  0.27113657608E+02  0.24670851231E+02  0.77170953485E+02  0.85435171651E+02  0.10566000000E+00 0. -1.
         -4    1    1    2    0  502  0.14238339287E+02  0.93570585537E+01  0.30429010161E+03  0.30476671536E+03  0.00000000000E+00 0. -1.
</event>
<event>
 5    1  0.4419198E-005  0.5399065E+03  0.7818608E-02  0.9394547E-01
         21   -1    0    0  501  502  0.00000000000E+00  0.00000000000E+00  0.40516934069E+03  0.40516934069E+03  0.00000000000E+00 0. -1.
         -4   -1    0    0    0  501 -0.00000000000E+00 -0.00000000000E+00 -0.15497234477E+04  0.15497234477E+04  0.00000000000E+00 0. -1.
        -13    1    1    2    0    0 -0.35465939261E+03 -0.29626059551E+03 -0.31502105680E+03  0.55927801906E+03  0.10566000000E+00 0.  1.
         13    1    1    2    0    0  0.61138679743E+03  0.14519981391E+03 -0.89213999249E+03  0.10912335128E+04  0.10566000000E+00 0. -1.
         -4    1    1    2    0  502 -0.25672740482E+03  0.15106078160E+03  0.62606942265E+02  0.30438125656E+03  0.00000000000E+00 0. -1.
</event>
<event>
 5    1  0.4419198E-005  0.2998458E+03  0.7818608E-02  0.1007369E+00
         21   -1    0    0  501  502  0.00000000000E+00  0.00000000000E+00  0.76108425632E+02  0.76108425632E+02  0.00000000000E+00 0.  1.
         -4   -1    0    0    0  501 -0.00000000000E+00 -0.00000000000E+00 -0.20080659952E+04  0.20080659952E+04  0.00000000000E+00 0. -1.
        -13    1    1    2    0    0  0.38338217007E+02 -0.30200746463E+03 -0.11786977640E+04  0.12173769990E+04  0.10566000000E+00 0.  1.
         13    1    1    2    0    0  0.49657096883E+02  0.29633534957E+03 -0.70481418646E+03  0.76618765017E+03  0.10566000000E+00 0. -1.
         -4    1    1    2    0  502 -0.87995313890E+02  0.56721150582E+01 -0.48445619161E+02  0.10060977175E+03  0.00000000000E+00 0. -1.
</event>
<event>
 5    1  0.4419198E-005  0.7875764E+03  0.7818608E-02  0.9004789E-01
         -4   -1    0    0    0  501 -0.00000000000E+00  0.00000000000E+00  0.12877147471E+04  0.12877147471E+04  0.00000000000E+00 0. -1.
         21   -1    0    0  501  502  0.00000000000E+00 -0.00000000000E+00 -0.11564616670E+04  0.11564616670E+04  0.00000000000E+00 0. -1.
        -13    1    1    2    0    0  0.29376424171E+01  0.77845730876E+03  0.66545244060E+03  0.10241246863E+04  0.10566000000E+00 0.  1.
         13    1    1    2    0    0 -0.25779881230E+03 -0.79581307707E+03 -0.96231592974E+01  0.83658310861E+03  0.10566000000E+00 0. -1.
         -4    1    1    2    0  502  0.25486116988E+03  0.17355768316E+02 -0.52457620123E+03  0.58346861913E+03  0.00000000000E+00 0. -1.
</event>
<event>
 5    1  0.4419198E-005  0.4955319E+03  0.7818608E-02  0.9519044E-01
         21   -1    0    0  501  502  0.00000000000E+00  0.00000000000E+00  0.49156021540E+03  0.49156021540E+03  0.00000000000E+00 0. -1.
         -4   -1    0    0    0  501 -0.00000000000E+00 -0.00000000000E+00 -0.23543468130E+04  0.23543468130E+04  0.00000000000E+00 0. -1.
        -13    1    1    2    0    0  0.59481171178E+02  0.52104715986E+03 -0.15837427163E+04  0.16683132664E+04  0.10566000000E+00 0.  1.
         13    1    1    2    0    0 -0.33372426980E+03  0.36882293871E+01 -0.45099286061E+03  0.56105263815E+03  0.10566000000E+00 0. -1.
         -4    1    1    2    0  502  0.27424309863E+03 -0.52473538924E+03  0.17194897928E+03  0.61654112380E+03  0.00000000000E+00 0. -1.
</event>
<event>
 5    1  0.4419198E-005  0.4726000E+03  0.7818608E-02  0.9618423E-01
         -4   -1    0    0    0  501 -0.00000000000E+00  0.00000000000E+00  0.22657590586E+04  0.22657590586E+04  0.00000000000E+00 0. -1.
         21   -1    0    0  501  502  0.00000000000E+00 -0.00000000000E+00 -0.66993043417E+03  0.66993043417E+03  0.00000000000E+00 0. -1.
        -13    1    1    2    0    0  0.30223836692E+03  0.19053596325E+03  0.18050061990E+04  0.18400270034E+04  0.10566000000E+00 0.  1.
         13    1    1    2    0    0  0.36249229140E+03 -0.17428487378E+03 -0.14537352847E+03  0.42767902976E+03  0.10566000000E+00 0. -1.
         -4    1    1    2    0  502 -0.66473065832E+03 -0.16251089468E+02 -0.63804046076E+02  0.66798345961E+03  0.00000000000E+00 0. -1.
</event>
<event>
 5    1  0.5988443E-005  0.5003947E+03  0.7818608E-02  0.9478148E-01
         21   -1    0    0  501  502  0.00000000000E+00  0.00000000000E+00  0.69938109116E+03  0.69938109116E+03  0.00000000000E+00 0. -1.
          4   -1    0    0  502    0 -0.00000000000E+00 -0.00000000000E+00 -0.13438538471E+04  0.13438538471E+04  0.00000000000E+00 0.  1.
        -13    1    1    2    0    0  0.30659084482E+03 -0.25440981207E+02 -0.42994332902E+03  0.52867425414E+03  0.10566000000E+00 0.  1.
         13    1    1    2    0    0  0.47907057825E+03  0.14778036799E+03  0.28387662891E+03  0.57613679601E+03  0.10566000000E+00 0. -1.
          4    1    1    2  501    0 -0.78566142308E+03 -0.12233938679E+03 -0.49840605580E+03  0.93842388809E+03  0.00000000000E+00 0.  1.
</event>
<event>
 5    1  0.4419198E-005  0.2895385E+03  0.7818608E-02  0.1011720E+00
         21   -1    0    0  501  502  0.00000000000E+00  0.00000000000E+00  0.56153283366E+02  0.56153283366E+02  0.00000000000E+00 0.  1.
         -4   -1    0    0    0  501 -0.00000000000E+00 -0.00000000000E+00 -0.16531717350E+04  0.16531717350E+04  0.00000000000E+00 0. -1.
        -13    1    1    2    0    0  0.11338469020E+03  0.26809292496E+03 -0.70022215913E+03  0.75831457040E+03  0.10566000000E+00 0.  1.
         13    1    1    2    0    0 -0.10269353219E+03 -0.26951273941E+03 -0.89468121883E+03  0.94001998529E+03  0.10566000000E+00 0. -1.
         -4    1    1    2    0  502 -0.10691158014E+02  0.14198144485E+01 -0.21150736574E+01  0.10990462653E+02  0.00000000000E+00 0. -1.
</event>
<event>
 5    1  0.4419198E-005  0.4959042E+03  0.7818608E-02  0.1007497E+00
         -4   -1    0    0    0  501 -0.00000000000E+00  0.00000000000E+00  0.42651711259E+04  0.42651711259E+04  0.00000000000E+00 0. -1.
         21   -1    0    0  501  502  0.00000000000E+00 -0.00000000000E+00 -0.68649002896E+02  0.68649002896E+02  0.00000000000E+00 0. -1.
        -13    1    1    2    0    0  0.12209807180E+01 -0.65998581077E+02  0.36802310000E+03  0.37389613103E+03  0.10566000000E+00 0.  1.
         13    1    1    2    0    0  0.46505391549E+03 -0.14399580134E+03  0.15460293168E+04  0.16208690863E+04  0.10566000000E+00 0. -1.
         -4    1    1    2    0  502 -0.46627489621E+03  0.20999438241E+03  0.22824697062E+04  0.23390549115E+04  0.00000000000E+00 0. -1.
</event>
<event>
 5    1  0.4419198E-005  0.4173908E+03  0.7818608E-02  0.9680121E-01
          4   -1    0    0  502    0 -0.00000000000E+00  0.00000000000E+00  0.53631056535E+03  0.53631056535E+03  0.00000000000E+00 0.  1.
         21   -1    0    0  501  502  0.00000000000E+00 -0.00000000000E+00 -0.11171899700E+04  0.11171899700E+04  0.00000000000E+00 0. -1.
        -13    1    1    2    0    0  0.40829729149E+03  0.21659498892E+03  0.17939381990E+03  0.49578445039E+03  0.10566000000E+00 0.  1.
         13    1    1    2    0    0 -0.82738136033E+02 -0.42940316610E+03 -0.21328032411E+03  0.48654001483E+03  0.10566000000E+00 0. -1.
          4    1    1    2  501    0 -0.32555915546E+03  0.21280817718E+03 -0.54699290046E+03  0.67117607014E+03  0.00000000000E+00 0.  1.
</event>
<event>
 5    1  0.4419198E-005  0.1949002E+03  0.7818608E-02  0.1063689E+00
         21   -1    0    0  501  502  0.00000000000E+00  0.00000000000E+00  0.61167674807E+03  0.61167674807E+03  0.00000000000E+00 0.  1.
         -4   -1    0    0    0  501 -0.00000000000E+00 -0.00000000000E+00 -0.11581952416E+03  0.11581952416E+03  0.00000000000E+00 0. -1.
        -13    1    1    2    0    0  0.51093988470E+02  0.19566176973E+03  0.12168446179E+03  0.23601110821E+03  0.10566000000E+00 0.  1.
         13    1    1    2    0    0 -0.47798709266E+02 -0.18251561739E+03  0.93649194196E+02  0.21063439875E+03  0.10566000000E+00 0. -1.
         -4    1    1    2    0  502 -0.32952792039E+01 -0.13146152338E+02  0.28052356793E+03  0.28085076527E+03  0.00000000000E+00 0. -1.
</event>
<event>
 5    1  0.4419198E-005  0.4821366E+02  0.7818608E-02  0.1299238E+00
         21   -1    0    0  501  502  0.00000000000E+00  0.00000000000E+00  0.23796470135E+02  0.23796470135E+02  0.00000000000E+00 0. -1.
          4   -1    0    0  502    0 -0.00000000000E+00 -0.00000000000E+00 -0.19000743699E+03  0.19000743699E+03  0.00000000000E+00 0.  1.
        -13    1    1    2    0    0  0.32696658449E+02 -0.38254625895E+02 -0.11532462816E+03  0.12582634422E+03  0.10566000000E+00 0.  1.
         13    1    1    2    0    0 -0.36482893335E+02  0.27554038015E+02 -0.58547341210E+02  0.74283435865E+02  0.10566000000E+00 0. -1.
          4    1    1    2  501    0  0.37862348864E+01  0.10700587881E+02  0.76610025201E+01  0.13694127034E+02  0.00000000000E+00 0.  1.
</event>
<event>
 5    1  0.4419198E-005  0.2506104E+03  0.7818608E-02  0.1030077E+00
         21   -1    0    0  501  502  0.00000000000E+00  0.00000000000E+00  0.24904373527E+03  0.24904373527E+03  0.00000000000E+00 0. -1.
          4   -1    0    0  502    0 -0.00000000000E+00 -0.00000000000E+00 -0.18971690380E+04  0.18971690380E+04  0.00000000000E+00 0.  1.
        -13    1    1    2    0    0  0.23148450769E+03  0.81104232311E+02 -0.13525172638E+04  0.13745784568E+04  0.10566000000E+00 0.  1.
         13    1    1    2    0    0 -0.19733691770E+03 -0.23513911541E+03 -0.45401953527E+03  0.54805657760E+03  0.10566000000E+00 0. -1.
          4    1    1    2  501    0 -0.34147589987E+02  0.15403488310E+03  0.15841149639E+03  0.22357773884E+03  0.00000000000E+00 0.  1.
</event>
<event>
 5    1  0.4419198E-005  0.4455966E+03  0.7818608E-02  0.9772912E-01
          4   -1    0    0  502    0 -0.00000000000E+00  0.00000000000E+00  0.31127497807E+04  0.31127497807E+04  0.00000000000E+00 0.  1.
         21   -1    0    0  501  502  0.00000000000E+00 -0.00000000000E+00 -0.12192955307E+03  0.12192955307E+03  0.00000000000E+00 0. -1.
        -13    1    1    2    0    0  0.69646675051E+02  0.45762546426E+03  0.79027010590E+03  0.91585947411E+03  0.10566000000E+00 0.  1.
         13    1    1    2    0    0 -0.24669244709E+03 -0.31804760137E+02  0.10551010737E+04  0.10840235206E+04  0.10566000000E+00 0. -1.
          4    1    1    2  501    0  0.17704577204E+03 -0.42582070412E+03  0.11454490480E+04  0.12347963391E+04  0.00000000000E+00 0.  1.
</event>
<event>
 5    1  0.4419198E-005  0.4074172E+03  0.7818608E-02  0.9707866E-01
         -4   -1    0    0    0  501 -0.00000000000E+00  0.00000000000E+00  0.84979908485E+03  0.84979908485E+03  0.00000000000E+00 0. -1.
         21   -1    0    0  501  502  0.00000000000E+00 -0.00000000000E+00 -0.35967258809E+03  0.35967258809E+03  0.00000000000E+00 0. -1.
        -13    1    1    2    0    0 -0.29829065585E+03  0.19201204327E+03  0.19009119928E+03  0.40246815444E+03  0.10566000000E+00 0.  1.
         13    1    1    2    0    0  0.27949157964E+03 -0.39928352963E+03  0.34107442042E+03  0.59487364335E+03  0.10566000000E+00 0. -1.
         -4    1    1    2    0  502  0.18799076201E+02  0.20727148635E+03 -0.41039122937E+02  0.21212987515E+03  0.00000000000E+00 0. -1.
</event>
<event>
 5    1  0.4419198E-005  0.2754707E+03  0.7818608E-02  0.1018923E+00
          4   -1    0    0  502    0 -0.00000000000E+00  0.00000000000E+00  0.56534987199E+03  0.56534987199E+03  0.00000000000E+00 0.  1.
         21   -1    0    0  501  502  0.00000000000E+00 -0.00000000000E+00 -0.78658006640E+03  0.78658006640E+03  0.00000000000E+00 0.  1.
        -13    1    1    2    0    0  0.71912471761E+00 -0.88658566610E+02  0.43109626280E+03  0.44011914016E+03  0.10566000000E+00 0.  1.
         13    1    1    2    0    0  0.27956637704E+03  0.52990618949E+01 -0.11963304770E+03  0.30413404363E+03  0.10566000000E+00 0. -1.
          4    1    1    2  501    0 -0.28028550176E+03  0.83359504715E+02 -0.53269340952E+03  0.60767675459E+03  0.00000000000E+00 0.  1.
</event>
<event>
 5    1  0.4419198E-005  0.7298586E+03  0.7818608E-02  0.9080754E-01
         -4   -1    0    0    0  501 -0.00000000000E+00  0.00000000000E+00  0.38363569954E+04  0.38363569954E+04  0.00000000000E+00 0. -1.
         21   -1    0    0  501  502  0.00000000000E+00 -0.00000000000E+00 -0.23541667123E+03  0.23541667123E+03  0.00000000000E+00 0.  1.
        -13    1    1    2    0    0  0.37507135786E+02 -0.70936409580E+03  0.14908041419E+04  0.16513937164E+04  0.10566000000E+00 0.  1.
         13    1    1    2    0    0 -0.10746077867E+03  0.73843630700E+03  0.21879982422E+04  0.23117465945E+04  0.10566000000E+00 0. -1.
         -4    1    1    2    0  502  0.69953642886E+02 -0.29072211202E+02 -0.77862059898E+02  0.10863335578E+03  0.00000000000E+00 0. -1.
</event>
<event>
 5    1  0.4419198E-005  0.4691375E+03  0.7818608E-02  0.9548309E-01
         21   -1    0    0  501  502  0.00000000000E+00  0.00000000000E+00  0.47750259404E+03  0.47750259404E+03  0.00000000000E+00 0. -1.
         -4   -1    0    0    0  501 -0.00000000000E+00 -0.00000000000E+00 -0.14849824142E+04  0.14849824142E+04  0.00000000000E+00 0. -1.
        -13    1    1    2    0    0 -0.21903896260E+03  0.37140707511E+03 -0.72506019530E+03  0.84358377210E+03  0.10566000000E+00 0.  1.
         13    1    1    2    0    0  0.57439933320E+03 -0.41851267283E+03 -0.10327028962E+03  0.71815890664E+03  0.10566000000E+00 0. -1.
         -4    1    1    2    0  502 -0.35536037060E+03  0.47105597715E+02 -0.17914933521E+03  0.40074232948E+03  0.00000000000E+00 0. -1.
</event>
<event>
 5    1  0.5748259E-005  0.1671551E+03  0.7818608E-02  0.1140171E+00
         21   -1    0    0  501  502  0.00000000000E+00  0.00000000000E+00  0.11685377532E+04  0.11685377532E+04  0.00000000000E+00 0.  1.
          4   -1    0    0  502    0 -0.00000000000E+00 -0.00000000000E+00 -0.28958592647E+03  0.28958592647E+03  0.00000000000E+00 0.  1.
        -13    1    1    2    0    0 -0.56130442241E+01 -0.13957080440E+03 -0.17941502712E+03  0.22737915213E+03  0.10566000000E+00 0.  1.
         13    1    1    2    0    0 -0.30392757272E+02 -0.24582469223E+02 -0.75218621035E+02  0.84769508682E+02  0.10566000000E+00 0. -1.
          4    1    1    2  501    0  0.36005801496E+02  0.16415327362E+03  0.11335854749E+04  0.11459750188E+04  0.00000000000E+00 0.  1.
</event>
<event>
 5    1  0.4419198E-005  0.4928654E+03  0.7818608E-02  0.9592090E-01
         -4   -1    0    0    0  501 -0.00000000000E+00  0.00000000000E+00  0.38789188875E+03  0.38789188875E+03  0.00000000000E+00 0. -1.
         21   -1    0    0  501  502  0.00000000000E+00 -0.00000000000E+00 -0.12712530699E+04  0.12712530699E+04  0.00000000000E+00 0. -1.
        -13    1    1    2    0    0 -0.29575300112E+03 -0.17937440166E+03 -0.18878493974E+03  0.39406189650E+03  0.10566000000E+00 0.  1.
         13    1    1    2    0    0 -0.17704914800E+03 -0.24356083131E+03  0.29353798936E+02  0.30253914793E+03  0.10566000000E+00 0. -1.
         -4    1    1    2    0  502  0.47280214911E+03  0.42293523297E+03 -0.72393004036E+03  0.96254391423E+03  0.00000000000E+00 0. -1.
</event>
<event>
 5    1  0.4419198E-005  0.4426189E+03  0.7818608E-02  0.9613471E-01
         21   -1    0    0  501  502  0.00000000000E+00  0.00000000000E+00  0.74044388458E+03  0.74044388458E+03  0.00000000000E+00 0. -1.
         -4   -1    0    0    0  501 -0.00000000000E+00 -0.00000000000E+00 -0.11977926803E+04  0.11977926803E+04  0.00000000000E+00 0. -1.
        -13    1    1    2    0    0 -0.18993796221E+03  0.37162731733E+03 -0.69066684794E+03  0.80697211754E+03  0.10566000000E+00 0.  1.
         13    1    1    2    0    0  0.56984577694E+03 -0.42888180405E+03  0.22177866007E+03  0.74689329664E+03  0.10566000000E+00 0. -1.
         -4    1    1    2    0  502 -0.37990781473E+03  0.57254486722E+02  0.11539392120E+02  0.38437115073E+03  0.00000000000E+00 0. -1.
</event>
<event>
 5    1  0.4419198E-005  0.6170293E+02  0.7818608E-02  0.1250341E+00
         21   -1    0    0  501  502  0.00000000000E+00  0.00000000000E+00  0.13307122376E+03  0.13307122376E+03  0.00000000000E+00 0.  1.
         -4   -1    0    0    0  501 -0.00000000000E+00 -0.00000000000E+00 -0.31062343465E+03  0.31062343465E+03  0.00000000000E+00 0. -1.
        -13    1    1    2    0    0  0.34540973677E+02 -0.39229769878E+02  0.39467165582E+02  0.65495969573E+02  0.10566000000E+00 0.  1.
         13    1    1    2    0    0 -0.37078388502E+02  0.50065685435E+02 -0.29394372229E+03  0.30047346436E+03  0.10566000000E+00 0. -1.
         -4    1    1    2    0  502  0.25374148250E+01 -0.10835915557E+02  0.76924345818E+02  0.77725224473E+02  0.00000000000E+00 0. -1.
</event>
<event>
 5    1  0.4419198E-005  0.1027483E+03  0.7818608E-02  0.1175379E+00
          4   -1    0    0  502    0 -0.00000000000E+00  0.00000000000E+00  0.13515401349E+03  0.13515401349E+03  0.00000000000E+00 0.  1.
         21   -1    0    0  501  502  0.00000000000E+00 -0.00000000000E+00 -0.75929286301E+03  0.75929286301E+03  0.00000000000E+00 0.  1.
        -13    1    1    2    0    0  0.53690711788E+01  0.81257150928E+02  0.10987674338E+03  0.13676425484E+03  0.10566000000E+00 0.  1.
         13    1    1    2    0    0  0.70493096771E+02 -0.95226979894E+01 -0.17332676221E+03  0.18735564078E+03  0.10566000000E+00 0. -1.
          4    1    1    2  501    0 -0.75862167950E+02 -0.71734452939E+02 -0.56068883068E+03  0.57032698088E+03  0.00000000000E+00 0.  1.
</event>
<event>
 5    1  0.4419198E-005  0.1497104E+03  0.7818608E-02  0.1127992E+00
         21   -1    0    0  501  502  0.00000000000E+00  0.00000000000E+00  0.38979766392E+02  0.38979766392E+02  0.00000000000E+00 0. -1.
         -4   -1    0    0    0  501 -0.00000000000E+00 -0.00000000000E+00 -0.11191732456E+04  0.11191732456E+04  0.00000000000E+00 0. -1.
        -13    1    1    2    0    0  0.19347379671E+02  0.71653099723E+02 -0.27333461944E+03  0.28323190701E+03  0.10566000000E+00 0.  1.
         13    1    1    2    0    0 -0.33423258831E+02 -0.19931821211E+03 -0.58032705606E+03  0.61451148653E+03  0.10566000000E+00 0. -1.
         -4    1    1    2    0  502  0.14075879160E+02  0.12766511239E+03 -0.22653180373E+03  0.26040961848E+03  0.00000000000E+00 0. -1.
</event>
<event>
 5    1  0.4419198E-005  0.1923581E+03  0.7818608E-02  0.1136633E+00
          4   -1    0    0  502    0 -0.00000000000E+00  0.00000000000E+00  0.72100754005E+03  0.72100754005E+03  0.00000000000E+00 0.  1.
         21   -1    0    0  501  502  0.00000000000E+00 -0.00000000000E+00 -0.99245922431E+03  0.99245922431E+03  0.00000000000E+00 0. -1.
        -13    1    1    2    0    0 -0.37220970045E+02  0.59425184379E+02  0.36503328353E+03  0.37170695769E+03  0.10566000000E+00 0.  1.
         13    1    1    2    0    0  0.54091468407E+03 -0.63915500522E+02 -0.19172593246E+02  0.54501512470E+03  0.10566000000E+00 0. -1.
          4    1    1    2  501    0 -0.50369371403E+03  0.44903161426E+01 -0.61731237455E+03  0.79674468198E+03  0.00000000000E+00 0.  1.
</event>
<event>
 5    1  0.4419198E-005  0.4887282E+03  0.7818608E-02  0.9531249E-01
         21   -1    0    0  501  502  0.00000000000E+00  0.00000000000E+00  0.58586015527E+03  0.58586015527E+03  0.00000000000E+00 0.  1.
          4   -1    0    0  502    0 -0.00000000000E+00 -0.00000000000E+00 -0.11140514026E+04  0.11140514026E+04  0.00000000000E+00 0.  1.
        -13    1    1    2    0    0 -0.53827724518E+03  0.12335191471E+03  0.72874131273E+02  0.55701771760E+03  0.10566000000E+00 0.  1.
         13    1    1    2    0    0  0.30039011657E+03  0.32322488888E+03 -0.40908102308E+03  0.60171076568E+03  0.10566000000E+00 0. -1.
          4    1    1    2  501    0  0.23788712861E+03 -0.44657680359E+03 -0.19198435554E+03  0.54118307460E+03  0.00000000000E+00 0.  1.
</event>
<event>
 5    1  0.4419198E-005  0.2528763E+03  0.7818608E-02  0.1028913E+00
         21   -1    0    0  501  502  0.00000000000E+00  0.00000000000E+00  0.45012342616E+03  0.45012342616E+03  0.00000000000E+00 0. -1.
         -4   -1    0    0    0  501 -0.00000000000E+00 -0.00000000000E+00 -0.92439797837E+03  0.92439797837E+03  0.00000000000E+00 0. -1.
        -13    1    1    2    0    0 -0.21297857998E+03 -0.10108175440E+03  0.11213839766E+02  0.23601516471E+03  0.10566000000E+00 0.  1.
         13    1    1    2    0    0  0.25890373633E+03 -0.41637690593E+02 -0.77190011394E+03  0.81522674087E+03  0.10566000000E+00 0. -1.
         -4    1    1    2    0  502 -0.45925156345E+02  0.14271944500E+03  0.28641172196E+03  0.32327949895E+03  0.00000000000E+00 0. -1.
</event>
<event>
 5    1  0.4419198E-005  0.4646678E+03  0.7818608E-02  0.9729826E-01
         21   -1    0    0  501  502  0.00000000000E+00  0.00000000000E+00  0.85851939725E+03  0.85851939725E+03  0.00000000000E+00 0.  1.
          4   -1    0    0  502    0 -0.00000000000E+00 -0.00000000000E+00 -0.90025850401E+03  0.90025850401E+03  0.00000000000E+00 0.  1.
        -13    1    1    2    0    0  0.46285851029E+03 -0.49639723643E+01  0.44771388690E+03  0.64398010626E+03  0.10566000000E+00 0.  1.
         13    1    1    2    0    0 -0.11937613054E+02  0.25419096015E+03 -0.54015622270E+03  0.59709656414E+03  0.10566000000E+00 0. -1.
          4    1    1    2  501    0 -0.45092089723E+03 -0.24922698779E+03  0.50703229037E+02  0.51770123086E+03  0.00000000000E+00 0.  1.
</event>
<event>
 5    1  0.4419198E-005  0.3475467E+03  0.7818608E-02  0.9894126E-01
          4   -1    0    0  502    0 -0.00000000000E+00  0.00000000000E+00  0.69646499131E+03  0.69646499131E+03  0.00000000000E+00 0.  1.
         21   -1    0    0  501  502  0.00000000000E+00 -0.00000000000E+00 -0.92333759810E+03  0.92333759810E+03  0.00000000000E+00 0.  1.
        -13    1    1    2    0    0  0.55778311148E+03  0.32957911129E+02 -0.62864830439E+03  0.84107486298E+03  0.10566000000E+00 0.  1.
         13    1    1    2    0    0 -0.27706989329E+03 -0.18381390180E+03  0.28943244159E+03  0.44082471083E+03  0.10566000000E+00 0. -1.
          4    1    1    2  501    0 -0.28071321818E+03  0.15085599067E+03  0.11234325602E+03  0.33790301561E+03  0.00000000000E+00 0.  1.
</event>
<event>
 5    1  0.4419198E-005  0.5979072E+02  0.7818608E-02  0.1256374E+00
          4   -1    0    0  502    0 -0.00000000000E+00  0.00000000000E+00  0.13305902733E+03  0.13305902733E+03  0.00000000000E+00 0.  1.
         21   -1    0    0  501  502  0.00000000000E+00 -0.00000000000E+00 -0.98059113507E+02  0.98059113507E+02  0.00000000000E+00 0. -1.
        -13    1    1    2    0    0  0.56448806334E+02 -0.16941898848E+02  0.10240112105E+03  0.11815031286E+03  0.10566000000E+00 0.  1.
         13    1    1    2    0    0 -0.67849522682E+02  0.23997685668E+01 -0.36810047293E+02  0.77228928278E+02  0.10566000000E+00 0. -1.
          4    1    1    2  501    0  0.11400716348E+02  0.14542130282E+02 -0.30591159927E+02  0.35738899704E+02  0.00000000000E+00 0.  1.
</event>
<event>
 5    1  0.4419198E-005  0.4712220E+02  0.7818608E-02  0.1303971E+00
         -4   -1    0    0    0  501 -0.00000000000E+00  0.00000000000E+00  0.14446975430E+02  0.14446975430E+02  0.00000000000E+00 0. -1.
         21   -1    0    0  501  502  0.00000000000E+00 -0.00000000000E+00 -0.22390899674E+03  0.22390899674E+03  0.00000000000E+00 0.  1.
        -13    1    1    2    0    0  0.31498038050E+02 -0.20260371343E+02 -0.11457604842E+03  0.12054165705E+03  0.10566000000E+00 0.  1.
         13    1    1    2    0    0 -0.45302048387E+02  0.28217391745E+02 -0.66569312615E+02  0.85322806629E+02  0.10566000000E+00 0. -1.
         -4    1    1    2    0  502  0.13804010338E+02 -0.79570204019E+01 -0.28316660269E+02  0.32491508489E+02  0.00000000000E+00 0. -1.
</event>
<event>
 5    1  0.4419198E-005  0.4948515E+03  0.7818608E-02  0.9580464E-01
         21   -1    0    0  501  502  0.00000000000E+00  0.00000000000E+00  0.64527892202E+03  0.64527892202E+03  0.00000000000E+00 0. -1.
         -4   -1    0    0    0  501 -0.00000000000E+00 -0.00000000000E+00 -0.90113043041E+03  0.90113043041E+03  0.00000000000E+00 0. -1.
        -13    1    1    2    0    0  0.24651719814E+03  0.25714513659E+03 -0.33620766685E+03  0.48982645566E+03  0.10566000000E+00 0.  1.
         13    1    1    2    0    0  0.24144043221E+03  0.22143002647E+03 -0.11256366085E+03  0.34640341776E+03  0.10566000000E+00 0. -1.
         -4    1    1    2    0  502 -0.48795763036E+03 -0.47857516306E+03  0.19291981930E+03  0.71017947901E+03  0.00000000000E+00 0. -1.
</event>
<event>
 5    1  0.4419198E-005  0.4420769E+03  0.7818608E-02  0.9776384E-01
         21   -1    0    0  501  502  0.00000000000E+00  0.00000000000E+00  0.56617872677E+03  0.56617872677E+03  0.00000000000E+00 0.  1.
          4   -1    0    0  502    0 -0.00000000000E+00 -0.00000000000E+00 -0.82447719311E+03  0.82447719311E+03  0.00000000000E+00 0.  1.
        -13    1    1    2    0    0 -0.35210011324E+03 -0.13948628134E+03  0.12212150997E+03  0.39792535328E+03  0.10566000000E+00 0.  1.
         13    1    1    2    0    0 -0.25169426454E+03  0.23921738628E+01 -0.26016738449E+03  0.36199834863E+03  0.10566000000E+00 0. -1.
          4    1    1    2  501    0  0.60379437777E+03  0.13709410748E+03 -0.12025259182E+03  0.63073221796E+03  0.00000000000E+00 0.  1.
</event>
<event>
 5    1  0.4419198E-005  0.3672361E+03  0.7818608E-02  0.9828753E-01
         21   -1    0    0  501  502  0.00000000000E+00  0.00000000000E+00  0.50282799071E+03  0.50282799071E+03  0.00000000000E+00 0. -1.
         -4   -1    0    0    0  501 -0.00000000000E+00 -0.00000000000E+00 -0.18348647810E+04  0.18348647810E+04  0.00000000000E+00 0. -1.
        -13    1    1    2    0    0  0.11350355997E+03 -0.34461891145E+03 -0.13187459065E+04  0.13677485256E+04  0.10566000000E+00 0.  1.
         13    1    1    2    0    0 -0.10163473636E+03  0.36702498070E+03 -0.41740559966E+03  0.56503486785E+03  0.10566000000E+00 0. -1.
         -4    1    1    2    0  502 -0.11868823619E+02 -0.22406069256E+02  0.40411471593E+03  0.40490937818E+03  0.00000000000E+00 0. -1.
</event>
<event>
 5    1  0.4419198E-005  0.1144706E+03  0.7818608E-02  0.1142610E+00
         21   -1    0    0  501  502  0.00000000000E+00  0.00000000000E+00  0.17977534869E+04  0.17977534869E+04  0.00000000000E+00 0. -1.
          4   -1    0    0  502    0 -0.00000000000E+00 -0.00000000000E+00 -0.14003138713E+03  0.14003138713E+03  0.00000000000E+00 0.  1.
        -13    1    1    2    0    0 -0.10972192290E+03 -0.29211484508E+02 -0.10735249649E+03  0.15625869851E+03  0.10566000000E+00 0.  1.
         13    1    1    2    0    0  0.12849651703E+03  0.91896084523E+02  0.88241435464E+03  0.89644372366E+03  0.10566000000E+00 0. -1.
          4    1    1    2  501    0 -0.18774594125E+02 -0.62684600014E+02  0.88266024159E+03  0.88508245184E+03  0.00000000000E+00 0.  1.
</event>
<event>
 5    1  0.4419198E-005  0.1137743E+03  0.7818608E-02  0.1156136E+00
         -4   -1    0    0    0  501 -0.00000000000E+00  0.00000000000E+00  0.55251238118E+03  0.55251238118E+03  0.00000000000E+00 0. -1.
         21   -1    0    0  501  502  0.00000000000E+00 -0.00000000000E+00 -0.11837191023E+03  0.11837191023E+03  0.00000000000E+00 0. -1.
        -13    1    1    2    0    0  0.82517137241E+02  0.11755125107E+02  0.15547383575E+03  0.17640687535E+03  0.10566000000E+00 0.  1.
         13    1    1    2    0    0 -0.13455369005E+03 -0.10776771179E+03  0.33113373884E+03  0.37332042453E+03  0.10566000000E+00 0. -1.
         -4    1    1    2    0  502  0.52036552807E+02  0.96012586686E+02 -0.52467103647E+02  0.12115699152E+03  0.00000000000E+00 0. -1.
</event>
<event>
 5    1  0.4419198E-005  0.1483578E+03  0.7818608E-02  0.1102742E+00
         21   -1    0    0  501  502  0.00000000000E+00  0.00000000000E+00  0.69706723889E+03  0.69706723889E+03  0.00000000000E+00 0. -1.
         -4   -1    0    0    0  501 -0.00000000000E+00 -0.00000000000E+00 -0.64854136861E+02  0.64854136861E+02  0.00000000000E+00 0. -1.
        -13    1    1    2    0    0 -0.47069264558E+02  0.14449425641E+03  0.96528612049E+02  0.18003302450E+03  0.10566000000E+00 0.  1.
         13    1    1    2    0    0  0.36023636016E+02 -0.13811240645E+03  0.19864218422E+03  0.24460471721E+03  0.10566000000E+00 0. -1.
         -4    1    1    2    0  502  0.11045628541E+02 -0.63818499657E+01  0.33704230576E+03  0.33728363404E+03  0.00000000000E+00 0. -1.
</event>
<event>
 5    1  0.4419198E-005  0.2098806E+03  0.7818608E-02  0.1053566E+00
         -4   -1    0    0    0  501 -0.00000000000E+00  0.00000000000E+00  0.11273034166E+04  0.11273034166E+04  0.00000000000E+00 0. -1.
         21   -1    0    0  501  502  0.00000000000E+00 -0.00000000000E+00 -0.72722521400E+02  0.72722521400E+02  0.00000000000E+00 0. -1.
        -13    1    1    2    0    0 -0.17506947530E+03 -0.10109011346E+03  0.55767968875E+03  0.59319067645E+03  0.10566000000E+00 0.  1.
         13    1    1    2    0    0  0.19199005298E+03  0.10624162773E+03  0.52759762387E+03  0.57140767215E+03  0.10566000000E+00 0. -1.
         -4    1    1    2    0  502 -0.16920577679E+02 -0.51515142670E+01 -0.30696417422E+02  0.35427589401E+02  0.00000000000E+00 0. -1.
</event>
<event>
 5    1  0.4419198E-005  0.3078086E+03  0.7818608E-02  0.1019053E+00
         21   -1    0    0  501  502  0.00000000000E+00  0.00000000000E+00  0.43738553870E+03  0.43738553870E+03  0.00000000000E+00 0. -1.
         -4   -1    0    0    0  501 -0.00000000000E+00 -0.00000000000E+00 -0.79991202648E+03  0.79991202648E+03  0.00000000000E+00 0. -1.
        -13    1    1    2    0    0  0.15445807542E+03  0.11209911414E+03  0.16103250800E+02  0.19152763327E+03  0.10566000000E+00 0.  1.
         13    1    1    2    0    0 -0.44250284678E+03 -0.13045099550E+03 -0.54387885539E+03  0.71318332295E+03  0.10566000000E+00 0. -1.
         -4    1    1    2    0  502  0.28804477136E+03  0.18351881359E+02  0.16524911680E+03  0.33258660896E+03  0.00000000000E+00 0. -1.
</event>
<event>
 5    1  0.4419198E-005  0.7748294E+02  0.7818608E-02  0.1218193E+00
         21   -1    0    0  501  502  0.00000000000E+00  0.00000000000E+00  0.49170050259E+03  0.49170050259E+03  0.00000000000E+00 0. -1.
         -4   -1    0    0    0  501 -0.00000000000E+00 -0.00000000000E+00 -0.15201301170E+03  0.15201301170E+03  0.00000000000E+00 0. -1.
        -13    1    1    2    0    0 -0.42894770611E+02  0.45099757729E+02  0.21827759010E+02  0.65957650962E+02  0.10566000000E+00 0.  1.
         13    1    1    2    0    0  0.11487890828E+03 -0.69459037332E+02 -0.90813771692E+02  0.16207675258E+03  0.10566000000E+00 0. -1.
         -4    1    1    2    0  502 -0.71984137673E+02  0.24359279603E+02  0.40867350358E+03  0.41567911074E+03  0.00000000000E+00 0. -1.
</event>
<event>
 5    1  0.4419198E-005  0.1601834E+03  0.7818608E-02  0.1091481E+00
          4   -1    0    0  502    0 -0.00000000000E+00  0.00000000000E+00  0.49437000449E+03  0.49437000449E+03  0.00000000000E+00 0.  1.
         21   -1    0    0  501  502  0.00000000000E+00 -0.00000000000E+00 -0.18320333892E+03  0.18320333892E+03  0.00000000000E+00 0. -1.
        -13    1    1    2    0    0 -0.56187938848E+02 -0.15028689699E+03  0.43383383724E+03  0.46255274875E+03  0.10566000000E+00 0.  1.
         13    1    1    2    0    0  0.68907980014E+02  0.14240281034E+03 -0.97772527345E+02  0.18597405295E+03  0.10566000000E+00 0. -1.
          4    1    1    2  501    0 -0.12720041166E+02  0.78840866481E+01 -0.24894644325E+02  0.29046541716E+02  0.00000000000E+00 0.  1.
</event>
<event>
 5    1  0.4419198E-005  0.8795687E+02  0.7818608E-02  0.1186183E+00
         -4   -1    0    0    0  501 -0.00000000000E+00  0.00000000000E+00  0.51459328695E+03  0.51459328695E+03  0.00000000000E+00 0. -1.
         21   -1    0    0  501  502  0.00000000000E+00 -0.00000000000E+00 -0.76614063756E+02  0.76614063756E+02  0.00000000000E+00 0.  1.
        -13    1    1    2    0    0  0.57701853407E+02  0.57052316554E+02 -0.50226548130E-01  0.81144835926E+02  0.10566000000E+00 0.  1.
         13    1    1    2    0    0 -0.56300342577E+02 -0.68535236720E+02  0.46883788446E+03  0.47715383297E+03  0.10566000000E+00 0. -1.
         -4    1    1    2    0  502 -0.14015108298E+01  0.11482920166E+02 -0.30808434723E+02  0.32908681806E+02  0.00000000000E+00 0. -1.
</event>
<event>
 5    1  0.4419198E-005  0.1513252E+03  0.7818608E-02  0.1099812E+00
          4   -1    0    0  502    0 -0.00000000000E+00  0.00000000000E+00  0.19062213789E+03  0.19062213789E+03  0.00000000000E+00 0.  1.
         21   -1    0    0  501  502  0.00000000000E+00 -0.00000000000E+00 -0.16064308646E+03  0.16064308646E+03  0.00000000000E+00 0. -1.
        -13    1    1    2    0    0  0.15146884548E+03  0.28146803508E+02  0.26210867581E+02  0.15627563611E+03  0.10566000000E+00 0.  1.
         13    1    1    2    0    0 -0.14255429295E+03 -0.44783335306E+02  0.39520343983E+02  0.15456112808E+03  0.10566000000E+00 0. -1.
          4    1    1    2  501    0 -0.89145525263E+01  0.16636531798E+02 -0.35752160136E+02  0.40428460166E+02  0.00000000000E+00 0.  1.
</event>
<event>
 5    1  0.4419198E-005  0.4704370E+03  0.7818608E-02  0.9794642E-01
         21   -1    0    0  501  502  0.00000000000E+00  0.00000000000E+00  0.28348898235E+03  0.28348898235E+03  0.00000000000E+00 0. -1.
         -4   -1    0    0    0  501 -0.00000000000E+00 -0.00000000000E+00 -0.13101681021E+04  0.13101681021E+04  0.00000000000E+00 0. -1.
        -13    1    1    2    0    0  0.18083384995E+03 -0.76155824224E+02 -0.25523030552E+03  0.32193650130E+03  0.10566000000E+00 0.  1.
         13    1    1    2    0    0 -0.47800333631E+03 -0.19328733193E+03 -0.15893458401E+03  0.53954369180E+03  0.10566000000E+00 0. -1.
         -4    1    1    2    0  502  0.29716948636E+03  0.26944315615E+03 -0.61251423023E+03  0.73217689137E+03  0.00000000000E+00 0. -1.
</event>
<event>
 5    1  0.4419198E-005  0.4689823E+02  0.7818608E-02  0.1304960E+00
         21   -1    0    0  501  502  0.00000000000E+00  0.00000000000E+00  0.53728896046E+03  0.53728896046E+03  0.00000000000E+00 0.  1.
         -4   -1    0    0    0  501 -0.00000000000E+00 -0.00000000000E+00 -0.11202074616E+03  0.11202074616E+03  0.00000000000E+00 0. -1.
        -13    1    1    2    0    0 -0.76054584159E+01 -0.41680505211E+02  0.18534026694E+03  0.19012136447E+03  0.10566000000E+00 0.  1.
         13    1    1    2    0    0 -0.22785268290E+02  0.41423035161E+02 -0.10383162064E+03  0.11408791742E+03  0.10566000000E+00 0. -1.
         -4    1    1    2    0  502  0.30390726706E+02  0.25747005048E+00  0.34375956800E+03  0.34510042474E+03  0.00000000000E+00 0. -1.
</event>
<event>
 5    1  0.4419198E-005  0.2441171E+03  0.7818608E-02  0.1071509E+00
         -4   -1    0    0    0  501 -0.00000000000E+00  0.00000000000E+00  0.10456144821E+04  0.10456144821E+04  0.00000000000E+00 0. -1.
         21   -1    0    0  501  502  0.00000000000E+00 -0.00000000000E+00 -0.93559895946E+02  0.93559895946E+02  0.00000000000E+00 0. -1.
        -13    1    1    2    0    0  0.52523878279E+02  0.59292205279E+02  0.23735208149E+03  0.25022059297E+03  0.10566000000E+00 0.  1.
         13    1    1    2    0    0 -0.14513564076E+03 -0.25840665200E+03  0.50362708638E+03  0.58436170761E+03  0.10566000000E+00 0. -1.
         -4    1    1    2    0  502  0.92611762483E+02  0.19911444672E+03  0.21107541824E+03  0.30459207742E+03  0.00000000000E+00 0. -1.
</event>
<event>
 5    1  0.4419198E-005  0.4970182E+03  0.7818608E-02  0.9554837E-01
         -4   -1    0    0    0  501 -0.00000000000E+00  0.00000000000E+00  0.16271630870E+04  0.16271630870E+04  0.00000000000E+00 0. -1.
         21   -1    0    0  501  502  0.00000000000E+00 -0.00000000000E+00 -0.64637813425E+03  0.64637813425E+03  0.00000000000E+00 0. -1.
        -13    1    1    2    0    0 -0.38094250224E+03 -0.58346517277E+02  0.11299744513E+04  0.11938859987E+04  0.10566000000E+00 0.  1.
         13    1    1    2    0    0  0.27237835880E+03 -0.46101069752E+03 -0.32866179472E+02  0.53647090367E+03  0.10566000000E+00 0. -1.
         -4    1    1    2    0  502  0.10856414344E+03  0.51935721480E+03 -0.11632331902E+03  0.54318431895E+03  0.00000000000E+00 0. -1.
</event>
<event>
 5    1  0.4419198E-005  0.6725546E+02  0.7818608E-02  0.1276451E+00
         21   -1    0    0  501  502  0.00000000000E+00  0.00000000000E+00  0.10786368085E+03  0.10786368085E+03  0.00000000000E+00 0. -1.
          4   -1    0    0  502    0 -0.00000000000E+00 -0.00000000000E+00 -0.98754797397E+02  0.98754797397E+02  0.00000000000E+00 0.  1.
        -13    1    1    2    0    0 -0.52545078514E+02 -0.37340014654E+02 -0.50912523977E+02  0.82142304766E+02  0.10566000000E+00 0.  1.
         13    1    1    2    0    0 -0.16011306043E+02  0.22811829533E+02  0.44802565327E+02  0.52763837159E+02  0.10566000000E+00 0. -1.
          4    1    1    2  501    0  0.68556384556E+02  0.14528185122E+02  0.15218842108E+02  0.71712336327E+02  0.00000000000E+00 0.  1.
</event>
<event>
 5    1  0.4419198E-005  0.6640904E+02  0.7818608E-02  0.1236477E+00
         -4   -1    0    0    0  501 -0.00000000000E+00  0.00000000000E+00  0.50128036656E+03  0.50128036656E+03  0.00000000000E+00 0. -1.
         21   -1    0    0  501  502  0.00000000000E+00 -0.00000000000E+00 -0.24623656607E+02  0.24623656607E+02  0.00000000000E+00 0. -1.
        -13    1    1    2    0    0  0.65776539458E+02  0.36143355743E+02  0.14456204924E+03  0.16288367798E+03  0.10566000000E+00 0.  1.
         13    1    1    2    0    0 -0.60174468756E+02 -0.21304079033E+02  0.33954704639E+03  0.34549535214E+03  0.10566000000E+00 0. -1.
         -4    1    1    2    0  502 -0.56020707023E+01 -0.14839276711E+02 -0.74523856702E+01  0.17524993056E+02  0.00000000000E+00 0. -1.
</event>
<event>
 5    1  0.8556690E-005  0.4846381E+03  0.7818608E-02  0.1009436E+00
         -4   -1    0    0    0  501 -0.00000000000E+00  0.00000000000E+00  0.36487317301E+03  0.36487317301E+03  0.00000000000E+00 0. -1.
         21   -1    0    0  501  502  0.00000000000E+00 -0.00000000000E+00 -0.87214694130E+03  0.87214694130E+03  0.00000000000E+00 0. -1.
        -13    1    1    2    0    0  0.66152189148E+02  0.61305279411E+01  0.53777480218E+02  0.85473528326E+02  0.10566000000E+00 0.  1.
         13    1    1    2    0    0  0.42214755959E+03  0.13679242877E+03 -0.79138810377E+02  0.45075901889E+03  0.10566000000E+00 0. -1.
         -4    1    1    2    0  502 -0.48829974874E+03 -0.14292295672E+03 -0.48191243812E+03  0.70078756709E+03  0.00000000000E+00 0. -1.
</event>
<event>
 5    1  0.4419198E-005  0.8533406E+02  0.7818608E-02  0.1191405E+00
         21   -1    0    0  501  502  0.00000000000E+00  0.00000000000E+00  0.50704956029E+03  0.50704956029E+03  0.00000000000E+00 0. -1.
          4   -1    0    0  502    0 -0.00000000000E+00 -0.00000000000E+00 -0.16352747130E+03  0.16352747130E+03  0.00000000000E+00 0.  1.
        -13    1    1    2    0    0  0.17132463369E+02 -0.84979544044E+02 -0.14689334389E+03  0.17056585195E+03  0.10566000000E+00 0.  1.
         13    1    1    2    0    0  0.11094112020E+02  0.53525375260E+02  0.30281704004E+03  0.30771125429E+03  0.10566000000E+00 0. -1.
          4    1    1    2  501    0 -0.28226575389E+02  0.31454168784E+02  0.18759839285E+03  0.19229992535E+03  0.00000000000E+00 0.  1.
</event>
<event>
 5    1  0.4419198E-005  0.3692547E+03  0.7818608E-02  0.1010945E+00
         21   -1    0    0  501  502  0.00000000000E+00  0.00000000000E+00  0.97094672969E+03  0.97094672969E+03  0.00000000000E+00 0.  1.
          4   -1    0    0  502    0 -0.00000000000E+00 -0.00000000000E+00 -0.38395096259E+03  0.38395096259E+03  0.00000000000E+00 0.  1.
        -13    1    1    2    0    0 -0.44571095814E+03 -0.13885847880E+03 -0.12075243831E+03  0.48220441502E+03  0.10566000000E+00 0.  1.
         13    1    1    2    0    0  0.98362804413E+02  0.10393113394E+03  0.32238641270E+03  0.35271792150E+03  0.10566000000E+00 0. -1.
          4    1    1    2  501    0  0.34734815373E+03  0.34927344862E+02  0.38536179270E+03  0.51997535576E+03  0.00000000000E+00 0.  1.
</event>
<event>
 5    1  0.4419198E-005  0.3953725E+03  0.7818608E-02  0.1006342E+00
         21   -1    0    0  501  502  0.00000000000E+00  0.00000000000E+00  0.15814559674E+03  0.15814559674E+03  0.00000000000E+00 0.  1.
          4   -1    0    0  502    0 -0.00000000000E+00 -0.00000000000E+00 -0.21428570681E+04  0.21428570681E+04  0.00000000000E+00 0.  1.
        -13    1    1    2    0    0  0.42654852108E+03 -0.16773598906E+03 -0.95643726075E+03  0.10605900470E+04  0.10566000000E+00 0.  1.
         13    1    1    2    0    0 -0.12305977319E+03 -0.56013072698E+02 -0.77379395715E+03  0.78551783645E+03  0.10566000000E+00 0. -1.
          4    1    1    2  501    0 -0.30348874789E+03  0.22374906175E+03 -0.25448025342E+03  0.45489478136E+03  0.00000000000E+00 0.  1.
</event>
<event>
 5    1  0.4419198E-005  0.2064368E+03  0.7818608E-02  0.1055811E+00
         21   -1    0    0  501  502  0.00000000000E+00  0.00000000000E+00  0.79157916613E+02  0.79157916613E+02  0.00000000000E+00 0.  1.
         -4   -1    0    0    0  501 -0.00000000000E+00 -0.00000000000E+00 -0.80922695537E+03  0.80922695537E+03  0.00000000000E+00 0. -1.
        -13    1    1    2    0    0  0.41637113814E+02  0.18197202619E+03 -0.20583787910E+03  0.27787895062E+03  0.10566000000E+00 0.  1.
         13    1    1    2    0    0 -0.49885334467E+02 -0.21240312980E+03 -0.53452474346E+03  0.57733902404E+03  0.10566000000E+00 0. -1.
         -4    1    1    2    0  502  0.82482206530E+01  0.30431103608E+02  0.10293583795E+02  0.33166897324E+02  0.00000000000E+00 0. -1.
</event>
<event>
 5    1  0.4419198E-005  0.2453957E+02  0.7818608E-02  0.1473356E+00
         21   -1    0    0  501  502  0.00000000000E+00  0.00000000000E+00  0.31618075933E+03  0.31618075933E+03  0.00000000000E+00 0. -1.
          4   -1    0    0  502    0 -0.00000000000E+00 -0.00000000000E+00 -0.15464799838E+02  0.15464799838E+02  0.00000000000E+00 0.  1.
        -13    1    1    2    0    0  0.15927007896E+02  0.11979608672E+02 -0.46030159927E-01  0.19929723713E+02  0.10566000000E+00 0.  1.
         13    1    1    2    0    0 -0.41618773322E+02 -0.27435827025E+00  0.91044235291E+02  0.10010625110E+03  0.10566000000E+00 0. -1.
          4    1    1    2  501    0  0.25691765426E+02 -0.11705250401E+02  0.20971775436E+03  0.21160958436E+03  0.00000000000E+00 0.  1.
</event>
<event>
 5    1  0.4419198E-005  0.8449706E+02  0.7818608E-02  0.1193115E+00
         21   -1    0    0  501  502  0.00000000000E+00  0.00000000000E+00  0.19341156270E+03  0.19341156270E+03  0.00000000000E+00 0.  1.
         -4   -1    0    0    0  501 -0.00000000000E+00 -0.00000000000E+00 -0.14225114589E+03  0.14225114589E+03  0.00000000000E+00 0. -1.
        -13    1    1    2    0    0  0.73898896506E+02 -0.30409702448E+02  0.13364081235E+03  0.15571022702E+03  0.10566000000E+00 0.  1.
         13    1    1    2    0    0 -0.74471318886E+02  0.40934111027E+02 -0.11657760633E+03  0.14426339884E+03  0.10566000000E+00 0. -1.
         -4    1    1    2    0  502  0.57242238003E+00 -0.10524408579E+02  0.34097210787E+02  0.35689082739E+02  0.00000000000E+00 0. -1.
</event>
<event>
 5    1  0.4419198E-005  0.4488762E+03  0.7818608E-02  0.9597667E-01
         -4   -1    0    0    0  501 -0.00000000000E+00  0.00000000000E+00  0.15693607726E+04  0.15693607726E+04  0.00000000000E+00 0. -1.
         21   -1    0    0  501  502  0.00000000000E+00 -0.00000000000E+00 -0.41002635759E+03  0.41002635759E+03  0.00000000000E+00 0. -1.
        -13    1    1    2    0    0  0.91739224805E+02  0.46419222085E+03  0.50876867535E+03  0.69479211240E+03  0.10566000000E+00 0.  1.
         13    1    1    2    0    0  0.24407167104E+03 -0.40264215496E+03 -0.80562213888E+02  0.47768396145E+03  0.10566000000E+00 0. -1.
         -4    1    1    2    0  502 -0.33581089585E+03 -0.61550065900E+02  0.73112795353E+03  0.80691105632E+03  0.00000000000E+00 0. -1.
</event>
<event>
 5    1  0.4419198E-005  0.1630024E+03  0.7818608E-02  0.1088952E+00
         21   -1    0    0  501  502  0.00000000000E+00  0.00000000000E+00  0.89727665265E+02  0.89727665265E+02  0.00000000000E+00 0. -1.
          4   -1    0    0  502    0 -0.00000000000E+00 -0.00000000000E+00 -0.55619671560E+03  0.55619671560E+03  0.00000000000E+00 0.  1.
        -13    1    1    2    0    0  0.55006453175E+02  0.15629090062E+03 -0.44495385649E+03  0.47480153862E+03  0.10566000000E+00 0.  1.
         13    1    1    2    0    0 -0.43079777147E+02 -0.14548057159E+03 -0.27017163957E+02  0.15411165505E+03  0.10566000000E+00 0. -1.
          4    1    1    2  501    0 -0.11926676028E+02 -0.10810329029E+02  0.55019701081E+01  0.17011187197E+02  0.00000000000E+00 0.  1.
</event>
<event>
 5    1  0.4419198E-005  0.4007640E+03  0.7818608E-02  0.9938353E-01
         -4   -1    0    0    0  501 -0.00000000000E+00  0.00000000000E+00  0.14547233086E+04  0.14547233086E+04  0.00000000000E+00 0. -1.
         21   -1    0    0  501  502  0.00000000000E+00 -0.00000000000E+00 -0.33856470631E+03  0.33856470631E+03  0.00000000000E+00 0. -1.
        -13    1    1    2    0    0 -0.11749083427E+03 -0.15636662884E+03  0.64254326146E+03  0.67165204739E+03  0.10566000000E+00 0.  1.
         13    1    1    2    0    0 -0.24824162535E+03  0.32594648756E+03 -0.98849503421E+02  0.42146915996E+03  0.10566000000E+00 0. -1.
         -4    1    1    2    0  502  0.36573245961E+03 -0.16957985872E+03  0.57246484422E+03  0.70016680753E+03  0.00000000000E+00 0. -1.
</event>
<event>
 5    1  0.4419198E-005  0.4418597E+03  0.7818608E-02  0.9685861E-01
         21   -1    0    0  501  502  0.00000000000E+00  0.00000000000E+00  0.17465119721E+03  0.17465119721E+03  0.00000000000E+00 0. -1.
         -4   -1    0    0    0  501 -0.00000000000E+00 -0.00000000000E+00 -0.33386807412E+04  0.33386807412E+04  0.00000000000E+00 0. -1.
        -13    1    1    2    0    0  0.30974058922E+03  0.15155449295E+03 -0.14783866164E+04  0.15180694963E+04  0.10566000000E+00 0.  1.
         13    1    1    2    0    0 -0.53282837718E+03  0.20920157323E+03 -0.13063003347E+04  0.14262159561E+04  0.10566000000E+00 0. -1.
         -4    1    1    2    0  502  0.22308778797E+03 -0.36075606618E+03 -0.37934259283E+03  0.56904648594E+03  0.00000000000E+00 0. -1.
</event>
<event>
 5    1  0.4419198E-005  0.5037105E+03  0.7818608E-02  0.9652108E-01
          4   -1    0    0  502    0 -0.00000000000E+00  0.00000000000E+00  0.33111396847E+03  0.33111396847E+03  0.00000000000E+00 0.  1.
         21   -1    0    0  501  502  0.00000000000E+00 -0.00000000000E+00 -0.15087510944E+04  0.15087510944E+04  0.00000000000E+00 0.  1.
        -13    1    1    2    0    0  0.40341317884E+03 -0.85279720777E+01 -0.34436863498E+03  0.53047590623E+03  0.10566000000E+00 0.  1.
         13    1    1    2    0    0  0.20142241638E+03  0.16754965349E+03  0.68061229440E+01  0.26208817349E+03  0.10566000000E+00 0. -1.
          4    1    1    2  501    0 -0.60483559522E+03 -0.15902168142E+03 -0.84007461386E+03  0.10473009831E+04  0.00000000000E+00 0.  1.
</event>
<event>
 5    1  0.4419198E-005  0.8111051E+02  0.7818608E-02  0.1200263E+00
         21   -1    0    0  501  502  0.00000000000E+00  0.00000000000E+00  0.62184939488E+02  0.62184939488E+02  0.00000000000E+00 0.  1.
         -4   -1    0    0    0  501 -0.00000000000E+00 -0.00000000000E+00 -0.33169126156E+03  0.33169126156E+03  0.00000000000E+00 0. -1.
        -13    1    1    2    0    0  0.19495383700E+01  0.96030678139E+02 -0.86760220739E+01  0.96441569702E+02  0.10566000000E+00 0.  1.
         13    1    1    2    0    0  0.13758420100E+02 -0.78116986839E+02 -0.26183755421E+03  0.27358814615E+03  0.10566000000E+00 0. -1.
         -4    1    1    2    0  502 -0.15707958470E+02 -0.17913691300E+02  0.10072542073E+01  0.23846485199E+02  0.00000000000E+00 0. -1.
</event>
<event>
 5    1  0.4419198E-005  0.9971668E+02  0.7818608E-02  0.1196051E+00
         -4   -1    0    0    0  501 -0.00000000000E+00  0.00000000000E+00  0.26862497686E+03  0.26862497686E+03  0.00000000000E+00 0. -1.
         21   -1    0    0  501  502  0.00000000000E+00 -0.00000000000E+00 -0.20144852808E+03  0.20144852808E+03  0.00000000000E+00 0.  1.
        -13    1    1    2    0    0  0.12910748013E+02  0.46292383649E+02 -0.14496691320E+03  0.15272553580E+03  0.10566000000E+00 0.  1.
         13    1    1    2    0    0  0.57836683109E+02  0.38511914076E+02  0.19317357708E+03  0.20529074866E+03  0.10566000000E+00 0. -1.
         -4    1    1    2    0  502 -0.70747431121E+02 -0.84804297725E+02  0.18969784905E+02  0.11205722048E+03  0.00000000000E+00 0. -1.
</event>
<event>
 5    1  0.4419198E-005  0.4705962E+02  0.7818608E-02  0.1330010E+00
         -4   -1    0    0    0  501 -0.00000000000E+00  0.00000000000E+00  0.55161604165E+03  0.55161604165E+03  0.00000000000E+00 0. -1.
         21   -1    0    0  501  502  0.00000000000E+00 -0.00000000000E+00 -0.15863605822E+02  0.15863605822E+02  0.00000000000E+00 0. -1.
        -13    1    1    2    0    0 -0.89480439119E+01 -0.27502609183E+02  0.52672478874E+02  0.60090450128E+02  0.10566000000E+00 0.  1.
         13    1    1    2    0    0  0.22991644723E+02  0.69174581650E+02  0.43940735906E+03  0.44541281620E+03  0.10566000000E+00 0. -1.
         -4    1    1    2    0  502 -0.14043600811E+02 -0.41671972467E+02  0.43672597890E+02  0.61976381142E+02  0.00000000000E+00 0. -1.
</event>
<event>
 5    1  0.4419198E-005  0.4890402E+03  0.7818608E-02  0.9916846E-01
         -4   -1    0    0    0  501 -0.00000000000E+00  0.00000000000E+00  0.10935411529E+04  0.10935411529E+04  0.00000000000E+00 0. -1.
         21   -1    0    0  501  502  0.00000000000E+00 -0.00000000000E+00 -0.35591648950E+03  0.35591648950E+03  0.00000000000E+00 0. -1.
        -13    1    1    2    0    0 -0.63393711082E+02 -0.96695261292E+02  0.38688329229E+03  0.40379131885E+03  0.10566000000E+00 0.  1.
         13    1    1    2    0    0  0.18331901140E+03 -0.41736052932E+03  0.19018609811E+03  0.49392958451E+03  0.10566000000E+00 0. -1.
         -4    1    1    2    0  502 -0.11992530032E+03  0.51405579061E+03  0.16055527300E+03  0.55173673904E+03  0.00000000000E+00 0. -1.
</event>
<event>
 5    1  0.4419198E-005  0.4469903E+03  0.7818608E-02  0.9733311E-01
         -4   -1    0    0    0  501 -0.00000000000E+00  0.00000000000E+00  0.97935032587E+03  0.97935032587E+03  0.00000000000E+00 0. -1.
         21   -1    0    0  501  502  0.00000000000E+00 -0.00000000000E+00 -0.80318178884E+03  0.80318178884E+03  0.00000000000E+00 0. -1.
        -13    1    1    2    0    0  0.27856367305E+03  0.46667911503E+02  0.59426429545E+03  0.65797087923E+03  0.10566000000E+00 0.  1.
         13    1    1    2    0    0 -0.56037449283E+03 -0.30237250007E+03 -0.13661431899E+03  0.65123896101E+03  0.10566000000E+00 0. -1.
         -4    1    1    2    0  502  0.28181081979E+03  0.25570458857E+03 -0.28148143943E+03  0.47332227447E+03  0.00000000000E+00 0. -1.
</event>
<event>
 5    1  0.4419198E-005  0.2651472E+03  0.7818608E-02  0.1022829E+00
         21   -1    0    0  501  502  0.00000000000E+00  0.00000000000E+00  0.94704231110E+02  0.94704231110E+02  0.00000000000E+00 0.  1.
         -4   -1    0    0    0  501 -0.00000000000E+00 -0.00000000000E+00 -0.13247831771E+04  0.13247831771E+04  0.00000000000E+00 0. -1.
        -13    1    1    2    0    0 -0.21764630292E+03  0.14302380335E+03 -0.26769401178E+03  0.37347800016E+03  0.10566000000E+00 0.  1.
         13    1    1    2    0    0  0.21562485191E+03 -0.15713626086E+03 -0.98432520286E+03  0.10198441045E+04  0.10566000000E+00 0. -1.
         -4    1    1    2    0  502  0.20214510102E+01  0.14112457511E+02  0.21940268679E+02  0.26165303569E+02  0.00000000000E+00 0. -1.
</event>
<event>
 5    1  0.4419198E-005  0.7559259E+02  0.7818608E-02  0.1212774E+00
         -4   -1    0    0    0  501 -0.00000000000E+00  0.00000000000E+00  0.14722297178E+02  0.14722297178E+02  0.00000000000E+00 0. -1.
         21   -1    0    0  501  502  0.00000000000E+00 -0.00000000000E+00 -0.11706865996E+04  0.11706865996E+04  0.00000000000E+00 0. -1.
        -13    1    1    2    0    0  0.63525615080E+02  0.19630998252E+02 -0.19193940193E+03  0.20312957697E+03  0.10566000000E+00 0.  1.
         13    1    1    2    0    0 -0.73515048257E+02 -0.45853933469E+02 -0.20274768975E+03  0.22048510698E+03  0.10566000000E+00 0. -1.
         -4    1    1    2    0  502  0.99894331769E+01  0.26222935217E+02 -0.76127721076E+03  0.76179421285E+03  0.00000000000E+00 0. -1.
</event>
<event>
 5    1  0.4419198E-005  0.2437045E+03  0.7818608E-02  0.1036266E+00
          4   -1    0    0  502    0 -0.00000000000E+00  0.00000000000E+00  0.23604469717E+04  0.23604469717E+04  0.00000000000E+00 0.  1.
         21   -1    0    0  501  502  0.00000000000E+00 -0.00000000000E+00 -0.25052468725E+03  0.25052468725E+03  0.00000000000E+00 0.  1.
        -13    1    1    2    0    0 -0.28958584499E+03 -0.16903927996E+03  0.10550550537E+04  0.11070570976E+04  0.10566000000E+00 0.  1.
         13    1    1    2    0    0  0.51834305275E+02  0.21931651829E+03  0.11999245664E+04  0.12209035616E+04  0.10566000000E+00 0. -1.
          4    1    1    2  501    0  0.23775153971E+03 -0.50277238332E+02 -0.14505733572E+03  0.28301099974E+03  0.00000000000E+00 0.  1.
</event>
<event>
 5    1  0.4419198E-005  0.4675479E+03  0.7818608E-02  0.9552085E-01
          4   -1    0    0  502    0 -0.00000000000E+00  0.00000000000E+00  0.35077349984E+04  0.35077349984E+04  0.00000000000E+00 0.  1.
         21   -1    0    0  501  502  0.00000000000E+00 -0.00000000000E+00 -0.48196135257E+03  0.48196135257E+03  0.00000000000E+00 0.  1.
        -13    1    1    2    0    0 -0.32085006906E+03  0.45959914662E+03 -0.21233098938E+03  0.59938351880E+03  0.10566000000E+00 0.  1.
         13    1    1    2    0    0  0.44536396561E+03 -0.14463419804E+03  0.27878297612E+04  0.28268821874E+04  0.10566000000E+00 0. -1.
          4    1    1    2  501    0 -0.12451389655E+03 -0.31496494858E+03  0.45027487408E+03  0.56343064480E+03  0.00000000000E+00 0.  1.
</event>
<event>
 5    1  0.4419198E-005  0.3925266E+03  0.7818608E-02  0.9862110E-01
         -4   -1    0    0    0  501 -0.00000000000E+00  0.00000000000E+00  0.93109251963E+03  0.93109251963E+03  0.00000000000E+00 0. -1.
         21   -1    0    0  501  502  0.00000000000E+00 -0.00000000000E+00 -0.48954693790E+03  0.48954693790E+03  0.00000000000E+00 0. -1.
        -13    1    1    2    0    0  0.19063512557E+03  0.18927518990E+03  0.22045979350E+03  0.34751889204E+03  0.10566000000E+00 0.  1.
         13    1    1    2    0    0  0.35729064078E+03 -0.18073685914E+02 -0.15177097833E+03  0.38860996017E+03  0.10566000000E+00 0. -1.
         -4    1    1    2    0  502 -0.54792576636E+03 -0.17120150399E+03  0.37285676657E+03  0.68451060531E+03  0.00000000000E+00 0. -1.
</event>
<event>
 5    1  0.4419198E-005  0.9463042E+02  0.7818608E-02  0.1173759E+00
         -4   -1    0    0    0  501 -0.00000000000E+00  0.00000000000E+00  0.45005170786E+02  0.45005170786E+02  0.00000000000E+00 0. -1.
         21   -1    0    0  501  502  0.00000000000E+00 -0.00000000000E+00 -0.14844218239E+04  0.14844218239E+04  0.00000000000E+00 0. -1.
        -13    1    1    2    0    0  0.10827023184E+03 -0.28420488064E+02 -0.60670617981E+03  0.61694616218E+03  0.10566000000E+00 0.  1.
         13    1    1    2    0    0 -0.56629383521E+02  0.76422611920E+02 -0.20608862401E+02  0.97324401176E+02  0.10566000000E+00 0. -1.
         -4    1    1    2    0  502 -0.51640848315E+02 -0.48002123856E+02 -0.81210161091E+03  0.81515643134E+03  0.00000000000E+00 0. -1.
</event>
<event>
 5    1  0.4419198E-005  0.1842772E+03  0.7818608E-02  0.1071484E+00
          4   -1    0    0  502    0 -0.00000000000E+00  0.00000000000E+00  0.73470130185E+03  0.73470130185E+03  0.00000000000E+00 0.  1.
         21   -1    0    0  501  502  0.00000000000E+00 -0.00000000000E+00 -0.81993107644E+02  0.81993107644E+02  0.00000000000E+00 0. -1.
        -13    1    1    2    0    0 -0.68578319252E+02  0.16918039723E+03  0.55494521707E+03  0.58419962153E+03  0.10566000000E+00 0.  1.
         13    1    1    2    0    0  0.85130195113E+02 -0.17163222214E+03  0.99120481294E+02  0.21570732665E+03  0.10566000000E+00 0. -1.
          4    1    1    2  501    0 -0.16551875861E+02  0.24518249034E+01 -0.13575041562E+01  0.16787461315E+02  0.00000000000E+00 0.  1.
</event>
<event>
 5    1  0.4419198E-005  0.5581164E+03  0.7818608E-02  0.9358946E-01
         21   -1    0    0  501  502  0.00000000000E+00  0.00000000000E+00  0.84857052496E+03  0.84857052496E+03  0.00000000000E+00 0. -1.
          4   -1    0    0  502    0 -0.00000000000E+00 -0.00000000000E+00 -0.55289702293E+03  0.55289702293E+03  0.00000000000E+00 0.  1.
        -13    1    1    2    0    0 -0.46155170682E+03 -0.31958186920E+03 -0.18384571867E+03  0.59072989481E+03  0.10566000000E+00 0.  1.
         13    1    1    2    0    0  0.42565796483E+03  0.35135748132E+03  0.30677401944E+03  0.63146424512E+03  0.10566000000E+00 0. -1.
          4    1    1    2  501    0  0.35893741984E+02 -0.31775612118E+02  0.17274520126E+03  0.17927340795E+03  0.00000000000E+00 0.  1.
</event>
<event>
 5    1  0.4419198E-005  0.1371515E+03  0.7818608E-02  0.1114524E+00
         -4   -1    0    0    0  501 -0.00000000000E+00  0.00000000000E+00  0.17966396468E+03  0.17966396468E+03  0.00000000000E+00 0. -1.
         21   -1    0    0  501  502  0.00000000000E+00 -0.00000000000E+00 -0.62608323078E+03  0.62608323078E+03  0.00000000000E+00 0. -1.
        -13    1    1    2    0    0 -0.44395148801E+02 -0.11694255476E+03 -0.49680423340E+02  0.13459066081E+03  0.10566000000E+00 0.  1.
         13    1    1    2    0    0  0.56378338840E+02  0.13033598083E+03  0.10025963847E+03  0.17383322829E+03  0.10566000000E+00 0. -1.
         -4    1    1    2    0  502 -0.11983190039E+02 -0.13393426072E+02 -0.49699848122E+03  0.49732330636E+03  0.00000000000E+00 0. -1.
</event>
<event>
 5    1  0.4419198E-005  0.7639217E+02  0.7818608E-02  0.1210889E+00
          4   -1    0    0  502    0 -0.00000000000E+00  0.00000000000E+00  0.69718958509E+02  0.69718958509E+02  0.00000000000E+00 0.  1.
         21   -1    0    0  501  502  0.00000000000E+00 -0.00000000000E+00 -0.16143095650E+03  0.16143095650E+03  0.00000000000E+00 0. -1.
        -13    1    1    2    0    0  0.24674146072E+02  0.67874993990E+02  0.13114642071E+02  0.73401861654E+02  0.10566000000E+00 0.  1.
         13    1    1    2    0    0 -0.14813276225E+02 -0.87486674853E+02 -0.57929746975E+02  0.10596800544E+03  0.10566000000E+00 0. -1.
          4    1    1    2  501    0 -0.98608698472E+01  0.19611680863E+02 -0.46896893083E+02  0.51780047907E+02  0.00000000000E+00 0.  1.
</event>
<event>
 5    1  0.4419198E-005  0.2538012E+03  0.7818608E-02  0.1089075E+00
         21   -1    0    0  501  502  0.00000000000E+00  0.00000000000E+00  0.30862553329E+04  0.30862553329E+04  0.00000000000E+00 0. -1.
         -4   -1    0    0    0  501 -0.00000000000E+00 -0.00000000000E+00 -0.92237511486E+02  0.92237511486E+02  0.00000000000E+00 0. -1.
        -13    1    1    2    0    0  0.18773997218E+02  0.38722941309E+02 -0.16156773744E+02  0.45967180216E+02  0.10566000000E+00 0.  1.
         13    1    1    2    0    0  0.39567555933E+02 -0.28246572180E+03  0.31195787719E+03  0.42269398361E+03  0.10566000000E+00 0. -1.
         -4    1    1    2    0  502 -0.58341553150E+02  0.24374278049E+03  0.26982167180E+04  0.27098316806E+04  0.00000000000E+00 0. -1.
</event>
<event>
 5    1  0.4419198E-005  0.1250512E+03  0.7818608E-02  0.1160555E+00
         21   -1    0    0  501  502  0.00000000000E+00  0.00000000000E+00  0.25657659486E+03  0.25657659486E+03  0.00000000000E+00 0. -1.
         -4   -1    0    0    0  501 -0.00000000000E+00 -0.00000000000E+00 -0.99251804463E+02  0.99251804463E+02  0.00000000000E+00 0. -1.
        -13    1    1    2    0    0  0.15187239095E+02 -0.54263212671E+02  0.10960570649E+02  0.57404649235E+02  0.10566000000E+00 0.  1.
         13    1    1    2    0    0 -0.12659931196E+03  0.74044804256E+02  0.76138136972E+02  0.16524843688E+03  0.10566000000E+00 0. -1.
         -4    1    1    2    0  502  0.11141207287E+03 -0.19781591584E+02  0.70226082776E+02  0.13317531321E+03  0.00000000000E+00 0. -1.
</event>
<event>
 5    1  0.4419198E-005  0.3572046E+03  0.7818608E-02  0.1008458E+00
          4   -1    0    0  502    0 -0.00000000000E+00  0.00000000000E+00  0.10143366804E+04  0.10143366804E+04  0.00000000000E+00 0.  1.
         21   -1    0    0  501  502  0.00000000000E+00 -0.00000000000E+00 -0.35537704272E+03  0.35537704272E+03  0.00000000000E+00 0.  1.
        -13    1    1    2    0    0 -0.44943988716E+03 -0.11733795258E+03  0.58818037308E+03  0.74948019969E+03  0.10566000000E+00 0.  1.
         13    1    1    2    0    0  0.15956030577E+03 -0.62131055185E+02  0.19303716132E+03  0.25803704387E+03  0.10566000000E+00 0. -1.
          4    1    1    2  501    0  0.28987958139E+03  0.17946900777E+03 -0.12225789676E+03  0.36219647952E+03  0.00000000000E+00 0.  1.
</event>
<event>
 5    1  0.4419198E-005  0.3638589E+03  0.7818608E-02  0.9839653E-01
         -4   -1    0    0    0  501 -0.00000000000E+00  0.00000000000E+00  0.58976755824E+03  0.58976755824E+03  0.00000000000E+00 0. -1.
         21   -1    0    0  501  502  0.00000000000E+00 -0.00000000000E+00 -0.97678751031E+03  0.97678751031E+03  0.00000000000E+00 0.  1.
        -13    1    1    2    0    0  0.12122148097E+03 -0.32495406623E+03 -0.12765925484E+03  0.36957636439E+03  0.10566000000E+00 0.  1.
         13    1    1    2    0    0 -0.13520018773E+03  0.34317152031E+03  0.39602817851E+03  0.54118768690E+03  0.10566000000E+00 0. -1.
         -4    1    1    2    0  502  0.13978706751E+02 -0.18217454083E+02 -0.65538887574E+03  0.65579101726E+03  0.00000000000E+00 0. -1.
</event>
<event>
 5    1  0.4419198E-005  0.4568655E+03  0.7818608E-02  0.9754951E-01
          4   -1    0    0  502    0 -0.00000000000E+00  0.00000000000E+00  0.13962979149E+04  0.13962979149E+04  0.00000000000E+00 0.  1.
         21   -1    0    0  501  502  0.00000000000E+00 -0.00000000000E+00 -0.54565735839E+03  0.54565735839E+03  0.00000000000E+00 0.  1.
        -13    1    1    2    0    0  0.12433288776E+03 -0.37261983517E+03 -0.11425320637E+03  0.40909413937E+03  0.10566000000E+00 0.  1.
         13    1    1    2    0    0  0.17897877838E+03 -0.16801101290E+03  0.87217433688E+03  0.90606246398E+03  0.10566000000E+00 0. -1.
          4    1    1    2  501    0 -0.30331166614E+03  0.54063084807E+03  0.92719426026E+02  0.62679866995E+03  0.00000000000E+00 0.  1.
</event>
<event>
 5    1  0.4419198E-005  0.2041283E+03  0.7818608E-02  0.1057342E+00
          4   -1    0    0  502    0 -0.00000000000E+00  0.00000000000E+00  0.13806785299E+03  0.13806785299E+03  0.00000000000E+00 0.  1.
         21   -1    0    0  501  502  0.00000000000E+00 -0.00000000000E+00 -0.49464920253E+03  0.49464920253E+03  0.00000000000E+00 0.  1.
        -13    1    1    2    0    0  0.19850704275E+03 -0.83639861022E+02 -0.86294457614E+01  0.21558096129E+03  0.10566000000E+00 0.  1.
         13    1    1    2    0    0 -0.16288222839E+03  0.74269305726E+02 -0.21809726649E+03  0.28215771992E+03  0.10566000000E+00 0. -1.
          4    1    1    2  501    0 -0.35624814354E+02  0.93705552960E+01 -0.12985463729E+03  0.13497837430E+03  0.00000000000E+00 0.  1.
</event>
<event>
 5    1  0.4419198E-005  0.4463217E+03  0.7818608E-02  0.9730168E-01
         21   -1    0    0  501  502  0.00000000000E+00  0.00000000000E+00  0.16019168598E+03  0.16019168598E+03  0.00000000000E+00 0. -1.
         -4   -1    0    0    0  501 -0.00000000000E+00 -0.00000000000E+00 -0.30110577917E+04  0.30110577917E+04  0.00000000000E+00 0. -1.
        -13    1    1    2    0    0 -0.55757110112E+02  0.28134774616E+03 -0.10297274870E+04  0.10689266196E+04  0.10566000000E+00 0.  1.
         13    1    1    2    0    0  0.44374666648E+03  0.48613783048E+02 -0.42571096233E+03  0.61685025616E+03  0.10566000000E+00 0. -1.
         -4    1    1    2    0  502 -0.38798955637E+03 -0.32996152921E+03 -0.13954276564E+04  0.14854726019E+04  0.00000000000E+00 0. -1.
</event>
<event>
 5    1  0.4419198E-005  0.3149425E+03  0.7818608E-02  0.1017294E+00
         21   -1    0    0  501  502  0.00000000000E+00  0.00000000000E+00  0.16087836756E+04  0.16087836756E+04  0.00000000000E+00 0.  1.
          4   -1    0    0  502    0 -0.00000000000E+00 -0.00000000000E+00 -0.32212146456E+03  0.32212146456E+03  0.00000000000E+00 0.  1.
        -13    1    1    2    0    0 -0.34182671744E+03  0.38764853098E+01  0.42140669528E+02  0.34443632080E+03  0.10566000000E+00 0.  1.
         13    1    1    2    0    0  0.73278101986E+02 -0.17353124700E+03 -0.94177479596E+02  0.21059957916E+03  0.10566000000E+00 0. -1.
          4    1    1    2  501    0  0.26854861545E+03  0.16965476169E+03  0.13386990212E+04  0.13758692402E+04  0.00000000000E+00 0.  1.
</event>
<event>
 5    1  0.4419198E-005  0.4384219E+03  0.7818608E-02  0.9963057E-01
         -4   -1    0    0    0  501 -0.00000000000E+00  0.00000000000E+00  0.22616277501E+04  0.22616277501E+04  0.00000000000E+00 0. -1.
         21   -1    0    0  501  502  0.00000000000E+00 -0.00000000000E+00 -0.14214623953E+03  0.14214623953E+03  0.00000000000E+00 0. -1.
        -13    1    1    2    0    0 -0.70235258319E+02 -0.11839508982E+03  0.78812550650E+03  0.80005763165E+03  0.10566000000E+00 0.  1.
         13    1    1    2    0    0  0.41218461802E+03  0.29715768695E+03  0.74478082549E+03  0.90160819618E+03  0.10566000000E+00 0. -1.
         -4    1    1    2    0  502 -0.34194935970E+03 -0.17876259713E+03  0.58657517854E+03  0.70210816176E+03  0.00000000000E+00 0. -1.
</event>
<event>
 5    1  0.4419198E-005  0.1351482E+03  0.7818608E-02  0.1116759E+00
         -4   -1    0    0    0  501 -0.00000000000E+00  0.00000000000E+00  0.71582346062E+03  0.71582346062E+03  0.00000000000E+00 0. -1.
         21   -1    0    0  501  502  0.00000000000E+00 -0.00000000000E+00 -0.37895179248E+03  0.37895179248E+03  0.00000000000E+00 0.  1.
        -13    1    1    2    0    0  0.13790319852E+03 -0.14957791324E+02 -0.20159249863E+03  0.24470507627E+03  0.10566000000E+00 0.  1.
         13    1    1    2    0    0 -0.12130730380E+03 -0.60795743426E+02  0.67745403763E+03  0.69090923329E+03  0.10566000000E+00 0. -1.
         -4    1    1    2    0  502 -0.16595894719E+02  0.75753534751E+02 -0.13898987085E+03  0.15916094354E+03  0.00000000000E+00 0. -1.
</event>
<event>
 5    1  0.4419198E-005  0.8702063E+02  0.7818608E-02  0.1197618E+00
          4   -1    0    0  502    0 -0.00000000000E+00  0.00000000000E+00  0.45681289845E+02  0.45681289845E+02  0.00000000000E+00 0.  1.
         21   -1    0    0  501  502  0.00000000000E+00 -0.00000000000E+00 -0.57347117267E+03  0.57347117267E+03  0.00000000000E+00 0.  1.
        -13    1    1    2    0    0 -0.11452547980E+03  0.26661117119E+02 -0.76703082558E+02  0.14039328591E+03  0.10566000000E+00 0.  1.
         13    1    1    2    0    0  0.36355302273E+02 -0.59544385981E+02 -0.14145430418E+03  0.15772309039E+03  0.10566000000E+00 0. -1.
          4    1    1    2  501    0  0.78170177527E+02  0.32883268861E+02 -0.30963249609E+03  0.32103608622E+03  0.00000000000E+00 0.  1.
</event>
<event>
 5    1  0.4419198E-005  0.2243043E+02  0.7818608E-02  0.1478612E+00
          4   -1    0    0  502    0 -0.00000000000E+00  0.00000000000E+00  0.46877150962E+02  0.46877150962E+02  0.00000000000E+00 0.  1.
         21   -1    0    0  501  502  0.00000000000E+00 -0.00000000000E+00 -0.14639771666E+03  0.14639771666E+03  0.00000000000E+00 0. -1.
        -13    1    1    2    0    0  0.97697006298E+01 -0.19982040269E+02  0.40073552578E+02  0.45832627723E+02  0.10566000000E+00 0.  1.
         13    1    1    2    0    0 -0.89150973246E+01  0.30092198614E+02 -0.12904049907E+03  0.13280241316E+03  0.10566000000E+00 0. -1.
          4    1    1    2  501    0 -0.85460330519E+00 -0.10110158346E+02 -0.10553619214E+02  0.14639826744E+02  0.00000000000E+00 0.  1.
</event>
<event>
 5    1  0.4419198E-005  0.4095208E+03  0.7818608E-02  0.9701945E-01
         21   -1    0    0  501  502  0.00000000000E+00  0.00000000000E+00  0.79432615756E+03  0.79432615756E+03  0.00000000000E+00 0.  1.
         -4   -1    0    0    0  501 -0.00000000000E+00 -0.00000000000E+00 -0.54316674485E+03  0.54316674485E+03  0.00000000000E+00 0. -1.
        -13    1    1    2    0    0 -0.67004470519E+02 -0.39418626081E+03  0.10529726030E+03  0.41347301178E+03  0.10566000000E+00 0.  1.
         13    1    1    2    0    0  0.15750727246E+01  0.41533067949E+03 -0.27464518500E+03  0.49792774876E+03  0.10566000000E+00 0. -1.
         -4    1    1    2    0  502  0.65429397795E+02 -0.21144418680E+02  0.42050733741E+03  0.42609214186E+03  0.00000000000E+00 0. -1.
</event>
<event>
 5    1  0.4419198E-005  0.4298450E+03  0.7818608E-02  0.9742742E-01
         21   -1    0    0  501  502  0.00000000000E+00  0.00000000000E+00  0.40803841732E+03  0.40803841732E+03  0.00000000000E+00 0. -1.
         -4   -1    0    0    0  501 -0.00000000000E+00 -0.00000000000E+00 -0.16504711564E+04  0.16504711564E+04  0.00000000000E+00 0. -1.
        -13    1    1    2    0    0  0.10777092489E+03  0.28791393838E+03 -0.92795864759E+03  0.97755627509E+03  0.10566000000E+00 0.  1.
         13    1    1    2    0    0 -0.45650186291E+03 -0.48288019305E+02  0.12001310169E+03  0.47447743823E+03  0.10566000000E+00 0. -1.
         -4    1    1    2    0  502  0.34873093802E+03 -0.23962591907E+03 -0.43448719319E+03  0.60647586041E+03  0.00000000000E+00 0. -1.
</event>
<event>
 5    1  0.4419198E-005  0.4927569E+03  0.7818608E-02  0.9669906E-01
         21   -1    0    0  501  502  0.00000000000E+00  0.00000000000E+00  0.13193278505E+03  0.13193278505E+03  0.00000000000E+00 0.  1.
         -4   -1    0    0    0  501 -0.00000000000E+00 -0.00000000000E+00 -0.32569891786E+04  0.32569891786E+04  0.00000000000E+00 0. -1.
        -13    1    1    2    0    0  0.14057345580E+02 -0.26253171986E+03 -0.45770423822E+03  0.52783870050E+03  0.10566000000E+00 0.  1.
         13    1    1    2    0    0 -0.47783297153E+03  0.30359556964E+03 -0.15745925394E+04  0.16732711361E+04  0.10566000000E+00 0. -1.
         -4    1    1    2    0  502  0.46377562595E+03 -0.41063849781E+02 -0.10927596160E+04  0.11878121271E+04  0.00000000000E+00 0. -1.
</event>
<event>
 5    1  0.4419198E-005  0.4792921E+03  0.7818608E-02  0.9547854E-01
          4   -1    0    0  502    0 -0.00000000000E+00  0.00000000000E+00  0.39224358183E+03  0.39224358183E+03  0.00000000000E+00 0.  1.
         21   -1    0    0  501  502  0.00000000000E+00 -0.00000000000E+00 -0.16370391324E+04  0.16370391324E+04  0.00000000000E+00 0.  1.
        -13    1    1    2    0    0  0.34349171927E+03 -0.17448131233E+03 -0.13590968917E+03  0.40853609918E+03  0.10566000000E+00 0.  1.
         13    1    1    2    0    0 -0.19145647592E+03 -0.39690293177E+03 -0.10078483479E+03  0.45204547726E+03  0.10566000000E+00 0. -1.
          4    1    1    2  501    0 -0.15203524335E+03  0.57138424410E+03 -0.10081010266E+04  0.11687011378E+04  0.00000000000E+00 0.  1.
</event>
<event>
 5    1  0.4419198E-005  0.2201699E+03  0.7818608E-02  0.1047124E+00
         -4   -1    0    0    0  501 -0.00000000000E+00  0.00000000000E+00  0.23261692993E+03  0.23261692993E+03  0.00000000000E+00 0. -1.
         21   -1    0    0  501  502  0.00000000000E+00 -0.00000000000E+00 -0.83850869787E+03  0.83850869787E+03  0.00000000000E+00 0. -1.
        -13    1    1    2    0    0  0.21503268090E+03 -0.26286466276E+02  0.11504145080E+03  0.24528468915E+03  0.10566000000E+00 0.  1.
         13    1    1    2    0    0 -0.23187557436E+03  0.35209043646E+02 -0.21078022728E+03  0.31533200617E+03  0.10566000000E+00 0. -1.
         -4    1    1    2    0  502  0.16842893460E+02 -0.89225773698E+01 -0.51015299147E+03  0.51050893249E+03  0.00000000000E+00 0. -1.
</event>
<event>
 5    1  0.4419198E-005  0.3158695E+03  0.7818608E-02  0.1035049E+00
         -4   -1    0    0    0  501 -0.00000000000E+00  0.00000000000E+00  0.13790210731E+03  0.13790210731E+03  0.00000000000E+00 0. -1.
         21   -1    0    0  501  502  0.00000000000E+00 -0.00000000000E+00 -0.10200789847E+04  0.10200789847E+04  0.00000000000E+00 0. -1.
        -13    1    1    2    0    0 -0.69983073728E+01  0.10719269455E+03 -0.12087649038E+03  0.16171081337E+03  0.10566000000E+00 0.  1.
         13    1    1    2    0    0 -0.28274030494E+03  0.84637820170E+02 -0.34712025468E+03  0.45562937022E+03  0.10566000000E+00 0. -1.
         -4    1    1    2    0  502  0.28973861231E+03 -0.19183051472E+03 -0.41418013234E+03  0.54064090843E+03  0.00000000000E+00 0. -1.
</event>
<event>
 5    1  0.4419198E-005  0.7198536E+02  0.7818608E-02  0.1221613E+00
         -4   -1    0    0    0  501 -0.00000000000E+00  0.00000000000E+00  0.38737097919E+03  0.38737097919E+03  0.00000000000E+00 0. -1.
         21   -1    0    0  501  502  0.00000000000E+00 -0.00000000000E+00 -0.28341804322E+02  0.28341804322E+02  0.00000000000E+00 0.  1.
        -13    1    1    2    0    0 -0.74588417036E+02 -0.10312880709E+02  0.60688203146E+02  0.96710168181E+02  0.10566000000E+00 0.  1.
         13    1    1    2    0    0  0.68776732171E+02  0.18940953837E+02  0.30009099914E+03  0.30845359060E+03  0.10566000000E+00 0. -1.
         -4    1    1    2    0  502  0.58116848650E+01 -0.86280731274E+01 -0.17500274236E+01  0.10549024734E+02  0.00000000000E+00 0. -1.
</event>
<event>
 5    1  0.4419198E-005  0.4887703E+03  0.7818608E-02  0.9588014E-01
          4   -1    0    0  502    0 -0.00000000000E+00  0.00000000000E+00  0.28295036932E+03  0.28295036932E+03  0.00000000000E+00 0.  1.
         21   -1    0    0  501  502  0.00000000000E+00 -0.00000000000E+00 -0.18038057172E+04  0.18038057172E+04  0.00000000000E+00 0.  1.
        -13    1    1    2    0    0  0.51958354009E+03 -0.17557600239E+02 -0.62708316063E+03  0.81456038816E+03  0.10566000000E+00 0.  1.
         13    1    1    2    0    0 -0.13405118212E+03 -0.33395542192E+03 -0.22662355599E+03  0.42526955046E+03  0.10566000000E+00 0. -1.
          4    1    1    2  501    0 -0.38553235797E+03  0.35151302216E+03 -0.66714863125E+03  0.84692614789E+03  0.00000000000E+00 0.  1.
</event>
<event>
 5    1  0.4419198E-005  0.2664631E+02  0.7818608E-02  0.1434050E+00
         21   -1    0    0  501  502  0.00000000000E+00  0.00000000000E+00  0.24779782418E+02  0.24779782418E+02  0.00000000000E+00 0.  1.
          4   -1    0    0  502    0 -0.00000000000E+00 -0.00000000000E+00 -0.10278892061E+03  0.10278892061E+03  0.00000000000E+00 0.  1.
        -13    1    1    2    0    0 -0.21061542048E+02  0.18628028297E+02 -0.74410564919E+02  0.79545806472E+02  0.10566000000E+00 0.  1.
         13    1    1    2    0    0  0.85752917632E+01 -0.23505835056E+02 -0.16050341580E+02  0.29726831977E+02  0.10566000000E+00 0. -1.
          4    1    1    2  501    0  0.12486250285E+02  0.48778067584E+01  0.12451768310E+02  0.18296064577E+02  0.00000000000E+00 0.  1.
</event>
<event>
 5    1  0.4419198E-005  0.4499149E+03  0.7818608E-02  0.9788597E-01
          4   -1    0    0  502    0 -0.00000000000E+00  0.00000000000E+00  0.21315754728E+03  0.21315754728E+03  0.00000000000E+00 0.  1.
         21   -1    0    0  501  502  0.00000000000E+00 -0.00000000000E+00 -0.17649573635E+04  0.17649573635E+04  0.00000000000E+00 0.  1.
        -13    1    1    2    0    0 -0.43165897458E+02 -0.48738433357E+03 -0.36627499422E+03  0.61119895768E+03  0.10566000000E+00 0.  1.
         13    1    1    2    0    0 -0.20081406431E+03  0.11005469301E+03 -0.35060989298E+03  0.41876679919E+03  0.10566000000E+00 0. -1.
          4    1    1    2  501    0  0.24397996177E+03  0.37732964055E+03 -0.83491492899E+03  0.94814915389E+03  0.00000000000E+00 0.  1.
</event>
<event>
 5    1  0.4419198E-005  0.1898245E+03  0.7818608E-02  0.1067345E+00
         21   -1    0    0  501  502  0.00000000000E+00  0.00000000000E+00  0.39079588352E+03  0.39079588352E+03  0.00000000000E+00 0.  1.
         -4   -1    0    0    0  501 -0.00000000000E+00 -0.00000000000E+00 -0.12500751867E+03  0.12500751867E+03  0.00000000000E+00 0. -1.
        -13    1    1    2    0    0  0.12544207066E+03  0.15873060548E+03  0.53477002414E+02  0.20926279927E+03  0.10566000000E+00 0.  1.
         13    1    1    2    0    0 -0.95458486251E+02 -0.14536637902E+03  0.12761923977E+03  0.21570903613E+03  0.10566000000E+00 0. -1.
         -4    1    1    2    0  502 -0.29983584408E+02 -0.13364226465E+02  0.84692122668E+02  0.90831566787E+02  0.00000000000E+00 0. -1.
</event>
<event>
 5    1  0.4419198E-005  0.2461860E+03  0.7818608E-02  0.1052098E+00
         -4   -1    0    0    0  501 -0.00000000000E+00  0.00000000000E+00  0.68482245758E+03  0.68482245758E+03  0.00000000000E+00 0. -1.
         21   -1    0    0  501  502  0.00000000000E+00 -0.00000000000E+00 -0.74374780113E+03  0.74374780113E+03  0.00000000000E+00 0. -1.
        -13    1    1    2    0    0  0.97194120665E+02  0.94862311023E+02  0.31118437977E+03  0.33953097726E+03  0.10566000000E+00 0.  1.
         13    1    1    2    0    0 -0.11396759773E+03  0.15621112425E+03  0.30916449189E+03  0.36465493673E+03  0.10566000000E+00 0. -1.
         -4    1    1    2    0  502  0.16773477061E+02 -0.25107343527E+03 -0.67927421521E+03  0.72438434472E+03  0.00000000000E+00 0. -1.
</event>
<event>
 5    1  0.4419198E-005  0.4827523E+03  0.7818608E-02  0.9516598E-01
         21   -1    0    0  501  502  0.00000000000E+00  0.00000000000E+00  0.15002673112E+03  0.15002673112E+03  0.00000000000E+00 0.  1.
         -4   -1    0    0    0  501 -0.00000000000E+00 -0.00000000000E+00 -0.25182730374E+04  0.25182730374E+04  0.00000000000E+00 0. -1.
        -13    1    1    2    0    0 -0.21172544952E+03 -0.40724182734E+03 -0.13037156776E+04  0.13821534471E+04  0.10566000000E+00 0.  1.
         13    1    1    2    0    0  0.31891401870E+03  0.44707176654E+03 -0.62501711592E+03  0.83200103493E+03  0.10566000000E+00 0. -1.
         -4    1    1    2    0  502 -0.10718856918E+03 -0.39829939195E+02 -0.43951351274E+03  0.45414528655E+03  0.00000000000E+00 0. -1.
</event>
<event>
 5    1  0.4419198E-005  0.2611588E+03  0.7818608E-02  0.1024767E+00
          4   -1    0    0  502    0 -0.00000000000E+00  0.00000000000E+00  0.13541421115E+04  0.13541421115E+04  0.00000000000E+00 0.  1.
         21   -1    0    0  501  502  0.00000000000E+00 -0.00000000000E+00 -0.74632075369E+02  0.74632075369E+02  0.00000000000E+00 0. -1.
        -13    1    1    2    0    0 -0.16561073259E+03 -0.22022758215E+03  0.90628604880E+03  0.94724944767E+03  0.10566000000E+00 0.  1.
         13    1    1    2    0    0  0.98522085678E+02  0.21134633581E+03  0.25688753251E+03  0.34693672413E+03  0.10566000000E+00 0. -1.
          4    1    1    2  501    0  0.67088646916E+02  0.88812463331E+01  0.11633645483E+03  0.13458801508E+03  0.00000000000E+00 0.  1.
</event>
<event>
 5    1  0.5197335E-005  0.2310136E+03  0.7818608E-02  0.1064200E+00
         21   -1    0    0  501  502  0.00000000000E+00  0.00000000000E+00  0.13202809954E+04  0.13202809954E+04  0.00000000000E+00 0. -1.
         -4   -1    0    0    0  501 -0.00000000000E+00 -0.00000000000E+00 -0.25461940390E+03  0.25461940390E+03  0.00000000000E+00 0. -1.
        -13    1    1    2    0    0 -0.11305973650E+03 -0.22728985505E+02  0.75928986682E+00  0.11532431871E+03  0.10566000000E+00 0.  1.
         13    1    1    2    0    0  0.30736518873E+02  0.23963988224E+03 -0.10749902167E+03  0.26443913775E+03  0.10566000000E+00 0. -1.
         -4    1    1    2    0  502  0.82323217631E+02 -0.21691089673E+03  0.11724013233E+04  0.11951369429E+04  0.00000000000E+00 0. -1.
</event>
<event>
 5    1  0.4419198E-005  0.4980677E+03  0.7818608E-02  0.9934686E-01
         21   -1    0    0  501  502  0.00000000000E+00  0.00000000000E+00  0.16618604102E+03  0.16618604102E+03  0.00000000000E+00 0. -1.
         -4   -1    0    0    0  501 -0.00000000000E+00 -0.00000000000E+00 -0.19589709763E+04  0.19589709763E+04  0.00000000000E+00 0. -1.
        -13    1    1    2    0    0 -0.27613336368E+02  0.99375665342E+02 -0.34419628121E+03  0.35931756202E+03  0.10566000000E+00 0.  1.
         13    1    1    2    0    0  0.23647343584E+03 -0.50252014643E+03 -0.82249276487E+03  0.99244170754E+03  0.10566000000E+00 0. -1.
         -4    1    1    2    0  502 -0.20886009948E+03  0.40314448109E+03 -0.62609588917E+03  0.77339774775E+03  0.00000000000E+00 0. -1.
</event>
<event>
 5    1  0.4663994E-005  0.4678227E+03  0.7818608E-02  0.9552117E-01
         -4   -1    0    0    0  501 -0.00000000000E+00  0.00000000000E+00  0.15030929049E+04  0.15030929049E+04  0.00000000000E+00 0. -1.
         21   -1    0    0  501  502  0.00000000000E+00 -0.00000000000E+00 -0.57777970202E+03  0.57777970202E+03  0.00000000000E+00 0.  1.
        -13    1    1    2    0    0  0.37462526552E+03  0.28116561472E+03  0.84538679743E+03  0.96647661167E+03  0.10566000000E+00 0.  1.
         13    1    1    2    0    0  0.18696691747E+03 -0.49289692696E+02  0.38775226305E+03  0.43328735350E+03  0.10566000000E+00 0. -1.
         -4    1    1    2    0  502 -0.56159218299E+03 -0.23187592203E+03 -0.30782585762E+03  0.68110864173E+03  0.00000000000E+00 0. -1.
</event>
<event>
 5    1  0.4419198E-005  0.5019173E+03  0.7818608E-02  0.9677077E-01
          4   -1    0    0  502    0 -0.00000000000E+00  0.00000000000E+00  0.73998717173E+03  0.73998717173E+03  0.00000000000E+00 0.  1.
         21   -1    0    0  501  502  0.00000000000E+00 -0.00000000000E+00 -0.97224761453E+03  0.97224761453E+03  0.00000000000E+00 0.  1.
        -13    1    1    2    0    0 -0.63110400178E+03 -0.57084872015E+02 -0.45362095226E+03  0.77930926028E+03  0.10566000000E+00 0.  1.
         13    1    1    2    0    0  0.22898422802E+03  0.80146734692E+02  0.41907689702E+03  0.48423417118E+03  0.10566000000E+00 0. -1.
          4    1    1    2  501    0  0.40211977376E+03 -0.23061862676E+02 -0.19771638756E+03  0.44869135479E+03  0.00000000000E+00 0.  1.
</event>
<event>
 5    1  0.4419198E-005  0.4321182E+03  0.7818608E-02  0.9698762E-01
         21   -1    0    0  501  502  0.00000000000E+00  0.00000000000E+00  0.24835743206E+03  0.24835743206E+03  0.00000000000E+00 0. -1.
         -4   -1    0    0    0  501 -0.00000000000E+00 -0.00000000000E+00 -0.23161447995E+04  0.23161447995E+04  0.00000000000E+00 0. -1.
        -13    1    1    2    0    0 -0.34751114758E+03 -0.58858674996E+02 -0.10089975270E+04  0.10687863968E+04  0.10566000000E+00 0.  1.
         13    1    1    2    0    0  0.29399292811E+02  0.44301085531E+03 -0.16782631805E+03  0.47464578428E+03  0.10566000000E+00 0. -1.
         -4    1    1    2    0  502  0.31811185477E+03 -0.38415218031E+03 -0.89096352240E+03  0.10210700505E+04  0.00000000000E+00 0. -1.
</event>
<event>
 5    1  0.4419198E-005  0.2560769E+03  0.7818608E-02  0.1027291E+00
         -4   -1    0    0    0  501 -0.00000000000E+00  0.00000000000E+00  0.79643559763E+03  0.79643559763E+03  0.00000000000E+00 0. -1.
         21   -1    0    0  501  502  0.00000000000E+00 -0.00000000000E+00 -0.20040855435E+03  0.20040855435E+03  0.00000000000E+00 0.  1.
        -13    1    1    2    0    0  0.19561529066E+03 -0.15160304124E+03 -0.17780135282E+02  0.24812288977E+03  0.10566000000E+00 0.  1.
         13    1    1    2    0    0 -0.20984302981E+03  0.14955822054E+03  0.65565420326E+03  0.70447441679E+03  0.10566000000E+00 0. -1.
         -4    1    1    2    0  502  0.14227739150E+02  0.20448207026E+01 -0.41847024704E+02  0.44246845419E+02  0.00000000000E+00 0. -1.
</event>
<event>
 5    1  0.4419198E-005  0.3052023E+03  0.7818608E-02  0.1019782E+00
         21   -1    0    0  501  502  0.00000000000E+00  0.00000000000E+00  0.29945981755E+03  0.29945981755E+03  0.00000000000E+00 0.  1.
          4   -1    0    0  502    0 -0.00000000000E+00 -0.00000000000E+00 -0.12205336687E+04  0.12205336687E+04  0.00000000000E+00 0.  1.
        -13    1    1    2    0    0 -0.26624446899E+03  0.17780199381E+03 -0.95405099308E+03  0.10063364124E+04  0.10566000000E+00 0.  1.
         13    1    1    2    0    0  0.15539418394E+03  0.11162285679E+03 -0.39509925213E+02  0.19536647592E+03  0.10566000000E+00 0. -1.
          4    1    1    2  501    0  0.11085028505E+03 -0.28942485060E+03  0.72487067166E+02  0.31829059795E+03  0.00000000000E+00 0.  1.
</event>
<event>
 5    1  0.4419198E-005  0.6069086E+02  0.7818608E-02  0.1253503E+00
         21   -1    0    0  501  502  0.00000000000E+00  0.00000000000E+00  0.45754993048E+03  0.45754993048E+03  0.00000000000E+00 0.  1.
         -4   -1    0    0    0  501 -0.00000000000E+00 -0.00000000000E+00 -0.14290409086E+02  0.14290409086E+02  0.00000000000E+00 0. -1.
        -13    1    1    2    0    0 -0.52724369343E+02 -0.41752839035E+01  0.22454622765E+03  0.23069094398E+03  0.10566000000E+00 0.  1.
         13    1    1    2    0    0  0.63976878147E+02 -0.31189466763E+01  0.83327742774E+02  0.10510134464E+03  0.10566000000E+00 0. -1.
         -4    1    1    2    0  502 -0.11252508804E+02  0.72942305798E+01  0.13538555098E+03  0.13604805095E+03  0.00000000000E+00 0. -1.
</event>
<event>
 5    1  0.4419198E-005  0.3671638E+03  0.7818608E-02  0.9891396E-01
         21   -1    0    0  501  502  0.00000000000E+00  0.00000000000E+00  0.38336065908E+03  0.38336065908E+03  0.00000000000E+00 0. -1.
          4   -1    0    0  502    0 -0.00000000000E+00 -0.00000000000E+00 -0.16928580713E+04  0.16928580713E+04  0.00000000000E+00 0.  1.
        -13    1    1    2    0    0  0.88195904916E+02 -0.27507177217E+03 -0.83571329347E+03  0.88422831754E+03  0.10566000000E+00 0.  1.
         13    1    1    2    0    0 -0.42940719601E+03  0.13948367568E+03 -0.64463670030E+03  0.78702142430E+03  0.10566000000E+00 0. -1.
          4    1    1    2  501    0  0.34121129110E+03  0.13558809648E+03  0.17085258153E+03  0.40496898856E+03  0.00000000000E+00 0.  1.
</event>
<event>
 5    1  0.4419198E-005  0.3137529E+03  0.7818608E-02  0.1001784E+00
          4   -1    0    0  502    0 -0.00000000000E+00  0.00000000000E+00  0.19808877430E+04  0.19808877430E+04  0.00000000000E+00 0.  1.
         21   -1    0    0  501  502  0.00000000000E+00 -0.00000000000E+00 -0.94919757427E+02  0.94919757427E+02  0.00000000000E+00 0. -1.
        -13    1    1    2    0    0  0.93048432921E+02 -0.30197615774E+03  0.14055576594E+04  0.14406387319E+04  0.10566000000E+00 0.  1.
         13    1    1    2    0    0 -0.10747433435E+03  0.28932781458E+03  0.51221935935E+03  0.59802173881E+03  0.10566000000E+00 0. -1.
          4    1    1    2  501    0  0.14425901425E+02  0.12648343159E+02 -0.31809033253E+02  0.37147029667E+02  0.00000000000E+00 0.  1.
</event>
<event>
 5    1  0.4419198E-005  0.4906086E+03  0.7818608E-02  0.9838580E-01
          4   -1    0    0  502    0 -0.00000000000E+00  0.00000000000E+00  0.21085672487E+03  0.21085672487E+03  0.00000000000E+00 0.  1.
         21   -1    0    0  501  502  0.00000000000E+00 -0.00000000000E+00 -0.18680710056E+04  0.18680710056E+04  0.00000000000E+00 0.  1.
        -13    1    1    2    0    0 -0.15149278006E+03 -0.50839141678E+03 -0.76182772106E+03  0.92832827319E+03  0.10566000000E+00 0.  1.
         13    1    1    2    0    0  0.14400288271E+03  0.38154636487E+02 -0.11539688473E+02  0.14941814511E+03  0.10566000000E+00 0. -1.
          4    1    1    2  501    0  0.74898973490E+01  0.47023678029E+03 -0.88384687121E+03  0.10011813122E+04  0.00000000000E+00 0.  1.
</event>
<event>
 5    1  0.4419198E-005  0.3167085E+03  0.7818608E-02  0.1026043E+00
         21   -1    0    0  501  502  0.00000000000E+00  0.00000000000E+00  0.18032140501E+03  0.18032140501E+03  0.00000000000E+00 0. -1.
         -4   -1    0    0    0  501 -0.00000000000E+00 -0.00000000000E+00 -0.16374434924E+04  0.16374434924E+04  0.00000000000E+00 0. -1.
        -13    1    1    2    0    0 -0.13222557145E+03  0.48152736215E+02 -0.35375018947E+03  0.38071182732E+03  0.10566000000E+00 0.  1.
         13    1    1    2    0    0  0.26904065511E+03 -0.31728576616E+03 -0.10513930292E+04  0.11306990955E+04  0.10566000000E+00 0. -1.
         -4    1    1    2    0  502 -0.13681508366E+03  0.26913302995E+03 -0.51978868647E+02  0.30635397453E+03  0.00000000000E+00 0. -1.
</event>
<event>
 5    1  0.4419198E-005  0.5450438E+02  0.7818608E-02  0.1274462E+00
          4   -1    0    0  502    0 -0.00000000000E+00  0.00000000000E+00  0.77222956183E+02  0.77222956183E+02  0.00000000000E+00 0.  1.
         21   -1    0    0  501  502  0.00000000000E+00 -0.00000000000E+00 -0.18156617078E+03  0.18156617078E+03  0.00000000000E+00 0.  1.
        -13    1    1    2    0    0 -0.66326485357E+02  0.44483342475E+02 -0.13396074088E+03  0.15595980789E+03  0.10566000000E+00 0.  1.
         13    1    1    2    0    0  0.33648110461E+02 -0.40369197611E+02  0.42374156717E+02  0.67508871823E+02  0.10566000000E+00 0. -1.
          4    1    1    2  501    0  0.32678374897E+02 -0.41141448642E+01 -0.12756630440E+02  0.35320447251E+02  0.00000000000E+00 0.  1.
</event>
<event>
 5    1  0.4419198E-005  0.4913691E+03  0.7818608E-02  0.9835622E-01
          4   -1    0    0  502    0 -0.00000000000E+00  0.00000000000E+00  0.98638459450E+03  0.98638459450E+03  0.00000000000E+00 0.  1.
         21   -1    0    0  501  502  0.00000000000E+00 -0.00000000000E+00 -0.51293185632E+03  0.51293185632E+03  0.00000000000E+00 0.  1.
        -13    1    1    2    0    0  0.24765711745E+03  0.42644176800E+03  0.10127062887E+03  0.50343061166E+03  0.10566000000E+00 0.  1.
         13    1    1    2    0    0 -0.13700043441E+03  0.60525919275E+02  0.46449327149E+03  0.48804355989E+03  0.10566000000E+00 0. -1.
          4    1    1    2  501    0 -0.11065668304E+03 -0.48696768727E+03 -0.92311162180E+02  0.50784227927E+03  0.00000000000E+00 0.  1.
</event>
<event>
 5    1  0.4419198E-005  0.3874374E+03  0.7818608E-02  0.9805215E-01
          4   -1    0    0  502    0 -0.00000000000E+00  0.00000000000E+00  0.12069403931E+03  0.12069403931E+03  0.00000000000E+00 0.  1.
         21   -1    0    0  501  502  0.00000000000E+00 -0.00000000000E+00 -0.43918653356E+04  0.43918653356E+04  0.00000000000E+00 0.  1.
        -13    1    1    2    0    0 -0.47603428327E+03  0.21361857482E+03 -0.10134446566E+04  0.11398735095E+04  0.10566000000E+00 0.  1.
         13    1    1    2    0    0  0.11149071039E+03 -0.31994130684E+03 -0.60921716986E+03  0.69709266926E+03  0.10566000000E+00 0. -1.
          4    1    1    2  501    0  0.36454357288E+03  0.10632273202E+03 -0.26485094698E+04  0.26755931962E+04  0.00000000000E+00 0.  1.
</event>
<event>
 5    1  0.4419198E-005  0.9055792E+02  0.7818608E-02  0.1212822E+00
         -4   -1    0    0    0  501 -0.00000000000E+00  0.00000000000E+00  0.37560133674E+03  0.37560133674E+03  0.00000000000E+00 0. -1.
         21   -1    0    0  501  502  0.00000000000E+00 -0.00000000000E+00 -0.61595383036E+02  0.61595383036E+02  0.00000000000E+00 0.  1.
        -13    1    1    2    0    0 -0.39182652884E+01 -0.43746049170E+02 -0.70493433271E+01  0.44483412934E+02  0.10566000000E+00 0.  1.
         13    1    1    2    0    0 -0.88247717883E+02  0.25559633903E+02  0.47398640851E+02  0.10338083437E+03  0.10566000000E+00 0. -1.
         -4    1    1    2    0  502  0.92165983171E+02  0.18186415268E+02  0.27365665618E+03  0.28933247247E+03  0.00000000000E+00 0. -1.
</event>
<event>
 5    1  0.4419198E-005  0.4367067E+03  0.7818608E-02  0.9731330E-01
         21   -1    0    0  501  502  0.00000000000E+00  0.00000000000E+00  0.64471844363E+03  0.64471844363E+03  0.00000000000E+00 0.  1.
          4   -1    0    0  502    0 -0.00000000000E+00 -0.00000000000E+00 -0.77564533944E+03  0.77564533944E+03  0.00000000000E+00 0.  1.
        -13    1    1    2    0    0  0.47104681876E+03 -0.92215969283E+02  0.33542923110E+03  0.58557806541E+03  0.10566000000E+00 0.  1.
         13    1    1    2    0    0 -0.22507475420E+03 -0.20576437194E+03 -0.22840023601E+03  0.38100433162E+03  0.10566000000E+00 0. -1.
          4    1    1    2  501    0 -0.24597206455E+03  0.29798034123E+03 -0.23795589090E+03  0.45378138604E+03  0.00000000000E+00 0.  1.
</event>
<event>
 5    1  0.4419198E-005  0.4719885E+03  0.7818608E-02  0.1002036E+00
          4   -1    0    0  502    0 -0.00000000000E+00  0.00000000000E+00  0.37389607013E+03  0.37389607013E+03  0.00000000000E+00 0.  1.
         21   -1    0    0  501  502  0.00000000000E+00 -0.00000000000E+00 -0.13087069962E+04  0.13087069962E+04  0.00000000000E+00 0.  1.
        -13    1    1    2    0    0 -0.27623489401E+03 -0.31670840899E+03 -0.23140362479E+03  0.47974741451E+03  0.10566000000E+00 0.  1.
         13    1    1    2    0    0 -0.15070697648E+02 -0.90157776049E+02  0.17185214088E+03  0.19465025045E+03  0.10566000000E+00 0. -1.
          4    1    1    2  501    0  0.29130559166E+03  0.40686618504E+03 -0.87525944215E+03  0.10082054014E+04  0.00000000000E+00 0.  1.
</event>
<event>
 5    1  0.4419198E-005  0.4586794E+03  0.7818608E-02  0.9573449E-01
          4   -1    0    0  502    0 -0.00000000000E+00  0.00000000000E+00  0.19908354256E+04  0.19908354256E+04  0.00000000000E+00 0.  1.
         21   -1    0    0  501  502  0.00000000000E+00 -0.00000000000E+00 -0.15179098019E+03  0.15179098019E+03  0.00000000000E+00 0. -1.
        -13    1    1    2    0    0  0.32041527135E+03  0.33792355238E+03  0.82981553254E+03  0.95155246969E+03  0.10566000000E+00 0.  1.
         13    1    1    2    0    0 -0.30880955962E+03 -0.33185661349E+03  0.10524435092E+04  0.11459186303E+04  0.10566000000E+00 0. -1.
          4    1    1    2  501    0 -0.11605711723E+02 -0.60669388930E+01 -0.43214596409E+02  0.45155305723E+02  0.00000000000E+00 0.  1.
</event>
<event>
 5    1  0.4419198E-005  0.4191918E+03  0.7818608E-02  0.9675199E-01
         21   -1    0    0  501  502  0.00000000000E+00  0.00000000000E+00  0.43355742486E+03  0.43355742486E+03  0.00000000000E+00 0.  1.
          4   -1    0    0  502    0 -0.00000000000E+00 -0.00000000000E+00 -0.14560370526E+04  0.14560370526E+04  0.00000000000E+00 0.  1.
        -13    1    1    2    0    0  0.28049097677E+03  0.42998452496E+03 -0.53257951638E+03  0.73973159469E+03  0.10566000000E+00 0.  1.
         13    1    1    2    0    0  0.13532466305E+03 -0.40941707263E+03 -0.58115525467E+03  0.72365499030E+03  0.10566000000E+00 0. -1.
          4    1    1    2  501    0 -0.41581563982E+03 -0.20567452332E+02  0.91255143318E+02  0.42620789246E+03  0.00000000000E+00 0.  1.
</event>
<event>
 5    1  0.4419198E-005  0.2198410E+03  0.7818608E-02  0.1047324E+00
          4   -1    0    0  502    0 -0.00000000000E+00  0.00000000000E+00  0.27627092670E+03  0.27627092670E+03  0.00000000000E+00 0.  1.
         21   -1    0    0  501  502  0.00000000000E+00 -0.00000000000E+00 -0.27053375220E+03  0.27053375220E+03  0.00000000000E+00 0. -1.
        -13    1    1    2    0    0  0.50511710662E+02  0.23220078621E+03  0.11480496542E+03  0.26391064639E+03  0.10566000000E+00 0.  1.
         13    1    1    2    0    0 -0.40941820198E+02 -0.18803232826E+03 -0.34214786432E+02  0.19545601011E+03  0.10566000000E+00 0. -1.
          4    1    1    2  501    0 -0.95698904636E+01 -0.44168457947E+02 -0.74853004489E+02  0.87438022404E+02  0.00000000000E+00 0.  1.
</event>
<event>
 5    1  0.4419198E-005  0.4444128E+03  0.7818608E-02  0.9757862E-01
         21   -1    0    0  501  502  0.00000000000E+00  0.00000000000E+00  0.16482999725E+03  0.16482999725E+03  0.00000000000E+00 0. -1.
         -4   -1    0    0    0  501 -0.00000000000E+00 -0.00000000000E+00 -0.24778671688E+04  0.24778671688E+04  0.00000000000E+00 0. -1.
        -13    1    1    2    0    0  0.61043964875E+02  0.25688742686E+03 -0.90149173473E+03  0.93936407994E+03  0.10566000000E+00 0.  1.
         13    1    1    2    0    0 -0.44349397223E+03 -0.24158149257E+03 -0.48222322910E+03  0.69827485621E+03  0.10566000000E+00 0. -1.
         -4    1    1    2    0  502  0.38245000736E+03 -0.15305934286E+02 -0.92932220773E+03  0.10050582299E+04  0.00000000000E+00 0. -1.
</event>
<event>
 5    1  0.4419198E-005  0.4775120E+03  0.7818608E-02  0.9565258E-01
          4   -1    0    0  502    0 -0.00000000000E+00  0.00000000000E+00  0.22217655983E+04  0.22217655983E+04  0.00000000000E+00 0.  1.
         21   -1    0    0  501  502  0.00000000000E+00 -0.00000000000E+00 -0.24774846289E+03  0.24774846289E+03  0.00000000000E+00 0.  1.
        -13    1    1    2    0    0  0.15314213360E+02  0.33831784738E+03  0.92884197778E+03  0.98865611910E+03  0.10566000000E+00 0.  1.
         13    1    1    2    0    0  0.40697502392E+03  0.98055963725E+02  0.58303807540E+03  0.71775835115E+03  0.10566000000E+00 0. -1.
          4    1    1    2  501    0 -0.42228923728E+03 -0.43637381110E+03  0.46213708225E+03  0.76309959096E+03  0.00000000000E+00 0.  1.
</event>
<event>
 5    1  0.4419198E-005  0.5026003E+03  0.7818608E-02  0.9583956E-01
         21   -1    0    0  501  502  0.00000000000E+00  0.00000000000E+00  0.15093411755E+03  0.15093411755E+03  0.00000000000E+00 0.  1.
          4   -1    0    0  502    0 -0.00000000000E+00 -0.00000000000E+00 -0.35549831072E+04  0.35549831072E+04  0.00000000000E+00 0.  1.
        -13    1    1    2    0    0  0.60753544946E+03 -0.21025005442E+03 -0.91395989737E+03  0.11174198463E+04  0.10566000000E+00 0.  1.
         13    1    1    2    0    0 -0.24431350505E+03  0.23035408521E+03 -0.13826869472E+04  0.14228757144E+04  0.10566000000E+00 0. -1.
          4    1    1    2  501    0 -0.36322194441E+03 -0.20104030793E+02 -0.11074021450E+04  0.11656216641E+04  0.00000000000E+00 0.  1.
</event>
<event>
 5    1  0.4419198E-005  0.2706895E+03  0.7818608E-02  0.1028044E+00
          4   -1    0    0  502    0 -0.00000000000E+00  0.00000000000E+00  0.20105928467E+04  0.20105928467E+04  0.00000000000E+00 0.  1.
         21   -1    0    0  501  502  0.00000000000E+00 -0.00000000000E+00 -0.85434622067E+02  0.85434622067E+02  0.00000000000E+00 0. -1.
        -13    1    1    2    0    0 -0.90390985918E+02  0.29304183529E+03  0.42070253757E+03  0.52060991524E+03  0.10566000000E+00 0.  1.
         13    1    1    2    0    0  0.20215980027E+03 -0.63152626880E+02  0.69652586227E+03  0.72801451022E+03  0.10566000000E+00 0. -1.
          4    1    1    2  501    0 -0.11176881435E+03 -0.22988920841E+03  0.80792982478E+03  0.84740304328E+03  0.00000000000E+00 0.  1.
</event>
<event>
 5    1  0.5799855E-005  0.4732081E+03  0.7818608E-02  0.9581869E-01
         -4   -1    0    0    0  501 -0.00000000000E+00  0.00000000000E+00  0.96764965415E+03  0.96764965415E+03  0.00000000000E+00 0. -1.
         21   -1    0    0  501  502  0.00000000000E+00 -0.00000000000E+00 -0.76798500015E+03  0.76798500015E+03  0.00000000000E+00 0. -1.
        -13    1    1    2    0    0 -0.10174898703E+03 -0.39235311193E+03  0.47611951563E+03  0.62528683429E+03  0.10566000000E+00 0.  1.
         13    1    1    2    0    0  0.45691257788E+02 -0.21539815135E+03  0.22914968176E+03  0.31779496921E+03  0.10566000000E+00 0. -1.
         -4    1    1    2    0  502  0.56057729240E+02  0.60775126327E+03 -0.50560454339E+03  0.79255285080E+03  0.00000000000E+00 0. -1.
</event>
<event>
 5    1  0.4419198E-005  0.4065407E+03  0.7818608E-02  0.1022217E+00
         -4   -1    0    0    0  501 -0.00000000000E+00  0.00000000000E+00  0.31027022864E+03  0.31027022864E+03  0.00000000000E+00 0. -1.
         21   -1    0    0  501  502  0.00000000000E+00 -0.00000000000E+00 -0.94672622088E+03  0.94672622088E+03  0.00000000000E+00 0. -1.
        -13    1    1    2    0    0  0.67435787213E+02 -0.32790475823E+02  0.16281369045E+02  0.76732619164E+02  0.10566000000E+00 0.  1.
         13    1    1    2    0    0 -0.69786407173E+02 -0.39558211530E+03 -0.63516431658E+03  0.75152449913E+03  0.10566000000E+00 0. -1.
         -4    1    1    2    0  502  0.23506199599E+01  0.42837259112E+03 -0.17573044701E+02  0.42873933122E+03  0.00000000000E+00 0. -1.
</event>
<event>
 5    1  0.4419198E-005  0.8142385E+03  0.7818608E-02  0.8971965E-01
         21   -1    0    0  501  502  0.00000000000E+00  0.00000000000E+00  0.98943206546E+03  0.98943206546E+03  0.00000000000E+00 0.  1.
         -4   -1    0    0    0  501 -0.00000000000E+00 -0.00000000000E+00 -0.13628458917E+04  0.13628458917E+04  0.00000000000E+00 0. -1.
        -13    1    1    2    0    0  0.90952150812E+03 -0.23774470639E+03 -0.18328131051E+03  0.95778075210E+03  0.10566000000E+00 0.  1.
         13    1    1    2    0    0 -0.68218009521E+03  0.33032244011E+03 -0.56573243694E+03  0.94579902628E+03  0.10566000000E+00 0. -1.
         -4    1    1    2    0  502 -0.22734141291E+03 -0.92577733724E+02  0.37559992122E+03  0.44869817876E+03  0.00000000000E+00 0. -1.
</event>
<event>
 5    1  0.4419198E-005  0.3981852E+03  0.7818608E-02  0.9962876E-01
         21   -1    0    0  501  502  0.00000000000E+00  0.00000000000E+00  0.23585218106E+03  0.23585218106E+03  0.00000000000E+00 0.  1.
          4   -1    0    0  502    0 -0.00000000000E+00 -0.00000000000E+00 -0.15484118725E+04  0.15484118725E+04  0.00000000000E+00 0.  1.
        -13    1    1    2    0    0 -0.30529282256E+03  0.19367332785E+03 -0.98966898951E+03  0.10536402543E+04  0.10566000000E+00 0.  1.
         13    1    1    2    0    0 -0.10694904781E+03 -0.14955608569E+03 -0.24895113794E+03  0.30948635162E+03  0.10566000000E+00 0. -1.
          4    1    1    2  501    0  0.41224187036E+03 -0.44117242164E+02 -0.73939564025E+02  0.42113744771E+03  0.00000000000E+00 0.  1.
</event>
<event>
 5    1  0.4419198E-005  0.5271004E+03  0.7818608E-02  0.9583254E-01
         21   -1    0    0  501  502  0.00000000000E+00  0.00000000000E+00  0.35729558706E+03  0.35729558706E+03  0.00000000000E+00 0. -1.
          4   -1    0    0  502    0 -0.00000000000E+00 -0.00000000000E+00 -0.16156516209E+04  0.16156516209E+04  0.00000000000E+00 0.  1.
        -13    1    1    2    0    0  0.63454023386E+02  0.49516011598E+03 -0.92734789767E+03  0.10531780894E+04  0.10566000000E+00 0.  1.
         13    1    1    2    0    0  0.28667119270E+03 -0.54662441436E+02 -0.73493507638E+02  0.30094793912E+03  0.10566000000E+00 0. -1.
          4    1    1    2  501    0 -0.35012521609E+03 -0.44049767455E+03 -0.25751462857E+03  0.61882117946E+03  0.00000000000E+00 0.  1.
</event>
<event>
 5    1  0.4419198E-005  0.5509345E+03  0.7818608E-02  0.9372816E-01
         -4   -1    0    0    0  501 -0.00000000000E+00  0.00000000000E+00  0.21146935564E+04  0.21146935564E+04  0.00000000000E+00 0. -1.
         21   -1    0    0  501  502  0.00000000000E+00 -0.00000000000E+00 -0.27023940867E+03  0.27023940867E+03  0.00000000000E+00 0. -1.
        -13    1    1    2    0    0  0.16995607650E+03  0.38002487829E+03  0.40388682185E+03  0.58002461335E+03  0.10566000000E+00 0.  1.
         13    1    1    2    0    0 -0.42622839026E+03 -0.54308840476E+03  0.12962143649E+04  0.14686004722E+04  0.10566000000E+00 0. -1.
         -4    1    1    2    0  502  0.25627231376E+03  0.16306352647E+03  0.14435296095E+03  0.33630787948E+03  0.00000000000E+00 0. -1.
</event>
<event>
 5    1  0.4419198E-005  0.4858794E+03  0.7818608E-02  0.1015358E+00
         -4   -1    0    0    0  501 -0.00000000000E+00  0.00000000000E+00  0.57862495905E+03  0.57862495905E+03  0.00000000000E+00 0. -1.
         21   -1    0    0  501  502  0.00000000000E+00 -0.00000000000E+00 -0.52497705198E+03  0.52497705198E+03  0.00000000000E+00 0. -1.
        -13    1    1    2    0    0  0.53526472598E+02  0.10523967574E+02  0.11563241882E+03  0.12785423188E+03  0.10566000000E+00 0.  1.
         13    1    1    2    0    0 -0.50862939177E+03  0.63135370460E+02 -0.42958177500E+02  0.51433000044E+03  0.10566000000E+00 0. -1.
         -4    1    1    2    0  502  0.45510291917E+03 -0.73659338034E+02 -0.19026334252E+02  0.46141777871E+03  0.00000000000E+00 0. -1.
</event>
<event>
 5    1  0.4419198E-005  0.4804969E+03  0.7818608E-02  0.9708047E-01
         21   -1    0    0  501  502  0.00000000000E+00  0.00000000000E+00  0.14075323599E+03  0.14075323599E+03  0.00000000000E+00 0.  1.
          4   -1    0    0  502    0 -0.00000000000E+00 -0.00000000000E+00 -0.29668175296E+04  0.29668175296E+04  0.00000000000E+00 0.  1.
        -13    1    1    2    0    0  0.39120389600E+03 -0.32463460845E+03 -0.90505076546E+03  0.10380486580E+04  0.10566000000E+00 0.  1.
         13    1    1    2    0    0 -0.21938672902E+03 -0.11608388351E+03 -0.35166973707E+03  0.43043886908E+03  0.10566000000E+00 0. -1.
          4    1    1    2  501    0 -0.17181716698E+03  0.44071849196E+03 -0.15693437911E+04  0.16390832385E+04  0.00000000000E+00 0.  1.
</event>
<event>
 5    1  0.4419198E-005  0.4171303E+03  0.7818608E-02  0.1014628E+00
         21   -1    0    0  501  502  0.00000000000E+00  0.00000000000E+00  0.11020533291E+04  0.11020533291E+04  0.00000000000E+00 0.  1.
          4   -1    0    0  502    0 -0.00000000000E+00 -0.00000000000E+00 -0.28961746324E+03  0.28961746324E+03  0.00000000000E+00 0.  1.
        -13    1    1    2    0    0  0.38035280164E+03 -0.20468014591E+03  0.82543318895E+03  0.93161267511E+03  0.10566000000E+00 0.  1.
         13    1    1    2    0    0 -0.86063497744E+02 -0.19482050394E+02 -0.18126133325E+02  0.90083537924E+02  0.10566000000E+00 0. -1.
          4    1    1    2  501    0 -0.29428930390E+03  0.22416219630E+03  0.51288102400E+01  0.36997457931E+03  0.00000000000E+00 0.  1.
</event>
<event>
 5    1  0.4419198E-005  0.3255735E+03  0.7818608E-02  0.9972752E-01
         -4   -1    0    0    0  501 -0.00000000000E+00  0.00000000000E+00  0.35608293121E+04  0.35608293121E+04  0.00000000000E+00 0. -1.
         21   -1    0    0  501  502  0.00000000000E+00 -0.00000000000E+00 -0.16250182128E+03  0.16250182128E+03  0.00000000000E+00 0. -1.
        -13    1    1    2    0    0 -0.29445048525E+03  0.12782767265E+03  0.17537883475E+04  0.17829230441E+04  0.10566000000E+00 0.  1.
         13    1    1    2    0    0  0.29847101757E+03 -0.14182326070E+03  0.17768405675E+04  0.18073077212E+04  0.10566000000E+00 0. -1.
         -4    1    1    2    0  502 -0.40205323231E+01  0.13995588045E+02 -0.13230142414E+03  0.13310036812E+03  0.00000000000E+00 0. -1.
</event>
<event>
 5    1  0.4419198E-005  0.1291322E+03  0.7818608E-02  0.1123731E+00
         -4   -1    0    0    0  501 -0.00000000000E+00  0.00000000000E+00  0.55088866139E+03  0.55088866139E+03  0.00000000000E+00 0. -1.
         21   -1    0    0  501  502  0.00000000000E+00 -0.00000000000E+00 -0.51756705654E+02  0.51756705654E+02  0.00000000000E+00 0. -1.
        -13    1    1    2    0    0  0.13234211016E+03 -0.12432477194E+02  0.34750351346E+03  0.37205873682E+03  0.10566000000E+00 0.  1.
         13    1    1    2    0    0 -0.12312866296E+03  0.22324715410E+01  0.16857545598E+03  0.20876624989E+03  0.10566000000E+00 0. -1.
         -4    1    1    2    0  502 -0.92134472063E+01  0.10200005653E+02 -0.16947013700E+02  0.21820380338E+02  0.00000000000E+00 0. -1.
</event>
<event>
 5    1  0.4419198E-005  0.4464919E+02  0.7818608E-02  0.1315254E+00
          4   -1    0    0  502    0 -0.00000000000E+00  0.00000000000E+00  0.57324574923E+02  0.57324574923E+02  0.00000000000E+00 0.  1.
         21   -1    0    0  501  502  0.00000000000E+00 -0.00000000000E+00 -0.16433346393E+03  0.16433346393E+03  0.00000000000E+00 0.  1.
        -13    1    1    2    0    0  0.48088406343E+02  0.55424716709E+02 -0.97669588543E+02  0.12216281651E+03  0.10566000000E+00 0.  1.
         13    1    1    2    0    0 -0.23137728533E+02 -0.34785044916E+02  0.27830719305E+02  0.50198744332E+02  0.10566000000E+00 0. -1.
          4    1    1    2  501    0 -0.24950677810E+02 -0.20639671793E+02 -0.37170019769E+02  0.49296478013E+02  0.00000000000E+00 0.  1.
</event>
<event>
 5    1  0.4419198E-005  0.6482678E+03  0.7818608E-02  0.9201603E-01
         21   -1    0    0  501  502  0.00000000000E+00  0.00000000000E+00  0.10813962254E+04  0.10813962254E+04  0.00000000000E+00 0.  1.
          4   -1    0    0  502    0 -0.00000000000E+00 -0.00000000000E+00 -0.22560410227E+04  0.22560410227E+04  0.00000000000E+00 0.  1.
        -13    1    1    2    0    0 -0.49763739270E+03 -0.38448859814E+03 -0.74512057553E+03  0.97502776369E+03  0.10566000000E+00 0.  1.
         13    1    1    2    0    0  0.52719021424E+03  0.39957833837E+03 -0.13172722241E+04  0.14740415510E+04  0.10566000000E+00 0. -1.
          4    1    1    2  501    0 -0.29552821540E+02 -0.15089740228E+02  0.88774800231E+03  0.88836793342E+03  0.00000000000E+00 0.  1.
</event>
<event>
 5    1  0.4419198E-005  0.4486366E+03  0.7818608E-02  0.9695082E-01
         21   -1    0    0  501  502  0.00000000000E+00  0.00000000000E+00  0.11334243029E+04  0.11334243029E+04  0.00000000000E+00 0.  1.
          4   -1    0    0  502    0 -0.00000000000E+00 -0.00000000000E+00 -0.97381848031E+03  0.97381848031E+03  0.00000000000E+00 0.  1.
        -13    1    1    2    0    0  0.20207416704E+03 -0.62258728530E+02 -0.40005664016E+03  0.45249911023E+03  0.10566000000E+00 0.  1.
         13    1    1    2    0    0  0.26799604284E+03  0.17304547131E+03 -0.44061856766E+03  0.54397734094E+03  0.10566000000E+00 0. -1.
          4    1    1    2  501    0 -0.47007020987E+03 -0.11078674278E+03  0.10002810304E+04  0.11107663320E+04  0.00000000000E+00 0.  1.
</event>
<event>
 5    1  0.4419198E-005  0.1429920E+02  0.7818608E-02  0.1617253E+00
          4   -1    0    0  502    0 -0.00000000000E+00  0.00000000000E+00  0.59440278761E+02  0.59440278761E+02  0.00000000000E+00 0.  1.
         21   -1    0    0  501  502  0.00000000000E+00 -0.00000000000E+00 -0.13212554393E+02  0.13212554393E+02  0.00000000000E+00 0.  1.
        -13    1    1    2    0    0 -0.12867907598E+02  0.10965000997E+02  0.39755327449E+02  0.43200827740E+02  0.10566000000E+00 0.  1.
         13    1    1    2    0    0  0.12369047197E+02  0.38065761233E+01 -0.82585701692E+00  0.12968290334E+02  0.10566000000E+00 0. -1.
          4    1    1    2  501    0  0.49886040074E+00 -0.14771577120E+02  0.72982539353E+01  0.16483715080E+02  0.00000000000E+00 0.  1.
</event>
<event>
 5    1  0.4419198E-005  0.8205977E+02  0.7818608E-02  0.1198221E+00
         21   -1    0    0  501  502  0.00000000000E+00  0.00000000000E+00  0.79567576695E+02  0.79567576695E+02  0.00000000000E+00 0. -1.
         -4   -1    0    0    0  501 -0.00000000000E+00 -0.00000000000E+00 -0.16906115206E+03  0.16906115206E+03  0.00000000000E+00 0. -1.
        -13    1    1    2    0    0 -0.60235150803E+02  0.37861267368E+02 -0.18361528772E+02  0.73477247239E+02  0.10566000000E+00 0.  1.
         13    1    1    2    0    0  0.45311312974E+02 -0.84036662346E+02 -0.81500063406E+02  0.12552906915E+03  0.10566000000E+00 0. -1.
         -4    1    1    2    0  502  0.14923837829E+02  0.46175394977E+02  0.10368016811E+02  0.49622412370E+02  0.00000000000E+00 0. -1.
</event>
<event>
 5    1  0.4419198E-005  0.2976242E+03  0.7818608E-02  0.1009742E+00
         21   -1    0    0  501  502  0.00000000000E+00  0.00000000000E+00  0.30459515202E+03  0.30459515202E+03  0.00000000000E+00 0.  1.
          4   -1    0    0  502    0 -0.00000000000E+00 -0.00000000000E+00 -0.20363030539E+04  0.20363030539E+04  0.00000000000E+00 0.  1.
        -13    1    1    2    0    0  0.44124041147E+03  0.16117109141E+02 -0.80882633629E+03  0.92149493507E+03  0.10566000000E+00 0.  1.
         13    1    1    2    0    0 -0.20899313476E+03 -0.19234954972E+03 -0.10598783706E+04  0.10972778369E+04  0.10566000000E+00 0. -1.
          4    1    1    2  501    0 -0.23224727670E+03  0.17623244058E+03  0.13699680499E+03  0.32212543399E+03  0.00000000000E+00 0.  1.
</event>
<event>
 5    1  0.4419198E-005  0.5012783E+03  0.7818608E-02  0.9923069E-01
         21   -1    0    0  501  502  0.00000000000E+00  0.00000000000E+00  0.73491972107E+03  0.73491972107E+03  0.00000000000E+00 0.  1.
          4   -1    0    0  502    0 -0.00000000000E+00 -0.00000000000E+00 -0.57219474028E+03  0.57219474028E+03  0.00000000000E+00 0.  1.
        -13    1    1    2    0    0  0.48202825421E+03 -0.15577659581E+03  0.29131037141E+03  0.58436232708E+03  0.10566000000E+00 0.  1.
         13    1    1    2    0    0 -0.48581879092E+02 -0.93261725096E+02 -0.19193942491E+03  0.21885772169E+03  0.10566000000E+00 0. -1.
          4    1    1    2  501    0 -0.43344637511E+03  0.24903832091E+03  0.63354034286E+02  0.50389441259E+03  0.00000000000E+00 0.  1.
</event>
<event>
 5    1  0.4419198E-005  0.3295113E+03  0.7818608E-02  0.9958182E-01
         21   -1    0    0  501  502  0.00000000000E+00  0.00000000000E+00  0.23894879895E+03  0.23894879895E+03  0.00000000000E+00 0.  1.
          4   -1    0    0  502    0 -0.00000000000E+00 -0.00000000000E+00 -0.17574724552E+04  0.17574724552E+04  0.00000000000E+00 0.  1.
        -13    1    1    2    0    0  0.17515322940E+03  0.27244336962E+03 -0.61451584299E+03  0.69464651145E+03  0.10566000000E+00 0.  1.
         13    1    1    2    0    0 -0.18446485240E+03 -0.27730640098E+03 -0.10775844646E+04  0.11278804952E+04  0.10566000000E+00 0. -1.
          4    1    1    2  501    0  0.93116230047E+01  0.48630313672E+01  0.17357665141E+03  0.17389424749E+03  0.00000000000E+00 0.  1.
</event>
<event>
 5    1  0.4419198E-005  0.6769092E+03  0.7818608E-02  0.9157165E-01
         -4   -1    0    0    0  501 -0.00000000000E+00  0.00000000000E+00  0.26473227376E+04  0.26473227376E+04  0.00000000000E+00 0. -1.
         21   -1    0    0  501  502  0.00000000000E+00 -0.00000000000E+00 -0.32120113242E+03  0.32120113242E+03  0.00000000000E+00 0.  1.
        -13    1    1    2    0    0 -0.44125872712E+03 -0.18940199170E+03  0.86396470915E+02  0.48790033826E+03  0.10566000000E+00 0.  1.
         13    1    1    2    0    0  0.73512981849E+03  0.22008182331E+03  0.15234332140E+04  0.17057844611E+04  0.10566000000E+00 0. -1.
         -4    1    1    2    0  502 -0.29387109137E+03 -0.30679831603E+02  0.71629192022E+03  0.77483907064E+03  0.00000000000E+00 0. -1.
</event>
<event>
 5    1  0.4419198E-005  0.4929804E+03  0.7818608E-02  0.9708732E-01
         21   -1    0    0  501  502  0.00000000000E+00  0.00000000000E+00  0.19701154075E+03  0.19701154075E+03  0.00000000000E+00 0. -1.
         -4   -1    0    0    0  501 -0.00000000000E+00 -0.00000000000E+00 -0.24389041683E+04  0.24389041683E+04  0.00000000000E+00 0. -1.
        -13    1    1    2    0    0  0.18188907583E+03  0.13958576774E+03 -0.10103210217E+04  0.10360098458E+04  0.10566000000E+00 0.  1.
         13    1    1    2    0    0 -0.89424124871E+01  0.40460281838E+03 -0.75301369008E+03  0.85487603546E+03  0.10566000000E+00 0. -1.
         -4    1    1    2    0  502 -0.17294666334E+03 -0.54418858613E+03 -0.47855791580E+03  0.74502982786E+03  0.00000000000E+00 0. -1.
</event>
<event>
 5    1  0.4419198E-005  0.4939723E+03  0.7818608E-02  0.9519366E-01
          4   -1    0    0  502    0 -0.00000000000E+00  0.00000000000E+00  0.25583344195E+04  0.25583344195E+04  0.00000000000E+00 0.  1.
         21   -1    0    0  501  502  0.00000000000E+00 -0.00000000000E+00 -0.24764458153E+03  0.24764458153E+03  0.00000000000E+00 0.  1.
        -13    1    1    2    0    0 -0.41871970426E+03 -0.39171959798E+02  0.57478545497E+03  0.71220710722E+03  0.10566000000E+00 0.  1.
         13    1    1    2    0    0 -0.12078364328E+03  0.42944338801E+03  0.10347700841E+04  0.11268360352E+04  0.10566000000E+00 0. -1.
          4    1    1    2  501    0  0.53950334753E+03 -0.39027142821E+03  0.70113429886E+03  0.96693585864E+03  0.00000000000E+00 0.  1.
</event>
<event>
 5    1  0.4419198E-005  0.3844276E+03  0.7818608E-02  0.9775128E-01
         21   -1    0    0  501  502  0.00000000000E+00  0.00000000000E+00  0.17986000760E+04  0.17986000760E+04  0.00000000000E+00 0. -1.
          4   -1    0    0  502    0 -0.00000000000E+00 -0.00000000000E+00 -0.28128641722E+03  0.28128641722E+03  0.00000000000E+00 0.  1.
        -13    1    1    2    0    0  0.86746511206E+02 -0.48923961130E+03  0.93877936029E+03  0.10621615004E+04  0.10566000000E+00 0.  1.
         13    1    1    2    0    0  0.20922954934E+03  0.30037173119E+03  0.55627917869E+03  0.66591795067E+03  0.10566000000E+00 0. -1.
          4    1    1    2  501    0 -0.29597606054E+03  0.18886788010E+03  0.22255119808E+02  0.35180704215E+03  0.00000000000E+00 0.  1.
</event>
<event>
 5    1  0.4419198E-005  0.5766333E+03  0.7818608E-02  0.9324180E-01
         -4   -1    0    0    0  501 -0.00000000000E+00  0.00000000000E+00  0.11513062472E+04  0.11513062472E+04  0.00000000000E+00 0. -1.
         21   -1    0    0  501  502  0.00000000000E+00 -0.00000000000E+00 -0.96710958574E+03  0.96710958574E+03  0.00000000000E+00 0.  1.
        -13    1    1    2    0    0  0.23156771545E+03 -0.56500069215E+03  0.59402712472E+03  0.85189061800E+03  0.10566000000E+00 0.  1.
         13    1    1    2    0    0 -0.52354929958E+03  0.29246931552E+03  0.11129788299E+03  0.60994212802E+03  0.10566000000E+00 0. -1.
         -4    1    1    2    0  502  0.29198158414E+03  0.27253137663E+03 -0.52112834627E+03  0.65658308691E+03  0.00000000000E+00 0. -1.
</event>
<event>
 5    1  0.4419198E-005  0.4649121E+03  0.7818608E-02  0.9645869E-01
         -4   -1    0    0    0  501 -0.00000000000E+00  0.00000000000E+00  0.21672100193E+04  0.21672100193E+04  0.00000000000E+00 0. -1.
         21   -1    0    0  501  502  0.00000000000E+00 -0.00000000000E+00 -0.53988400208E+03  0.53988400208E+03  0.00000000000E+00 0. -1.
        -13    1    1    2    0    0  0.89436453161E+02 -0.32866842907E+03  0.16507945768E+04  0.16855695065E+04  0.10566000000E+00 0.  1.
         13    1    1    2    0    0  0.27541898954E+03  0.53268144781E+03  0.28139537731E+02  0.60033073333E+03  0.10566000000E+00 0. -1.
         -4    1    1    2    0  502 -0.36485544270E+03 -0.20401301874E+03 -0.51608097294E+02  0.42119378152E+03  0.00000000000E+00 0. -1.
</event>
<event>
 5    1  0.4419198E-005  0.3420878E+03  0.7818608E-02  0.9913069E-01
         -4   -1    0    0    0  501 -0.00000000000E+00  0.00000000000E+00  0.20262920235E+04  0.20262920235E+04  0.00000000000E+00 0. -1.
         21   -1    0    0  501  502  0.00000000000E+00 -0.00000000000E+00 -0.16911876522E+03  0.16911876522E+03  0.00000000000E+00 0.  1.
        -13    1    1    2    0    0 -0.28585296282E+03 -0.19946837150E+03  0.69885843239E+03  0.78096265421E+03  0.10566000000E+00 0.  1.
         13    1    1    2    0    0  0.23314500027E+03  0.24909998515E+03  0.12510840956E+04  0.12967724624E+04  0.10566000000E+00 0. -1.
         -4    1    1    2    0  502  0.52707962553E+02 -0.49631613641E+02 -0.92769269757E+02  0.11767567208E+03  0.00000000000E+00 0. -1.
</event>
<event>
 5    1  0.4419198E-005  0.4625205E+02  0.7818608E-02  0.1307849E+00
         -4   -1    0    0    0  501 -0.00000000000E+00  0.00000000000E+00  0.43274992121E+02  0.43274992121E+02  0.00000000000E+00 0. -1.
         21   -1    0    0  501  502  0.00000000000E+00 -0.00000000000E+00 -0.14958964081E+03  0.14958964081E+03  0.00000000000E+00 0. -1.
        -13    1    1    2    0    0 -0.47191591939E+02 -0.12957679403E+01 -0.89656731902E+02  0.10132653208E+03  0.10566000000E+00 0.  1.
         13    1    1    2    0    0  0.39948364860E+02 -0.25393705223E+02  0.14853918734E+02  0.49612117328E+02  0.10566000000E+00 0. -1.
         -4    1    1    2    0  502  0.72432270798E+01  0.26689473163E+02 -0.31511835522E+02  0.41925983521E+02  0.00000000000E+00 0. -1.
</event>
<event>
 5    1  0.4419198E-005  0.4316260E+03  0.7818608E-02  0.9838081E-01
         -4   -1    0    0    0  501 -0.00000000000E+00  0.00000000000E+00  0.19439027812E+04  0.19439027812E+04  0.00000000000E+00 0. -1.
         21   -1    0    0  501  502  0.00000000000E+00 -0.00000000000E+00 -0.18619038970E+03  0.18619038970E+03  0.00000000000E+00 0. -1.
        -13    1    1    2    0    0 -0.68961627693E+02  0.20800613485E+03  0.73383531882E+03  0.76585673892E+03  0.10566000000E+00 0.  1.
         13    1    1    2    0    0 -0.40142435657E+03 -0.54672440747E+02  0.41964929122E+03  0.58329763295E+03  0.10566000000E+00 0. -1.
         -4    1    1    2    0  502  0.47038598426E+03 -0.15333369411E+03  0.60422778149E+03  0.78093879905E+03  0.00000000000E+00 0. -1.
</event>
<event>
 5    1  0.4419198E-005  0.3742089E+03  0.7818608E-02  0.9806637E-01
         -4   -1    0    0    0  501 -0.00000000000E+00  0.00000000000E+00  0.23304325475E+04  0.23304325475E+04  0.00000000000E+00 0. -1.
         21   -1    0    0  501  502  0.00000000000E+00 -0.00000000000E+00 -0.39471542854E+03  0.39471542854E+03  0.00000000000E+00 0. -1.
        -13    1    1    2    0    0 -0.25550360413E+02  0.42937839831E+03  0.16035279803E+04  0.16602170414E+04  0.10566000000E+00 0.  1.
         13    1    1    2    0    0  0.92003649158E+02 -0.29632929189E+03  0.64655911341E+03  0.71715717872E+03  0.10566000000E+00 0. -1.
         -4    1    1    2    0  502 -0.66453288745E+02 -0.13304910641E+03 -0.31436997473E+03  0.34777375593E+03  0.00000000000E+00 0. -1.
</event>
<event>
 5    1  0.4419198E-005  0.1387789E+03  0.7818608E-02  0.1112738E+00
          4   -1    0    0  502    0 -0.00000000000E+00  0.00000000000E+00  0.37105967865E+02  0.37105967865E+02  0.00000000000E+00 0.  1.
         21   -1    0    0  501  502  0.00000000000E+00 -0.00000000000E+00 -0.13517805866E+04  0.13517805866E+04  0.00000000000E+00 0. -1.
        -13    1    1    2    0    0 -0.13266130334E+03  0.30746319344E+02 -0.14639139934E+03  0.19993701639E+03  0.10566000000E+00 0.  1.
         13    1    1    2    0    0  0.14023818418E+03 -0.44172133991E+02 -0.51744280495E+03  0.53792656867E+03  0.10566000000E+00 0. -1.
          4    1    1    2  501    0 -0.75768808367E+01  0.13425814647E+02 -0.65084041448E+03  0.65102296944E+03  0.00000000000E+00 0.  1.
</event>
<event>
 5    1  0.4419198E-005  0.3957115E+03  0.7818608E-02  0.9816237E-01
         21   -1    0    0  501  502  0.00000000000E+00  0.00000000000E+00  0.31650543772E+03  0.31650543772E+03  0.00000000000E+00 0.  1.
          4   -1    0    0  502    0 -0.00000000000E+00 -0.00000000000E+00 -0.21649135371E+04  0.21649135371E+04  0.00000000000E+00 0.  1.
        -13    1    1    2    0    0  0.59716910583E+03  0.85988802092E+02 -0.57272730395E+03  0.83187835102E+03  0.10566000000E+00 0.  1.
         13    1    1    2    0    0 -0.25691900133E+03 -0.16673289517E+03 -0.12630054443E+04  0.12996114785E+04  0.10566000000E+00 0. -1.
          4    1    1    2  501    0 -0.34025010450E+03  0.80744093074E+02 -0.12675351113E+02  0.34992914527E+03  0.00000000000E+00 0.  1.
</event>
<event>
 5    1  0.4419198E-005  0.4101194E+03  0.7818608E-02  0.9760606E-01
         21   -1    0    0  501  502  0.00000000000E+00  0.00000000000E+00  0.28920103193E+03  0.28920103193E+03  0.00000000000E+00 0.  1.
          4   -1    0    0  502    0 -0.00000000000E+00 -0.00000000000E+00 -0.22533337445E+04  0.22533337445E+04  0.00000000000E+00 0.  1.
        -13    1    1    2    0    0  0.19199102779E+03  0.32088906139E+03 -0.40656466546E+02  0.37614266430E+03  0.10566000000E+00 0.  1.
         13    1    1    2    0    0  0.34867013838E+03 -0.29274190920E+03 -0.89236495582E+03  0.10017903555E+04  0.10566000000E+00 0. -1.
          4    1    1    2  501    0 -0.54066116617E+03 -0.28147152193E+02 -0.10311112902E+04  0.11646017566E+04  0.00000000000E+00 0.  1.
</event>
<event>
 5    1  0.4419198E-005  0.2453875E+03  0.7818608E-02  0.1032811E+00
         -4   -1    0    0    0  501 -0.00000000000E+00  0.00000000000E+00  0.88504739406E+03  0.88504739406E+03  0.00000000000E+00 0. -1.
         21   -1    0    0  501  502  0.00000000000E+00 -0.00000000000E+00 -0.13251287642E+03  0.13251287642E+03  0.00000000000E+00 0. -1.
        -13    1    1    2    0    0  0.14698207400E+02  0.24447837470E+03  0.52723987627E+03  0.58134981835E+03  0.10566000000E+00 0.  1.
         13    1    1    2    0    0 -0.14184307611E+01 -0.24640671972E+03  0.28399607199E+03  0.37599476531E+03  0.10566000000E+00 0. -1.
         -4    1    1    2    0  502 -0.13279776638E+02  0.19283450262E+01 -0.58701430622E+02  0.60215686819E+02  0.00000000000E+00 0. -1.
</event>
<event>
 5    1  0.4419198E-005  0.7443313E+02  0.7818608E-02  0.1215554E+00
         21   -1    0    0  501  502  0.00000000000E+00  0.00000000000E+00  0.42019727921E+03  0.42019727921E+03  0.00000000000E+00 0.  1.
          4   -1    0    0  502    0 -0.00000000000E+00 -0.00000000000E+00 -0.62300385585E+02  0.62300385585E+02  0.00000000000E+00 0.  1.
        -13    1    1    2    0    0 -0.83657785087E+02 -0.52755122037E+02  0.13247420214E+02  0.99785936951E+02  0.10566000000E+00 0.  1.
         13    1    1    2    0    0  0.53340846351E+02  0.16834318113E+02  0.27923754971E+02  0.62517096954E+02  0.10566000000E+00 0. -1.
          4    1    1    2  501    0  0.30316938736E+02  0.35920803924E+02  0.31672571844E+03  0.32019463089E+03  0.00000000000E+00 0.  1.
</event>
<event>
 5    1  0.4419198E-005  0.1318239E+03  0.7818608E-02  0.1120562E+00
         21   -1    0    0  501  502  0.00000000000E+00  0.00000000000E+00  0.12371806848E+03  0.12371806848E+03  0.00000000000E+00 0.  1.
          4   -1    0    0  502    0 -0.00000000000E+00 -0.00000000000E+00 -0.40663329458E+03  0.40663329458E+03  0.00000000000E+00 0.  1.
        -13    1    1    2    0    0  0.57263499044E+02 -0.13129213082E+03 -0.13640237621E+03  0.19779370905E+03  0.10566000000E+00 0.  1.
         13    1    1    2    0    0 -0.35814383024E+02  0.12078283127E+03 -0.22097184421E+03  0.25436141503E+03  0.10566000000E+00 0. -1.
          4    1    1    2  501    0 -0.21449116020E+02  0.10509299549E+02  0.74458994319E+02  0.78196238976E+02  0.00000000000E+00 0.  1.
</event>
<event>
 5    1  0.4419198E-005  0.5196685E+02  0.7818608E-02  0.1283982E+00
         21   -1    0    0  501  502  0.00000000000E+00  0.00000000000E+00  0.29584896842E+03  0.29584896842E+03  0.00000000000E+00 0. -1.
          4   -1    0    0  502    0 -0.00000000000E+00 -0.00000000000E+00 -0.45005812265E+02  0.45005812265E+02  0.00000000000E+00 0.  1.
        -13    1    1    2    0    0  0.31065342791E+02 -0.33059166671E+02  0.15178917299E+02  0.47836959749E+02  0.10566000000E+00 0.  1.
         13    1    1    2    0    0 -0.45705241045E+02  0.36558328225E+02  0.16819419521E+01  0.58551861750E+02  0.10566000000E+00 0. -1.
          4    1    1    2  501    0  0.14639898254E+02 -0.34991615546E+01  0.23398229690E+03  0.23446595919E+03  0.00000000000E+00 0.  1.
</event>
<event>
 5    1  0.4419198E-005  0.7219783E+02  0.7818608E-02  0.1221076E+00
         -4   -1    0    0    0  501 -0.00000000000E+00  0.00000000000E+00  0.60983322765E+02  0.60983322765E+02  0.00000000000E+00 0. -1.
         21   -1    0    0  501  502  0.00000000000E+00 -0.00000000000E+00 -0.45900500137E+03  0.45900500137E+03  0.00000000000E+00 0.  1.
        -13    1    1    2    0    0  0.85712858579E+02  0.59124340168E+02 -0.26809315734E+03  0.28760447476E+03  0.10566000000E+00 0.  1.
         13    1    1    2    0    0 -0.58567354022E+02 -0.37225297236E+02  0.24859756096E+02  0.73714831266E+02  0.10566000000E+00 0. -1.
         -4    1    1    2    0  502 -0.27145504557E+02 -0.21899042932E+02 -0.15478827736E+03  0.15866901811E+03  0.00000000000E+00 0. -1.
</event>
<event>
 5    1  0.4419198E-005  0.5412662E+03  0.7818608E-02  0.9391839E-01
         21   -1    0    0  501  502  0.00000000000E+00  0.00000000000E+00  0.18171491873E+03  0.18171491873E+03  0.00000000000E+00 0.  1.
         -4   -1    0    0    0  501 -0.00000000000E+00 -0.00000000000E+00 -0.24365079444E+04  0.24365079444E+04  0.00000000000E+00 0. -1.
        -13    1    1    2    0    0 -0.11130794798E+03 -0.52444614875E+03 -0.38344770500E+03  0.65913987580E+03  0.10566000000E+00 0.  1.
         13    1    1    2    0    0  0.10219760727E+03  0.53301863624E+03 -0.18691921390E+04  0.19463896016E+04  0.10566000000E+00 0. -1.
         -4    1    1    2    0  502  0.91103407191E+01 -0.85724874843E+01 -0.21531816407E+01  0.12693385713E+02  0.00000000000E+00 0. -1.
</event>
<event>
 5    1  0.4419198E-005  0.1233929E+03  0.7818608E-02  0.1130779E+00
         21   -1    0    0  501  502  0.00000000000E+00  0.00000000000E+00  0.14404490373E+03  0.14404490373E+03  0.00000000000E+00 0. -1.
          4   -1    0    0  502    0 -0.00000000000E+00 -0.00000000000E+00 -0.15490588473E+03  0.15490588473E+03  0.00000000000E+00 0.  1.
        -13    1    1    2    0    0 -0.53159219488E+02  0.12060319355E+03 -0.72056552086E+02  0.15021048823E+03  0.10566000000E+00 0.  1.
         13    1    1    2    0    0  0.31245953194E+02 -0.10076281990E+03  0.53018172693E+02  0.11806944255E+03  0.10566000000E+00 0. -1.
          4    1    1    2  501    0  0.21913266295E+02 -0.19840373654E+02  0.81773983972E+01  0.30670857683E+02  0.00000000000E+00 0.  1.
</event>
<event>
 5    1  0.9709656E-005  0.2780108E+03  0.7818608E-02  0.1046207E+00
         21   -1    0    0  501  502  0.00000000000E+00  0.00000000000E+00  0.25438668815E+03  0.25438668815E+03  0.00000000000E+00 0.  1.
          4   -1    0    0  502    0 -0.00000000000E+00 -0.00000000000E+00 -0.16955146539E+04  0.16955146539E+04  0.00000000000E+00 0.  1.
        -13    1    1    2    0    0 -0.28278887482E+03 -0.14412843619E+02 -0.92584512570E+03  0.96817688762E+03  0.10566000000E+00 0.  1.
         13    1    1    2    0    0  0.31552256376E+02 -0.10787814575E+03 -0.65830346712E+03  0.66782984749E+03  0.10566000000E+00 0. -1.
          4    1    1    2  501    0  0.25123661844E+03  0.12229098937E+03  0.14302062703E+03  0.31389460697E+03  0.00000000000E+00 0.  1.
</event>
<event>
 5    1  0.4419198E-005  0.1117355E+04  0.7818608E-02  0.8671538E-01
          4   -1    0    0  502    0 -0.00000000000E+00  0.00000000000E+00  0.15717341572E+04  0.15717341572E+04  0.00000000000E+00 0.  1.
         21   -1    0    0  501  502  0.00000000000E+00 -0.00000000000E+00 -0.83200181015E+03  0.83200181015E+03  0.00000000000E+00 0. -1.
        -13    1    1    2    0    0  0.66602456624E+02 -0.11276177547E+04  0.38026209170E+03  0.11918712000E+04  0.10566000000E+00 0.  1.
         13    1    1    2    0    0 -0.93992705891E+02  0.11016483793E+04  0.37971122816E+03  0.11690356746E+04  0.10566000000E+00 0. -1.
          4    1    1    2  501    0  0.27390249266E+02  0.25969375325E+02 -0.20240972786E+02  0.42829092787E+02  0.00000000000E+00 0.  1.
</event>
<event>
 5    1  0.4419198E-005  0.3067914E+03  0.7818608E-02  0.1004541E+00
         21   -1    0    0  501  502  0.00000000000E+00  0.00000000000E+00  0.12303024488E+03  0.12303024488E+03  0.00000000000E+00 0. -1.
          4   -1    0    0  502    0 -0.00000000000E+00 -0.00000000000E+00 -0.20722752940E+04  0.20722752940E+04  0.00000000000E+00 0.  1.
        -13    1    1    2    0    0 -0.12013310113E+03 -0.30647630496E+03 -0.14432963788E+04  0.14803594617E+04  0.10566000000E+00 0.  1.
         13    1    1    2    0    0 -0.93573525558E+02  0.27321505623E+03 -0.28369690693E+03  0.40482887471E+03  0.10566000000E+00 0. -1.
          4    1    1    2  501    0  0.21370662669E+03  0.33261248736E+02 -0.22225176334E+03  0.31011720247E+03  0.00000000000E+00 0.  1.
</event>
<event>
 5    1  0.4419198E-005  0.3345647E+03  0.7818608E-02  0.1002079E+00
         21   -1    0    0  501  502  0.00000000000E+00  0.00000000000E+00  0.90907021343E+03  0.90907021343E+03  0.00000000000E+00 0.  1.
          4   -1    0    0  502    0 -0.00000000000E+00 -0.00000000000E+00 -0.43157310918E+03  0.43157310918E+03  0.00000000000E+00 0.  1.
        -13    1    1    2    0    0  0.36000326666E+03 -0.73441230118E+02 -0.71648375520E+02  0.37433870647E+03  0.10566000000E+00 0.  1.
         13    1    1    2    0    0 -0.63766872481E+02  0.24823494053E+03 -0.63197255613E+02  0.26397102873E+03  0.10566000000E+00 0. -1.
          4    1    1    2  501    0 -0.29623639417E+03 -0.17479371042E+03  0.61234273538E+03  0.70233358741E+03  0.00000000000E+00 0.  1.
</event>
<event>
 5    1  0.4419198E-005  0.4330991E+03  0.7818608E-02  0.9925228E-01
         21   -1    0    0  501  502  0.00000000000E+00  0.00000000000E+00  0.23760587924E+03  0.23760587924E+03  0.00000000000E+00 0. -1.
         -4   -1    0    0    0  501 -0.00000000000E+00 -0.00000000000E+00 -0.17414585088E+04  0.17414585088E+04  0.00000000000E+00 0. -1.
        -13    1    1    2    0    0  0.13020567178E+03  0.96184408571E+02 -0.52979746679E+03  0.55397682659E+03  0.10566000000E+00 0.  1.
         13    1    1    2    0    0 -0.46007093084E+03 -0.74006866768E+02 -0.81224742844E+02  0.47301136112E+03  0.10566000000E+00 0. -1.
         -4    1    1    2    0  502  0.32986525906E+03 -0.22177541803E+02 -0.89283041989E+03  0.95207620030E+03  0.00000000000E+00 0. -1.
</event>
<event>
 5    1  0.4419198E-005  0.7769952E+02  0.7818608E-02  0.1207862E+00
         -4   -1    0    0    0  501 -0.00000000000E+00  0.00000000000E+00  0.84269592927E+02  0.84269592927E+02  0.00000000000E+00 0. -1.
         21   -1    0    0  501  502  0.00000000000E+00 -0.00000000000E+00 -0.45005244052E+03  0.45005244052E+03  0.00000000000E+00 0. -1.
        -13    1    1    2    0    0 -0.67558958903E+02 -0.25538429120E+02 -0.97142489610E+01  0.72875250167E+02  0.10566000000E+00 0.  1.
         13    1    1    2    0    0  0.78325898020E+02  0.24260236907E+02  0.20661956346E+02  0.84560232967E+02  0.10566000000E+00 0. -1.
         -4    1    1    2    0  502 -0.10766939116E+02  0.12781922127E+01 -0.37673055498E+03  0.37688655031E+03  0.00000000000E+00 0. -1.
</event>
<event>
 5    1  0.4419198E-005  0.4535274E+03  0.7818608E-02  0.9805456E-01
         21   -1    0    0  501  502  0.00000000000E+00  0.00000000000E+00  0.37834957348E+03  0.37834957348E+03  0.00000000000E+00 0.  1.
          4   -1    0    0  502    0 -0.00000000000E+00 -0.00000000000E+00 -0.10534183698E+04  0.10534183698E+04  0.00000000000E+00 0.  1.
        -13    1    1    2    0    0  0.47848814238E+03 -0.56840587360E+02  0.30304430561E+02  0.48280443706E+03  0.10566000000E+00 0.  1.
         13    1    1    2    0    0 -0.81250819175E+02  0.19478768639E+03 -0.28214461269E+03  0.35234859446E+03  0.10566000000E+00 0. -1.
          4    1    1    2  501    0 -0.39723732320E+03 -0.13794709903E+03 -0.42322861424E+03  0.59661491181E+03  0.00000000000E+00 0.  1.
</event>
<event>
 5    1  0.4419198E-005  0.4177546E+03  0.7818608E-02  0.9742796E-01
         21   -1    0    0  501  502  0.00000000000E+00  0.00000000000E+00  0.23304122939E+03  0.23304122939E+03  0.00000000000E+00 0. -1.
         -4   -1    0    0    0  501 -0.00000000000E+00 -0.00000000000E+00 -0.20596046565E+04  0.20596046565E+04  0.00000000000E+00 0. -1.
        -13    1    1    2    0    0 -0.29344583597E+03  0.16125172451E+03 -0.41933266265E+03  0.53661202971E+03  0.10566000000E+00 0.  1.
         13    1    1    2    0    0  0.42504197852E+03  0.24309505391E+03 -0.11717963564E+04  0.12699852758E+04  0.10566000000E+00 0. -1.
         -4    1    1    2    0  502 -0.13159614256E+03 -0.40434677843E+03 -0.23543440804E+03  0.48604858034E+03  0.00000000000E+00 0. -1.
</event>
<event>
 5    1  0.4419198E-005  0.9413311E+03  0.7818608E-02  0.8831758E-01
          4   -1    0    0  502    0 -0.00000000000E+00  0.00000000000E+00  0.19094115990E+04  0.19094115990E+04  0.00000000000E+00 0.  1.
         21   -1    0    0  501  502  0.00000000000E+00 -0.00000000000E+00 -0.59495490013E+03  0.59495490013E+03  0.00000000000E+00 0. -1.
        -13    1    1    2    0    0 -0.73058937978E+03 -0.75029695211E+03  0.60960960673E+03  0.12117467730E+04  0.10566000000E+00 0.  1.
         13    1    1    2    0    0  0.67569079995E+03  0.53660327700E+03  0.56682456415E+03  0.10323716539E+04  0.10566000000E+00 0. -1.
          4    1    1    2  501    0  0.54898579834E+02  0.21369367511E+03  0.13802252797E+03  0.26024807219E+03  0.00000000000E+00 0.  1.
</event>
<event>
 5    1  0.4419198E-005  0.5054200E+03  0.7818608E-02  0.9785121E-01
         21   -1    0    0  501  502  0.00000000000E+00  0.00000000000E+00  0.29258386842E+03  0.29258386842E+03  0.00000000000E+00 0. -1.
         -4   -1    0    0    0  501 -0.00000000000E+00 -0.00000000000E+00 -0.18866368467E+04  0.18866368467E+04  0.00000000000E+00 0. -1.
        -13    1    1    2    0    0  0.13417639704E+03 -0.93367988834E+02 -0.94160755594E+03  0.95569120925E+03  0.10566000000E+00 0.  1.
         13    1    1    2    0    0  0.44583928864E+03 -0.94985685879E+01 -0.27528144183E+03  0.52406371509E+03  0.10566000000E+00 0. -1.
         -4    1    1    2    0  502 -0.58001568568E+03  0.10286655742E+03 -0.37716398052E+03  0.69946579078E+03  0.00000000000E+00 0. -1.
</event>
<event>
 5    1  0.4419198E-005  0.4304605E+02  0.7818608E-02  0.1323019E+00
          4   -1    0    0  502    0 -0.00000000000E+00  0.00000000000E+00  0.30221007414E+03  0.30221007414E+03  0.00000000000E+00 0.  1.
         21   -1    0    0  501  502  0.00000000000E+00 -0.00000000000E+00 -0.12190413218E+02  0.12190413218E+02  0.00000000000E+00 0. -1.
        -13    1    1    2    0    0  0.49687044283E+02 -0.34241409266E+01  0.14314221437E+03  0.15155933429E+03  0.10566000000E+00 0.  1.
         13    1    1    2    0    0 -0.33137152698E+02 -0.20927966674E+02  0.65860918916E+02  0.76640214526E+02  0.10566000000E+00 0. -1.
          4    1    1    2  501    0 -0.16549891585E+02  0.24352107600E+02  0.81016527633E+02  0.86200938544E+02  0.00000000000E+00 0.  1.
</event>
<event>
 5    1  0.4419198E-005  0.5738489E+03  0.7818608E-02  0.9329319E-01
          4   -1    0    0  502    0 -0.00000000000E+00  0.00000000000E+00  0.27036971378E+04  0.27036971378E+04  0.00000000000E+00 0.  1.
         21   -1    0    0  501  502  0.00000000000E+00 -0.00000000000E+00 -0.31079908286E+03  0.31079908286E+03  0.00000000000E+00 0.  1.
        -13    1    1    2    0    0  0.57159225496E+03 -0.45649485954E+03  0.10591812214E+04  0.12872335195E+04  0.10566000000E+00 0.  1.
         13    1    1    2    0    0 -0.32653310881E+03  0.39678011357E+03  0.13784327224E+04  0.14710999664E+04  0.10566000000E+00 0. -1.
          4    1    1    2  501    0 -0.24505914616E+03  0.59714745966E+02 -0.44715888873E+02  0.25616273483E+03  0.00000000000E+00 0.  1.
</event>
<event>
 5    1  0.4419198E-005  0.3836225E+03  0.7818608E-02  0.1021203E+00
         21   -1    0    0  501  502  0.00000000000E+00  0.00000000000E+00  0.20040368813E+03  0.20040368813E+03  0.00000000000E+00 0.  1.
          4   -1    0    0  502    0 -0.00000000000E+00 -0.00000000000E+00 -0.14159554253E+04  0.14159554253E+04  0.00000000000E+00 0.  1.
        -13    1    1    2    0    0 -0.31830709200E+03 -0.30835545359E+03 -0.10217080882E+04  0.11136830425E+04  0.10566000000E+00 0.  1.
         13    1    1    2    0    0  0.90502758402E+02  0.17246553809E+02 -0.57947402601E+02  0.10883981592E+03  0.10566000000E+00 0. -1.
          4    1    1    2  501    0  0.22780433359E+03  0.29110889979E+03 -0.13589624634E+03  0.39383625494E+03  0.00000000000E+00 0.  1.
</event>
<event>
 5    1  0.4419198E-005  0.3891973E+03  0.7818608E-02  0.9968946E-01
         -4   -1    0    0    0  501 -0.00000000000E+00  0.00000000000E+00  0.35439565594E+04  0.35439565594E+04  0.00000000000E+00 0. -1.
         21   -1    0    0  501  502  0.00000000000E+00 -0.00000000000E+00 -0.10507972298E+03  0.10507972298E+03  0.00000000000E+00 0. -1.
        -13    1    1    2    0    0  0.35373950967E+02 -0.18972083903E+03  0.51746625222E+03  0.55228312171E+03  0.10566000000E+00 0.  1.
         13    1    1    2    0    0  0.28108012883E+03  0.39050622188E+03  0.24382938009E+04  0.24853124188E+04  0.10566000000E+00 0. -1.
         -4    1    1    2    0  502 -0.31645407979E+03 -0.20078538285E+03  0.48311678331E+03  0.61144074194E+03  0.00000000000E+00 0. -1.
</event>
<event>
 5    1  0.4419198E-005  0.7288849E+02  0.7818608E-02  0.1219346E+00
         21   -1    0    0  501  502  0.00000000000E+00  0.00000000000E+00  0.36846405685E+03  0.36846405685E+03  0.00000000000E+00 0.  1.
         -4   -1    0    0    0  501 -0.00000000000E+00 -0.00000000000E+00 -0.61955804289E+02  0.61955804289E+02  0.00000000000E+00 0. -1.
        -13    1    1    2    0    0 -0.42421015537E+02  0.91416289196E+02  0.24019337172E+03  0.26047907300E+03  0.10566000000E+00 0.  1.
         13    1    1    2    0    0  0.17465249669E+02 -0.68008386539E+02 -0.23328692933E+02  0.73989287493E+02  0.10566000000E+00 0. -1.
         -4    1    1    2    0  502  0.24955765868E+02 -0.23407902657E+02  0.89643573777E+02  0.95951500646E+02  0.00000000000E+00 0. -1.
</event>
<event>
 5    1  0.4419198E-005  0.3897862E+02  0.7818608E-02  0.1344560E+00
         21   -1    0    0  501  502  0.00000000000E+00  0.00000000000E+00  0.66425638761E+02  0.66425638761E+02  0.00000000000E+00 0.  1.
         -4   -1    0    0    0  501 -0.00000000000E+00 -0.00000000000E+00 -0.60528398143E+02  0.60528398143E+02  0.00000000000E+00 0. -1.
        -13    1    1    2    0    0 -0.38891954956E+02  0.17080243818E+02  0.13317583725E+02  0.44516155376E+02  0.10566000000E+00 0.  1.
         13    1    1    2    0    0  0.38798658804E+02  0.68770967539E+00 -0.33240013525E+02  0.51095190897E+02  0.10566000000E+00 0. -1.
         -4    1    1    2    0  502  0.93296152106E-01 -0.17767953493E+02  0.25819670418E+02  0.31342690631E+02  0.00000000000E+00 0. -1.
</event>
<event>
 5    1  0.4419198E-005  0.4128445E+03  0.7818608E-02  0.9692665E-01
          4   -1    0    0  502    0 -0.00000000000E+00  0.00000000000E+00  0.26277310529E+04  0.26277310529E+04  0.00000000000E+00 0.  1.
         21   -1    0    0  501  502  0.00000000000E+00 -0.00000000000E+00 -0.17914011910E+03  0.17914011910E+03  0.00000000000E+00 0.  1.
        -13    1    1    2    0    0  0.50379043193E+03 -0.28463438773E+03  0.15403651044E+04  0.16454623059E+04  0.10566000000E+00 0.  1.
         13    1    1    2    0    0 -0.21929826226E+03  0.23428364407E+03  0.78359612230E+03  0.84676056105E+03  0.10566000000E+00 0. -1.
          4    1    1    2  501    0 -0.28449216968E+03  0.50350743666E+02  0.12462970709E+03  0.31464830507E+03  0.00000000000E+00 0.  1.
</event>
<event>
 5    1  0.4419198E-005  0.3821810E+03  0.7818608E-02  0.1015739E+00
         21   -1    0    0  501  502  0.00000000000E+00  0.00000000000E+00  0.10682256945E+03  0.10682256945E+03  0.00000000000E+00 0. -1.
         -4   -1    0    0    0  501 -0.00000000000E+00 -0.00000000000E+00 -0.22234308546E+04  0.22234308546E+04  0.00000000000E+00 0. -1.
        -13    1    1    2    0    0  0.96453771376E+02  0.54417075724E+02 -0.32523013431E+03  0.34356833319E+03  0.10566000000E+00 0.  1.
         13    1    1    2    0    0 -0.86732562846E+02  0.34257481941E+03 -0.13384830497E+04  0.13843471132E+04  0.10566000000E+00 0. -1.
         -4    1    1    2    0  502 -0.97212085296E+01 -0.39699189513E+03 -0.45289510117E+03  0.60233797768E+03  0.00000000000E+00 0. -1.
</event>
<event>
 5    1  0.4419198E-005  0.4586318E+03  0.7818608E-02  0.1012373E+00
         21   -1    0    0  501  502  0.00000000000E+00  0.00000000000E+00  0.13080194066E+04  0.13080194066E+04  0.00000000000E+00 0.  1.
          4   -1    0    0  502    0 -0.00000000000E+00 -0.00000000000E+00 -0.24364379045E+03  0.24364379045E+03  0.00000000000E+00 0.  1.
        -13    1    1    2    0    0  0.15245634744E+03  0.47030129279E+03  0.38215499010E+03  0.62487494069E+03  0.10566000000E+00 0.  1.
         13    1    1    2    0    0  0.25504971978E+02 -0.66627760630E+02 -0.39025461258E+02  0.81318877714E+02  0.10566000000E+00 0. -1.
          4    1    1    2  501    0 -0.17796131942E+03 -0.40367353216E+03  0.72124608735E+03  0.84546937868E+03  0.00000000000E+00 0.  1.
</event>
<event>
 5    1  0.4419198E-005  0.2530173E+03  0.7818608E-02  0.1039995E+00
         21   -1    0    0  501  502  0.00000000000E+00  0.00000000000E+00  0.56389816589E+03  0.56389816589E+03  0.00000000000E+00 0. -1.
         -4   -1    0    0    0  501 -0.00000000000E+00 -0.00000000000E+00 -0.26073194562E+03  0.26073194562E+03  0.00000000000E+00 0. -1.
        -13    1    1    2    0    0 -0.24149463265E+02  0.17816240621E+03 -0.25960008525E+02  0.18165619387E+03  0.10566000000E+00 0.  1.
         13    1    1    2    0    0 -0.10199453706E+03 -0.33543120451E+03  0.21609533042E+03  0.41184242320E+03  0.10566000000E+00 0. -1.
         -4    1    1    2    0  502  0.12614400033E+03  0.15726879830E+03  0.11303089837E+03  0.23113149444E+03  0.00000000000E+00 0. -1.
</event>
<event>
 5    1  0.4419198E-005  0.1483767E+03  0.7818608E-02  0.1108339E+00
         21   -1    0    0  501  502  0.00000000000E+00  0.00000000000E+00  0.35208928013E+03  0.35208928013E+03  0.00000000000E+00 0.  1.
          4   -1    0    0  502    0 -0.00000000000E+00 -0.00000000000E+00 -0.79068205330E+03  0.79068205330E+03  0.00000000000E+00 0.  1.
        -13    1    1    2    0    0 -0.12455893696E+03  0.23985512480E+03 -0.69799765721E+03  0.74849592538E+03  0.10566000000E+00 0.  1.
         13    1    1    2    0    0  0.43480106176E+02 -0.11999558602E+03  0.44447049247E+02  0.13514811004E+03  0.10566000000E+00 0. -1.
          4    1    1    2  501    0  0.81078830785E+02 -0.11985953878E+03  0.21495783478E+03  0.25912729801E+03  0.00000000000E+00 0.  1.
</event>
<event>
 5    1  0.4419198E-005  0.4176425E+03  0.7818608E-02  0.9699504E-01
          4   -1    0    0  502    0 -0.00000000000E+00  0.00000000000E+00  0.20470105819E+04  0.20470105819E+04  0.00000000000E+00 0.  1.
         21   -1    0    0  501  502  0.00000000000E+00 -0.00000000000E+00 -0.32303304442E+03  0.32303304442E+03  0.00000000000E+00 0.  1.
        -13    1    1    2    0    0  0.41834886797E+03  0.61443617240E+02  0.10801417226E+04  0.11599557084E+04  0.10566000000E+00 0.  1.
         13    1    1    2    0    0 -0.34959864916E+03  0.36558793809E+03  0.58533077900E+03  0.77361869676E+03  0.10566000000E+00 0. -1.
          4    1    1    2  501    0 -0.68750218811E+02 -0.42703155533E+03  0.58505035955E+02  0.43646922121E+03  0.00000000000E+00 0.  1.
</event>
<event>
 5    1  0.4419198E-005  0.4774898E+03  0.7818608E-02  0.9967231E-01
         21   -1    0    0  501  502  0.00000000000E+00  0.00000000000E+00  0.16142921996E+03  0.16142921996E+03  0.00000000000E+00 0.  1.
          4   -1    0    0  502    0 -0.00000000000E+00 -0.00000000000E+00 -0.19106202620E+04  0.19106202620E+04  0.00000000000E+00 0.  1.
        -13    1    1    2    0    0 -0.14778994035E+03 -0.44188909410E+03 -0.93237464083E+03  0.10423196822E+04  0.10566000000E+00 0.  1.
         13    1    1    2    0    0  0.95380946529E+02 -0.44146138902E+02 -0.30211381419E+03  0.31987368512E+03  0.10566000000E+00 0. -1.
          4    1    1    2  501    0  0.52408993824E+02  0.48603523300E+03 -0.51470258700E+03  0.70985611459E+03  0.00000000000E+00 0.  1.
</event>
<event>
 5    1  0.4419198E-005  0.3582117E+03  0.7818608E-02  0.1004094E+00
         -4   -1    0    0    0  501 -0.00000000000E+00  0.00000000000E+00  0.16383589855E+04  0.16383589855E+04  0.00000000000E+00 0. -1.
         21   -1    0    0  501  502  0.00000000000E+00 -0.00000000000E+00 -0.23294229213E+03  0.23294229213E+03  0.00000000000E+00 0. -1.
        -13    1    1    2    0    0  0.16399915480E+03 -0.10650378464E+03  0.32701063707E+03  0.38101804004E+03  0.10566000000E+00 0.  1.
         13    1    1    2    0    0 -0.44768226643E+03  0.27385863583E+03  0.10318494405E+04  0.11576403773E+04  0.10566000000E+00 0. -1.
         -4    1    1    2    0  502  0.28368311163E+03 -0.16735485119E+03  0.46556615815E+02  0.33264286031E+03  0.00000000000E+00 0. -1.
</event>
<event>
 5    1  0.4419198E-005  0.4899102E+03  0.7818608E-02  0.9780431E-01
         21   -1    0    0  501  502  0.00000000000E+00  0.00000000000E+00  0.86966471685E+03  0.86966471685E+03  0.00000000000E+00 0.  1.
          4   -1    0    0  502    0 -0.00000000000E+00 -0.00000000000E+00 -0.50233810934E+03  0.50233810934E+03  0.00000000000E+00 0.  1.
        -13    1    1    2    0    0 -0.94117299015E+01 -0.50676097518E+03  0.13525496992E+03  0.52458477358E+03  0.10566000000E+00 0.  1.
         13    1    1    2    0    0 -0.17525264686E+03  0.50538990847E+02 -0.14041085244E+03  0.23018014353E+03  0.10566000000E+00 0. -1.
          4    1    1    2  501    0  0.18466437676E+03  0.45622198433E+03  0.37248249003E+03  0.61723790908E+03  0.00000000000E+00 0.  1.
</event>
<event>
 5    1  0.4419198E-005  0.4997486E+03  0.7818608E-02  0.9705480E-01
         21   -1    0    0  501  502  0.00000000000E+00  0.00000000000E+00  0.23664789136E+03  0.23664789136E+03  0.00000000000E+00 0.  1.
          4   -1    0    0  502    0 -0.00000000000E+00 -0.00000000000E+00 -0.18296758087E+04  0.18296758087E+04  0.00000000000E+00 0.  1.
        -13    1    1    2    0    0  0.52821798305E+03 -0.30942060578E+03 -0.76533476915E+03  0.98004727893E+03  0.10566000000E+00 0.  1.
         13    1    1    2    0    0 -0.21229396885E+03  0.66916405405E+02 -0.75310293936E+02  0.23498550180E+03  0.10566000000E+00 0. -1.
          4    1    1    2  501    0 -0.31592401421E+03  0.24250420037E+03 -0.75238285423E+03  0.85129091930E+03  0.00000000000E+00 0.  1.
</event>
<event>
 5    1  0.4419198E-005  0.1485723E+03  0.7818608E-02  0.1102528E+00
         21   -1    0    0  501  502  0.00000000000E+00  0.00000000000E+00  0.19822452827E+03  0.19822452827E+03  0.00000000000E+00 0.  1.
          4   -1    0    0  502    0 -0.00000000000E+00 -0.00000000000E+00 -0.20214358280E+04  0.20214358280E+04  0.00000000000E+00 0.  1.
        -13    1    1    2    0    0 -0.86084069305E+02  0.71659511072E+01  0.17723621053E+03  0.19716618202E+03  0.10566000000E+00 0.  1.
         13    1    1    2    0    0  0.10335672009E+03 -0.11227543059E+03 -0.64247126467E+03  0.66034666728E+03  0.10566000000E+00 0. -1.
          4    1    1    2  501    0 -0.17272650786E+02  0.10510947948E+03 -0.13579762456E+04  0.13621475069E+04  0.00000000000E+00 0.  1.
</event>
<event>
 5    1  0.4419198E-005  0.4065689E+02  0.7818608E-02  0.1410580E+00
         21   -1    0    0  501  502  0.00000000000E+00  0.00000000000E+00  0.52121249792E+02  0.52121249792E+02  0.00000000000E+00 0. -1.
          4   -1    0    0  502    0 -0.00000000000E+00 -0.00000000000E+00 -0.32175921121E+03  0.32175921121E+03  0.00000000000E+00 0.  1.
        -13    1    1    2    0    0 -0.38744853902E+02  0.32035204986E+02 -0.27944813657E+03  0.28393430624E+03  0.10566000000E+00 0.  1.
         13    1    1    2    0    0  0.81291466701E+01 -0.73704758131E+01  0.39298056809E+02  0.40801413852E+02  0.10566000000E+00 0. -1.
          4    1    1    2  501    0  0.30615707232E+02 -0.24664729173E+02 -0.29487881651E+02  0.49144740907E+02  0.00000000000E+00 0.  1.
</event>
<event>
 5    1  0.4419198E-005  0.6729589E+03  0.7818608E-02  0.9163156E-01
         -4   -1    0    0    0  501 -0.00000000000E+00  0.00000000000E+00  0.39626719394E+04  0.39626719394E+04  0.00000000000E+00 0. -1.
         21   -1    0    0  501  502  0.00000000000E+00 -0.00000000000E+00 -0.27103890298E+03  0.27103890298E+03  0.00000000000E+00 0.  1.
        -13    1    1    2    0    0  0.30386299749E+03 -0.73492988385E+03  0.12835702817E+04  0.15099693158E+04  0.10566000000E+00 0.  1.
         13    1    1    2    0    0  0.20523412947E+03  0.63920390390E+03  0.18209852752E+04  0.19407962444E+04  0.10566000000E+00 0. -1.
         -4    1    1    2    0  502 -0.50909712696E+03  0.95725979948E+02  0.58707747956E+03  0.78294528220E+03  0.00000000000E+00 0. -1.
</event>
<event>
 5    1  0.4419198E-005  0.8051523E+03  0.7818608E-02  0.8983001E-01
         21   -1    0    0  501  502  0.00000000000E+00  0.00000000000E+00  0.52675677874E+03  0.52675677874E+03  0.00000000000E+00 0. -1.
          4   -1    0    0  502    0 -0.00000000000E+00 -0.00000000000E+00 -0.21666201826E+04  0.21666201826E+04  0.00000000000E+00 0.  1.
        -13    1    1    2    0    0  0.30340851841E+03 -0.87465920422E+03 -0.34196488520E+03  0.98692727515E+03  0.10566000000E+00 0.  1.
         13    1    1    2    0    0 -0.44154560688E+03  0.63160540772E+03 -0.11651994473E+04  0.13969887892E+04  0.10566000000E+00 0. -1.
          4    1    1    2  501    0  0.13813708846E+03  0.24305379650E+03 -0.13269907129E+03  0.30946089692E+03  0.00000000000E+00 0.  1.
</event>
<event>
 5    1  0.4419198E-005  0.1993159E+03  0.7818608E-02  0.1075544E+00
          4   -1    0    0  502    0 -0.00000000000E+00  0.00000000000E+00  0.13351398351E+04  0.13351398351E+04  0.00000000000E+00 0.  1.
         21   -1    0    0  501  502  0.00000000000E+00 -0.00000000000E+00 -0.18805052981E+03  0.18805052981E+03  0.00000000000E+00 0.  1.
        -13    1    1    2    0    0  0.15721408601E+03 -0.25839853691E+03  0.11559961803E+04  0.11949113995E+04  0.10566000000E+00 0.  1.
         13    1    1    2    0    0 -0.10811932874E+03  0.71742063570E+02  0.25480371398E+02  0.13223453945E+03  0.10566000000E+00 0. -1.
          4    1    1    2  501    0 -0.49094757275E+02  0.18665647334E+03 -0.34387246382E+02  0.19604442595E+03  0.00000000000E+00 0.  1.
</event>
<event>
 5    1  0.4419198E-005  0.1703815E+03  0.7818608E-02  0.1082584E+00
         21   -1    0    0  501  502  0.00000000000E+00  0.00000000000E+00  0.99480854930E+03  0.99480854930E+03  0.00000000000E+00 0.  1.
          4   -1    0    0  502    0 -0.00000000000E+00 -0.00000000000E+00 -0.93084153387E+02  0.93084153387E+02  0.00000000000E+00 0.  1.
        -13    1    1    2    0    0  0.75058192419E+02 -0.23470206294E+03  0.38095763066E+03  0.45370421876E+03  0.10566000000E+00 0.  1.
         13    1    1    2    0    0 -0.14525394300E+02  0.15032376029E+03  0.61063199668E+02  0.16290164365E+03  0.10566000000E+00 0. -1.
          4    1    1    2  501    0 -0.60532798119E+02  0.84378302644E+02  0.45970356558E+03  0.47128684027E+03  0.00000000000E+00 0.  1.
</event>
<event>
 5    1  0.4419198E-005  0.4980491E+03  0.7818608E-02  0.9960488E-01
          4   -1    0    0  502    0 -0.00000000000E+00  0.00000000000E+00  0.42441054176E+03  0.42441054176E+03  0.00000000000E+00 0.  1.
         21   -1    0    0  501  502  0.00000000000E+00 -0.00000000000E+00 -0.72904564497E+03  0.72904564497E+03  0.00000000000E+00 0.  1.
        -13    1    1    2    0    0  0.94987137977E+02 -0.48682794849E+03 -0.16370870198E+03  0.52232610319E+03  0.10566000000E+00 0.  1.
         13    1    1    2    0    0  0.92875214021E+02  0.18507314370E+02  0.28423163649E+02  0.98874736210E+02  0.10566000000E+00 0. -1.
          4    1    1    2  501    0 -0.18786235200E+03  0.46832063412E+03 -0.16934956487E+03  0.53225534733E+03  0.00000000000E+00 0.  1.
</event>
<event>
 5    1  0.4419198E-005  0.3600710E+03  0.7818608E-02  0.1015570E+00
          4   -1    0    0  502    0 -0.00000000000E+00  0.00000000000E+00  0.11135076906E+04  0.11135076906E+04  0.00000000000E+00 0.  1.
         21   -1    0    0  501  502  0.00000000000E+00 -0.00000000000E+00 -0.58094566610E+03  0.58094566610E+03  0.00000000000E+00 0.  1.
        -13    1    1    2    0    0 -0.18810133232E+03 -0.36347022540E+03  0.26730108683E+03  0.48881755099E+03  0.10566000000E+00 0.  1.
         13    1    1    2    0    0  0.13244838853E+03  0.13515641308E+02  0.66109264584E+03  0.67436543931E+03  0.10566000000E+00 0. -1.
          4    1    1    2  501    0  0.55652943790E+02  0.34995458409E+03 -0.39583170814E+03  0.53127036643E+03  0.00000000000E+00 0.  1.
</event>
<event>
 5    1  0.4419198E-005  0.9110239E+03  0.7818608E-02  0.8863007E-01
         -4   -1    0    0    0  501 -0.00000000000E+00  0.00000000000E+00  0.47502071806E+04  0.47502071806E+04  0.00000000000E+00 0. -1.
         21   -1    0    0  501  502  0.00000000000E+00 -0.00000000000E+00 -0.27423698042E+03  0.27423698042E+03  0.00000000000E+00 0.  1.
        -13    1    1    2    0    0  0.60711145811E+03 -0.66416370400E+03  0.21387951425E+04  0.23203754914E+04  0.10566000000E+00 0.  1.
         13    1    1    2    0    0 -0.36707262038E+03  0.87961487118E+03  0.20920615523E+04  0.22989532792E+04  0.10566000000E+00 0. -1.
         -4    1    1    2    0  502 -0.24003883773E+03 -0.21545116718E+03  0.24511350544E+03  0.40511539048E+03  0.00000000000E+00 0. -1.
</event>
<event>
 5    1  0.4419198E-005  0.3969087E+03  0.7818608E-02  0.9844967E-01
         21   -1    0    0  501  502  0.00000000000E+00  0.00000000000E+00  0.21873626841E+03  0.21873626841E+03  0.00000000000E+00 0.  1.
          4   -1    0    0  502    0 -0.00000000000E+00 -0.00000000000E+00 -0.21554395385E+04  0.21554395385E+04  0.00000000000E+00 0.  1.
        -13    1    1    2    0    0  0.47973333177E+03 -0.26029629768E+03 -0.43854271662E+03  0.70015566674E+03  0.10566000000E+00 0.  1.
         13    1    1    2    0    0 -0.27473973225E+03  0.17965100995E+02 -0.12240592154E+04  0.12546416378E+04  0.10566000000E+00 0. -1.
          4    1    1    2  501    0 -0.20499359952E+03  0.24233119669E+03 -0.27410133811E+03  0.41937850241E+03  0.00000000000E+00 0.  1.
</event>
<event>
 5    1  0.4419198E-005  0.3714654E+03  0.7818608E-02  0.9815277E-01
         21   -1    0    0  501  502  0.00000000000E+00  0.00000000000E+00  0.14549741528E+03  0.14549741528E+03  0.00000000000E+00 0. -1.
          4   -1    0    0  502    0 -0.00000000000E+00 -0.00000000000E+00 -0.18234693874E+04  0.18234693874E+04  0.00000000000E+00 0.  1.
        -13    1    1    2    0    0  0.36882964141E+03 -0.20124780909E+02 -0.13937407777E+04  0.14418577176E+04  0.10566000000E+00 0.  1.
         13    1    1    2    0    0 -0.37802961850E+03  0.30971697664E+02 -0.31510971792E+03  0.49311234421E+03  0.10566000000E+00 0. -1.
          4    1    1    2  501    0  0.91999770886E+01 -0.10846916755E+02  0.30878523467E+02  0.33996740918E+02  0.00000000000E+00 0.  1.
</event>
<event>
 5    1  0.4419198E-005  0.4907520E+03  0.7818608E-02  0.9654513E-01
         -4   -1    0    0    0  501 -0.00000000000E+00  0.00000000000E+00  0.35782840110E+03  0.35782840110E+03  0.00000000000E+00 0. -1.
         21   -1    0    0  501  502  0.00000000000E+00 -0.00000000000E+00 -0.12155015366E+04  0.12155015366E+04  0.00000000000E+00 0. -1.
        -13    1    1    2    0    0 -0.61592185384E+02  0.27408571590E+03 -0.12772855025E+03  0.30859548065E+03  0.10566000000E+00 0.  1.
         13    1    1    2    0    0  0.44734574015E+03 -0.42570319811E+03 -0.46136507919E+03  0.77084315627E+03  0.10566000000E+00 0. -1.
         -4    1    1    2    0  502 -0.38575355477E+03  0.15161748221E+03 -0.26857950607E+03  0.49389130080E+03  0.00000000000E+00 0. -1.
</event>
<event>
 5    1  0.4419198E-005  0.4438377E+03  0.7818608E-02  0.9857047E-01
         -4   -1    0    0    0  501 -0.00000000000E+00  0.00000000000E+00  0.24426624341E+04  0.24426624341E+04  0.00000000000E+00 0. -1.
         21   -1    0    0  501  502  0.00000000000E+00 -0.00000000000E+00 -0.14523150036E+03  0.14523150036E+03  0.00000000000E+00 0. -1.
        -13    1    1    2    0    0  0.26181704593E+00  0.18902516431E+03  0.36577508944E+03  0.41173050471E+03  0.10566000000E+00 0.  1.
         13    1    1    2    0    0  0.14216074309E+03 -0.55572426750E+03  0.14145598556E+04  0.15264398890E+04  0.10566000000E+00 0. -1.
         -4    1    1    2    0  502 -0.14242256014E+03  0.36669910319E+03  0.51709598868E+03  0.64972354076E+03  0.00000000000E+00 0. -1.
</event>
<event>
 5    1  0.4419198E-005  0.4789544E+03  0.7818608E-02  0.9874937E-01
         21   -1    0    0  501  502  0.00000000000E+00  0.00000000000E+00  0.96229739417E+03  0.96229739417E+03  0.00000000000E+00 0.  1.
          4   -1    0    0  502    0 -0.00000000000E+00 -0.00000000000E+00 -0.61805769196E+03  0.61805769196E+03  0.00000000000E+00 0.  1.
        -13    1    1    2    0    0 -0.56933267787E+02  0.44531417622E+03  0.43691676842E+03  0.62645222181E+03  0.10566000000E+00 0.  1.
         13    1    1    2    0    0  0.10486171759E+03  0.95191375678E+02 -0.33192354966E+03  0.36087481458E+03  0.10566000000E+00 0. -1.
          4    1    1    2  501    0 -0.47928449808E+02 -0.54050555190E+03  0.23924648344E+03  0.59302804974E+03  0.00000000000E+00 0.  1.
</event>
<event>
 5    1  0.4419198E-005  0.2189410E+03  0.7818608E-02  0.1047873E+00
         21   -1    0    0  501  502  0.00000000000E+00  0.00000000000E+00  0.28539965159E+03  0.28539965159E+03  0.00000000000E+00 0.  1.
         -4   -1    0    0    0  501 -0.00000000000E+00 -0.00000000000E+00 -0.49951405352E+03  0.49951405352E+03  0.00000000000E+00 0. -1.
        -13    1    1    2    0    0 -0.14100479516E+03  0.16857814352E+03  0.17675885435E+03  0.28203660487E+03  0.10566000000E+00 0.  1.
         13    1    1    2    0    0  0.11438347618E+03 -0.18686681725E+03 -0.41033825338E+03  0.46516693817E+03  0.10566000000E+00 0. -1.
         -4    1    1    2    0  502  0.26621318987E+02  0.18288673731E+02  0.19464997097E+02  0.37710162071E+02  0.00000000000E+00 0. -1.
</event>
<event>
 5    1  0.4419198E-005  0.4699448E+03  0.7818608E-02  0.9741090E-01
         21   -1    0    0  501  502  0.00000000000E+00  0.00000000000E+00  0.90271423782E+02  0.90271423782E+02  0.00000000000E+00 0. -1.
         -4   -1    0    0    0  501 -0.00000000000E+00 -0.00000000000E+00 -0.45205482008E+04  0.45205482008E+04  0.00000000000E+00 0. -1.
        -13    1    1    2    0    0 -0.16550420151E+03 -0.16907480949E+03 -0.11308170475E+04  0.11553030503E+04  0.10566000000E+00 0.  1.
         13    1    1    2    0    0  0.50676266467E+03 -0.13992157688E+03 -0.22308679271E+04  0.22919769120E+04  0.10566000000E+00 0. -1.
         -4    1    1    2    0  502 -0.34125846316E+03  0.30899638636E+03 -0.10685918025E+04  0.11635396623E+04  0.00000000000E+00 0. -1.
</event>
<event>
 5    1  0.4419198E-005  0.1778749E+03  0.7818608E-02  0.1076463E+00
          4   -1    0    0  502    0 -0.00000000000E+00  0.00000000000E+00  0.89933542565E+03  0.89933542565E+03  0.00000000000E+00 0.  1.
         21   -1    0    0  501  502  0.00000000000E+00 -0.00000000000E+00 -0.15387532407E+03  0.15387532407E+03  0.00000000000E+00 0. -1.
        -13    1    1    2    0    0 -0.89334617194E+02  0.15165571104E+03  0.78618642739E+03  0.80564833414E+03  0.10566000000E+00 0.  1.
         13    1    1    2    0    0  0.12978909342E+03 -0.15491409477E+03 -0.23453860347E+02  0.20345436898E+03  0.10566000000E+00 0. -1.
          4    1    1    2  501    0 -0.40454476229E+02  0.32583837256E+01 -0.17272465469E+02  0.44108046600E+02  0.00000000000E+00 0.  1.
</event>
<event>
 5    1  0.4419198E-005  0.4761162E+03  0.7818608E-02  0.9667240E-01
         21   -1    0    0  501  502  0.00000000000E+00  0.00000000000E+00  0.25310698422E+03  0.25310698422E+03  0.00000000000E+00 0.  1.
          4   -1    0    0  502    0 -0.00000000000E+00 -0.00000000000E+00 -0.18116678159E+04  0.18116678159E+04  0.00000000000E+00 0.  1.
        -13    1    1    2    0    0  0.24966442641E+03  0.26429547450E+03 -0.71262711684E+03  0.80001365143E+03  0.10566000000E+00 0.  1.
         13    1    1    2    0    0  0.28243901903E+03 -0.82303980585E+02 -0.56300977242E+03  0.63523677451E+03  0.10566000000E+00 0. -1.
          4    1    1    2  501    0 -0.53210344543E+03 -0.18199149391E+03 -0.28292394243E+03  0.62952437419E+03  0.00000000000E+00 0.  1.
</event>
<event>
 5    1  0.4419198E-005  0.1280103E+03  0.7818608E-02  0.1125077E+00
         -4   -1    0    0    0  501 -0.00000000000E+00  0.00000000000E+00  0.25947884782E+03  0.25947884782E+03  0.00000000000E+00 0. -1.
         21   -1    0    0  501  502  0.00000000000E+00 -0.00000000000E+00 -0.11943074332E+03  0.11943074332E+03  0.00000000000E+00 0. -1.
        -13    1    1    2    0    0 -0.10867818461E+03 -0.48389696684E+02  0.13613962750E+03  0.18079413679E+03  0.10566000000E+00 0.  1.
         13    1    1    2    0    0  0.13978558585E+03  0.67059202373E+02  0.23618666630E+02  0.15682729103E+03  0.10566000000E+00 0. -1.
         -4    1    1    2    0  502 -0.31107401241E+02 -0.18669505688E+02 -0.19710189635E+02  0.41288163316E+02  0.00000000000E+00 0. -1.
</event>
<event>
 5    1  0.4419198E-005  0.4698402E+03  0.7818608E-02  0.9906195E-01
         21   -1    0    0  501  502  0.00000000000E+00  0.00000000000E+00  0.23740858516E+04  0.23740858516E+04  0.00000000000E+00 0.  1.
          4   -1    0    0  502    0 -0.00000000000E+00 -0.00000000000E+00 -0.13463246720E+03  0.13463246720E+03  0.00000000000E+00 0.  1.
        -13    1    1    2    0    0 -0.18395125187E+03 -0.51739672794E+03  0.10941989129E+04  0.12242584324E+04  0.10566000000E+00 0.  1.
         13    1    1    2    0    0  0.74924616059E+02  0.11242449815E+03  0.13677394836E+03  0.19225007149E+03  0.10566000000E+00 0. -1.
          4    1    1    2  501    0  0.10902663581E+03  0.40497222979E+03  0.10084805232E+04  0.10922098150E+04  0.00000000000E+00 0.  1.
</event>
<event>
 5    1  0.4419198E-005  0.5648366E+03  0.7818608E-02  0.9597224E-01
         21   -1    0    0  501  502  0.00000000000E+00  0.00000000000E+00  0.49792893403E+03  0.49792893403E+03  0.00000000000E+00 0.  1.
          4   -1    0    0  502    0 -0.00000000000E+00 -0.00000000000E+00 -0.14873951869E+04  0.14873951869E+04  0.00000000000E+00 0.  1.
        -13    1    1    2    0    0 -0.98791084672E+01 -0.59232867063E+03 -0.14431561528E+03  0.60973589267E+03  0.10566000000E+00 0.  1.
         13    1    1    2    0    0  0.21472784904E+03  0.69333001858E+02 -0.77781527750E+03  0.80988377646E+03  0.10566000000E+00 0. -1.
          4    1    1    2  501    0 -0.20484874058E+03  0.52299566877E+03 -0.67335360092E+02  0.56570445180E+03  0.00000000000E+00 0.  1.
</event>
<event>
 5    1  0.4419198E-005  0.4260413E+03  0.7818608E-02  0.9656716E-01
         21   -1    0    0  501  502  0.00000000000E+00  0.00000000000E+00  0.28938051403E+04  0.28938051403E+04  0.00000000000E+00 0. -1.
         -4   -1    0    0    0  501 -0.00000000000E+00 -0.00000000000E+00 -0.38848413697E+03  0.38848413697E+03  0.00000000000E+00 0. -1.
        -13    1    1    2    0    0  0.11048238451E+03  0.38202034267E+03 -0.14264165631E+03  0.42248378996E+03  0.10566000000E+00 0.  1.
         13    1    1    2    0    0 -0.23105281930E+03 -0.62000848313E+03  0.10597860406E+04  0.12493767996E+04  0.10566000000E+00 0. -1.
         -4    1    1    2    0  502  0.12057043479E+03  0.23798814046E+03  0.15881766190E+04  0.16104286876E+04  0.00000000000E+00 0. -1.
</event>
<event>
 5    1  0.4419198E-005  0.4751830E+03  0.7818608E-02  0.9681422E-01
         -4   -1    0    0    0  501 -0.00000000000E+00  0.00000000000E+00  0.24580938463E+04  0.24580938463E+04  0.00000000000E+00 0. -1.
         21   -1    0    0  501  502  0.00000000000E+00 -0.00000000000E+00 -0.17804797984E+03  0.17804797984E+03  0.00000000000E+00 0. -1.
        -13    1    1    2    0    0 -0.15589057019E+03 -0.23449836651E+03  0.57330903359E+03  0.63872890409E+03  0.10566000000E+00 0.  1.
         13    1    1    2    0    0 -0.30966256018E+03  0.39080137921E+03  0.11593170919E+04  0.12619955428E+04  0.10566000000E+00 0. -1.
         -4    1    1    2    0  502  0.46555313037E+03 -0.15630301270E+03  0.54741974100E+03  0.73541737932E+03  0.00000000000E+00 0. -1.
</event>
<event>
 5    1  0.4419198E-005  0.4120966E+03  0.7818608E-02  0.9979680E-01
         21   -1    0    0  501  502  0.00000000000E+00  0.00000000000E+00  0.16555480281E+04  0.16555480281E+04  0.00000000000E+00 0.  1.
          4   -1    0    0  502    0 -0.00000000000E+00 -0.00000000000E+00 -0.43637304387E+03  0.43637304387E+03  0.00000000000E+00 0.  1.
        -13    1    1    2    0    0  0.43997556020E+03  0.21750450507E+03  0.35727877073E+03  0.60707069974E+03  0.10566000000E+00 0.  1.
         13    1    1    2    0    0 -0.14899847052E+03  0.49238868256E+02 -0.25546489796E+03  0.29981216723E+03  0.10566000000E+00 0. -1.
          4    1    1    2  501    0 -0.29097708969E+03 -0.26674337332E+03  0.11173611115E+04  0.11850382050E+04  0.00000000000E+00 0.  1.
</event>
<event>
 5    1  0.4419198E-005  0.4848867E+02  0.7818608E-02  0.1298067E+00
         21   -1    0    0  501  502  0.00000000000E+00  0.00000000000E+00  0.36952082474E+03  0.36952082474E+03  0.00000000000E+00 0. -1.
         -4   -1    0    0    0  501 -0.00000000000E+00 -0.00000000000E+00 -0.15229229552E+02  0.15229229552E+02  0.00000000000E+00 0. -1.
        -13    1    1    2    0    0 -0.18996325125E+02  0.38212594951E+02  0.13433485010E+03  0.14095008300E+03  0.10566000000E+00 0.  1.
         13    1    1    2    0    0  0.35362989336E+02 -0.37429134442E+02  0.45920503070E+02  0.68994093125E+02  0.10566000000E+00 0. -1.
         -4    1    1    2    0  502 -0.16366664211E+02 -0.78346050849E+00  0.17403624201E+03  0.17480587816E+03  0.00000000000E+00 0. -1.
</event>
<event>
 5    1  0.4419198E-005  0.5087443E+02  0.7818608E-02  0.1288269E+00
          4   -1    0    0  502    0 -0.00000000000E+00  0.00000000000E+00  0.38861321131E+03  0.38861321131E+03  0.00000000000E+00 0.  1.
         21   -1    0    0  501  502  0.00000000000E+00 -0.00000000000E+00 -0.10704153845E+03  0.10704153845E+03  0.00000000000E+00 0.  1.
        -13    1    1    2    0    0  0.63484019776E+02  0.35262730101E+02  0.17642779320E+03  0.19078904130E+03  0.10566000000E+00 0.  1.
         13    1    1    2    0    0 -0.43813085128E+02 -0.72631487877E+01  0.19955893151E+03  0.20444098921E+03  0.10566000000E+00 0. -1.
          4    1    1    2  501    0 -0.19670934648E+02 -0.27999581313E+02 -0.94415051846E+02  0.10042471926E+03  0.00000000000E+00 0.  1.
</event>
<event>
 5    1  0.4419198E-005  0.1887159E+03  0.7818608E-02  0.1068160E+00
         21   -1    0    0  501  502  0.00000000000E+00  0.00000000000E+00  0.12685168241E+03  0.12685168241E+03  0.00000000000E+00 0.  1.
         -4   -1    0    0    0  501 -0.00000000000E+00 -0.00000000000E+00 -0.59332609263E+03  0.59332609263E+03  0.00000000000E+00 0. -1.
        -13    1    1    2    0    0 -0.13961313057E+03  0.99172507026E+02 -0.16637393601E+02  0.17205762525E+03  0.10566000000E+00 0.  1.
         13    1    1    2    0    0  0.15964516440E+03 -0.10836484312E+03 -0.47617176168E+03  0.51377920893E+03  0.10566000000E+00 0. -1.
         -4    1    1    2    0  502 -0.20032033833E+02  0.91923360922E+01  0.26334745057E+02  0.34340940865E+02  0.00000000000E+00 0. -1.
</event>
<event>
 5    1  0.4419198E-005  0.8496407E+02  0.7818608E-02  0.1192158E+00
         21   -1    0    0  501  502  0.00000000000E+00  0.00000000000E+00  0.18246272633E+03  0.18246272633E+03  0.00000000000E+00 0.  1.
         -4   -1    0    0    0  501 -0.00000000000E+00 -0.00000000000E+00 -0.10761777894E+03  0.10761777894E+03  0.00000000000E+00 0. -1.
        -13    1    1    2    0    0 -0.86441738505E+02 -0.74032316641E+02  0.68779790670E+02  0.13297980610E+03  0.10566000000E+00 0.  1.
         13    1    1    2    0    0  0.69614652737E+02  0.37188058301E+02 -0.45832356872E+02  0.91267560811E+02  0.10566000000E+00 0. -1.
         -4    1    1    2    0  502  0.16827085767E+02  0.36844258340E+02  0.51897513590E+02  0.65833138349E+02  0.00000000000E+00 0. -1.
</event>
<event>
 5    1  0.4419198E-005  0.4933388E+03  0.7818608E-02  0.9574366E-01
         -4   -1    0    0    0  501 -0.00000000000E+00  0.00000000000E+00  0.19003694257E+04  0.19003694257E+04  0.00000000000E+00 0. -1.
         21   -1    0    0  501  502  0.00000000000E+00 -0.00000000000E+00 -0.31163304951E+03  0.31163304951E+03  0.00000000000E+00 0. -1.
        -13    1    1    2    0    0  0.27439327698E+03  0.24436633529E+03  0.70249015894E+03  0.79277929516E+03  0.10566000000E+00 0.  1.
         13    1    1    2    0    0 -0.46487470071E+03  0.24101938680E+03  0.20735656032E+03  0.56320119535E+03  0.10566000000E+00 0. -1.
         -4    1    1    2    0  502  0.19048142373E+03 -0.48538572209E+03  0.67888965698E+03  0.85602198474E+03  0.00000000000E+00 0. -1.
</event>
<event>
 5    1  0.4419198E-005  0.4707249E+03  0.7818608E-02  0.9768083E-01
         21   -1    0    0  501  502  0.00000000000E+00  0.00000000000E+00  0.24189214737E+03  0.24189214737E+03  0.00000000000E+00 0.  1.
          4   -1    0    0  502    0 -0.00000000000E+00 -0.00000000000E+00 -0.19613019850E+04  0.19613019850E+04  0.00000000000E+00 0.  1.
        -13    1    1    2    0    0  0.51677355808E+03 -0.28760767970E+03 -0.66961631981E+03  0.89339751213E+03  0.10566000000E+00 0.  1.
         13    1    1    2    0    0 -0.21451453825E+03 -0.98966062690E+00 -0.78795813283E+03  0.81663669817E+03  0.10566000000E+00 0. -1.
          4    1    1    2  501    0 -0.30225901984E+03  0.28859734032E+03 -0.26183538500E+03  0.49315992209E+03  0.00000000000E+00 0.  1.
</event>
<event>
 5    1  0.4419198E-005  0.5237747E+03  0.7818608E-02  0.9465692E-01
         -4   -1    0    0    0  501 -0.00000000000E+00  0.00000000000E+00  0.21648647782E+04  0.21648647782E+04  0.00000000000E+00 0. -1.
         21   -1    0    0  501  502  0.00000000000E+00 -0.00000000000E+00 -0.46535475244E+03  0.46535475244E+03  0.00000000000E+00 0. -1.
        -13    1    1    2    0    0  0.46189285288E+03  0.32018107119E+03  0.12986731480E+04  0.14150663880E+04  0.10566000000E+00 0.  1.
         13    1    1    2    0    0 -0.48624599758E+03  0.24810431875E+03  0.33998025515E+03  0.64309992085E+03  0.10566000000E+00 0. -1.
         -4    1    1    2    0  502  0.24353144697E+02 -0.56828538994E+03  0.60856622602E+02  0.57205322181E+03  0.00000000000E+00 0. -1.
</event>
<event>
 5    1  0.4419198E-005  0.8036638E+03  0.7818608E-02  0.8984823E-01
         21   -1    0    0  501  502  0.00000000000E+00  0.00000000000E+00  0.50156237141E+03  0.50156237141E+03  0.00000000000E+00 0.  1.
         -4   -1    0    0    0  501 -0.00000000000E+00 -0.00000000000E+00 -0.23643266539E+04  0.23643266539E+04  0.00000000000E+00 0. -1.
        -13    1    1    2    0    0 -0.68757481521E+03 -0.48639791286E+03 -0.54656119036E+03  0.10040274907E+04  0.10566000000E+00 0.  1.
         13    1    1    2    0    0  0.36637073264E+03  0.73119851509E+03 -0.11798827746E+04  0.14356190843E+04  0.10566000000E+00 0. -1.
         -4    1    1    2    0  502  0.32120408257E+03 -0.24480060223E+03 -0.13632031761E+03  0.42624245038E+03  0.00000000000E+00 0. -1.
</event>
<event>
 5    1  0.4419198E-005  0.1890256E+03  0.7818608E-02  0.1067931E+00
         -4   -1    0    0    0  501 -0.00000000000E+00  0.00000000000E+00  0.11424109722E+04  0.11424109722E+04  0.00000000000E+00 0. -1.
         21   -1    0    0  501  502  0.00000000000E+00 -0.00000000000E+00 -0.12270412944E+03  0.12270412944E+03  0.00000000000E+00 0. -1.
        -13    1    1    2    0    0 -0.65924143022E+02 -0.20576246260E+03  0.41115553404E+03  0.46447073964E+03  0.10566000000E+00 0.  1.
         13    1    1    2    0    0 -0.26424871644E+02  0.18122135489E+03  0.66493568171E+03  0.68969480590E+03  0.10566000000E+00 0. -1.
         -4    1    1    2    0  502  0.92349014666E+02  0.24541107706E+02 -0.56384373005E+02  0.11094955609E+03  0.00000000000E+00 0. -1.
</event>
<event>
 5    1  0.4419198E-005  0.4946176E+03  0.7818608E-02  0.9844258E-01
         -4   -1    0    0    0  501 -0.00000000000E+00  0.00000000000E+00  0.14130303532E+04  0.14130303532E+04  0.00000000000E+00 0. -1.
         21   -1    0    0  501  502  0.00000000000E+00 -0.00000000000E+00 -0.27606622635E+03  0.27606622635E+03  0.00000000000E+00 0. -1.
        -13    1    1    2    0    0 -0.33924999184E+02 -0.13851703192E+03  0.43551149594E+03  0.45826645956E+03  0.10566000000E+00 0.  1.
         13    1    1    2    0    0  0.21919731535E+03  0.53252083787E+03  0.40915007039E+03  0.70642034023E+03  0.10566000000E+00 0. -1.
         -4    1    1    2    0  502 -0.18527231616E+03 -0.39400380595E+03  0.29230256054E+03  0.52440977979E+03  0.00000000000E+00 0. -1.
</event>
<event>
 5    1  0.4419198E-005  0.3784737E+03  0.7818608E-02  0.1008152E+00
         21   -1    0    0  501  502  0.00000000000E+00  0.00000000000E+00  0.33941405310E+03  0.33941405310E+03  0.00000000000E+00 0.  1.
          4   -1    0    0  502    0 -0.00000000000E+00 -0.00000000000E+00 -0.10009271373E+04  0.10009271373E+04  0.00000000000E+00 0.  1.
        -13    1    1    2    0    0 -0.29496285180E+03  0.29233739609E+02 -0.69558829455E+03  0.75610897505E+03  0.10566000000E+00 0.  1.
         13    1    1    2    0    0 -0.94182409262E+02 -0.11075412783E+03 -0.85984019805E+02  0.16890845411E+03  0.10566000000E+00 0. -1.
          4    1    1    2  501    0  0.38914526106E+03  0.81520388218E+02  0.12005923015E+03  0.41532376124E+03  0.00000000000E+00 0.  1.
</event>
<event>
 5    1  0.4419198E-005  0.7088588E+02  0.7818608E-02  0.1224422E+00
         21   -1    0    0  501  502  0.00000000000E+00  0.00000000000E+00  0.37433610586E+02  0.37433610586E+02  0.00000000000E+00 0. -1.
         -4   -1    0    0    0  501 -0.00000000000E+00 -0.00000000000E+00 -0.28487063835E+03  0.28487063835E+03  0.00000000000E+00 0. -1.
        -13    1    1    2    0    0  0.34508605262E+02 -0.49489820828E+02 -0.37726856698E+02  0.71157663558E+02  0.10566000000E+00 0.  1.
         13    1    1    2    0    0 -0.48276665360E+02  0.57227673530E+02 -0.21993672485E+03  0.23233126595E+03  0.10566000000E+00 0. -1.
         -4    1    1    2    0  502  0.13768060098E+02 -0.77378527016E+01  0.10226553777E+02  0.18815319435E+02  0.00000000000E+00 0. -1.
</event>
<event>
 5    1  0.4419198E-005  0.4233133E+03  0.7818608E-02  0.9664032E-01
         -4   -1    0    0    0  501 -0.00000000000E+00  0.00000000000E+00  0.15835312281E+04  0.15835312281E+04  0.00000000000E+00 0. -1.
         21   -1    0    0  501  502  0.00000000000E+00 -0.00000000000E+00 -0.53219686368E+03  0.53219686368E+03  0.00000000000E+00 0. -1.
        -13    1    1    2    0    0  0.28876437149E+03  0.35842915502E+03  0.87412178863E+03  0.98789940477E+03  0.10566000000E+00 0.  1.
         13    1    1    2    0    0 -0.12004856490E+03 -0.37958058832E+03  0.57261804725E+03  0.69741273301E+03  0.10566000000E+00 0. -1.
         -4    1    1    2    0  502 -0.16871580659E+03  0.21151433300E+02 -0.39540547151E+03  0.43041595396E+03  0.00000000000E+00 0. -1.
</event>
<event>
 5    1  0.4419198E-005  0.4892728E+03  0.7818608E-02  0.9952837E-01
         21   -1    0    0  501  502  0.00000000000E+00  0.00000000000E+00  0.16262815318E+04  0.16262815318E+04  0.00000000000E+00 0.  1.
          4   -1    0    0  502    0 -0.00000000000E+00 -0.00000000000E+00 -0.24041589007E+03  0.24041589007E+03  0.00000000000E+00 0.  1.
        -13    1    1    2    0    0  0.39640729657E+03 -0.25338865362E+03  0.84823903657E+03  0.96997630325E+03  0.10566000000E+00 0.  1.
         13    1    1    2    0    0 -0.97145316886E+01 -0.10198693556E+03 -0.45374414758E+02  0.11204711433E+03  0.10566000000E+00 0. -1.
          4    1    1    2  501    0 -0.38669276488E+03  0.35537558918E+03  0.58300101993E+03  0.78467400430E+03  0.00000000000E+00 0.  1.
</event>
<event>
 5    1  0.4419198E-005  0.1375083E+03  0.7818608E-02  0.1114130E+00
          4   -1    0    0  502    0 -0.00000000000E+00  0.00000000000E+00  0.77544854584E+03  0.77544854584E+03  0.00000000000E+00 0.  1.
         21   -1    0    0  501  502  0.00000000000E+00 -0.00000000000E+00 -0.34635668251E+02  0.34635668251E+02  0.00000000000E+00 0. -1.
        -13    1    1    2    0    0  0.95281493546E+02 -0.90851449945E+02  0.32192252476E+03  0.34780263380E+03  0.10566000000E+00 0.  1.
         13    1    1    2    0    0 -0.13116387459E+03  0.66633605390E+02  0.36230622798E+03  0.39103684399E+03  0.10566000000E+00 0. -1.
          4    1    1    2  501    0  0.35882381045E+02  0.24217844555E+02  0.56584124860E+02  0.71244736300E+02  0.00000000000E+00 0.  1.
</event>
<event>
 5    1  0.4419198E-005  0.5748218E+03  0.7818608E-02  0.9355139E-01
         21   -1    0    0  501  502  0.00000000000E+00  0.00000000000E+00  0.47771638395E+03  0.47771638395E+03  0.00000000000E+00 0.  1.
         -4   -1    0    0    0  501 -0.00000000000E+00 -0.00000000000E+00 -0.16539978751E+04  0.16539978751E+04  0.00000000000E+00 0. -1.
        -13    1    1    2    0    0  0.29311264516E+03 -0.53469922970E+03 -0.37837677351E+03  0.71762614424E+03  0.10566000000E+00 0.  1.
         13    1    1    2    0    0 -0.57245531666E+03  0.32317499329E+02 -0.27048309613E+03  0.63396421570E+03  0.10566000000E+00 0. -1.
         -4    1    1    2    0  502  0.27934267149E+03  0.50238173037E+03 -0.52742162152E+03  0.78012389911E+03  0.00000000000E+00 0. -1.
</event>
<event>
 5    1  0.4419198E-005  0.3055675E+02  0.7818608E-02  0.1400493E+00
         21   -1    0    0  501  502  0.00000000000E+00  0.00000000000E+00  0.17610660801E+03  0.17610660801E+03  0.00000000000E+00 0.  1.
         -4   -1    0    0    0  501 -0.00000000000E+00 -0.00000000000E+00 -0.80465594113E+02  0.80465594113E+02  0.00000000000E+00 0. -1.
        -13    1    1    2    0    0 -0.16637653201E+02  0.43339616427E+02  0.14538670078E+03  0.15261860235E+03  0.10566000000E+00 0.  1.
         13    1    1    2    0    0  0.27521457041E+01 -0.30133021086E+02 -0.69884783848E+02  0.76154234572E+02  0.10566000000E+00 0. -1.
         -4    1    1    2    0  502  0.13885507496E+02 -0.13206595341E+02  0.20139096967E+02  0.27799365201E+02  0.00000000000E+00 0. -1.
</event>
<event>
 5    1  0.4419198E-005  0.2730210E+02  0.7818608E-02  0.1427976E+00
         21   -1    0    0  501  502  0.00000000000E+00  0.00000000000E+00  0.17135362944E+02  0.17135362944E+02  0.00000000000E+00 0.  1.
         -4   -1    0    0    0  501 -0.00000000000E+00 -0.00000000000E+00 -0.18017607864E+03  0.18017607864E+03  0.00000000000E+00 0. -1.
        -13    1    1    2    0    0 -0.17654434252E+02  0.31270388552E+02 -0.27826441673E+02  0.45429486781E+02  0.10566000000E+00 0.  1.
         13    1    1    2    0    0  0.27466378753E+01 -0.26259973646E+02 -0.13347198056E+03  0.13605848373E+03  0.10566000000E+00 0. -1.
         -4    1    1    2    0  502  0.14907796377E+02 -0.50104149067E+01 -0.17422934626E+01  0.15823471075E+02  0.00000000000E+00 0. -1.
</event>
<event>
 5    1  0.4419198E-005  0.2597518E+03  0.7818608E-02  0.1025460E+00
         -4   -1    0    0    0  501 -0.00000000000E+00  0.00000000000E+00  0.37355311973E+03  0.37355311973E+03  0.00000000000E+00 0. -1.
         21   -1    0    0  501  502  0.00000000000E+00 -0.00000000000E+00 -0.82554156297E+03  0.82554156297E+03  0.00000000000E+00 0. -1.
        -13    1    1    2    0    0  0.18902072991E+03 -0.14772726275E+03  0.36870615547E+02  0.24271718923E+03  0.10566000000E+00 0.  1.
         13    1    1    2    0    0 -0.19780056988E+03  0.19279919665E+03  0.15105087285E+03  0.31482212919E+03  0.10566000000E+00 0. -1.
         -4    1    1    2    0  502  0.87798399751E+01 -0.45071933900E+02 -0.63990993164E+03  0.64155536427E+03  0.00000000000E+00 0. -1.
</event>
<event>
 5    1  0.4419198E-005  0.3234966E+03  0.7818608E-02  0.1005439E+00
         21   -1    0    0  501  502  0.00000000000E+00  0.00000000000E+00  0.21730143037E+04  0.21730143037E+04  0.00000000000E+00 0. -1.
          4   -1    0    0  502    0 -0.00000000000E+00 -0.00000000000E+00 -0.25510275446E+03  0.25510275446E+03  0.00000000000E+00 0.  1.
        -13    1    1    2    0    0  0.27549965884E+03  0.11494597740E+03  0.15939007975E+04  0.16216141351E+04  0.10566000000E+00 0.  1.
         13    1    1    2    0    0 -0.50819521544E+01 -0.36492701440E+03  0.20965378670E+03  0.42089461094E+03  0.10566000000E+00 0. -1.
          4    1    1    2  501    0 -0.27041770669E+03  0.24998103701E+03  0.11435696509E+03  0.38560831217E+03  0.00000000000E+00 0.  1.
</event>
<event>
 5    1  0.4419198E-005  0.4931648E+03  0.7818608E-02  0.9913845E-01
         -4   -1    0    0    0  501 -0.00000000000E+00  0.00000000000E+00  0.24855806146E+04  0.24855806146E+04  0.00000000000E+00 0. -1.
         21   -1    0    0  501  502  0.00000000000E+00 -0.00000000000E+00 -0.13975300004E+03  0.13975300004E+03  0.00000000000E+00 0. -1.
        -13    1    1    2    0    0  0.56817455695E+02  0.98694246426E+02  0.64840501289E+03  0.65832959030E+03  0.10566000000E+00 0.  1.
         13    1    1    2    0    0 -0.28567216707E+03  0.37286105626E+03  0.81102047450E+03  0.93722365289E+03  0.10566000000E+00 0. -1.
         -4    1    1    2    0  502  0.22885471137E+03 -0.47155530269E+03  0.88640212719E+03  0.10297803715E+04  0.00000000000E+00 0. -1.
</event>
<event>
 5    1  0.4419198E-005  0.7745703E+03  0.7818608E-02  0.9021299E-01
          4   -1    0    0  502    0 -0.00000000000E+00  0.00000000000E+00  0.34017485114E+04  0.34017485114E+04  0.00000000000E+00 0.  1.
         21   -1    0    0  501  502  0.00000000000E+00 -0.00000000000E+00 -0.40090804389E+03  0.40090804389E+03  0.00000000000E+00 0. -1.
        -13    1    1    2    0    0  0.53208640603E+02 -0.90903105716E+03  0.64135142102E+03  0.11137774817E+04  0.10566000000E+00 0.  1.
         13    1    1    2    0    0  0.20117265011E+03  0.72144720907E+03  0.22208515494E+04  0.23437444669E+04  0.10566000000E+00 0. -1.
          4    1    1    2  501    0 -0.25438129071E+03  0.18758384809E+03  0.13863749711E+03  0.34513460669E+03  0.00000000000E+00 0.  1.
</event>
<event>
 5    1  0.4419198E-005  0.3386590E+03  0.7818608E-02  0.9925161E-01
         -4   -1    0    0    0  501 -0.00000000000E+00  0.00000000000E+00  0.18931410657E+04  0.18931410657E+04  0.00000000000E+00 0. -1.
         21   -1    0    0  501  502  0.00000000000E+00 -0.00000000000E+00 -0.31070104104E+03  0.31070104104E+03  0.00000000000E+00 0. -1.
        -13    1    1    2    0    0 -0.11328941659E+03 -0.29579357751E+03  0.94901917833E+03  0.10004827557E+04  0.10566000000E+00 0.  1.
         13    1    1    2    0    0  0.12589082481E+03  0.54936495850E+03  0.48466577328E+02  0.56568487489E+03  0.10566000000E+00 0. -1.
         -4    1    1    2    0  502 -0.12601408217E+02 -0.25357138098E+03  0.58495426901E+03  0.63767447618E+03  0.00000000000E+00 0. -1.
</event>
<event>
 5    1  0.4419198E-005  0.9876145E+02  0.7818608E-02  0.1166621E+00
         21   -1    0    0  501  502  0.00000000000E+00  0.00000000000E+00  0.84160415710E+03  0.84160415710E+03  0.00000000000E+00 0. -1.
         -4   -1    0    0    0  501 -0.00000000000E+00 -0.00000000000E+00 -0.25932949335E+02  0.25932949335E+02  0.00000000000E+00 0. -1.
        -13    1    1    2    0    0  0.78317487960E+02  0.35565157712E+02  0.35326099365E+03  0.36358197173E+03  0.10566000000E+00 0.  1.
         13    1    1    2    0    0 -0.97870259854E+02 -0.33720258752E+02  0.11018681797E+03  0.15118462102E+03  0.10566000000E+00 0. -1.
         -4    1    1    2    0  502  0.19552771894E+02 -0.18448989604E+01  0.35222339614E+03  0.35277051369E+03  0.00000000000E+00 0. -1.
</event>
<event>
 5    1  0.4419198E-005  0.3105216E+02  0.7818608E-02  0.1398081E+00
          4   -1    0    0  502    0 -0.00000000000E+00  0.00000000000E+00  0.58611703667E+01  0.58611703667E+01  0.00000000000E+00 0.  1.
         21   -1    0    0  501  502  0.00000000000E+00 -0.00000000000E+00 -0.12826059782E+04  0.12826059782E+04  0.00000000000E+00 0.  1.
        -13    1    1    2    0    0  0.74766490048E+00  0.32349612732E+02 -0.75973056894E+02  0.82577072996E+02  0.10566000000E+00 0.  1.
         13    1    1    2    0    0  0.26199545046E+02 -0.15254018224E+02 -0.96344382278E+02  0.10100174451E+03  0.10566000000E+00 0. -1.
          4    1    1    2  501    0 -0.26947209947E+02 -0.17095594508E+02 -0.11044273686E+04  0.11048883310E+04  0.00000000000E+00 0.  1.
</event>
<event>
 5    1  0.4419198E-005  0.1282991E+03  0.7818608E-02  0.1124729E+00
          4   -1    0    0  502    0 -0.00000000000E+00  0.00000000000E+00  0.70522634118E+02  0.70522634118E+02  0.00000000000E+00 0.  1.
         21   -1    0    0  501  502  0.00000000000E+00 -0.00000000000E+00 -0.80530914460E+03  0.80530914460E+03  0.00000000000E+00 0.  1.
        -13    1    1    2    0    0  0.76678935254E+02  0.87428670587E+02 -0.42148593293E+02  0.12369295305E+03  0.10566000000E+00 0.  1.
         13    1    1    2    0    0 -0.15677017248E+03 -0.90945131671E+02 -0.29288440275E+03  0.34442588244E+03  0.10566000000E+00 0. -1.
          4    1    1    2  501    0  0.80091237221E+02  0.35164610834E+01 -0.39975351444E+03  0.40771294324E+03  0.00000000000E+00 0.  1.
</event>
<event>
 5    1  0.4419198E-005  0.3845043E+03  0.7818608E-02  0.9937302E-01
         21   -1    0    0  501  502  0.00000000000E+00  0.00000000000E+00  0.71625336178E+02  0.71625336178E+02  0.00000000000E+00 0. -1.
         -4   -1    0    0    0  501 -0.00000000000E+00 -0.00000000000E+00 -0.38556468158E+04  0.38556468158E+04  0.00000000000E+00 0. -1.
        -13    1    1    2    0    0  0.12969342355E+03 -0.18047064538E+03 -0.12261057472E+04  0.12460840069E+04  0.10566000000E+00 0.  1.
         13    1    1    2    0    0 -0.30475733492E+03 -0.20659903297E+03 -0.14068747111E+04  0.14542546742E+04  0.10566000000E+00 0. -1.
         -4    1    1    2    0  502  0.17506391136E+03  0.38706967834E+03 -0.11510410214E+04  0.12269334708E+04  0.00000000000E+00 0. -1.
</event>
<event>
 5    1  0.4419198E-005  0.2417632E+03  0.7818608E-02  0.1034752E+00
         21   -1    0    0  501  502  0.00000000000E+00  0.00000000000E+00  0.77187976802E+03  0.77187976802E+03  0.00000000000E+00 0. -1.
          4   -1    0    0  502    0 -0.00000000000E+00 -0.00000000000E+00 -0.14078772442E+03  0.14078772442E+03  0.00000000000E+00 0.  1.
        -13    1    1    2    0    0  0.21982024097E+03  0.13756553043E+03  0.40121690464E+03  0.47772400949E+03  0.10566000000E+00 0.  1.
         13    1    1    2    0    0 -0.20247444150E+03 -0.12182129884E+03  0.35247965400E+02  0.23891161240E+03  0.10566000000E+00 0. -1.
          4    1    1    2  501    0 -0.17345799475E+02 -0.15744231590E+02  0.19462717355E+03  0.19603187055E+03  0.00000000000E+00 0.  1.
</event>
<event>
 5    1  0.4599577E-005  0.3887074E+03  0.7818608E-02  0.9931462E-01
         21   -1    0    0  501  502  0.00000000000E+00  0.00000000000E+00  0.23478389588E+03  0.23478389588E+03  0.00000000000E+00 0. -1.
         -4   -1    0    0    0  501 -0.00000000000E+00 -0.00000000000E+00 -0.23426483896E+04  0.23426483896E+04  0.00000000000E+00 0. -1.
        -13    1    1    2    0    0 -0.11492029667E+03  0.18680184608E+03 -0.11618670148E+04  0.11823859672E+04  0.10566000000E+00 0.  1.
         13    1    1    2    0    0  0.20374722470E+03  0.22051152167E+03 -0.93064799695E+03  0.97787727663E+03  0.10566000000E+00 0. -1.
         -4    1    1    2    0  502 -0.88826928032E+02 -0.40731336775E+03 -0.15349481980E+02  0.41716904162E+03  0.00000000000E+00 0. -1.
</event>
<event>
 5    1  0.4419198E-005  0.1599202E+03  0.7818608E-02  0.1091720E+00
         -4   -1    0    0    0  501 -0.00000000000E+00  0.00000000000E+00  0.28619172759E+02  0.28619172759E+02  0.00000000000E+00 0. -1.
         21   -1    0    0  501  502  0.00000000000E+00 -0.00000000000E+00 -0.10238321662E+04  0.10238321662E+04  0.00000000000E+00 0.  1.
        -13    1    1    2    0    0  0.12158537110E+03 -0.10419748615E+03 -0.39369461200E+03  0.42501244366E+03  0.10566000000E+00 0.  1.
         13    1    1    2    0    0 -0.10930803919E+03  0.11713247964E+03 -0.55327406847E+03  0.57600388126E+03  0.10566000000E+00 0. -1.
         -4    1    1    2    0  502 -0.12277331903E+02 -0.12934993492E+02 -0.48244312988E+02  0.51435014057E+02  0.00000000000E+00 0. -1.
</event>
<event>
 5    1  0.4419198E-005  0.3750630E+03  0.7818608E-02  0.9966150E-01
          4   -1    0    0  502    0 -0.00000000000E+00  0.00000000000E+00  0.14436331952E+04  0.14436331952E+04  0.00000000000E+00 0.  1.
         21   -1    0    0  501  502  0.00000000000E+00 -0.00000000000E+00 -0.40741667801E+03  0.40741667801E+03  0.00000000000E+00 0.  1.
        -13    1    1    2    0    0  0.33070780635E+03 -0.27448983767E+03  0.47672321897E+03  0.64185462749E+03  0.10566000000E+00 0.  1.
         13    1    1    2    0    0  0.38223750458E+02  0.21425760354E+03  0.75612069731E+03  0.78682011657E+03  0.10566000000E+00 0. -1.
          4    1    1    2  501    0 -0.36893155681E+03  0.60232234131E+02 -0.19662739910E+03  0.42237512914E+03  0.00000000000E+00 0.  1.
</event>
<event>
 5    1  0.4419198E-005  0.4395046E+03  0.7818608E-02  0.9628258E-01
         21   -1    0    0  501  502  0.00000000000E+00  0.00000000000E+00  0.33384176065E+03  0.33384176065E+03  0.00000000000E+00 0.  1.
          4   -1    0    0  502    0 -0.00000000000E+00 -0.00000000000E+00 -0.18317300109E+04  0.18317300109E+04  0.00000000000E+00 0.  1.
        -13    1    1    2    0    0  0.13012829861E+03  0.38981581818E+03 -0.85345946984E+03  0.94725013805E+03  0.10566000000E+00 0.  1.
         13    1    1    2    0    0  0.34937788446E+03 -0.27534743721E+03 -0.56481327431E+03  0.71895421504E+03  0.10566000000E+00 0. -1.
          4    1    1    2  501    0 -0.47950618307E+03 -0.11446838097E+03 -0.79615506148E+02  0.49936741850E+03  0.00000000000E+00 0.  1.
</event>
<event>
 5    1  0.4419198E-005  0.2319636E+03  0.7818608E-02  0.1040188E+00
          4   -1    0    0  502    0 -0.00000000000E+00  0.00000000000E+00  0.12811468073E+04  0.12811468073E+04  0.00000000000E+00 0.  1.
         21   -1    0    0  501  502  0.00000000000E+00 -0.00000000000E+00 -0.89847289757E+02  0.89847289757E+02  0.00000000000E+00 0. -1.
        -13    1    1    2    0    0  0.16797496012E+03 -0.15954766653E+03  0.10287163002E+04  0.10544801006E+04  0.10566000000E+00 0.  1.
         13    1    1    2    0    0 -0.15963896728E+03  0.17054491911E+03  0.17955815762E+03  0.29463759509E+03  0.10566000000E+00 0. -1.
          4    1    1    2  501    0 -0.83359928358E+01 -0.10997252578E+02 -0.16974940253E+02  0.21876401382E+02  0.00000000000E+00 0.  1.
</event>
<event>
 5    1  0.4419198E-005  0.4271707E+02  0.7818608E-02  0.1324660E+00
         21   -1    0    0  501  502  0.00000000000E+00  0.00000000000E+00  0.80413474359E+02  0.80413474359E+02  0.00000000000E+00 0. -1.
         -4   -1    0    0    0  501 -0.00000000000E+00 -0.00000000000E+00 -0.18912879716E+03  0.18912879716E+03  0.00000000000E+00 0. -1.
        -13    1    1    2    0    0  0.56140052360E+01 -0.24679669712E+02 -0.50376900208E+01  0.25806833139E+02  0.10566000000E+00 0.  1.
         13    1    1    2    0    0 -0.99014286028E+01  0.47423899451E+02 -0.16827857574E+03  0.17511354815E+03  0.10566000000E+00 0. -1.
         -4    1    1    2    0  502  0.42874233668E+01 -0.22744229739E+02  0.64600942969E+02  0.68621890225E+02  0.00000000000E+00 0. -1.
</event>
<event>
 5    1  0.4419198E-005  0.4929655E+03  0.7818608E-02  0.9652363E-01
         21   -1    0    0  501  502  0.00000000000E+00  0.00000000000E+00  0.20696184822E+03  0.20696184822E+03  0.00000000000E+00 0.  1.
          4   -1    0    0  502    0 -0.00000000000E+00 -0.00000000000E+00 -0.20960205965E+04  0.20960205965E+04  0.00000000000E+00 0.  1.
        -13    1    1    2    0    0  0.38768757999E+03 -0.39365693409E+03 -0.80644056675E+03  0.97755503185E+03  0.10566000000E+00 0.  1.
         13    1    1    2    0    0  0.74608983243E+02  0.26910610110E+03 -0.48526104285E+03  0.55987756242E+03  0.10566000000E+00 0. -1.
          4    1    1    2  501    0 -0.46229656323E+03  0.12455083299E+03 -0.59735713867E+03  0.76554985043E+03  0.00000000000E+00 0.  1.
</event>
<event>
 5    1  0.4419198E-005  0.4985588E+03  0.7818608E-02  0.9713072E-01
         21   -1    0    0  501  502  0.00000000000E+00  0.00000000000E+00  0.30820261230E+03  0.30820261230E+03  0.00000000000E+00 0. -1.
         -4   -1    0    0    0  501 -0.00000000000E+00 -0.00000000000E+00 -0.15108855390E+04  0.15108855390E+04  0.00000000000E+00 0. -1.
        -13    1    1    2    0    0 -0.20727378226E+03 -0.68655296783E+02 -0.58079988480E+03  0.62048729878E+03  0.10566000000E+00 0.  1.
         13    1    1    2    0    0  0.59929198741E+03 -0.72024928763E+02 -0.31201506248E+03  0.67947912913E+03  0.10566000000E+00 0. -1.
         -4    1    1    2    0  502 -0.39201820515E+03  0.14068022555E+03 -0.30986797940E+03  0.51912172338E+03  0.00000000000E+00 0. -1.
</event>
<event>
 5    1  0.4419198E-005  0.3705835E+03  0.7818608E-02  0.1002328E+00
         21   -1    0    0  501  502  0.00000000000E+00  0.00000000000E+00  0.54493261136E+03  0.54493261136E+03  0.00000000000E+00 0.  1.
          4   -1    0    0  502    0 -0.00000000000E+00 -0.00000000000E+00 -0.90255874874E+03  0.90255874874E+03  0.00000000000E+00 0.  1.
        -13    1    1    2    0    0  0.35015641634E+03 -0.75761714631E+01  0.27299888232E+03  0.44406679137E+03  0.10566000000E+00 0.  1.
         13    1    1    2    0    0  0.87476529670E+02 -0.16534901625E+03 -0.47057372923E+03  0.50639123830E+03  0.10566000000E+00 0. -1.
          4    1    1    2  501    0 -0.43763294601E+03  0.17292518771E+03 -0.16005129047E+03  0.49703333043E+03  0.00000000000E+00 0.  1.
</event>
<event>
 5    1  0.4419198E-005  0.5040174E+03  0.7818608E-02  0.9469210E-01
         21   -1    0    0  501  502  0.00000000000E+00  0.00000000000E+00  0.46403923794E+03  0.46403923794E+03  0.00000000000E+00 0.  1.
         -4   -1    0    0    0  501 -0.00000000000E+00 -0.00000000000E+00 -0.10446218108E+04  0.10446218108E+04  0.00000000000E+00 0. -1.
        -13    1    1    2    0    0 -0.18258446647E+03 -0.45839130781E+03  0.14727679745E+03  0.51492731982E+03  0.10566000000E+00 0.  1.
         13    1    1    2    0    0  0.71678852026E+02  0.50436472476E+03 -0.70771468714E+03  0.87199869436E+03  0.10566000000E+00 0. -1.
         -4    1    1    2    0  502  0.11090561444E+03 -0.45973416951E+02 -0.20144683165E+02  0.12173503456E+03  0.00000000000E+00 0. -1.
</event>
<event>
 5    1  0.4419198E-005  0.8026299E+02  0.7818608E-02  0.1202112E+00
          4   -1    0    0  502    0 -0.00000000000E+00  0.00000000000E+00  0.22278661780E+03  0.22278661780E+03  0.00000000000E+00 0.  1.
         21   -1    0    0  501  502  0.00000000000E+00 -0.00000000000E+00 -0.15635253648E+03  0.15635253648E+03  0.00000000000E+00 0.  1.
        -13    1    1    2    0    0  0.71248108283E+02 -0.40043306870E+02  0.19751561422E+03  0.21375731188E+03  0.10566000000E+00 0.  1.
         13    1    1    2    0    0 -0.61795925923E+02  0.27960653989E+02 -0.53747566889E+02  0.86541011912E+02  0.10566000000E+00 0. -1.
          4    1    1    2  501    0 -0.94521823598E+01  0.12082652881E+02 -0.77333966007E+02  0.78840830478E+02  0.00000000000E+00 0.  1.
</event>
<event>
 5    1  0.4419198E-005  0.8902642E+02  0.7818608E-02  0.1206599E+00
         -4   -1    0    0    0  501 -0.00000000000E+00  0.00000000000E+00  0.21592948155E+02  0.21592948155E+02  0.00000000000E+00 0. -1.
         21   -1    0    0  501  502  0.00000000000E+00 -0.00000000000E+00 -0.13598571244E+04  0.13598571244E+04  0.00000000000E+00 0. -1.
        -13    1    1    2    0    0 -0.44806758540E+02  0.28577685383E+02 -0.12225383271E+03  0.13330544059E+03  0.10566000000E+00 0.  1.
         13    1    1    2    0    0  0.12847839607E+03 -0.21348921563E+02 -0.28493970941E+03  0.31329398953E+03  0.10566000000E+00 0. -1.
         -4    1    1    2    0  502 -0.83671637534E+02 -0.72287638195E+01 -0.93107063409E+03  0.93485064241E+03  0.00000000000E+00 0. -1.
</event>
<event>
 5    1  0.4419198E-005  0.4593448E+03  0.7818608E-02  0.9601571E-01
         21   -1    0    0  501  502  0.00000000000E+00  0.00000000000E+00  0.87578519434E+03  0.87578519434E+03  0.00000000000E+00 0.  1.
          4   -1    0    0  502    0 -0.00000000000E+00 -0.00000000000E+00 -0.15169214824E+04  0.15169214824E+04  0.00000000000E+00 0.  1.
        -13    1    1    2    0    0  0.31171591465E+03 -0.86710817506E+02 -0.42271650496E+03  0.53232962725E+03  0.10566000000E+00 0.  1.
         13    1    1    2    0    0 -0.66534199172E+03  0.41771682596E+03 -0.78798918390E+03  0.11126968490E+04  0.10566000000E+00 0. -1.
          4    1    1    2  501    0  0.35362607707E+03 -0.33100600846E+03  0.56956940076E+03  0.74768020055E+03  0.00000000000E+00 0.  1.
</event>
<event>
 5    1  0.4419198E-005  0.4862429E+03  0.7818608E-02  0.9878749E-01
         21   -1    0    0  501  502  0.00000000000E+00  0.00000000000E+00  0.18653884661E+03  0.18653884661E+03  0.00000000000E+00 0.  1.
          4   -1    0    0  502    0 -0.00000000000E+00 -0.00000000000E+00 -0.18078786288E+04  0.18078786288E+04  0.00000000000E+00 0.  1.
        -13    1    1    2    0    0  0.38049962476E+02 -0.55892602186E+03 -0.72185317549E+03  0.91373853793E+03  0.10566000000E+00 0.  1.
         13    1    1    2    0    0  0.28438097716E+02  0.13056603478E+03 -0.38713232571E+03  0.40954567952E+03  0.10566000000E+00 0. -1.
          4    1    1    2  501    0 -0.66488060192E+02  0.42835998708E+03 -0.51235428096E+03  0.67113325793E+03  0.00000000000E+00 0.  1.
</event>
<event>
 5    1  0.4419198E-005  0.4044049E+03  0.7818608E-02  0.9750179E-01
         21   -1    0    0  501  502  0.00000000000E+00  0.00000000000E+00  0.58533990720E+03  0.58533990720E+03  0.00000000000E+00 0.  1.
          4   -1    0    0  502    0 -0.00000000000E+00 -0.00000000000E+00 -0.10445468639E+04  0.10445468639E+04  0.00000000000E+00 0.  1.
        -13    1    1    2    0    0 -0.29743521024E+03 -0.27726279267E+03 -0.45709987619E+03  0.61178645659E+03  0.10566000000E+00 0.  1.
         13    1    1    2    0    0 -0.85473494604E+02  0.47011586324E+03 -0.23249853984E+03  0.53138519489E+03  0.10566000000E+00 0. -1.
          4    1    1    2  501    0  0.38290870485E+03 -0.19285307058E+03  0.23039145937E+03  0.48671511958E+03  0.00000000000E+00 0.  1.
</event>
<event>
 5    1  0.4419198E-005  0.4657907E+02  0.7818608E-02  0.1306380E+00
         21   -1    0    0  501  502  0.00000000000E+00  0.00000000000E+00  0.41632172934E+03  0.41632172934E+03  0.00000000000E+00 0.  1.
          4   -1    0    0  502    0 -0.00000000000E+00 -0.00000000000E+00 -0.17109719028E+02  0.17109719028E+02  0.00000000000E+00 0.  1.
        -13    1    1    2    0    0  0.44766147044E+02  0.20634248259E+02  0.32370123538E+02  0.58971316623E+02  0.10566000000E+00 0.  1.
         13    1    1    2    0    0 -0.34695347937E+02 -0.20394332923E+02  0.10536986129E+03  0.11279412581E+03  0.10566000000E+00 0. -1.
          4    1    1    2  501    0 -0.10070799107E+02 -0.23991533632E+00  0.26147202548E+03  0.26166600594E+03  0.00000000000E+00 0.  1.
</event>
<event>
 5    1  0.4419198E-005  0.7374867E+02  0.7818608E-02  0.1217222E+00
         21   -1    0    0  501  502  0.00000000000E+00  0.00000000000E+00  0.62696159190E+03  0.62696159190E+03  0.00000000000E+00 0. -1.
          4   -1    0    0  502    0 -0.00000000000E+00 -0.00000000000E+00 -0.42287425420E+02  0.42287425420E+02  0.00000000000E+00 0.  1.
        -13    1    1    2    0    0  0.72876481062E+02  0.10442457742E+02 -0.26163354114E+01  0.73667379421E+02  0.10566000000E+00 0.  1.
         13    1    1    2    0    0 -0.71943383695E+02 -0.26530783345E+02  0.37962216332E+03  0.38728895023E+03  0.10566000000E+00 0. -1.
          4    1    1    2  501    0 -0.93309736777E+00  0.16088325603E+02  0.20766833857E+03  0.20829268767E+03  0.00000000000E+00 0.  1.
</event>
<event>
 5    1  0.4419198E-005  0.4743826E+03  0.7818608E-02  0.9693483E-01
         21   -1    0    0  501  502  0.00000000000E+00  0.00000000000E+00  0.39989619332E+03  0.39989619332E+03  0.00000000000E+00 0. -1.
          4   -1    0    0  502    0 -0.00000000000E+00 -0.00000000000E+00 -0.13671455312E+04  0.13671455312E+04  0.00000000000E+00 0.  1.
        -13    1    1    2    0    0  0.51732306621E+03  0.22427929761E+03 -0.27085543595E+03  0.62552940500E+03  0.10566000000E+00 0.  1.
         13    1    1    2    0    0 -0.27051964638E+03 -0.21148460999E+02  0.95403926405E+02  0.28762833104E+03  0.10566000000E+00 0. -1.
          4    1    1    2  501    0 -0.24680341984E+03 -0.20313083661E+03 -0.79179782833E+03  0.85388398847E+03  0.00000000000E+00 0.  1.
</event>
<event>
 5    1  0.4419198E-005  0.4650228E+03  0.7818608E-02  0.9792205E-01
          4   -1    0    0  502    0 -0.00000000000E+00  0.00000000000E+00  0.36634735877E+03  0.36634735877E+03  0.00000000000E+00 0.  1.
         21   -1    0    0  501  502  0.00000000000E+00 -0.00000000000E+00 -0.10740220158E+04  0.10740220158E+04  0.00000000000E+00 0.  1.
        -13    1    1    2    0    0 -0.18831582542E+03 -0.46752949625E+03 -0.64535371142E+03  0.81885780450E+03  0.10566000000E+00 0.  1.
         13    1    1    2    0    0 -0.10236243961E+03  0.17743964334E+03  0.73397676592E+01  0.20497994884E+03  0.10566000000E+00 0. -1.
          4    1    1    2  501    0  0.29067826504E+03  0.29008985291E+03 -0.69660713289E+02  0.41653162125E+03  0.00000000000E+00 0.  1.
</event>
<event>
 5    1  0.4419198E-005  0.4849053E+03  0.7818608E-02  0.9558836E-01
         21   -1    0    0  501  502  0.00000000000E+00  0.00000000000E+00  0.76712536687E+03  0.76712536687E+03  0.00000000000E+00 0.  1.
          4   -1    0    0  502    0 -0.00000000000E+00 -0.00000000000E+00 -0.92534612523E+03  0.92534612523E+03  0.00000000000E+00 0.  1.
        -13    1    1    2    0    0  0.41828141305E+03 -0.49474292622E+02 -0.27688447030E+03  0.50405561915E+03  0.10566000000E+00 0.  1.
         13    1    1    2    0    0 -0.14590092628E+03  0.50737722578E+03 -0.20349391665E+03  0.56579900566E+03  0.10566000000E+00 0. -1.
          4    1    1    2  501    0 -0.27238048677E+03 -0.45790293316E+03  0.32215762860E+03  0.62261686729E+03  0.00000000000E+00 0.  1.
</event>
<event>
 5    1  0.4419198E-005  0.9577054E+02  0.7818608E-02  0.1171749E+00
         -4   -1    0    0    0  501 -0.00000000000E+00  0.00000000000E+00  0.77461930260E+02  0.77461930260E+02  0.00000000000E+00 0. -1.
         21   -1    0    0  501  502  0.00000000000E+00 -0.00000000000E+00 -0.15403330096E+03  0.15403330096E+03  0.00000000000E+00 0.  1.
        -13    1    1    2    0    0  0.14585224886E+01  0.96436305751E+02 -0.22377349358E+02  0.99009319173E+02  0.10566000000E+00 0.  1.
         13    1    1    2    0    0 -0.12052536366E+02 -0.94638576533E+02 -0.21123636056E+02  0.97713576156E+02  0.10566000000E+00 0. -1.
         -4    1    1    2    0  502  0.10594013877E+02 -0.17977292180E+01 -0.33070385286E+02  0.34772335891E+02  0.00000000000E+00 0. -1.
</event>
<event>
 5    1  0.4419198E-005  0.5083695E+03  0.7818608E-02  0.9491140E-01
         21   -1    0    0  501  502  0.00000000000E+00  0.00000000000E+00  0.36164154048E+03  0.36164154048E+03  0.00000000000E+00 0. -1.
         -4   -1    0    0    0  501 -0.00000000000E+00 -0.00000000000E+00 -0.25076328062E+04  0.25076328062E+04  0.00000000000E+00 0. -1.
        -13    1    1    2    0    0  0.10706067682E+03  0.52754180209E+03 -0.14576804639E+04  0.15538966141E+04  0.10566000000E+00 0.  1.
         13    1    1    2    0    0  0.12789014915E+03  0.11916327637E+03 -0.59605539596E+03  0.62115845233E+03  0.10566000000E+00 0. -1.
         -4    1    1    2    0  502 -0.23495082597E+03 -0.64670507846E+03 -0.92255405897E+02  0.69421928024E+03  0.00000000000E+00 0. -1.
</event>
<event>
 5    1  0.4419198E-005  0.3546669E+03  0.7818608E-02  0.9979840E-01
         -4   -1    0    0    0  501 -0.00000000000E+00  0.00000000000E+00  0.56315543749E+03  0.56315543749E+03  0.00000000000E+00 0. -1.
         21   -1    0    0  501  502  0.00000000000E+00 -0.00000000000E+00 -0.73658791465E+03  0.73658791465E+03  0.00000000000E+00 0. -1.
        -13    1    1    2    0    0 -0.19815932082E+03 -0.14582783369E+03 -0.10634078520E+03  0.26803217581E+03  0.10566000000E+00 0.  1.
         13    1    1    2    0    0  0.50248810310E+03  0.38548122789E+01  0.25752397822E+03  0.56464835416E+03  0.10566000000E+00 0. -1.
         -4    1    1    2    0  502 -0.30432878227E+03  0.14197302141E+03 -0.32461567018E+03  0.46706282217E+03  0.00000000000E+00 0. -1.
</event>
<event>
 5    1  0.4419198E-005  0.4677768E+03  0.7818608E-02  0.1001598E+00
         21   -1    0    0  501  502  0.00000000000E+00  0.00000000000E+00  0.16095153377E+03  0.16095153377E+03  0.00000000000E+00 0.  1.
          4   -1    0    0  502    0 -0.00000000000E+00 -0.00000000000E+00 -0.19125399223E+04  0.19125399223E+04  0.00000000000E+00 0.  1.
        -13    1    1    2    0    0 -0.40239754301E+03  0.24733729911E+03 -0.43231944610E+03  0.64031214013E+03  0.10566000000E+00 0.  1.
         13    1    1    2    0    0 -0.34382678105E+02 -0.88831360354E+02 -0.23049470539E+03  0.24940128210E+03  0.10566000000E+00 0. -1.
          4    1    1    2  501    0  0.43678022112E+03 -0.15850593875E+03 -0.10887742370E+04  0.11837780338E+04  0.00000000000E+00 0.  1.
</event>
<event>
 5    1  0.4419198E-005  0.7665424E+02  0.7818608E-02  0.1210277E+00
         21   -1    0    0  501  502  0.00000000000E+00  0.00000000000E+00  0.94193160256E+03  0.94193160256E+03  0.00000000000E+00 0.  1.
         -4   -1    0    0    0  501 -0.00000000000E+00 -0.00000000000E+00 -0.16491724227E+02  0.16491724227E+02  0.00000000000E+00 0. -1.
        -13    1    1    2    0    0  0.89238291694E+02  0.72602485004E+01  0.37500185448E+03  0.38554193798E+03  0.10566000000E+00 0.  1.
         13    1    1    2    0    0 -0.72531247113E+02 -0.36808608214E+01  0.10819987054E+03  0.13031329055E+03  0.10566000000E+00 0. -1.
         -4    1    1    2    0  502 -0.16707044581E+02 -0.35793876789E+01  0.44223815331E+03  0.44256809826E+03  0.00000000000E+00 0. -1.
</event>
<event>
 5    1  0.4419198E-005  0.3316886E+03  0.7818608E-02  0.9950220E-01
         -4   -1    0    0    0  501 -0.00000000000E+00  0.00000000000E+00  0.70658435739E+03  0.70658435739E+03  0.00000000000E+00 0. -1.
         21   -1    0    0  501  502  0.00000000000E+00 -0.00000000000E+00 -0.59025563359E+03  0.59025563359E+03  0.00000000000E+00 0. -1.
        -13    1    1    2    0    0 -0.11781098840E+02  0.33099064453E+03  0.22378582943E+03  0.39971703700E+03  0.10566000000E+00 0.  1.
         13    1    1    2    0    0 -0.19342741572E+02 -0.33216248559E+03  0.32407509717E+03  0.46446823170E+03  0.10566000000E+00 0. -1.
         -4    1    1    2    0  502  0.31123840412E+02  0.11718410686E+01 -0.43153220280E+03  0.43265472227E+03  0.00000000000E+00 0. -1.
</event>
<event>
 5    1  0.4419198E-005  0.2280221E+03  0.7818608E-02  0.1043543E+00
          4   -1    0    0  502    0 -0.00000000000E+00  0.00000000000E+00  0.13564791647E+04  0.13564791647E+04  0.00000000000E+00 0.  1.
         21   -1    0    0  501  502  0.00000000000E+00 -0.00000000000E+00 -0.10681049270E+03  0.10681049270E+03  0.00000000000E+00 0.  1.
        -13    1    1    2    0    0  0.68086449651E+02  0.25357680886E+03  0.23261655982E+03  0.35078118205E+03  0.10566000000E+00 0.  1.
         13    1    1    2    0    0 -0.20870010117E+03 -0.71706893205E+02  0.51848533094E+03  0.56349326556E+03  0.10566000000E+00 0. -1.
          4    1    1    2  501    0  0.14061365152E+03 -0.18186991565E+03  0.49856678121E+03  0.54901520975E+03  0.00000000000E+00 0.  1.
</event>
<event>
 5    1  0.4419198E-005  0.5189153E+03  0.7818608E-02  0.9437450E-01
         21   -1    0    0  501  502  0.00000000000E+00  0.00000000000E+00  0.41276732292E+03  0.41276732292E+03  0.00000000000E+00 0.  1.
         -4   -1    0    0    0  501 -0.00000000000E+00 -0.00000000000E+00 -0.25693083417E+04  0.25693083417E+04  0.00000000000E+00 0. -1.
        -13    1    1    2    0    0 -0.36573705221E+03  0.41781692703E+03 -0.16309331992E+04  0.17228690279E+04  0.10566000000E+00 0.  1.
         13    1    1    2    0    0 -0.39864623909E+02 -0.38214381976E+03  0.19549372721E+03  0.43109267653E+03  0.10566000000E+00 0. -1.
         -4    1    1    2    0  502  0.40560167612E+03 -0.35673107276E+02 -0.72110154675E+03  0.82811396014E+03  0.00000000000E+00 0. -1.
</event>
<event>
 5    1  0.4419198E-005  0.4872264E+03  0.7818608E-02  0.9620655E-01
         21   -1    0    0  501  502  0.00000000000E+00  0.00000000000E+00  0.26587575730E+03  0.26587575730E+03  0.00000000000E+00 0. -1.
         -4   -1    0    0    0  501 -0.00000000000E+00 -0.00000000000E+00 -0.20996708892E+04  0.20996708892E+04  0.00000000000E+00 0. -1.
        -13    1    1    2    0    0  0.53475193650E+02  0.31904539999E+03 -0.96163772657E+03  0.10145918844E+04  0.10566000000E+00 0.  1.
         13    1    1    2    0    0  0.44161949447E+03 -0.28661791883E+03 -0.35942397097E+03  0.63746624331E+03  0.10566000000E+00 0. -1.
         -4    1    1    2    0  502 -0.49509468812E+03 -0.32427481168E+02 -0.51273343440E+03  0.71348851882E+03  0.00000000000E+00 0. -1.
</event>
<event>
 5    1  0.4419198E-005  0.4565203E+02  0.7818608E-02  0.1310581E+00
          4   -1    0    0  502    0 -0.00000000000E+00  0.00000000000E+00  0.17120414966E+03  0.17120414966E+03  0.00000000000E+00 0.  1.
         21   -1    0    0  501  502  0.00000000000E+00 -0.00000000000E+00 -0.78637613041E+02  0.78637613041E+02  0.00000000000E+00 0.  1.
        -13    1    1    2    0    0  0.33276097045E+02  0.32959302921E+02  0.14261097270E+03  0.15010501318E+03  0.10566000000E+00 0.  1.
         13    1    1    2    0    0 -0.47726263432E+02  0.24482329967E+01 -0.24082267184E+02  0.53514080603E+02  0.10566000000E+00 0. -1.
          4    1    1    2  501    0  0.14450166388E+02 -0.35407535918E+02 -0.25962168894E+02  0.46222668920E+02  0.00000000000E+00 0.  1.
</event>
<event>
 5    1  0.4419198E-005  0.5408484E+03  0.7818608E-02  0.9392670E-01
         21   -1    0    0  501  502  0.00000000000E+00  0.00000000000E+00  0.14931869005E+04  0.14931869005E+04  0.00000000000E+00 0.  1.
          4   -1    0    0  502    0 -0.00000000000E+00 -0.00000000000E+00 -0.48873244848E+03  0.48873244848E+03  0.00000000000E+00 0.  1.
        -13    1    1    2    0    0 -0.65104831672E+03  0.55753992270E+02  0.38829596540E+03  0.76009616909E+03  0.10566000000E+00 0.  1.
         13    1    1    2    0    0  0.40509291273E+03  0.36490799403E+03  0.19910781675E+03  0.58043263683E+03  0.10566000000E+00 0. -1.
          4    1    1    2  501    0  0.24595540399E+03 -0.42066198630E+03  0.41705066984E+03  0.64139054302E+03  0.00000000000E+00 0.  1.
</event>
<event>
 5    1  0.4419198E-005  0.1329870E+03  0.7818608E-02  0.1119217E+00
          4   -1    0    0  502    0 -0.00000000000E+00  0.00000000000E+00  0.84661202318E+03  0.84661202318E+03  0.00000000000E+00 0.  1.
         21   -1    0    0  501  502  0.00000000000E+00 -0.00000000000E+00 -0.10532950633E+03  0.10532950633E+03  0.00000000000E+00 0. -1.
        -13    1    1    2    0    0  0.28314098172E+02  0.13298416777E+03  0.76593092402E+03  0.77790530823E+03  0.10566000000E+00 0.  1.
         13    1    1    2    0    0 -0.79106301493E+01 -0.11165444091E+03  0.26457458379E+02  0.11501869636E+03  0.10566000000E+00 0. -1.
          4    1    1    2  501    0 -0.20403468023E+02 -0.21329726855E+02 -0.51105865545E+02  0.59017524924E+02  0.00000000000E+00 0.  1.
</event>
<event>
 5    1  0.4419198E-005  0.5734925E+03  0.7818608E-02  0.9329979E-01
         -4   -1    0    0    0  501 -0.00000000000E+00  0.00000000000E+00  0.12350354139E+04  0.12350354139E+04  0.00000000000E+00 0. -1.
         21   -1    0    0  501  502  0.00000000000E+00 -0.00000000000E+00 -0.74857792401E+03  0.74857792401E+03  0.00000000000E+00 0. -1.
        -13    1    1    2    0    0 -0.27495261326E+03 -0.47931746719E+03  0.62038788485E+03  0.83079799754E+03  0.10566000000E+00 0.  1.
         13    1    1    2    0    0  0.65258197683E+03  0.35963305354E+03 -0.13170522707E+03  0.75666732960E+03  0.10566000000E+00 0. -1.
         -4    1    1    2    0  502 -0.37762936357E+03  0.11968441365E+03 -0.22251678309E+01  0.39614801081E+03  0.00000000000E+00 0. -1.
</event>
<event>
 5    1  0.4419198E-005  0.1152888E+03  0.7818608E-02  0.1141476E+00
         21   -1    0    0  501  502  0.00000000000E+00  0.00000000000E+00  0.64192818358E+03  0.64192818358E+03  0.00000000000E+00 0.  1.
          4   -1    0    0  502    0 -0.00000000000E+00 -0.00000000000E+00 -0.54815301611E+02  0.54815301611E+02  0.00000000000E+00 0.  1.
        -13    1    1    2    0    0  0.15090856731E+03 -0.45410989622E+02  0.17218127318E+03  0.23341370068E+03  0.10566000000E+00 0.  1.
         13    1    1    2    0    0 -0.66211809149E+02  0.68540170952E+02  0.10774638208E+03  0.14384384839E+03  0.10566000000E+00 0. -1.
          4    1    1    2  501    0 -0.84696758161E+02 -0.23129181329E+02  0.30718522671E+03  0.31948593613E+03  0.00000000000E+00 0.  1.
</event>
<event>
 5    1  0.4419198E-005  0.4115346E+03  0.7818608E-02  0.9813461E-01
          4   -1    0    0  502    0 -0.00000000000E+00  0.00000000000E+00  0.14358283672E+04  0.14358283672E+04  0.00000000000E+00 0.  1.
         21   -1    0    0  501  502  0.00000000000E+00 -0.00000000000E+00 -0.31431720221E+03  0.31431720221E+03  0.00000000000E+00 0. -1.
        -13    1    1    2    0    0 -0.38512350498E+03 -0.38337080431E+03  0.89940237883E+03  0.10508177472E+04  0.10566000000E+00 0.  1.
         13    1    1    2    0    0  0.12469266857E+02  0.27459429060E+03  0.88464659201E+02  0.28876203721E+03  0.10566000000E+00 0. -1.
          4    1    1    2  501    0  0.37265423813E+03  0.10877651371E+03  0.13364412700E+03  0.41056578500E+03  0.00000000000E+00 0.  1.
</event>
<event>
 5    1  0.4419198E-005  0.4657410E+02  0.7818608E-02  0.1328569E+00
         21   -1    0    0  501  502  0.00000000000E+00  0.00000000000E+00  0.43894578188E+02  0.43894578188E+02  0.00000000000E+00 0. -1.
         -4   -1    0    0    0  501 -0.00000000000E+00 -0.00000000000E+00 -0.23088747947E+03  0.23088747947E+03  0.00000000000E+00 0. -1.
        -13    1    1    2    0    0  0.28287644449E+02  0.11783532377E+02 -0.16593794918E+03  0.16874376020E+03  0.10566000000E+00 0.  1.
         13    1    1    2    0    0 -0.13717100042E+02  0.38333701017E+02 -0.33103125837E+02  0.52473417760E+02  0.10566000000E+00 0. -1.
         -4    1    1    2    0  502 -0.14570544408E+02 -0.50117233393E+02  0.12048173731E+02  0.53564879703E+02  0.00000000000E+00 0. -1.
</event>
<event>
 5    1  0.4419198E-005  0.2998549E+03  0.7818608E-02  0.1008201E+00
          4   -1    0    0  502    0 -0.00000000000E+00  0.00000000000E+00  0.21982059404E+04  0.21982059404E+04  0.00000000000E+00 0.  1.
         21   -1    0    0  501  502  0.00000000000E+00 -0.00000000000E+00 -0.32518188530E+03  0.32518188530E+03  0.00000000000E+00 0.  1.
        -13    1    1    2    0    0  0.64126536903E+02  0.28835645366E+03 -0.16098465926E+03  0.33641897804E+03  0.10566000000E+00 0.  1.
         13    1    1    2    0    0 -0.27676880983E+03  0.92683084239E+02  0.13058685121E+04  0.13380895748E+04  0.10566000000E+00 0. -1.
          4    1    1    2  501    0  0.21264227293E+03 -0.38103953790E+03  0.72814020223E+03  0.84887927280E+03  0.00000000000E+00 0.  1.
</event>
<event>
 5    1  0.4419198E-005  0.1147525E+03  0.7818608E-02  0.1142218E+00
         -4   -1    0    0    0  501 -0.00000000000E+00  0.00000000000E+00  0.80700658140E+03  0.80700658140E+03  0.00000000000E+00 0. -1.
         21   -1    0    0  501  502  0.00000000000E+00 -0.00000000000E+00 -0.38464931931E+02  0.38464931931E+02  0.00000000000E+00 0.  1.
        -13    1    1    2    0    0  0.11499123967E+03  0.32542797875E+02  0.96695380199E+02  0.15372711736E+03  0.10566000000E+00 0.  1.
         13    1    1    2    0    0 -0.11211144593E+03 -0.20787609654E+02  0.66984133583E+03  0.67947665698E+03  0.10566000000E+00 0. -1.
         -4    1    1    2    0  502 -0.28797937368E+01 -0.11755188221E+02  0.20049334394E+01  0.12267739000E+02  0.00000000000E+00 0. -1.
</event>
<event>
 5    1  0.4419198E-005  0.2056890E+03  0.7818608E-02  0.1056304E+00
         21   -1    0    0  501  502  0.00000000000E+00  0.00000000000E+00  0.46315727922E+03  0.46315727922E+03  0.00000000000E+00 0.  1.
          4   -1    0    0  502    0 -0.00000000000E+00 -0.00000000000E+00 -0.66895562276E+03  0.66895562276E+03  0.00000000000E+00 0.  1.
        -13    1    1    2    0    0 -0.20445605421E+03 -0.11074837579E+03  0.32667038787E+03  0.40097510436E+03  0.10566000000E+00 0.  1.
         13    1    1    2    0    0  0.20169131911E+03 -0.71381088084E+02 -0.56174863597E+02  0.22120188607E+03  0.10566000000E+00 0. -1.
          4    1    1    2  501    0  0.27647351006E+01  0.18212946387E+03 -0.47629386781E+03  0.50993591155E+03  0.00000000000E+00 0.  1.
</event>
<event>
 5    1  0.4419198E-005  0.4948378E+03  0.7818608E-02  0.9803632E-01
         21   -1    0    0  501  502  0.00000000000E+00  0.00000000000E+00  0.24144864756E+03  0.24144864756E+03  0.00000000000E+00 0. -1.
         -4   -1    0    0    0  501 -0.00000000000E+00 -0.00000000000E+00 -0.14863943535E+04  0.14863943535E+04  0.00000000000E+00 0. -1.
        -13    1    1    2    0    0  0.11039150794E+03 -0.12060631846E+03 -0.24757964218E+03  0.29669489289E+03  0.10566000000E+00 0.  1.
         13    1    1    2    0    0  0.80819888375E+02  0.52637000352E+03 -0.32820094876E+03  0.62555024490E+03  0.10566000000E+00 0. -1.
         -4    1    1    2    0  502 -0.19121139632E+03 -0.40576368506E+03 -0.66916511503E+03  0.80559786331E+03  0.00000000000E+00 0. -1.
</event>
<event>
 5    1  0.4419198E-005  0.3122544E+02  0.7818608E-02  0.1418263E+00
         21   -1    0    0  501  502  0.00000000000E+00  0.00000000000E+00  0.32218382494E+03  0.32218382494E+03  0.00000000000E+00 0.  1.
          4   -1    0    0  502    0 -0.00000000000E+00 -0.00000000000E+00 -0.18878367669E+02  0.18878367669E+02  0.00000000000E+00 0.  1.
        -13    1    1    2    0    0  0.89213118044E+01 -0.36716783552E+02  0.55600174009E+01  0.38192105942E+02  0.10566000000E+00 0.  1.
         13    1    1    2    0    0 -0.19980111235E+02  0.75443180161E+01  0.76114902277E+02  0.79054481795E+02  0.10566000000E+00 0. -1.
          4    1    1    2  501    0  0.11058799431E+02  0.29172465536E+02  0.22163053759E+03  0.22381560487E+03  0.00000000000E+00 0.  1.
</event>
<event>
 5    1  0.4419198E-005  0.8126201E+03  0.7818608E-02  0.8973919E-01
         21   -1    0    0  501  502  0.00000000000E+00  0.00000000000E+00  0.88801577156E+03  0.88801577156E+03  0.00000000000E+00 0.  1.
         -4   -1    0    0    0  501 -0.00000000000E+00 -0.00000000000E+00 -0.16765182941E+04  0.16765182941E+04  0.00000000000E+00 0. -1.
        -13    1    1    2    0    0 -0.44185686047E+03  0.67763288899E+03 -0.98717945941E+03  0.12763021247E+04  0.10566000000E+00 0.  1.
         13    1    1    2    0    0  0.57278867921E+03 -0.61603375648E+03  0.48243851547E+03  0.96970685907E+03  0.10566000000E+00 0. -1.
         -4    1    1    2    0  502 -0.13093181874E+03 -0.61599132511E+02 -0.28376157857E+03  0.31852508184E+03  0.00000000000E+00 0. -1.
</event>
<event>
 5    1  0.4419198E-005  0.4404750E+03  0.7818608E-02  0.9714103E-01
         21   -1    0    0  501  502  0.00000000000E+00  0.00000000000E+00  0.82565421610E+03  0.82565421610E+03  0.00000000000E+00 0.  1.
          4   -1    0    0  502    0 -0.00000000000E+00 -0.00000000000E+00 -0.58825545460E+03  0.58825545460E+03  0.00000000000E+00 0.  1.
        -13    1    1    2    0    0  0.62971218891E+03  0.19264805633E+03 -0.69290991244E+02  0.66215705622E+03  0.10566000000E+00 0.  1.
         13    1    1    2    0    0 -0.31547979183E+03  0.19937087602E+01  0.16369481273E+03  0.35542576835E+03  0.10566000000E+00 0. -1.
          4    1    1    2  501    0 -0.31423239708E+03 -0.19464176509E+03  0.14299494002E+03  0.39632684613E+03  0.00000000000E+00 0.  1.
</event>
<event>
 5    1  0.4419198E-005  0.3793981E+03  0.7818608E-02  0.9879284E-01
         21   -1    0    0  501  502  0.00000000000E+00  0.00000000000E+00  0.25263282267E+03  0.25263282267E+03  0.00000000000E+00 0. -1.
         -4   -1    0    0    0  501 -0.00000000000E+00 -0.00000000000E+00 -0.15379670466E+04  0.15379670466E+04  0.00000000000E+00 0. -1.
        -13    1    1    2    0    0 -0.27460288942E+03 -0.58640504020E+02 -0.37083616571E+03  0.46515043648E+03  0.10566000000E+00 0.  1.
         13    1    1    2    0    0  0.29958094992E+03 -0.28144823340E+03 -0.72998244251E+02  0.41748126720E+03  0.10566000000E+00 0. -1.
         -4    1    1    2    0  502 -0.24978060495E+02  0.34008873742E+03 -0.84149981397E+03  0.90796816560E+03  0.00000000000E+00 0. -1.
</event>
<event>
 5    1  0.4419198E-005  0.4721625E+03  0.7818608E-02  0.9655477E-01
         21   -1    0    0  501  502  0.00000000000E+00  0.00000000000E+00  0.32956689202E+03  0.32956689202E+03  0.00000000000E+00 0.  1.
          4   -1    0    0  502    0 -0.00000000000E+00 -0.00000000000E+00 -0.14352136594E+04  0.14352136594E+04  0.00000000000E+00 0.  1.
        -13    1    1    2    0    0  0.24068324765E+03  0.22546517791E+03 -0.73062366078E+03  0.80160708393E+03  0.10566000000E+00 0.  1.
         13    1    1    2    0    0  0.29915229815E+03 -0.96583417813E+02 -0.23005567844E+03  0.38954599270E+03  0.10566000000E+00 0. -1.
          4    1    1    2  501    0 -0.53983554580E+03 -0.12888176010E+03 -0.14496742817E+03  0.57362747478E+03  0.00000000000E+00 0.  1.
</event>
<event>
 5    1  0.4419198E-005  0.7845041E+02  0.7818608E-02  0.1275917E+00
         21   -1    0    0  501  502  0.00000000000E+00  0.00000000000E+00  0.15451826111E+03  0.15451826111E+03  0.00000000000E+00 0. -1.
         -4   -1    0    0    0  501 -0.00000000000E+00 -0.00000000000E+00 -0.50118319757E+02  0.50118319757E+02  0.00000000000E+00 0. -1.
        -13    1    1    2    0    0 -0.15403364351E+02 -0.88202840085E+01  0.14619007060E+02  0.22995381597E+02  0.10566000000E+00 0.  1.
         13    1    1    2    0    0  0.27805140019E+02  0.80241560196E+02  0.55533777014E+02  0.10146844508E+03  0.10566000000E+00 0. -1.
         -4    1    1    2    0  502 -0.12401775668E+02 -0.71421276188E+02  0.34247157277E+02  0.80172754185E+02  0.00000000000E+00 0. -1.
</event>
<event>
 5    1  0.4419198E-005  0.1942651E+03  0.7818608E-02  0.1084158E+00
          4   -1    0    0  502    0 -0.00000000000E+00  0.00000000000E+00  0.33902854514E+03  0.33902854514E+03  0.00000000000E+00 0.  1.
         21   -1    0    0  501  502  0.00000000000E+00 -0.00000000000E+00 -0.32318857009E+03  0.32318857009E+03  0.00000000000E+00 0.  1.
        -13    1    1    2    0    0 -0.10789582593E+03 -0.20619355822E+03  0.63176365805E+02  0.24114011916E+03  0.10566000000E+00 0.  1.
         13    1    1    2    0    0  0.10869389050E+03  0.16918966263E+02  0.12400651535E+03  0.16576561846E+03  0.10566000000E+00 0. -1.
          4    1    1    2  501    0 -0.79806456403E+00  0.18927459196E+03 -0.17134290610E+03  0.25531137762E+03  0.00000000000E+00 0.  1.
</event>
<event>
 5    1  0.4419198E-005  0.3315333E+03  0.7818608E-02  0.1028123E+00
          4   -1    0    0  502    0 -0.00000000000E+00  0.00000000000E+00  0.26560969525E+04  0.26560969525E+04  0.00000000000E+00 0.  1.
         21   -1    0    0  501  502  0.00000000000E+00 -0.00000000000E+00 -0.12070731680E+03  0.12070731680E+03  0.00000000000E+00 0.  1.
        -13    1    1    2    0    0 -0.15044423773E+03 -0.37590821750E+03  0.21653492256E+04  0.22028794195E+04  0.10566000000E+00 0.  1.
         13    1    1    2    0    0 -0.29848232222E+02  0.11105448068E+03  0.67950211752E+02  0.13357116862E+03  0.10566000000E+00 0. -1.
          4    1    1    2  501    0  0.18029246995E+03  0.26485373682E+03  0.30209019832E+03  0.44035368121E+03  0.00000000000E+00 0.  1.
</event>
<event>
 5    1  0.4419198E-005  0.6145915E+02  0.7818608E-02  0.1251096E+00
         -4   -1    0    0    0  501 -0.00000000000E+00  0.00000000000E+00  0.25118490861E+03  0.25118490861E+03  0.00000000000E+00 0. -1.
         21   -1    0    0  501  502  0.00000000000E+00 -0.00000000000E+00 -0.85967031818E+02  0.85967031818E+02  0.00000000000E+00 0.  1.
        -13    1    1    2    0    0  0.37442684890E+02 -0.24394568687E+02 -0.24110657471E+02  0.50777796338E+02  0.10566000000E+00 0.  1.
         13    1    1    2    0    0 -0.59623369404E+02  0.21849700923E+02  0.23074501806E+03  0.23932327537E+03  0.10566000000E+00 0. -1.
         -4    1    1    2    0  502  0.22180684514E+02  0.25448677646E+01 -0.41416483796E+02  0.47050868722E+02  0.00000000000E+00 0. -1.
</event>
<event>
 5    1  0.4419198E-005  0.1077324E+03  0.7818608E-02  0.1152359E+00
         -4   -1    0    0    0  501 -0.00000000000E+00  0.00000000000E+00  0.19187444061E+03  0.19187444061E+03  0.00000000000E+00 0. -1.
         21   -1    0    0  501  502  0.00000000000E+00 -0.00000000000E+00 -0.22546354262E+03  0.22546354262E+03  0.00000000000E+00 0.  1.
        -13    1    1    2    0    0 -0.12564946233E+03  0.25915191537E+02  0.16311279463E+02  0.12932692503E+03  0.10566000000E+00 0.  1.
         13    1    1    2    0    0  0.96037690917E+02 -0.28192964867E+02  0.96258013590E+02  0.13886575420E+03  0.10566000000E+00 0. -1.
         -4    1    1    2    0  502  0.29611771410E+02  0.22777733299E+01 -0.14615839507E+03  0.14914530401E+03  0.00000000000E+00 0. -1.
</event>
<event>
 5    1  0.4419198E-005  0.4242633E+02  0.7818608E-02  0.1326124E+00
         -4   -1    0    0    0  501 -0.00000000000E+00  0.00000000000E+00  0.36208435678E+02  0.36208435678E+02  0.00000000000E+00 0. -1.
         21   -1    0    0  501  502  0.00000000000E+00 -0.00000000000E+00 -0.49848829569E+03  0.49848829569E+03  0.00000000000E+00 0.  1.
        -13    1    1    2    0    0 -0.93092405598E+01  0.62481027746E+02 -0.23326198001E+03  0.24166444354E+03  0.10566000000E+00 0.  1.
         13    1    1    2    0    0  0.20381247058E+02 -0.36089207714E+02  0.17404977514E+02  0.44952981562E+02  0.10566000000E+00 0. -1.
         -4    1    1    2    0  502 -0.11072006499E+02 -0.26391820032E+02 -0.24642285752E+03  0.24807930627E+03  0.00000000000E+00 0. -1.
</event>
<event>
 5    1  0.4419198E-005  0.3648779E+03  0.7818608E-02  0.9989968E-01
         -4   -1    0    0    0  501 -0.00000000000E+00  0.00000000000E+00  0.79368645449E+03  0.79368645449E+03  0.00000000000E+00 0. -1.
         21   -1    0    0  501  502  0.00000000000E+00 -0.00000000000E+00 -0.49167439926E+03  0.49167439926E+03  0.00000000000E+00 0. -1.
        -13    1    1    2    0    0 -0.10498313577E+03  0.19168570162E+03  0.10728592660E+03  0.24346488086E+03  0.10566000000E+00 0.  1.
         13    1    1    2    0    0  0.23060516080E+03 -0.49738296189E+03  0.37614907263E+03  0.66487343680E+03  0.10566000000E+00 0. -1.
         -4    1    1    2    0  502 -0.12562202503E+03  0.30569726027E+03 -0.18142294399E+03  0.37702253609E+03  0.00000000000E+00 0. -1.
</event>
<event>
 5    1  0.4419198E-005  0.4880990E+03  0.7818608E-02  0.9512479E-01
          4   -1    0    0  502    0 -0.00000000000E+00  0.00000000000E+00  0.19312604346E+04  0.19312604346E+04  0.00000000000E+00 0.  1.
         21   -1    0    0  501  502  0.00000000000E+00 -0.00000000000E+00 -0.47332500765E+03  0.47332500765E+03  0.00000000000E+00 0.  1.
        -13    1    1    2    0    0  0.16334025831E+03 -0.22556413710E+03  0.24934405477E+03  0.37380702073E+03  0.10566000000E+00 0.  1.
         13    1    1    2    0    0  0.35916026542E+03 -0.30944707534E+03  0.11919471574E+04  0.12827671752E+04  0.10566000000E+00 0. -1.
          4    1    1    2  501    0 -0.52250052374E+03  0.53501121244E+03  0.16644214825E+02  0.74801124632E+03  0.00000000000E+00 0.  1.
</event>
<event>
 5    1  0.4419198E-005  0.3994445E+03  0.7818608E-02  0.9803648E-01
         21   -1    0    0  501  502  0.00000000000E+00  0.00000000000E+00  0.37041600906E+03  0.37041600906E+03  0.00000000000E+00 0. -1.
         -4   -1    0    0    0  501 -0.00000000000E+00 -0.00000000000E+00 -0.24932528983E+04  0.24932528983E+04  0.00000000000E+00 0. -1.
        -13    1    1    2    0    0  0.62445989640E+03 -0.17374821300E+03 -0.12106029286E+04  0.13732072187E+04  0.10566000000E+00 0.  1.
         13    1    1    2    0    0 -0.23528652201E+03  0.83748419167E+02 -0.10411844853E+04  0.10707187720E+04  0.10566000000E+00 0. -1.
         -4    1    1    2    0  502 -0.38917337439E+03  0.89999793828E+02  0.12895052466E+03  0.41974291660E+03  0.00000000000E+00 0. -1.
</event>
<event>
 5    1  0.4419198E-005  0.4974564E+03  0.7818608E-02  0.9544258E-01
         21   -1    0    0  501  502  0.00000000000E+00  0.00000000000E+00  0.45202310684E+03  0.45202310684E+03  0.00000000000E+00 0.  1.
          4   -1    0    0  502    0 -0.00000000000E+00 -0.00000000000E+00 -0.22751317837E+04  0.22751317837E+04  0.00000000000E+00 0.  1.
        -13    1    1    2    0    0  0.42727740451E+03 -0.28931327190E+03 -0.13347599473E+03  0.53299531146E+03  0.10566000000E+00 0.  1.
         13    1    1    2    0    0 -0.30847699807E+03 -0.25349137840E+03 -0.15775793246E+04  0.16273206426E+04  0.10566000000E+00 0. -1.
          4    1    1    2  501    0 -0.11880040644E+03  0.54280465031E+03 -0.11205335751E+03  0.56683893647E+03  0.00000000000E+00 0.  1.
</event>
<event>
 5    1  0.4419198E-005  0.2522881E+03  0.7818608E-02  0.1038955E+00
         21   -1    0    0  501  502  0.00000000000E+00  0.00000000000E+00  0.35511076857E+03  0.35511076857E+03  0.00000000000E+00 0.  1.
          4   -1    0    0  502    0 -0.00000000000E+00 -0.00000000000E+00 -0.10135669566E+04  0.10135669566E+04  0.00000000000E+00 0.  1.
        -13    1    1    2    0    0 -0.79098209693E+02 -0.31271951396E+03 -0.74513059952E+03  0.81195421219E+03  0.10566000000E+00 0.  1.
         13    1    1    2    0    0  0.16987620211E+03  0.78564165292E+02 -0.12766298073E+03  0.22655705666E+03  0.10566000000E+00 0. -1.
          4    1    1    2  501    0 -0.90777992420E+02  0.23415534867E+03  0.21433739218E+03  0.33016645636E+03  0.00000000000E+00 0.  1.
</event>
<event>
 5    1  0.4419198E-005  0.3695587E+03  0.7818608E-02  0.1001787E+00
         21   -1    0    0  501  502  0.00000000000E+00  0.00000000000E+00  0.28114473748E+03  0.28114473748E+03  0.00000000000E+00 0. -1.
         -4   -1    0    0    0  501 -0.00000000000E+00 -0.00000000000E+00 -0.13926652343E+04  0.13926652343E+04  0.00000000000E+00 0. -1.
        -13    1    1    2    0    0 -0.18879172399E+03  0.34861567181E+02 -0.25984127806E+03  0.32307142378E+03  0.10566000000E+00 0.  1.
         13    1    1    2    0    0 -0.53643877466E+02 -0.36557162859E+03  0.37677183013E+02  0.37140256125E+03  0.10566000000E+00 0. -1.
         -4    1    1    2    0  502  0.24243560146E+03  0.33071006141E+03 -0.88935640175E+03  0.97933598674E+03  0.00000000000E+00 0. -1.
</event>
<event>
 5    1  0.4419198E-005  0.4496757E+02  0.7818608E-02  0.1313755E+00
          4   -1    0    0  502    0 -0.00000000000E+00  0.00000000000E+00  0.41652394976E+02  0.41652394976E+02  0.00000000000E+00 0.  1.
         21   -1    0    0  501  502  0.00000000000E+00 -0.00000000000E+00 -0.72690774396E+02  0.72690774396E+02  0.00000000000E+00 0. -1.
        -13    1    1    2    0    0 -0.44058641022E+02  0.10412418455E+02 -0.14421599091E+01  0.45295400385E+02  0.10566000000E+00 0.  1.
         13    1    1    2    0    0  0.38524782468E+02 -0.25571425472E+02 -0.22371221316E+02  0.51366714632E+02  0.10566000000E+00 0. -1.
          4    1    1    2  501    0  0.55338585540E+01  0.15159007017E+02 -0.72249981946E+01  0.17681054356E+02  0.00000000000E+00 0.  1.
</event>
<event>
 5    1  0.4419198E-005  0.3230130E+03  0.7818608E-02  0.1030257E+00
         -4   -1    0    0    0  501 -0.00000000000E+00  0.00000000000E+00  0.15208834007E+04  0.15208834007E+04  0.00000000000E+00 0. -1.
         21   -1    0    0  501  502  0.00000000000E+00 -0.00000000000E+00 -0.28735028971E+03  0.28735028971E+03  0.00000000000E+00 0. -1.
        -13    1    1    2    0    0  0.11049638750E+03 -0.36575070848E+02  0.63219274721E+03  0.64281791221E+03  0.10566000000E+00 0.  1.
         13    1    1    2    0    0  0.26393336859E+03 -0.16128954516E+03 -0.11768261562E+03  0.33094463225E+03  0.10566000000E+00 0. -1.
         -4    1    1    2    0  502 -0.37442975610E+03  0.19786461601E+03  0.71902297942E+03  0.83447114597E+03  0.00000000000E+00 0. -1.
</event>
<event>
 5    1  0.4419198E-005  0.4391630E+03  0.7818608E-02  0.9925992E-01
         21   -1    0    0  501  502  0.00000000000E+00  0.00000000000E+00  0.39273596760E+03  0.39273596760E+03  0.00000000000E+00 0. -1.
         -4   -1    0    0    0  501 -0.00000000000E+00 -0.00000000000E+00 -0.10474661744E+04  0.10474661744E+04  0.00000000000E+00 0. -1.
        -13    1    1    2    0    0  0.85256644914E+02 -0.12929244244E+03 -0.35972155169E+03  0.39164376299E+03  0.10566000000E+00 0.  1.
         13    1    1    2    0    0 -0.37967108352E+03  0.29009732386E+03  0.14122804392E+03  0.49824889415E+03  0.10566000000E+00 0. -1.
         -4    1    1    2    0  502  0.29441443861E+03 -0.16080488142E+03 -0.43623669902E+03  0.55030948485E+03  0.00000000000E+00 0. -1.
</event>
<event>
 5    1  0.4419198E-005  0.3927160E+03  0.7818608E-02  0.9868378E-01
         21   -1    0    0  501  502  0.00000000000E+00  0.00000000000E+00  0.29235145315E+03  0.29235145315E+03  0.00000000000E+00 0. -1.
         -4   -1    0    0    0  501 -0.00000000000E+00 -0.00000000000E+00 -0.16700657620E+04  0.16700657620E+04  0.00000000000E+00 0. -1.
        -13    1    1    2    0    0  0.21484094398E+03 -0.15108202909E+03 -0.65739688777E+03  0.70792166935E+03  0.10566000000E+00 0.  1.
         13    1    1    2    0    0  0.19083779933E+03  0.26922353933E+03 -0.76153230918E+03  0.82995894409E+03  0.10566000000E+00 0. -1.
         -4    1    1    2    0  502 -0.40567874331E+03 -0.11814151024E+03  0.41214888072E+02  0.42453660174E+03  0.00000000000E+00 0. -1.
</event>
<event>
 5    1  0.4419198E-005  0.4655884E+03  0.7818608E-02  0.9951520E-01
         -4   -1    0    0    0  501 -0.00000000000E+00  0.00000000000E+00  0.15322961953E+04  0.15322961953E+04  0.00000000000E+00 0. -1.
         21   -1    0    0  501  502  0.00000000000E+00 -0.00000000000E+00 -0.18691345585E+03  0.18691345585E+03  0.00000000000E+00 0. -1.
        -13    1    1    2    0    0 -0.79010802116E+02  0.89534229081E+02  0.90387999320E+02  0.14976343550E+03  0.10566000000E+00 0.  1.
         13    1    1    2    0    0 -0.14879365128E+03 -0.46815397866E+03  0.55011666194E+03  0.73752020399E+03  0.10566000000E+00 0. -1.
         -4    1    1    2    0  502  0.22780445339E+03  0.37861974957E+03  0.70487807814E+03  0.83192601161E+03  0.00000000000E+00 0. -1.
</event>
<event>
 5    1  0.4419198E-005  0.5231774E+03  0.7818608E-02  0.9428569E-01
         -4   -1    0    0    0  501 -0.00000000000E+00  0.00000000000E+00  0.17979264560E+04  0.17979264560E+04  0.00000000000E+00 0. -1.
         21   -1    0    0  501  502  0.00000000000E+00 -0.00000000000E+00 -0.13164112107E+04  0.13164112107E+04  0.00000000000E+00 0. -1.
        -13    1    1    2    0    0 -0.39592699093E+03  0.37482691686E+03  0.13648060163E+04  0.14696764518E+04  0.10566000000E+00 0.  1.
         13    1    1    2    0    0  0.54358622792E+02 -0.53928418194E+03  0.13458974095E+03  0.55847712423E+03  0.10566000000E+00 0. -1.
         -4    1    1    2    0  502  0.34156836814E+03  0.16445726508E+03 -0.10178805120E+04  0.10861840907E+04  0.00000000000E+00 0. -1.
</event>
<event>
 5    1  0.4419198E-005  0.2018261E+03  0.7818608E-02  0.1058891E+00
         21   -1    0    0  501  502  0.00000000000E+00  0.00000000000E+00  0.59515865214E+03  0.59515865214E+03  0.00000000000E+00 0.  1.
          4   -1    0    0  502    0 -0.00000000000E+00 -0.00000000000E+00 -0.19727064175E+03  0.19727064175E+03  0.00000000000E+00 0.  1.
        -13    1    1    2    0    0 -0.86011366128E+02 -0.23601334816E+03  0.23787270799E+02  0.25232142404E+03  0.10566000000E+00 0.  1.
         13    1    1    2    0    0 -0.38965737841E+02  0.17231527705E+03  0.44922491426E+02  0.18228802712E+03  0.10566000000E+00 0. -1.
          4    1    1    2  501    0  0.12497710397E+03  0.63698071106E+02  0.32917824817E+03  0.35781984272E+03  0.00000000000E+00 0.  1.
</event>
<event>
 5    1  0.4722255E-005  0.4833907E+03  0.7818608E-02  0.9961257E-01
         -4   -1    0    0    0  501 -0.00000000000E+00  0.00000000000E+00  0.31034004203E+03  0.31034004203E+03  0.00000000000E+00 0. -1.
         21   -1    0    0  501  502  0.00000000000E+00 -0.00000000000E+00 -0.10412845921E+04  0.10412845921E+04  0.00000000000E+00 0. -1.
        -13    1    1    2    0    0  0.82048191942E+02  0.62789999702E+02  0.50007885113E+01  0.10343843054E+03  0.10566000000E+00 0.  1.
         13    1    1    2    0    0  0.23656314981E+02  0.43770775145E+03 -0.13427125952E+03  0.45845008366E+03  0.10566000000E+00 0. -1.
         -4    1    1    2    0  502 -0.10570450692E+03 -0.50049775115E+03 -0.60167407905E+03  0.78973611991E+03  0.00000000000E+00 0. -1.
</event>
<event>
 5    1  0.4419198E-005  0.4688895E+03  0.7818608E-02  0.9684582E-01
         21   -1    0    0  501  502  0.00000000000E+00  0.00000000000E+00  0.38802892388E+03  0.38802892388E+03  0.00000000000E+00 0.  1.
          4   -1    0    0  502    0 -0.00000000000E+00 -0.00000000000E+00 -0.19012898324E+04  0.19012898324E+04  0.00000000000E+00 0.  1.
        -13    1    1    2    0    0  0.35728273697E+03 -0.27679656265E+03 -0.32087597131E+03  0.55428214058E+03  0.10566000000E+00 0.  1.
         13    1    1    2    0    0  0.15173131130E+03  0.24697464498E+03 -0.11903626036E+04  0.12251457078E+04  0.10566000000E+00 0. -1.
          4    1    1    2  501    0 -0.50901404827E+03  0.29821917665E+02 -0.20223335818E+01  0.50989090789E+03  0.00000000000E+00 0.  1.
</event>
<event>
 5    1  0.4419198E-005  0.4446395E+03  0.7818608E-02  0.9830147E-01
         21   -1    0    0  501  502  0.00000000000E+00  0.00000000000E+00  0.35225368073E+03  0.35225368073E+03  0.00000000000E+00 0. -1.
         -4   -1    0    0    0  501 -0.00000000000E+00 -0.00000000000E+00 -0.12461671301E+04  0.12461671301E+04  0.00000000000E+00 0. -1.
        -13    1    1    2    0    0  0.19809912622E+03 -0.56218487251E+02 -0.45083316964E+03  0.49563528944E+03  0.10566000000E+00 0.  1.
         13    1    1    2    0    0 -0.31235941383E+03 -0.34730734839E+03  0.33062313416E+02  0.46827761572E+03  0.10566000000E+00 0. -1.
         -4    1    1    2    0  502  0.11426028761E+03  0.40352583564E+03 -0.47614259315E+03  0.63450790568E+03  0.00000000000E+00 0. -1.
</event>
<event>
 5    1  0.4419198E-005  0.3566894E+03  0.7818608E-02  0.9878198E-01
         21   -1    0    0  501  502  0.00000000000E+00  0.00000000000E+00  0.35754462932E+03  0.35754462932E+03  0.00000000000E+00 0.  1.
          4   -1    0    0  502    0 -0.00000000000E+00 -0.00000000000E+00 -0.12735104824E+04  0.12735104824E+04  0.00000000000E+00 0.  1.
        -13    1    1    2    0    0  0.24709604930E+03 -0.29720421042E+03 -0.74364557067E+03  0.83809041649E+03  0.10566000000E+00 0.  1.
         13    1    1    2    0    0  0.12959579176E+03  0.31341060775E+03 -0.23244679375E+03  0.41116031105E+03  0.10566000000E+00 0. -1.
          4    1    1    2  501    0 -0.37669184106E+03 -0.16206397328E+02  0.60126511309E+02  0.38180438421E+03  0.00000000000E+00 0.  1.
</event>
<event>
 5    1  0.4419198E-005  0.6222473E+02  0.7818608E-02  0.1248737E+00
         -4   -1    0    0    0  501 -0.00000000000E+00  0.00000000000E+00  0.25972406660E+03  0.25972406660E+03  0.00000000000E+00 0. -1.
         21   -1    0    0  501  502  0.00000000000E+00 -0.00000000000E+00 -0.40125797995E+02  0.40125797995E+02  0.00000000000E+00 0.  1.
        -13    1    1    2    0    0  0.43827716330E+02  0.52851161247E+02  0.84166528784E+01  0.69173442689E+02  0.10566000000E+00 0.  1.
         13    1    1    2    0    0 -0.30019117024E+02 -0.53589064363E+02  0.20745124531E+03  0.21635379717E+03  0.10566000000E+00 0. -1.
         -4    1    1    2    0  502 -0.13808599306E+02  0.73790311619E+00  0.37303704160E+01  0.14322624733E+02  0.00000000000E+00 0. -1.
</event>
<event>
 5    1  0.4419198E-005  0.4957280E+03  0.7818608E-02  0.9829640E-01
         -4   -1    0    0    0  501 -0.00000000000E+00  0.00000000000E+00  0.26737672849E+04  0.26737672849E+04  0.00000000000E+00 0. -1.
         21   -1    0    0  501  502  0.00000000000E+00 -0.00000000000E+00 -0.13428715841E+03  0.13428715841E+03  0.00000000000E+00 0. -1.
        -13    1    1    2    0    0  0.10206127506E+03 -0.10834811472E+03  0.67194820959E+03  0.68823704156E+03  0.10566000000E+00 0.  1.
         13    1    1    2    0    0 -0.39958151294E+03  0.40967305269E+03  0.94559222074E+03  0.11052791750E+04  0.10566000000E+00 0. -1.
         -4    1    1    2    0  502  0.29752023788E+03 -0.30132493797E+03  0.92193969617E+03  0.10145382268E+04  0.00000000000E+00 0. -1.
</event>
<event>
 5    1  0.4419198E-005  0.4563155E+03  0.7818608E-02  0.9798522E-01
          4   -1    0    0  502    0 -0.00000000000E+00  0.00000000000E+00  0.33899386709E+03  0.33899386709E+03  0.00000000000E+00 0.  1.
         21   -1    0    0  501  502  0.00000000000E+00 -0.00000000000E+00 -0.15133356743E+04  0.15133356743E+04  0.00000000000E+00 0.  1.
        -13    1    1    2    0    0 -0.15582839354E+02  0.45936758261E+03 -0.93163203158E+03  0.10388453467E+04  0.10566000000E+00 0.  1.
         13    1    1    2    0    0  0.21136169790E+03 -0.18507459686E+02  0.86871419261E+02  0.22926610750E+03  0.10566000000E+00 0. -1.
          4    1    1    2  501    0 -0.19577885854E+03 -0.44086012293E+03 -0.32958119494E+03  0.58421808727E+03  0.00000000000E+00 0.  1.
</event>
<event>
 5    1  0.4419198E-005  0.5941335E+02  0.7818608E-02  0.1257594E+00
         21   -1    0    0  501  502  0.00000000000E+00  0.00000000000E+00  0.12198757348E+03  0.12198757348E+03  0.00000000000E+00 0. -1.
          4   -1    0    0  502    0 -0.00000000000E+00 -0.00000000000E+00 -0.28686965935E+03  0.28686965935E+03  0.00000000000E+00 0.  1.
        -13    1    1    2    0    0  0.51620175156E+02  0.29093387469E+02 -0.26660703573E+03  0.27311241338E+03  0.10566000000E+00 0.  1.
         13    1    1    2    0    0 -0.47390360165E+02 -0.43127605715E+02  0.48014547127E+02  0.80070247353E+02  0.10566000000E+00 0. -1.
          4    1    1    2  501    0 -0.42298149917E+01  0.14034218246E+02  0.53710402728E+02  0.55674572094E+02  0.00000000000E+00 0.  1.
</event>
<event>
 5    1  0.4419198E-005  0.5000521E+03  0.7818608E-02  0.9599138E-01
         -4   -1    0    0    0  501 -0.00000000000E+00  0.00000000000E+00  0.13212287037E+04  0.13212287037E+04  0.00000000000E+00 0. -1.
         21   -1    0    0  501  502  0.00000000000E+00 -0.00000000000E+00 -0.36113910947E+03  0.36113910947E+03  0.00000000000E+00 0. -1.
        -13    1    1    2    0    0  0.99861424396E+02 -0.30716371378E+03  0.19131293093E+03  0.37539645689E+03  0.10566000000E+00 0.  1.
         13    1    1    2    0    0  0.21624934958E+03  0.56320851580E+03  0.26361264656E+03  0.65837622380E+03  0.10566000000E+00 0. -1.
         -4    1    1    2    0  502 -0.31611077398E+03 -0.25604480203E+03  0.50516401676E+03  0.64859513250E+03  0.00000000000E+00 0. -1.
</event>
<event>
 5    1  0.4419198E-005  0.9639142E+02  0.7818608E-02  0.1211756E+00
         21   -1    0    0  501  502  0.00000000000E+00  0.00000000000E+00  0.48590694385E+03  0.48590694385E+03  0.00000000000E+00 0. -1.
         -4   -1    0    0    0  501 -0.00000000000E+00 -0.00000000000E+00 -0.11874324667E+03  0.11874324667E+03  0.00000000000E+00 0. -1.
        -13    1    1    2    0    0 -0.35863696251E+02 -0.10237157984E+02  0.43524463299E+01  0.37549421640E+02  0.10566000000E+00 0.  1.
         13    1    1    2    0    0  0.11782789650E+03  0.57288223719E+02 -0.52520776556E+02  0.14115168049E+03  0.10566000000E+00 0. -1.
         -4    1    1    2    0  502 -0.81964200252E+02 -0.47051065735E+02  0.41533202740E+03  0.42594908839E+03  0.00000000000E+00 0. -1.
</event>
<event>
 5    1  0.4419198E-005  0.4168500E+03  0.7818608E-02  0.9870401E-01
         21   -1    0    0  501  502  0.00000000000E+00  0.00000000000E+00  0.24717222591E+03  0.24717222591E+03  0.00000000000E+00 0. -1.
         -4   -1    0    0    0  501 -0.00000000000E+00 -0.00000000000E+00 -0.17549937123E+04  0.17549937123E+04  0.00000000000E+00 0. -1.
        -13    1    1    2    0    0  0.10121439347E+03  0.19322176944E+03 -0.58220448670E+03  0.62172428064E+03  0.10566000000E+00 0.  1.
         13    1    1    2    0    0 -0.49416181200E+03 -0.18270588379E+03 -0.81783100897E+03  0.97284372168E+03  0.10566000000E+00 0. -1.
         -4    1    1    2    0  502  0.39294741853E+03 -0.10515885653E+02 -0.10778599076E+03  0.40759793595E+03  0.00000000000E+00 0. -1.
</event>
<event>
 5    1  0.4419198E-005  0.3024576E+02  0.7818608E-02  0.1402946E+00
          4   -1    0    0  502    0 -0.00000000000E+00  0.00000000000E+00  0.10144296219E+03  0.10144296219E+03  0.00000000000E+00 0.  1.
         21   -1    0    0  501  502  0.00000000000E+00 -0.00000000000E+00 -0.12780260124E+02  0.12780260124E+02  0.00000000000E+00 0.  1.
        -13    1    1    2    0    0  0.75186499296E+01  0.26153523976E+02  0.34281034572E+02  0.43769137626E+02  0.10566000000E+00 0.  1.
         13    1    1    2    0    0 -0.16804664238E+02 -0.29969674634E+02  0.45737825956E+02  0.57206101292E+02  0.10566000000E+00 0. -1.
          4    1    1    2  501    0  0.92860143082E+01  0.38161506586E+01  0.86438415415E+01  0.13247983400E+02  0.00000000000E+00 0.  1.
</event>
<event>
 5    1  0.4419198E-005  0.4341701E+03  0.7818608E-02  0.9802813E-01
         21   -1    0    0  501  502  0.00000000000E+00  0.00000000000E+00  0.52829758469E+03  0.52829758469E+03  0.00000000000E+00 0. -1.
         -4   -1    0    0    0  501 -0.00000000000E+00 -0.00000000000E+00 -0.13434828251E+04  0.13434828251E+04  0.00000000000E+00 0. -1.
        -13    1    1    2    0    0 -0.19829078836E+03  0.14001178801E+03 -0.93082555430E+03  0.96195569609E+03  0.10566000000E+00 0.  1.
         13    1    1    2    0    0 -0.86068173584E+02  0.32780072056E+03 -0.38476749380E+02  0.34108871912E+03  0.10566000000E+00 0. -1.
         -4    1    1    2    0  502  0.28435896194E+03 -0.46781250857E+03  0.15411706322E+03  0.56873599463E+03  0.00000000000E+00 0. -1.
</event>
<event>
 5    1  0.4419198E-005  0.3383466E+03  0.7818608E-02  0.9926270E-01
         21   -1    0    0  501  502  0.00000000000E+00  0.00000000000E+00  0.13953619326E+03  0.13953619326E+03  0.00000000000E+00 0.  1.
          4   -1    0    0  502    0 -0.00000000000E+00 -0.00000000000E+00 -0.26178360918E+04  0.26178360918E+04  0.00000000000E+00 0.  1.
        -13    1    1    2    0    0  0.12400410574E+03  0.32148326795E+03 -0.99359717462E+03  0.10516481666E+04  0.10566000000E+00 0.  1.
         13    1    1    2    0    0 -0.88381770758E+02 -0.32336346898E+03 -0.15741384311E+04  0.16094368835E+04  0.10566000000E+00 0. -1.
          4    1    1    2  501    0 -0.35622334983E+02  0.18802010338E+01  0.89435707147E+02  0.96287234972E+02  0.00000000000E+00 0.  1.
</event>
<event>
 5    1  0.4419198E-005  0.2473325E+03  0.7818608E-02  0.1039979E+00
          4   -1    0    0  502    0 -0.00000000000E+00  0.00000000000E+00  0.23387629783E+04  0.23387629783E+04  0.00000000000E+00 0.  1.
         21   -1    0    0  501  502  0.00000000000E+00 -0.00000000000E+00 -0.88403743741E+03  0.88403743741E+03  0.00000000000E+00 0.  1.
        -13    1    1    2    0    0 -0.43571145010E+03 -0.14776705336E+02  0.21747381843E+04  0.22180056357E+04  0.10566000000E+00 0.  1.
         13    1    1    2    0    0  0.19040827060E+03  0.28758689100E+02  0.47980874905E+02  0.19845540363E+03  0.10566000000E+00 0. -1.
          4    1    1    2  501    0  0.24530317951E+03 -0.13981983764E+02 -0.76799351828E+03  0.80633937636E+03  0.00000000000E+00 0.  1.
</event>
<event>
 5    1  0.4419198E-005  0.9729884E+03  0.7818608E-02  0.8800393E-01
         -4   -1    0    0    0  501 -0.00000000000E+00  0.00000000000E+00  0.25034922522E+04  0.25034922522E+04  0.00000000000E+00 0. -1.
         21   -1    0    0  501  502  0.00000000000E+00 -0.00000000000E+00 -0.63695748358E+03  0.63695748358E+03  0.00000000000E+00 0.  1.
        -13    1    1    2    0    0  0.82365178204E+03  0.58530025219E+03  0.12397465319E+04  0.15993592836E+04  0.10566000000E+00 0.  1.
         13    1    1    2    0    0 -0.80747851909E+03 -0.46715781008E+03  0.86658946579E+03  0.12732773821E+04  0.10566000000E+00 0. -1.
         -4    1    1    2    0  502 -0.16173262942E+02 -0.11814244212E+03 -0.23980122911E+03  0.26781307016E+03  0.00000000000E+00 0. -1.
</event>
<event>
 5    1  0.4419198E-005  0.4131831E+03  0.7818608E-02  0.9691725E-01
         21   -1    0    0  501  502  0.00000000000E+00  0.00000000000E+00  0.85174727407E+03  0.85174727407E+03  0.00000000000E+00 0.  1.
          4   -1    0    0  502    0 -0.00000000000E+00 -0.00000000000E+00 -0.72790110677E+03  0.72790110677E+03  0.00000000000E+00 0.  1.
        -13    1    1    2    0    0 -0.25539574312E+03 -0.52491212359E+03 -0.52102327067E+02  0.58606687907E+03  0.10566000000E+00 0.  1.
         13    1    1    2    0    0 -0.66164437649E+02  0.36930168897E+03 -0.23992863251E+03  0.44533945496E+03  0.10566000000E+00 0. -1.
          4    1    1    2  501    0  0.32156018077E+03  0.15561043462E+03  0.41587712688E+03  0.54824204680E+03  0.00000000000E+00 0.  1.
</event>
<event>
 5    1  0.4419198E-005  0.3149042E+03  0.7818608E-02  0.1001336E+00
         21   -1    0    0  501  502  0.00000000000E+00  0.00000000000E+00  0.66675009353E+03  0.66675009353E+03  0.00000000000E+00 0.  1.
          4   -1    0    0  502    0 -0.00000000000E+00 -0.00000000000E+00 -0.80619622764E+03  0.80619622764E+03  0.00000000000E+00 0.  1.
        -13    1    1    2    0    0  0.10627162837E+03 -0.29245638507E+03 -0.65129112877E+03  0.72180644340E+03  0.10566000000E+00 0.  1.
         13    1    1    2    0    0 -0.23837341481E+02  0.35683664223E+03  0.17446424574E+03  0.39791756972E+03  0.10566000000E+00 0. -1.
          4    1    1    2  501    0 -0.82434286884E+02 -0.64380257160E+02  0.33738074891E+03  0.35322230805E+03  0.00000000000E+00 0.  1.
</event>
<event>
 5    1  0.4419198E-005  0.8389677E+03  0.7818608E-02  0.8942676E-01
         -4   -1    0    0    0  501 -0.00000000000E+00  0.00000000000E+00  0.20504519829E+04  0.20504519829E+04  0.00000000000E+00 0. -1.
         21   -1    0    0  501  502  0.00000000000E+00 -0.00000000000E+00 -0.60942410817E+03  0.60942410817E+03  0.00000000000E+00 0. -1.
        -13    1    1    2    0    0  0.45982527254E+03 -0.67643823144E+03  0.10278200685E+04  0.13135532218E+04  0.10566000000E+00 0.  1.
         13    1    1    2    0    0 -0.22162302506E+03  0.90849189843E+03  0.21620748890E+03  0.95980205468E+03  0.10566000000E+00 0. -1.
         -4    1    1    2    0  502 -0.23820224748E+03 -0.23205366699E+03  0.19700031737E+03  0.38652081459E+03  0.00000000000E+00 0. -1.
</event>
<event>
 5    1  0.4419198E-005  0.4428358E+03  0.7818608E-02  0.9774664E-01
         21   -1    0    0  501  502  0.00000000000E+00  0.00000000000E+00  0.48029781649E+03  0.48029781649E+03  0.00000000000E+00 0.  1.
          4   -1    0    0  502    0 -0.00000000000E+00 -0.00000000000E+00 -0.96986031022E+03  0.96986031022E+03  0.00000000000E+00 0.  1.
        -13    1    1    2    0    0  0.16542241195E+03  0.33550175448E+03 -0.40687269647E+03  0.55269467514E+03  0.10566000000E+00 0.  1.
         13    1    1    2    0    0 -0.20729073255E+03  0.14311647967E+03 -0.28128635971E+03  0.37758946208E+03  0.10566000000E+00 0. -1.
          4    1    1    2  501    0  0.41868320597E+02 -0.47861823415E+03  0.19859656245E+03  0.51987398948E+03  0.00000000000E+00 0.  1.
</event>
<event>
 5    1  0.4419198E-005  0.3270000E+03  0.7818608E-02  0.1022492E+00
          4   -1    0    0  502    0 -0.00000000000E+00  0.00000000000E+00  0.13995446782E+04  0.13995446782E+04  0.00000000000E+00 0.  1.
         21   -1    0    0  501  502  0.00000000000E+00 -0.00000000000E+00 -0.32047826524E+03  0.32047826524E+03  0.00000000000E+00 0.  1.
        -13    1    1    2    0    0 -0.41178662849E+03 -0.50665590085E+02  0.71262911999E+03  0.82460627165E+03  0.10566000000E+00 0.  1.
         13    1    1    2    0    0  0.98599853615E+02  0.10336943048E+03  0.52241241195E+03  0.54159201399E+03  0.10566000000E+00 0. -1.
          4    1    1    2  501    0  0.31318677488E+03 -0.52703840395E+02 -0.15597511896E+03  0.35382465783E+03  0.00000000000E+00 0.  1.
</event>
<event>
 5    1  0.4419198E-005  0.4314273E+03  0.7818608E-02  0.9642440E-01
         -4   -1    0    0    0  501 -0.00000000000E+00  0.00000000000E+00  0.49007577615E+03  0.49007577615E+03  0.00000000000E+00 0. -1.
         21   -1    0    0  501  502  0.00000000000E+00 -0.00000000000E+00 -0.60694653248E+03  0.60694653248E+03  0.00000000000E+00 0.  1.
        -13    1    1    2    0    0  0.49535456318E+02  0.43994489744E+03 -0.43452520017E+02  0.44485211799E+03  0.10566000000E+00 0.  1.
         13    1    1    2    0    0 -0.61295152429E+02 -0.41985446785E+03  0.13283127521E+03  0.44461109829E+03  0.10566000000E+00 0. -1.
         -4    1    1    2    0  502  0.11759696111E+02 -0.20090429593E+02 -0.20624951153E+03  0.20755909236E+03  0.00000000000E+00 0. -1.
</event>
<event>
 5    1  0.4419198E-005  0.4802341E+03  0.7818608E-02  0.9879599E-01
          4   -1    0    0  502    0 -0.00000000000E+00  0.00000000000E+00  0.11778961857E+04  0.11778961857E+04  0.00000000000E+00 0.  1.
         21   -1    0    0  501  502  0.00000000000E+00 -0.00000000000E+00 -0.40342022088E+03  0.40342022088E+03  0.00000000000E+00 0.  1.
        -13    1    1    2    0    0  0.16382333876E+03 -0.44004674670E+03  0.37666673635E+03  0.60196101788E+03  0.10566000000E+00 0.  1.
         13    1    1    2    0    0 -0.12913149288E+03 -0.49546588236E+02  0.46392310877E+03  0.48410171336E+03  0.10566000000E+00 0. -1.
          4    1    1    2  501    0 -0.34691845879E+02  0.48959333494E+03 -0.66113880297E+02  0.49525367536E+03  0.00000000000E+00 0.  1.
</event>
<event>
 5    1  0.4419198E-005  0.4752561E+03  0.7818608E-02  0.9656052E-01
         21   -1    0    0  501  502  0.00000000000E+00  0.00000000000E+00  0.38747791945E+03  0.38747791945E+03  0.00000000000E+00 0. -1.
         -4   -1    0    0    0  501 -0.00000000000E+00 -0.00000000000E+00 -0.16834240650E+04  0.16834240650E+04  0.00000000000E+00 0. -1.
        -13    1    1    2    0    0  0.19513765124E+03  0.23782589911E+03 -0.92204906129E+03  0.97201560883E+03  0.10566000000E+00 0.  1.
         13    1    1    2    0    0 -0.25414987346E+03 -0.60771743771E+03 -0.23425288622E+03  0.69913308328E+03  0.10566000000E+00 0. -1.
         -4    1    1    2    0  502  0.59012222221E+02  0.36989153860E+03 -0.13964419806E+03  0.39975329236E+03  0.00000000000E+00 0. -1.
</event>
<event>
 5    1  0.4419198E-005  0.4791907E+03  0.7818608E-02  0.9955446E-01
         -4   -1    0    0    0  501 -0.00000000000E+00  0.00000000000E+00  0.11265077526E+04  0.11265077526E+04  0.00000000000E+00 0. -1.
         21   -1    0    0  501  502  0.00000000000E+00 -0.00000000000E+00 -0.30289640381E+03  0.30289640381E+03  0.00000000000E+00 0. -1.
        -13    1    1    2    0    0 -0.10697332117E+03  0.15668797572E+02  0.31022206802E+03  0.32852175774E+03  0.10566000000E+00 0.  1.
         13    1    1    2    0    0 -0.64355856710E+02 -0.47144597451E+03  0.33670973538E+03  0.58290345705E+03  0.10566000000E+00 0. -1.
         -4    1    1    2    0  502  0.17132917788E+03  0.45577717694E+03  0.17667954540E+03  0.51797894163E+03  0.00000000000E+00 0. -1.
</event>
<event>
 5    1  0.4419198E-005  0.1537058E+03  0.7818608E-02  0.1101616E+00
         -4   -1    0    0    0  501 -0.00000000000E+00  0.00000000000E+00  0.42534206798E+03  0.42534206798E+03  0.00000000000E+00 0. -1.
         21   -1    0    0  501  502  0.00000000000E+00 -0.00000000000E+00 -0.13567567467E+03  0.13567567467E+03  0.00000000000E+00 0.  1.
        -13    1    1    2    0    0  0.82017228482E+02  0.11038771900E+03  0.44859653889E+02  0.14465363454E+03  0.10566000000E+00 0.  1.
         13    1    1    2    0    0 -0.17763951703E+03  0.15509546058E+02  0.11984436467E+03  0.21484651949E+03  0.10566000000E+00 0. -1.
         -4    1    1    2    0  502  0.95622288549E+02 -0.12589726506E+03  0.12496237476E+03  0.20151758862E+03  0.00000000000E+00 0. -1.
</event>
<event>
 5    1  0.4419198E-005  0.4568938E+03  0.7818608E-02  0.9860927E-01
         21   -1    0    0  501  502  0.00000000000E+00  0.00000000000E+00  0.28240768941E+03  0.28240768941E+03  0.00000000000E+00 0. -1.
         -4   -1    0    0    0  501 -0.00000000000E+00 -0.00000000000E+00 -0.15821865039E+04  0.15821865039E+04  0.00000000000E+00 0. -1.
        -13    1    1    2    0    0 -0.23959989276E+02 -0.16933955381E+03 -0.61340070225E+03  0.63679698355E+03  0.10566000000E+00 0.  1.
         13    1    1    2    0    0  0.19969518314E+01  0.57632151702E+03 -0.55360296866E+03  0.79914124963E+03  0.10566000000E+00 0. -1.
         -4    1    1    2    0  502  0.21963037444E+02 -0.40698196320E+03 -0.13277514356E+03  0.42865596011E+03  0.00000000000E+00 0. -1.
</event>
<event>
 5    1  0.4419198E-005  0.4994545E+03  0.7818608E-02  0.9732485E-01
         21   -1    0    0  501  502  0.00000000000E+00  0.00000000000E+00  0.52592994724E+03  0.52592994724E+03  0.00000000000E+00 0. -1.
         -4   -1    0    0    0  501 -0.00000000000E+00 -0.00000000000E+00 -0.71208570962E+03  0.71208570962E+03  0.00000000000E+00 0. -1.
        -13    1    1    2    0    0  0.19250287467E+03 -0.64558760180E+02 -0.38080411569E+02  0.20658005514E+03  0.10566000000E+00 0.  1.
         13    1    1    2    0    0 -0.14718389871E+03 -0.46334008508E+03 -0.12056001226E+03  0.50088108589E+03  0.10566000000E+00 0. -1.
         -4    1    1    2    0  502 -0.45318975961E+02  0.52789884526E+03 -0.27515338550E+02  0.53055451583E+03  0.00000000000E+00 0. -1.
</event>
<event>
 5    1  0.4419198E-005  0.3267370E+03  0.7818608E-02  0.9968424E-01
          4   -1    0    0  502    0 -0.00000000000E+00  0.00000000000E+00  0.14481677657E+04  0.14481677657E+04  0.00000000000E+00 0.  1.
         21   -1    0    0  501  502  0.00000000000E+00 -0.00000000000E+00 -0.33567999208E+03  0.33567999208E+03  0.00000000000E+00 0.  1.
        -13    1    1    2    0    0  0.19560195835E+02 -0.43673825354E+03 -0.75914677128E+02  0.44371832589E+03  0.10566000000E+00 0.  1.
         13    1    1    2    0    0  0.17978034560E+03  0.26264658938E+03  0.41699787045E+03  0.52458692197E+03  0.10566000000E+00 0. -1.
          4    1    1    2  501    0 -0.19934054144E+03  0.17409166415E+03  0.77140458034E+03  0.81554250996E+03  0.00000000000E+00 0.  1.
</event>
<event>
 5    1  0.4419198E-005  0.2436359E+02  0.7818608E-02  0.1456884E+00
         21   -1    0    0  501  502  0.00000000000E+00  0.00000000000E+00  0.13627842797E+02  0.13627842797E+02  0.00000000000E+00 0. -1.
         -4   -1    0    0    0  501 -0.00000000000E+00 -0.00000000000E+00 -0.12242478404E+03  0.12242478404E+03  0.00000000000E+00 0. -1.
        -13    1    1    2    0    0  0.74587289881E+01  0.28153384818E+02 -0.51562330453E+02  0.59219344818E+02  0.10566000000E+00 0.  1.
         13    1    1    2    0    0  0.57864341681E+01 -0.22170640806E+02 -0.57915658026E+02  0.62283663530E+02  0.10566000000E+00 0. -1.
         -4    1    1    2    0  502 -0.13245163156E+02 -0.59827440124E+01  0.68104723249E+00  0.14549618493E+02  0.00000000000E+00 0. -1.
</event>
<event>
 5    1  0.4419198E-005  0.9895767E+02  0.7818608E-02  0.1207429E+00
         21   -1    0    0  501  502  0.00000000000E+00  0.00000000000E+00  0.27859337613E+03  0.27859337613E+03  0.00000000000E+00 0.  1.
          4   -1    0    0  502    0 -0.00000000000E+00 -0.00000000000E+00 -0.59781754549E+02  0.59781754549E+02  0.00000000000E+00 0.  1.
        -13    1    1    2    0    0  0.10096929859E+03 -0.66269658515E+02  0.70054094823E+02  0.13962110966E+03  0.10566000000E+00 0.  1.
         13    1    1    2    0    0 -0.37955770757E+02  0.13456053929E+01  0.25070793006E+02  0.45508318070E+02  0.10566000000E+00 0. -1.
          4    1    1    2  501    0 -0.63013527838E+02  0.64924053122E+02  0.12368673375E+03  0.15324570294E+03  0.00000000000E+00 0.  1.
</event>
<event>
 5    1  0.4419198E-005  0.4854299E+03  0.7818608E-02  0.9510491E-01
          4   -1    0    0  502    0 -0.00000000000E+00  0.00000000000E+00  0.32591293886E+03  0.32591293886E+03  0.00000000000E+00 0.  1.
         21   -1    0    0  501  502  0.00000000000E+00 -0.00000000000E+00 -0.20947583417E+04  0.20947583417E+04  0.00000000000E+00 0.  1.
        -13    1    1    2    0    0 -0.53044202015E+03 -0.22401855360E+03 -0.12127906370E+04  0.13425402003E+04  0.10566000000E+00 0.  1.
         13    1    1    2    0    0  0.45934775986E+03 -0.19437863700E+03 -0.31800408650E+03  0.59153193422E+03  0.10566000000E+00 0. -1.
          4    1    1    2  501    0  0.71094260290E+02  0.41839719059E+03 -0.23805067927E+03  0.48659914595E+03  0.00000000000E+00 0.  1.
</event>
<event>
 5    1  0.4419198E-005  0.3559205E+03  0.7818608E-02  0.9865775E-01
         -4   -1    0    0    0  501 -0.00000000000E+00  0.00000000000E+00  0.23607722769E+04  0.23607722769E+04  0.00000000000E+00 0. -1.
         21   -1    0    0  501  502  0.00000000000E+00 -0.00000000000E+00 -0.59397819136E+03  0.59397819136E+03  0.00000000000E+00 0. -1.
        -13    1    1    2    0    0  0.27346251657E+03 -0.18138599247E+03  0.68001484392E+02  0.33512212591E+03  0.10566000000E+00 0.  1.
         13    1    1    2    0    0 -0.28432992826E+03  0.21935657893E+03  0.21433975519E+04  0.21732726229E+04  0.10566000000E+00 0. -1.
         -4    1    1    2    0  502  0.10867411689E+02 -0.37970586457E+02 -0.44460495073E+03  0.44635571945E+03  0.00000000000E+00 0. -1.
</event>
<event>
 5    1  0.4419198E-005  0.6820494E+03  0.7818608E-02  0.9149433E-01
         21   -1    0    0  501  502  0.00000000000E+00  0.00000000000E+00  0.28297976078E+03  0.28297976078E+03  0.00000000000E+00 0. -1.
         -4   -1    0    0    0  501 -0.00000000000E+00 -0.00000000000E+00 -0.30633795889E+04  0.30633795889E+04  0.00000000000E+00 0. -1.
        -13    1    1    2    0    0  0.15133120866E+03 -0.63699437472E+03 -0.11490663482E+04  0.13225038570E+04  0.10566000000E+00 0.  1.
         13    1    1    2    0    0 -0.27620278721E+03  0.65220404735E+03 -0.17264892111E+04  0.18661251582E+04  0.10566000000E+00 0. -1.
         -4    1    1    2    0  502  0.12487157855E+03 -0.15209672628E+02  0.95155731063E+02  0.15773033451E+03  0.00000000000E+00 0. -1.
</event>
<event>
 5    1  0.4419198E-005  0.1430035E+03  0.7818608E-02  0.1108224E+00
         -4   -1    0    0    0  501 -0.00000000000E+00  0.00000000000E+00  0.15532945613E+04  0.15532945613E+04  0.00000000000E+00 0. -1.
         21   -1    0    0  501  502  0.00000000000E+00 -0.00000000000E+00 -0.31152817021E+03  0.31152817021E+03  0.00000000000E+00 0. -1.
        -13    1    1    2    0    0 -0.13768170904E+03 -0.71571668534E+02  0.65664804216E+03  0.67473359126E+03  0.10566000000E+00 0.  1.
         13    1    1    2    0    0  0.14648454100E+03 -0.38329856511E+02  0.87080222771E+03  0.88386844586E+03  0.10566000000E+00 0. -1.
         -4    1    1    2    0  502 -0.88028319637E+01  0.10990152504E+03 -0.28568387879E+03  0.30622069436E+03  0.00000000000E+00 0. -1.
</event>
<event>
 5    1  0.4419198E-005  0.1214970E+03  0.7818608E-02  0.1133199E+00
          4   -1    0    0  502    0 -0.00000000000E+00  0.00000000000E+00  0.57284937480E+03  0.57284937480E+03  0.00000000000E+00 0.  1.
         21   -1    0    0  501  502  0.00000000000E+00 -0.00000000000E+00 -0.30297971163E+02  0.30297971163E+02  0.00000000000E+00 0. -1.
        -13    1    1    2    0    0 -0.73644381999E+02 -0.98088290928E+02  0.31218359875E+03  0.33541529230E+03  0.10566000000E+00 0.  1.
         13    1    1    2    0    0  0.63248156279E+02  0.10229987943E+03  0.22536397329E+03  0.25544965497E+03  0.10566000000E+00 0. -1.
          4    1    1    2  501    0  0.10396225720E+02 -0.42115885022E+01  0.50038315985E+01  0.12282398691E+02  0.00000000000E+00 0.  1.
</event>
<event>
 5    1  0.4419198E-005  0.4079654E+03  0.7818608E-02  0.9945483E-01
         21   -1    0    0  501  502  0.00000000000E+00  0.00000000000E+00  0.26342348792E+03  0.26342348792E+03  0.00000000000E+00 0. -1.
         -4   -1    0    0    0  501 -0.00000000000E+00 -0.00000000000E+00 -0.14546910402E+04  0.14546910402E+04  0.00000000000E+00 0. -1.
        -13    1    1    2    0    0 -0.91083720198E+02 -0.15650302091E+03 -0.37878887715E+03  0.41984576246E+03  0.10566000000E+00 0.  1.
         13    1    1    2    0    0  0.28622414712E+03  0.47014864560E+03 -0.73929240620E+03  0.92169261925E+03  0.10566000000E+00 0. -1.
         -4    1    1    2    0  502 -0.19514042692E+03 -0.31364562469E+03 -0.73186268967E+02  0.37657614644E+03  0.00000000000E+00 0. -1.
</event>
<event>
 5    1  0.4419198E-005  0.4193280E+03  0.7818608E-02  0.9987815E-01
          4   -1    0    0  502    0 -0.00000000000E+00  0.00000000000E+00  0.68255478051E+03  0.68255478051E+03  0.00000000000E+00 0.  1.
         21   -1    0    0  501  502  0.00000000000E+00 -0.00000000000E+00 -0.10869021923E+04  0.10869021923E+04  0.00000000000E+00 0.  1.
        -13    1    1    2    0    0  0.10578931712E+03 -0.69405292644E+02  0.32545824862E+03  0.34918699435E+03  0.10566000000E+00 0.  1.
         13    1    1    2    0    0 -0.41508898501E+03  0.35254781576E+03  0.37468382394E+02  0.54588709338E+03  0.10566000000E+00 0. -1.
          4    1    1    2  501    0  0.30929966789E+03 -0.28314252312E+03 -0.76727404277E+03  0.87438288505E+03  0.00000000000E+00 0.  1.
</event>
<event>
 5    1  0.4419198E-005  0.1474064E+02  0.7818608E-02  0.1600626E+00
         21   -1    0    0  501  502  0.00000000000E+00  0.00000000000E+00  0.68599865761E+02  0.68599865761E+02  0.00000000000E+00 0.  1.
          4   -1    0    0  502    0 -0.00000000000E+00 -0.00000000000E+00 -0.82398704171E+02  0.82398704171E+02  0.00000000000E+00 0.  1.
        -13    1    1    2    0    0  0.13232867308E+02 -0.81116865757E+00 -0.54475690917E+02  0.56065843762E+02  0.10566000000E+00 0.  1.
         13    1    1    2    0    0 -0.27512154801E+02  0.47789962247E+01 -0.18783035052E+02  0.33653692762E+02  0.10566000000E+00 0. -1.
          4    1    1    2  501    0  0.14279287492E+02 -0.39678275671E+01  0.59459887559E+02  0.61279033408E+02  0.00000000000E+00 0.  1.
</event>
<event>
 5    1  0.4419198E-005  0.3823794E+03  0.7818608E-02  0.9781360E-01
         21   -1    0    0  501  502  0.00000000000E+00  0.00000000000E+00  0.82359223392E+03  0.82359223392E+03  0.00000000000E+00 0. -1.
         -4   -1    0    0    0  501 -0.00000000000E+00 -0.00000000000E+00 -0.45128560835E+03  0.45128560835E+03  0.00000000000E+00 0. -1.
        -13    1    1    2    0    0  0.13035648405E+03 -0.37276942540E+03 -0.11895840574E+03  0.41243298960E+03  0.10566000000E+00 0.  1.
         13    1    1    2    0    0 -0.11692280544E+03  0.34775329095E+03 -0.34660312176E+01  0.36689960253E+03  0.10566000000E+00 0. -1.
         -4    1    1    2    0  502 -0.13433678611E+02  0.25016134452E+02  0.49473106253E+03  0.49554525014E+03  0.00000000000E+00 0. -1.
</event>
<event>
 5    1  0.4419198E-005  0.5771791E+02  0.7818608E-02  0.1302277E+00
         -4   -1    0    0    0  501 -0.00000000000E+00  0.00000000000E+00  0.80816149204E+02  0.80816149204E+02  0.00000000000E+00 0. -1.
         21   -1    0    0  501  502  0.00000000000E+00 -0.00000000000E+00 -0.81356836050E+02  0.81356836050E+02  0.00000000000E+00 0. -1.
        -13    1    1    2    0    0  0.12057839943E+02  0.23592611467E+02 -0.13980971039E+02  0.29957996181E+02  0.10566000000E+00 0.  1.
         13    1    1    2    0    0 -0.10809335528E+01 -0.74246320866E+02  0.26369055047E+02  0.78797352796E+02  0.10566000000E+00 0. -1.
         -4    1    1    2    0  502 -0.10976906390E+02  0.50653709399E+02 -0.12928770855E+02  0.53417636278E+02  0.00000000000E+00 0. -1.
</event>
<event>
 5    1  0.4419198E-005  0.6080238E+02  0.7818608E-02  0.1253151E+00
         21   -1    0    0  501  502  0.00000000000E+00  0.00000000000E+00  0.98802699437E+02  0.98802699437E+02  0.00000000000E+00 0.  1.
          4   -1    0    0  502    0 -0.00000000000E+00 -0.00000000000E+00 -0.23501989885E+03  0.23501989885E+03  0.00000000000E+00 0.  1.
        -13    1    1    2    0    0 -0.44772180995E+00 -0.55812300194E+02 -0.84784873472E+02  0.10150713887E+03  0.10566000000E+00 0.  1.
         13    1    1    2    0    0  0.60132449343E+02  0.56123475995E+02 -0.11740427476E+03  0.14335107574E+03  0.10566000000E+00 0. -1.
          4    1    1    2  501    0 -0.59684727533E+02 -0.31117580125E+00  0.65971948818E+02  0.88964383671E+02  0.00000000000E+00 0.  1.
</event>
<event>
 5    1  0.4419198E-005  0.1654234E+03  0.7818608E-02  0.1086823E+00
          4   -1    0    0  502    0 -0.00000000000E+00  0.00000000000E+00  0.19773865507E+04  0.19773865507E+04  0.00000000000E+00 0.  1.
         21   -1    0    0  501  502  0.00000000000E+00 -0.00000000000E+00 -0.21585744602E+02  0.21585744602E+02  0.00000000000E+00 0.  1.
        -13    1    1    2    0    0  0.10536930075E+03 -0.16137939251E+03  0.80155182254E+03  0.82439755776E+03  0.10566000000E+00 0.  1.
         13    1    1    2    0    0 -0.91280361351E+02  0.11170430900E+03  0.56711450225E+03  0.58517418505E+03  0.10566000000E+00 0. -1.
          4    1    1    2  501    0 -0.14088939396E+02  0.49675083514E+02  0.58713448131E+03  0.58940055250E+03  0.00000000000E+00 0.  1.
</event>
<event>
 5    1  0.4419198E-005  0.6512845E+02  0.7818608E-02  0.1240120E+00
         21   -1    0    0  501  502  0.00000000000E+00  0.00000000000E+00  0.10547302591E+03  0.10547302591E+03  0.00000000000E+00 0.  1.
         -4   -1    0    0    0  501 -0.00000000000E+00 -0.00000000000E+00 -0.74302270224E+02  0.74302270224E+02  0.00000000000E+00 0. -1.
        -13    1    1    2    0    0  0.62534172131E+02  0.10398935931E+02  0.21788836118E+02  0.67033014970E+02  0.10566000000E+00 0.  1.
         13    1    1    2    0    0 -0.66347646581E+02  0.10605384785E+02 -0.25483640875E+02  0.71860361184E+02  0.10566000000E+00 0. -1.
         -4    1    1    2    0  502  0.38134744503E+01 -0.21004320716E+02  0.34865560444E+02  0.40881919979E+02  0.00000000000E+00 0. -1.
</event>
<event>
 5    1  0.4419198E-005  0.3856409E+03  0.7818608E-02  0.9905819E-01
          4   -1    0    0  502    0 -0.00000000000E+00  0.00000000000E+00  0.58135303787E+03  0.58135303787E+03  0.00000000000E+00 0.  1.
         21   -1    0    0  501  502  0.00000000000E+00 -0.00000000000E+00 -0.71305777325E+03  0.71305777325E+03  0.00000000000E+00 0.  1.
        -13    1    1    2    0    0  0.41515452904E+02  0.39093041500E+03 -0.40786733087E+03  0.56648556289E+03  0.10566000000E+00 0.  1.
         13    1    1    2    0    0 -0.24283604970E+03 -0.29593252792E+02  0.29698983545E+02  0.24642878978E+03  0.10566000000E+00 0. -1.
          4    1    1    2  501    0  0.20132059680E+03 -0.36133716221E+03  0.24646361195E+03  0.48149645845E+03  0.00000000000E+00 0.  1.
</event>
<event>
 5    1  0.4419198E-005  0.1092008E+03  0.7818608E-02  0.1150169E+00
          4   -1    0    0  502    0 -0.00000000000E+00  0.00000000000E+00  0.16573314351E+03  0.16573314351E+03  0.00000000000E+00 0.  1.
         21   -1    0    0  501  502  0.00000000000E+00 -0.00000000000E+00 -0.29039231231E+03  0.29039231231E+03  0.00000000000E+00 0.  1.
        -13    1    1    2    0    0  0.11151150365E+03  0.12212354598E+02  0.99416837560E+02  0.14989221396E+03  0.10566000000E+00 0.  1.
         13    1    1    2    0    0 -0.10225124467E+03  0.23595133448E+01 -0.23536281238E+02  0.10495166525E+03  0.10566000000E+00 0. -1.
          4    1    1    2  501    0 -0.92602589743E+01 -0.14571867943E+02 -0.20053972512E+03  0.20128157661E+03  0.00000000000E+00 0.  1.
</event>
<event>
 5    1  0.4419198E-005  0.2127368E+03  0.7818608E-02  0.1084601E+00
          4   -1    0    0  502    0 -0.00000000000E+00  0.00000000000E+00  0.16245687316E+03  0.16245687316E+03  0.00000000000E+00 0.  1.
         21   -1    0    0  501  502  0.00000000000E+00 -0.00000000000E+00 -0.11856977026E+04  0.11856977026E+04  0.00000000000E+00 0.  1.
        -13    1    1    2    0    0  0.14341314885E+03 -0.22172157922E+03 -0.19822570160E+01  0.26406766266E+03  0.10566000000E+00 0.  1.
         13    1    1    2    0    0 -0.79566991294E+02  0.22685031846E+02 -0.64907910874E+02  0.10515971107E+03  0.10566000000E+00 0. -1.
          4    1    1    2  501    0 -0.63846157558E+02  0.19903654737E+03 -0.95635066153E+03  0.97892720201E+03  0.00000000000E+00 0.  1.
</event>
<event>
 5    1  0.4419198E-005  0.1364918E+03  0.7818608E-02  0.1115255E+00
         21   -1    0    0  501  502  0.00000000000E+00  0.00000000000E+00  0.17589854524E+02  0.17589854524E+02  0.00000000000E+00 0. -1.
          4   -1    0    0  502    0 -0.00000000000E+00 -0.00000000000E+00 -0.13272356182E+04  0.13272356182E+04  0.00000000000E+00 0.  1.
        -13    1    1    2    0    0 -0.27626851652E+01  0.14818142347E+03 -0.60120167798E+03  0.61920015783E+03  0.10566000000E+00 0.  1.
         13    1    1    2    0    0  0.21573134002E+02 -0.12617956182E+03 -0.57440975166E+03  0.58850085463E+03  0.10566000000E+00 0. -1.
          4    1    1    2  501    0 -0.18810448837E+02 -0.22001861656E+02 -0.13403433403E+03  0.13712446026E+03  0.00000000000E+00 0.  1.
</event>
<event>
 5    1  0.4419198E-005  0.4421387E+03  0.7818608E-02  0.9967980E-01
         21   -1    0    0  501  502  0.00000000000E+00  0.00000000000E+00  0.25414930474E+03  0.25414930474E+03  0.00000000000E+00 0. -1.
         -4   -1    0    0    0  501 -0.00000000000E+00 -0.00000000000E+00 -0.13990566017E+04  0.13990566017E+04  0.00000000000E+00 0. -1.
        -13    1    1    2    0    0 -0.12497029756E+03  0.42671186890E+02 -0.27685084988E+03  0.30673247253E+03  0.10566000000E+00 0.  1.
         13    1    1    2    0    0  0.53582191874E+03 -0.27886660080E+02 -0.74353508627E+03  0.91691178970E+03  0.10566000000E+00 0. -1.
         -4    1    1    2    0  502 -0.41085162118E+03 -0.14784526811E+02 -0.12452136079E+03  0.42956164418E+03  0.00000000000E+00 0. -1.
</event>
<event>
 5    1  0.4419198E-005  0.4412185E+03  0.7818608E-02  0.9809645E-01
         21   -1    0    0  501  502  0.00000000000E+00  0.00000000000E+00  0.54197786529E+03  0.54197786529E+03  0.00000000000E+00 0.  1.
          4   -1    0    0  502    0 -0.00000000000E+00 -0.00000000000E+00 -0.16975759139E+04  0.16975759139E+04  0.00000000000E+00 0.  1.
        -13    1    1    2    0    0  0.42368720611E+03  0.18090149276E+03  0.26735572935E+03  0.53264931792E+03  0.10566000000E+00 0.  1.
         13    1    1    2    0    0 -0.16025204418E+03  0.15930936411E+03 -0.12022905903E+04  0.12233408625E+04  0.10566000000E+00 0. -1.
          4    1    1    2  501    0 -0.26343516192E+03 -0.34021085686E+03 -0.22066318764E+03  0.48356359876E+03  0.00000000000E+00 0.  1.
</event>
<event>
 5    1  0.4419198E-005  0.1579911E+03  0.7818608E-02  0.1093487E+00
         21   -1    0    0  501  502  0.00000000000E+00  0.00000000000E+00  0.40967759177E+03  0.40967759177E+03  0.00000000000E+00 0.  1.
          4   -1    0    0  502    0 -0.00000000000E+00 -0.00000000000E+00 -0.11717252387E+03  0.11717252387E+03  0.00000000000E+00 0.  1.
        -13    1    1    2    0    0 -0.87598540523E+02 -0.12977296356E+03 -0.25970888907E+02  0.15871050566E+03  0.10566000000E+00 0.  1.
         13    1    1    2    0    0  0.77680180158E+02  0.14563651717E+03  0.27379380172E+03  0.31969870589E+03  0.10566000000E+00 0. -1.
          4    1    1    2  501    0  0.99183603651E+01 -0.15863553604E+02  0.44682155090E+02  0.48440904087E+02  0.00000000000E+00 0.  1.
</event>
<event>
 5    1  0.4419198E-005  0.3884891E+03  0.7818608E-02  0.9861299E-01
         21   -1    0    0  501  502  0.00000000000E+00  0.00000000000E+00  0.41926501000E+03  0.41926501000E+03  0.00000000000E+00 0.  1.
          4   -1    0    0  502    0 -0.00000000000E+00 -0.00000000000E+00 -0.21242513727E+04  0.21242513727E+04  0.00000000000E+00 0.  1.
        -13    1    1    2    0    0  0.27369011666E+03 -0.82702232133E+01  0.92677036184E+02  0.28907390188E+03  0.10566000000E+00 0.  1.
         13    1    1    2    0    0  0.44542703293E+03  0.11228223748E+03 -0.12865057976E+04  0.13660562657E+04  0.10566000000E+00 0. -1.
          4    1    1    2  501    0 -0.71911714959E+03 -0.10401201427E+03 -0.51115760127E+03  0.88838621515E+03  0.00000000000E+00 0.  1.
</event>
<event>
 5    1  0.4419198E-005  0.4464521E+03  0.7818608E-02  0.9980258E-01
         -4   -1    0    0    0  501 -0.00000000000E+00  0.00000000000E+00  0.19927987806E+04  0.19927987806E+04  0.00000000000E+00 0. -1.
         21   -1    0    0  501  502  0.00000000000E+00 -0.00000000000E+00 -0.16415425877E+03  0.16415425877E+03  0.00000000000E+00 0. -1.
        -13    1    1    2    0    0  0.11739557803E+03 -0.37299859484E+02  0.33549882618E+03  0.35739680299E+03  0.10566000000E+00 0.  1.
         13    1    1    2    0    0  0.32962406199E+03  0.27134429108E+03  0.35747754552E+03  0.55683925262E+03  0.10566000000E+00 0. -1.
         -4    1    1    2    0  502 -0.44701964001E+03 -0.23404443159E+03  0.11356681501E+04  0.12427169837E+04  0.00000000000E+00 0. -1.
</event>
<event>
 5    1  0.4419198E-005  0.3482659E+03  0.7818608E-02  0.1011884E+00
         -4   -1    0    0    0  501 -0.00000000000E+00  0.00000000000E+00  0.15566348177E+04  0.15566348177E+04  0.00000000000E+00 0. -1.
         21   -1    0    0  501  502  0.00000000000E+00 -0.00000000000E+00 -0.22281869697E+03  0.22281869697E+03  0.00000000000E+00 0. -1.
        -13    1    1    2    0    0 -0.39557476547E+02 -0.16070742673E+03  0.22343044923E+03  0.27805187963E+03  0.10566000000E+00 0.  1.
         13    1    1    2    0    0  0.31262924337E+03  0.18730268225E+03  0.70995854003E+01  0.36451303662E+03  0.10566000000E+00 0. -1.
         -4    1    1    2    0  502 -0.27307176682E+03 -0.26595255515E+02  0.11032860860E+04  0.11368885984E+04  0.00000000000E+00 0. -1.
</event>
<event>
 5    1  0.4419198E-005  0.3598709E+03  0.7818608E-02  0.9852687E-01
         21   -1    0    0  501  502  0.00000000000E+00  0.00000000000E+00  0.19088244297E+04  0.19088244297E+04  0.00000000000E+00 0. -1.
          4   -1    0    0  502    0 -0.00000000000E+00 -0.00000000000E+00 -0.13065200379E+03  0.13065200379E+03  0.00000000000E+00 0.  1.
        -13    1    1    2    0    0  0.29344683506E+03  0.21691085788E+03  0.20874176032E+03  0.42039802442E+03  0.10566000000E+00 0.  1.
         13    1    1    2    0    0 -0.28364642753E+03 -0.18927534858E+03  0.11728764296E+04  0.12214416006E+04  0.10566000000E+00 0. -1.
          4    1    1    2  501    0 -0.98004075326E+01 -0.27635509301E+02  0.39655423602E+03  0.39763680849E+03  0.00000000000E+00 0.  1.
</event>
<event>
 5    1  0.4419198E-005  0.4425112E+03  0.7818608E-02  0.9613745E-01
         -4   -1    0    0    0  501 -0.00000000000E+00  0.00000000000E+00  0.54638194548E+03  0.54638194548E+03  0.00000000000E+00 0. -1.
         21   -1    0    0  501  502  0.00000000000E+00 -0.00000000000E+00 -0.12866225936E+04  0.12866225936E+04  0.00000000000E+00 0. -1.
        -13    1    1    2    0    0  0.12873782062E+03 -0.39092663923E+03  0.14277997423E+03  0.43564113204E+03  0.10566000000E+00 0.  1.
         13    1    1    2    0    0 -0.47432310617E+03  0.49075912342E+03 -0.74942711007E+03  0.10136409279E+04  0.10566000000E+00 0. -1.
         -4    1    1    2    0  502  0.34558528555E+03 -0.99832484183E+02 -0.13359351232E+03  0.38372247917E+03  0.00000000000E+00 0. -1.
</event>
<event>
 5    1  0.4419198E-005  0.1368711E+02  0.7818608E-02  0.1642290E+00
         21   -1    0    0  501  502  0.00000000000E+00  0.00000000000E+00  0.85783315725E+02  0.85783315725E+02  0.00000000000E+00 0.  1.
          4   -1    0    0  502    0 -0.00000000000E+00 -0.00000000000E+00 -0.13706644192E+02  0.13706644192E+02  0.00000000000E+00 0.  1.
        -13    1    1    2    0    0 -0.49785201408E+01  0.22958959765E+02  0.84111494217E+01  0.24953117940E+02  0.10566000000E+00 0.  1.
         13    1    1    2    0    0  0.57025841164E+00 -0.10818349486E+02  0.13743953235E+01  0.10920714574E+02  0.10566000000E+00 0. -1.
          4    1    1    2  501    0  0.44082617291E+01 -0.12140610279E+02  0.62291126787E+02  0.63616127403E+02  0.00000000000E+00 0.  1.
</event>
<event>
 5    1  0.4419198E-005  0.5456395E+03  0.7818608E-02  0.9383183E-01
         -4   -1    0    0    0  501 -0.00000000000E+00  0.00000000000E+00  0.26761763331E+04  0.26761763331E+04  0.00000000000E+00 0. -1.
         21   -1    0    0  501  502  0.00000000000E+00 -0.00000000000E+00 -0.28206779203E+03  0.28206779203E+03  0.00000000000E+00 0.  1.
        -13    1    1    2    0    0  0.44201103628E+03 -0.10927097381E+03  0.19531443267E+03  0.49544085488E+03  0.10566000000E+00 0.  1.
         13    1    1    2    0    0 -0.39324077816E+03  0.44083578717E+03  0.19708955894E+04  0.20575237390E+04  0.10566000000E+00 0. -1.
         -4    1    1    2    0  502 -0.48770258124E+02 -0.33156481336E+03  0.22789851901E+03  0.40527953132E+03  0.00000000000E+00 0. -1.
</event>
<event>
 5    1  0.4419198E-005  0.2508541E+03  0.7818608E-02  0.1038805E+00
         21   -1    0    0  501  502  0.00000000000E+00  0.00000000000E+00  0.13320170218E+04  0.13320170218E+04  0.00000000000E+00 0.  1.
          4   -1    0    0  502    0 -0.00000000000E+00 -0.00000000000E+00 -0.27423313428E+03  0.27423313428E+03  0.00000000000E+00 0.  1.
        -13    1    1    2    0    0 -0.12426115639E+03 -0.22005136148E+03  0.94754523004E+03  0.98066579976E+03  0.10566000000E+00 0.  1.
         13    1    1    2    0    0  0.17989736767E+03 -0.64949710605E+02  0.24053667335E+03  0.30730999038E+03  0.10566000000E+00 0. -1.
          4    1    1    2  501    0 -0.55636211276E+02  0.28500107208E+03 -0.13029801584E+03  0.31827436596E+03  0.00000000000E+00 0.  1.
</event>
<event>
 5    1  0.4915121E-005  0.4561867E+03  0.7818608E-02  0.9887932E-01
          4   -1    0    0  502    0 -0.00000000000E+00  0.00000000000E+00  0.20579839925E+04  0.20579839925E+04  0.00000000000E+00 0.  1.
         21   -1    0    0  501  502  0.00000000000E+00 -0.00000000000E+00 -0.78417405198E+03  0.78417405198E+03  0.00000000000E+00 0. -1.
        -13    1    1    2    0    0  0.19330212615E+03  0.55683772821E+02  0.51799974429E+03  0.55568888847E+03  0.10566000000E+00 0.  1.
         13    1    1    2    0    0 -0.75106953998E+03 -0.59784594757E+03  0.10789426166E+04  0.14441753398E+04  0.10566000000E+00 0. -1.
          4    1    1    2  501    0  0.55776741384E+03  0.54216217475E+03 -0.32313242041E+03  0.84229381619E+03  0.00000000000E+00 0.  1.
</event>
<event>
 5    1  0.4419198E-005  0.5819108E+02  0.7818608E-02  0.1261618E+00
         21   -1    0    0  501  502  0.00000000000E+00  0.00000000000E+00  0.23459159190E+03  0.23459159190E+03  0.00000000000E+00 0. -1.
         -4   -1    0    0    0  501 -0.00000000000E+00 -0.00000000000E+00 -0.86800031530E+02  0.86800031530E+02  0.00000000000E+00 0. -1.
        -13    1    1    2    0    0 -0.53271109640E+02 -0.46931154164E+02  0.78153449684E+02  0.10558559189E+03  0.10566000000E+00 0.  1.
         13    1    1    2    0    0  0.51970912432E+02  0.23313586852E+02 -0.60757448105E+02  0.83282517585E+02  0.10566000000E+00 0. -1.
         -4    1    1    2    0  502  0.13001972075E+01  0.23617567311E+02  0.13039555879E+03  0.13252351395E+03  0.00000000000E+00 0. -1.
</event>
<event>
 5    1  0.4419198E-005  0.7374334E+02  0.7818608E-02  0.1217235E+00
         -4   -1    0    0    0  501 -0.00000000000E+00  0.00000000000E+00  0.12421271195E+03  0.12421271195E+03  0.00000000000E+00 0. -1.
         21   -1    0    0  501  502  0.00000000000E+00 -0.00000000000E+00 -0.33376971821E+03  0.33376971821E+03  0.00000000000E+00 0.  1.
        -13    1    1    2    0    0 -0.55890710564E+02  0.57090444964E+02 -0.16488146788E+03  0.18321844899E+03  0.10566000000E+00 0.  1.
         13    1    1    2    0    0  0.38925859581E+02 -0.62280406567E+02  0.10273615796E+03  0.12628856204E+03  0.10566000000E+00 0. -1.
         -4    1    1    2    0  502  0.16964850983E+02  0.51899616024E+01 -0.14741169633E+03  0.14847541913E+03  0.00000000000E+00 0. -1.
</event>
<event>
 5    1  0.4419198E-005  0.7151917E+02  0.7818608E-02  0.1222797E+00
         21   -1    0    0  501  502  0.00000000000E+00  0.00000000000E+00  0.17966559520E+03  0.17966559520E+03  0.00000000000E+00 0.  1.
          4   -1    0    0  502    0 -0.00000000000E+00 -0.00000000000E+00 -0.15316702655E+03  0.15316702655E+03  0.00000000000E+00 0.  1.
        -13    1    1    2    0    0  0.34798477041E+02 -0.92372819415E+02 -0.66485607733E+02  0.11901268408E+03  0.10566000000E+00 0.  1.
         13    1    1    2    0    0 -0.46263102881E+02  0.36917835657E+02 -0.38535620318E+02  0.70627236071E+02  0.10566000000E+00 0. -1.
          4    1    1    2  501    0  0.11464625840E+02  0.55454983759E+02  0.13151979670E+03  0.14319270161E+03  0.00000000000E+00 0.  1.
</event>
<event>
 5    1  0.4419198E-005  0.8006439E+02  0.7818608E-02  0.1202549E+00
         21   -1    0    0  501  502  0.00000000000E+00  0.00000000000E+00  0.94443681705E+02  0.94443681705E+02  0.00000000000E+00 0.  1.
          4   -1    0    0  502    0 -0.00000000000E+00 -0.00000000000E+00 -0.11357455416E+03  0.11357455416E+03  0.00000000000E+00 0.  1.
        -13    1    1    2    0    0 -0.73216661354E+01  0.98057437490E+02  0.32374382373E+01  0.98383738557E+02  0.10566000000E+00 0.  1.
         13    1    1    2    0    0  0.14412732224E+02 -0.70537990129E+02 -0.33122639151E+02  0.79249323593E+02  0.10566000000E+00 0. -1.
          4    1    1    2  501    0 -0.70910660881E+01 -0.27519447361E+02  0.10754328456E+02  0.30385173718E+02  0.00000000000E+00 0.  1.
</event>
<event>
 5    1  0.4419198E-005  0.4922124E+03  0.7818608E-02  0.9909630E-01
          4   -1    0    0  502    0 -0.00000000000E+00  0.00000000000E+00  0.22705117895E+04  0.22705117895E+04  0.00000000000E+00 0.  1.
         21   -1    0    0  501  502  0.00000000000E+00 -0.00000000000E+00 -0.14132525985E+03  0.14132525985E+03  0.00000000000E+00 0.  1.
        -13    1    1    2    0    0 -0.40479011437E+03  0.34673852845E+03  0.72832249146E+03  0.90251665166E+03  0.10566000000E+00 0.  1.
         13    1    1    2    0    0  0.30913248472E+02 -0.11197694244E+03  0.37270221794E+03  0.39038624334E+03  0.10566000000E+00 0. -1.
          4    1    1    2  501    0  0.37387686590E+03 -0.23476158601E+03  0.10281618203E+04  0.11189341544E+04  0.00000000000E+00 0.  1.
</event>
<event>
 5    1  0.4419198E-005  0.4282652E+03  0.7818608E-02  0.1001302E+00
         21   -1    0    0  501  502  0.00000000000E+00  0.00000000000E+00  0.10346090904E+04  0.10346090904E+04  0.00000000000E+00 0. -1.
         -4   -1    0    0    0  501 -0.00000000000E+00 -0.00000000000E+00 -0.34610499279E+03  0.34610499279E+03  0.00000000000E+00 0. -1.
        -13    1    1    2    0    0 -0.49161495567E+02  0.11528826247E+03  0.60145999550E+02  0.13901722388E+03  0.10566000000E+00 0.  1.
         13    1    1    2    0    0 -0.23060501636E+03  0.24080875557E+03 -0.13045222983E+03  0.35802978334E+03  0.10566000000E+00 0. -1.
         -4    1    1    2    0  502  0.27976651192E+03 -0.35609701804E+03  0.75881032793E+03  0.88366707601E+03  0.00000000000E+00 0. -1.
</event>
<event>
 5    1  0.4419198E-005  0.2339360E+03  0.7818608E-02  0.1039071E+00
         21   -1    0    0  501  502  0.00000000000E+00  0.00000000000E+00  0.51800061139E+03  0.51800061139E+03  0.00000000000E+00 0.  1.
         -4   -1    0    0    0  501 -0.00000000000E+00 -0.00000000000E+00 -0.31695328399E+03  0.31695328399E+03  0.00000000000E+00 0. -1.
        -13    1    1    2    0    0  0.14422713495E+03 -0.24284252495E+03  0.26970419291E+03  0.39053081980E+03  0.10566000000E+00 0.  1.
         13    1    1    2    0    0 -0.13669104050E+03  0.18073100750E+03 -0.19788643266E+03  0.30084412745E+03  0.10566000000E+00 0. -1.
         -4    1    1    2    0  502 -0.75360944500E+01  0.62111517447E+02  0.12922956715E+03  0.14357894813E+03  0.00000000000E+00 0. -1.
</event>
<event>
 5    1  0.4419198E-005  0.1825462E+03  0.7818608E-02  0.1072808E+00
         21   -1    0    0  501  502  0.00000000000E+00  0.00000000000E+00  0.13430453074E+04  0.13430453074E+04  0.00000000000E+00 0.  1.
         -4   -1    0    0    0  501 -0.00000000000E+00 -0.00000000000E+00 -0.97650631277E+02  0.97650631277E+02  0.00000000000E+00 0. -1.
        -13    1    1    2    0    0 -0.75279467207E+02  0.15350151723E+03  0.82363450891E+02  0.18977213489E+03  0.10566000000E+00 0.  1.
         13    1    1    2    0    0  0.10487789772E+03 -0.17395555751E+03  0.19289967360E+03  0.28012533741E+03  0.10566000000E+00 0. -1.
         -4    1    1    2    0  502 -0.29598430509E+02  0.20454040277E+02  0.97013155165E+03  0.97079846640E+03  0.00000000000E+00 0. -1.
</event>
<event>
 5    1  0.4419198E-005  0.6112458E+02  0.7818608E-02  0.1319995E+00
         -4   -1    0    0    0  501 -0.00000000000E+00  0.00000000000E+00  0.53611087923E+02  0.53611087923E+02  0.00000000000E+00 0. -1.
         21   -1    0    0  501  502  0.00000000000E+00 -0.00000000000E+00 -0.14779053330E+03  0.14779053330E+03  0.00000000000E+00 0. -1.
        -13    1    1    2    0    0  0.46294845390E+01  0.15223938356E+02  0.23359068621E+02  0.28264070426E+02  0.10566000000E+00 0.  1.
         13    1    1    2    0    0 -0.18531538506E+02 -0.68572884395E+02 -0.55509391471E+02  0.90149664998E+02  0.10566000000E+00 0. -1.
         -4    1    1    2    0  502  0.13902053967E+02  0.53348946040E+02 -0.62029122527E+02  0.82987885800E+02  0.00000000000E+00 0. -1.
</event>
<event>
 5    1  0.4419198E-005  0.4808130E+02  0.7818608E-02  0.1318897E+00
         21   -1    0    0  501  502  0.00000000000E+00  0.00000000000E+00  0.40751165251E+03  0.40751165251E+03  0.00000000000E+00 0. -1.
          4   -1    0    0  502    0 -0.00000000000E+00 -0.00000000000E+00 -0.16817318390E+02  0.16817318390E+02  0.00000000000E+00 0.  1.
        -13    1    1    2    0    0  0.42088613348E+02 -0.59323151365E+02  0.99333221147E+02  0.12311696735E+03  0.10566000000E+00 0.  1.
         13    1    1    2    0    0 -0.26342333291E+02  0.20494736304E+02  0.15527750865E+03  0.15882401769E+03  0.10566000000E+00 0. -1.
          4    1    1    2  501    0 -0.15746280057E+02  0.38828415061E+02  0.13608360432E+03  0.14238798586E+03  0.00000000000E+00 0.  1.
</event>
<event>
 5    1  0.4419198E-005  0.5292649E+03  0.7818608E-02  0.9416037E-01
         21   -1    0    0  501  502  0.00000000000E+00  0.00000000000E+00  0.17216169574E+03  0.17216169574E+03  0.00000000000E+00 0. -1.
          4   -1    0    0  502    0 -0.00000000000E+00 -0.00000000000E+00 -0.25486149834E+04  0.25486149834E+04  0.00000000000E+00 0.  1.
        -13    1    1    2    0    0 -0.51157602173E+03 -0.13874347136E+03 -0.19082928667E+04  0.19805406972E+04  0.10566000000E+00 0.  1.
         13    1    1    2    0    0  0.51148202562E+03  0.12629654056E+03 -0.48713629586E+03  0.71754195738E+03  0.10566000000E+00 0. -1.
          4    1    1    2  501    0  0.93996106997E-01  0.12446930798E+02  0.18975874936E+02  0.22694024569E+02  0.00000000000E+00 0.  1.
</event>
<event>
 5    1  0.4419198E-005  0.2402657E+03  0.7818608E-02  0.1035564E+00
         21   -1    0    0  501  502  0.00000000000E+00  0.00000000000E+00  0.10466890022E+03  0.10466890022E+03  0.00000000000E+00 0. -1.
          4   -1    0    0  502    0 -0.00000000000E+00 -0.00000000000E+00 -0.10524853211E+04  0.10524853211E+04  0.00000000000E+00 0.  1.
        -13    1    1    2    0    0 -0.14038213600E+03  0.21293579136E+03 -0.53536674867E+03  0.59301463902E+03  0.10566000000E+00 0.  1.
         13    1    1    2    0    0  0.13845741096E+03 -0.17976278391E+03 -0.45601548141E+03  0.50934786107E+03  0.10566000000E+00 0. -1.
          4    1    1    2  501    0  0.19247250403E+01 -0.33173007446E+02  0.43565809175E+02  0.54791721259E+02  0.00000000000E+00 0.  1.
</event>
<event>
 5    1  0.4419198E-005  0.2494034E+02  0.7818608E-02  0.1450849E+00
         21   -1    0    0  501  502  0.00000000000E+00  0.00000000000E+00  0.19847056345E+02  0.19847056345E+02  0.00000000000E+00 0.  1.
          4   -1    0    0  502    0 -0.00000000000E+00 -0.00000000000E+00 -0.73913085167E+02  0.73913085167E+02  0.00000000000E+00 0.  1.
        -13    1    1    2    0    0  0.34868724261E+02 -0.13879210068E+02 -0.20553600709E+02  0.42789275173E+02  0.10566000000E+00 0.  1.
         13    1    1    2    0    0 -0.18208937354E+02  0.55010523512E+01 -0.11953968988E+02  0.22466319572E+02  0.10566000000E+00 0. -1.
          4    1    1    2  501    0 -0.16659786907E+02  0.83781577171E+01 -0.21558459125E+02  0.28504546767E+02  0.00000000000E+00 0.  1.
</event>
<event>
 5    1  0.4419198E-005  0.2519026E+03  0.7818608E-02  0.1029411E+00
         -4   -1    0    0    0  501 -0.00000000000E+00  0.00000000000E+00  0.25483707878E+03  0.25483707878E+03  0.00000000000E+00 0. -1.
         21   -1    0    0  501  502  0.00000000000E+00 -0.00000000000E+00 -0.35232852685E+03  0.35232852685E+03  0.00000000000E+00 0.  1.
        -13    1    1    2    0    0 -0.23155981334E+03 -0.82225677904E+02 -0.11541157790E+03  0.27147900976E+03  0.10566000000E+00 0.  1.
         13    1    1    2    0    0  0.24799205048E+03  0.60683966393E+02  0.80331070436E+02  0.26764845025E+03  0.10566000000E+00 0. -1.
         -4    1    1    2    0  502 -0.16432237138E+02  0.21541711511E+02 -0.62410940602E+02  0.68038145617E+02  0.00000000000E+00 0. -1.
</event>
<event>
 5    1  0.4419198E-005  0.4275911E+03  0.7818608E-02  0.9652585E-01
         21   -1    0    0  501  502  0.00000000000E+00  0.00000000000E+00  0.26739192239E+03  0.26739192239E+03  0.00000000000E+00 0. -1.
          4   -1    0    0  502    0 -0.00000000000E+00 -0.00000000000E+00 -0.22005895507E+04  0.22005895507E+04  0.00000000000E+00 0.  1.
        -13    1    1    2    0    0  0.38900125289E+03 -0.17448454914E+03 -0.16953043540E+04  0.17480914440E+04  0.10566000000E+00 0.  1.
         13    1    1    2    0    0 -0.31647603598E+03  0.33933415433E+03 -0.27015529587E+03  0.53692517607E+03  0.10566000000E+00 0. -1.
          4    1    1    2  501    0 -0.72525216909E+02 -0.16484960519E+03  0.32262021554E+02  0.18296485306E+03  0.00000000000E+00 0.  1.
</event>
<event>
 5    1  0.4419198E-005  0.3920272E+03  0.7818608E-02  0.9825620E-01
         -4   -1    0    0    0  501 -0.00000000000E+00  0.00000000000E+00  0.22635665067E+04  0.22635665067E+04  0.00000000000E+00 0. -1.
         21   -1    0    0  501  502  0.00000000000E+00 -0.00000000000E+00 -0.21257317835E+03  0.21257317835E+03  0.00000000000E+00 0. -1.
        -13    1    1    2    0    0 -0.21365591898E+03 -0.21781146552E+03  0.12720229133E+04  0.13081028206E+04  0.10566000000E+00 0.  1.
         13    1    1    2    0    0  0.79804098652E+02  0.52665897536E+03  0.50541803418E+03  0.73429270113E+03  0.10566000000E+00 0. -1.
         -4    1    1    2    0  502  0.13385182032E+03 -0.30884750984E+03  0.27355238096E+03  0.43374416338E+03  0.00000000000E+00 0. -1.
</event>
<event>
 5    1  0.4419198E-005  0.2944702E+03  0.7818608E-02  0.1035103E+00
          4   -1    0    0  502    0 -0.00000000000E+00  0.00000000000E+00  0.29370883389E+03  0.29370883389E+03  0.00000000000E+00 0.  1.
         21   -1    0    0  501  502  0.00000000000E+00 -0.00000000000E+00 -0.14475984115E+04  0.14475984115E+04  0.00000000000E+00 0.  1.
        -13    1    1    2    0    0 -0.31678774226E+03  0.25544447774E+03 -0.28979898623E+03  0.49958965005E+03  0.10566000000E+00 0.  1.
         13    1    1    2    0    0  0.99225151475E+02 -0.87605181761E+02  0.14473852622E+03  0.19613656134E+03  0.10566000000E+00 0. -1.
          4    1    1    2  501    0  0.21756259078E+03 -0.16783929598E+03 -0.10088291176E+04  0.10455810340E+04  0.00000000000E+00 0.  1.
</event>
<event>
 5    1  0.4419198E-005  0.5009497E+02  0.7818608E-02  0.1291403E+00
          4   -1    0    0  502    0 -0.00000000000E+00  0.00000000000E+00  0.37977363518E+03  0.37977363518E+03  0.00000000000E+00 0.  1.
         21   -1    0    0  501  502  0.00000000000E+00 -0.00000000000E+00 -0.12238993096E+02  0.12238993096E+02  0.00000000000E+00 0. -1.
        -13    1    1    2    0    0  0.50545591872E+02 -0.12441450387E+02  0.29827222587E+03  0.30278041290E+03  0.10566000000E+00 0.  1.
         13    1    1    2    0    0 -0.44124351947E+02  0.47645824575E+01  0.64117261408E+02  0.77978805167E+02  0.10566000000E+00 0. -1.
          4    1    1    2  501    0 -0.64212399244E+01  0.76768679299E+01  0.51451548054E+01  0.11253410210E+02  0.00000000000E+00 0.  1.
</event>
<event>
 5    1  0.4419198E-005  0.3090393E+03  0.7818608E-02  0.1022707E+00
         21   -1    0    0  501  502  0.00000000000E+00  0.00000000000E+00  0.25716809315E+03  0.25716809315E+03  0.00000000000E+00 0. -1.
         -4   -1    0    0    0  501 -0.00000000000E+00 -0.00000000000E+00 -0.13876017276E+04  0.13876017276E+04  0.00000000000E+00 0. -1.
        -13    1    1    2    0    0 -0.75203133473E+02 -0.15034046124E+03 -0.47625192013E+03  0.50504818400E+03  0.10566000000E+00 0.  1.
         13    1    1    2    0    0  0.26445019800E+03  0.19468466156E+03  0.11378513011E+03  0.34753861896E+03  0.10566000000E+00 0. -1.
         -4    1    1    2    0  502 -0.18924706453E+03 -0.44344200315E+02 -0.76796684439E+03  0.79218301775E+03  0.00000000000E+00 0. -1.
</event>
<event>
 5    1  0.4419198E-005  0.2061353E+03  0.7818608E-02  0.1056009E+00
         21   -1    0    0  501  502  0.00000000000E+00  0.00000000000E+00  0.29346577439E+03  0.29346577439E+03  0.00000000000E+00 0. -1.
          4   -1    0    0  502    0 -0.00000000000E+00 -0.00000000000E+00 -0.19197865202E+03  0.19197865202E+03  0.00000000000E+00 0.  1.
        -13    1    1    2    0    0  0.19393294796E+03 -0.70104674943E+02  0.24717177506E+02  0.20769112591E+03  0.10566000000E+00 0.  1.
         13    1    1    2    0    0 -0.19711994803E+03  0.60454491692E+02  0.60124343069E+01  0.20626967787E+03  0.10566000000E+00 0. -1.
          4    1    1    2  501    0  0.31870000738E+01  0.96501832512E+01  0.70757510557E+02  0.71483622645E+02  0.00000000000E+00 0.  1.
</event>
<event>
 5    1  0.4419198E-005  0.8177066E+02  0.7818608E-02  0.1198840E+00
         21   -1    0    0  501  502  0.00000000000E+00  0.00000000000E+00  0.17862990752E+03  0.17862990752E+03  0.00000000000E+00 0.  1.
         -4   -1    0    0    0  501 -0.00000000000E+00 -0.00000000000E+00 -0.85828292800E+02  0.85828292800E+02  0.00000000000E+00 0. -1.
        -13    1    1    2    0    0 -0.58920735299E+02  0.27269998054E+02  0.37445585767E+02  0.74949909270E+02  0.10566000000E+00 0.  1.
         13    1    1    2    0    0  0.80855639325E+02 -0.42686007676E+02 -0.32976535556E+02  0.97196670330E+02  0.10566000000E+00 0. -1.
         -4    1    1    2    0  502 -0.21934904026E+02  0.15416009622E+02  0.88332564508E+02  0.92311620720E+02  0.00000000000E+00 0. -1.
</event>
<event>
 5    1  0.4419198E-005  0.4812221E+03  0.7818608E-02  0.9778498E-01
         21   -1    0    0  501  502  0.00000000000E+00  0.00000000000E+00  0.42732773274E+03  0.42732773274E+03  0.00000000000E+00 0.  1.
         -4   -1    0    0    0  501 -0.00000000000E+00 -0.00000000000E+00 -0.96700528817E+03  0.96700528817E+03  0.00000000000E+00 0. -1.
        -13    1    1    2    0    0 -0.14998624387E+03  0.12262222312E+03  0.66431834091E+02  0.20480547527E+03  0.10566000000E+00 0.  1.
         13    1    1    2    0    0  0.19065467320E+03 -0.55090764149E+03 -0.43124799975E+03  0.72513673354E+03  0.10566000000E+00 0. -1.
         -4    1    1    2    0  502 -0.40668429324E+02  0.42828541838E+03 -0.17486138977E+03  0.46439081211E+03  0.00000000000E+00 0. -1.
</event>
<event>
 5    1  0.4419198E-005  0.4579948E+03  0.7818608E-02  0.9719277E-01
         21   -1    0    0  501  502  0.00000000000E+00  0.00000000000E+00  0.24295644997E+03  0.24295644997E+03  0.00000000000E+00 0.  1.
          4   -1    0    0  502    0 -0.00000000000E+00 -0.00000000000E+00 -0.20309397742E+04  0.20309397742E+04  0.00000000000E+00 0.  1.
        -13    1    1    2    0    0 -0.12377282716E+03  0.31829444525E+03 -0.82729874237E+03  0.89501636126E+03  0.10566000000E+00 0.  1.
         13    1    1    2    0    0  0.19067930539E+03  0.19906355575E+03 -0.77924051745E+03  0.82655955136E+03  0.10566000000E+00 0. -1.
          4    1    1    2  501    0 -0.66906478229E+02 -0.51735800100E+03 -0.18144406438E+03  0.55232031153E+03  0.00000000000E+00 0.  1.
</event>
<event>
 5    1  0.4419198E-005  0.6494737E+03  0.7818608E-02  0.9199684E-01
         21   -1    0    0  501  502  0.00000000000E+00  0.00000000000E+00  0.19887121901E+03  0.19887121901E+03  0.00000000000E+00 0. -1.
         -4   -1    0    0    0  501 -0.00000000000E+00 -0.00000000000E+00 -0.40249593016E+04  0.40249593016E+04  0.00000000000E+00 0. -1.
        -13    1    1    2    0    0  0.54195888211E+03  0.29193337956E+03 -0.15727399162E+04  0.16889213668E+04  0.10566000000E+00 0.  1.
         13    1    1    2    0    0 -0.65788324400E+03 -0.19250238897E+03 -0.22791690500E+04  0.23800166181E+04  0.10566000000E+00 0. -1.
         -4    1    1    2    0  502  0.11592436189E+03 -0.99430990591E+02  0.25820883736E+02  0.15489253567E+03  0.00000000000E+00 0. -1.
</event>
<event>
 5    1  0.4419198E-005  0.1062717E+03  0.7818608E-02  0.1154576E+00
         21   -1    0    0  501  502  0.00000000000E+00  0.00000000000E+00  0.16735188664E+03  0.16735188664E+03  0.00000000000E+00 0. -1.
         -4   -1    0    0    0  501 -0.00000000000E+00 -0.00000000000E+00 -0.14384025915E+03  0.14384025915E+03  0.00000000000E+00 0. -1.
        -13    1    1    2    0    0  0.96704102829E+02 -0.79376128460E+02  0.20443454023E+02  0.12676828961E+03  0.10566000000E+00 0.  1.
         13    1    1    2    0    0 -0.10058854257E+03  0.17969225816E+02 -0.39558497966E+02  0.10957113625E+03  0.10566000000E+00 0. -1.
         -4    1    1    2    0  502  0.38844397430E+01  0.61406902643E+02  0.42626671438E+02  0.74852719939E+02  0.00000000000E+00 0. -1.
</event>
<event>
 5    1  0.4419198E-005  0.4203113E+03  0.7818608E-02  0.9672152E-01
         21   -1    0    0  501  502  0.00000000000E+00  0.00000000000E+00  0.44281246106E+03  0.44281246106E+03  0.00000000000E+00 0. -1.
         -4   -1    0    0    0  501 -0.00000000000E+00 -0.00000000000E+00 -0.12259646426E+04  0.12259646426E+04  0.00000000000E+00 0. -1.
        -13    1    1    2    0    0  0.20074431314E+03 -0.24856771321E+03  0.33281743347E+02  0.32123491858E+03  0.10566000000E+00 0.  1.
         13    1    1    2    0    0 -0.46804876610E+03  0.82943984285E+02 -0.90379745530E+03  0.10211754028E+04  0.10566000000E+00 0. -1.
         -4    1    1    2    0  502  0.26730445295E+03  0.16562372893E+03  0.87363530372E+02  0.32636678230E+03  0.00000000000E+00 0. -1.
</event>
<event>
 5    1  0.4419198E-005  0.3169759E+03  0.7818608E-02  0.1000534E+00
         -4   -1    0    0    0  501 -0.00000000000E+00  0.00000000000E+00  0.12445615793E+04  0.12445615793E+04  0.00000000000E+00 0. -1.
         21   -1    0    0  501  502  0.00000000000E+00 -0.00000000000E+00 -0.26626818055E+03  0.26626818055E+03  0.00000000000E+00 0.  1.
        -13    1    1    2    0    0  0.73323412158E+01 -0.31697007080E+03 -0.12752524993E+03  0.34174038325E+03  0.10566000000E+00 0.  1.
         13    1    1    2    0    0  0.12848588953E+02  0.31676353853E+03  0.11042381891E+04  0.11488456010E+04  0.10566000000E+00 0. -1.
         -4    1    1    2    0  502 -0.20180930169E+02  0.20653226793E+00  0.15804596189E+01  0.20243775603E+02  0.00000000000E+00 0. -1.
</event>
<event>
 5    1  0.4419198E-005  0.4991814E+03  0.7818608E-02  0.9789215E-01
         21   -1    0    0  501  502  0.00000000000E+00  0.00000000000E+00  0.84976307175E+02  0.84976307175E+02  0.00000000000E+00 0.  1.
          4   -1    0    0  502    0 -0.00000000000E+00 -0.00000000000E+00 -0.41398611281E+04  0.41398611281E+04  0.00000000000E+00 0.  1.
        -13    1    1    2    0    0  0.27810579498E+03 -0.46877209361E+03 -0.15313933033E+04  0.16255016363E+04  0.10566000000E+00 0.  1.
         13    1    1    2    0    0 -0.16511196982E+03  0.27031183470E+02 -0.69266429876E+03  0.71258437353E+03  0.10566000000E+00 0. -1.
          4    1    1    2  501    0 -0.11299382516E+03  0.44174091014E+03 -0.18308272189E+04  0.18867514255E+04  0.00000000000E+00 0.  1.
</event>
<event>
 5    1  0.4419198E-005  0.8099421E+03  0.7818608E-02  0.8977164E-01
          4   -1    0    0  502    0 -0.00000000000E+00  0.00000000000E+00  0.27374367066E+04  0.27374367066E+04  0.00000000000E+00 0.  1.
         21   -1    0    0  501  502  0.00000000000E+00 -0.00000000000E+00 -0.82682908668E+03  0.82682908668E+03  0.00000000000E+00 0.  1.
        -13    1    1    2    0    0  0.78914197385E+03  0.13884819802E+03  0.17515367117E+04  0.19261113002E+04  0.10566000000E+00 0.  1.
         13    1    1    2    0    0 -0.82190298309E+03 -0.11144779062E+03  0.70621221687E+03  0.10893488101E+04  0.10566000000E+00 0. -1.
          4    1    1    2  501    0  0.32761009241E+02 -0.27400407396E+02 -0.54714130866E+03  0.54880568301E+03  0.00000000000E+00 0.  1.
</event>
<event>
 5    1  0.4419198E-005  0.4537263E+03  0.7818608E-02  0.9878310E-01
          4   -1    0    0  502    0 -0.00000000000E+00  0.00000000000E+00  0.23551629009E+03  0.23551629009E+03  0.00000000000E+00 0.  1.
         21   -1    0    0  501  502  0.00000000000E+00 -0.00000000000E+00 -0.18039003504E+04  0.18039003504E+04  0.00000000000E+00 0.  1.
        -13    1    1    2    0    0 -0.88844552411E+02 -0.39424181267E+03 -0.27579454253E+03  0.48926741380E+03  0.10566000000E+00 0.  1.
         13    1    1    2    0    0 -0.16409575555E+03 -0.14183597288E+02  0.67470713135E+01  0.16484576294E+03  0.10566000000E+00 0. -1.
          4    1    1    2  501    0  0.25294030796E+03  0.40842540996E+03 -0.12993365891E+04  0.13853034637E+04  0.00000000000E+00 0.  1.
</event>
<event>
 5    1  0.4419198E-005  0.5240217E+03  0.7818608E-02  0.9629991E-01
         -4   -1    0    0    0  501 -0.00000000000E+00  0.00000000000E+00  0.57953815165E+03  0.57953815165E+03  0.00000000000E+00 0. -1.
         21   -1    0    0  501  502  0.00000000000E+00 -0.00000000000E+00 -0.81706292180E+03  0.81706292180E+03  0.00000000000E+00 0. -1.
        -13    1    1    2    0    0 -0.90032556746E+02  0.23491300246E+03  0.32568523507E+02  0.25367439738E+03  0.10566000000E+00 0.  1.
         13    1    1    2    0    0 -0.37629903349E+03  0.23772898456E+03 -0.13740631600E+03  0.46582887368E+03  0.10566000000E+00 0. -1.
         -4    1    1    2    0  502  0.46633159024E+03 -0.47264198703E+03 -0.13268697766E+03  0.67709780239E+03  0.00000000000E+00 0. -1.
</event>
<event>
 5    1  0.4419198E-005  0.5699094E+02  0.7818608E-02  0.1265679E+00
         21   -1    0    0  501  502  0.00000000000E+00  0.00000000000E+00  0.10079868465E+03  0.10079868465E+03  0.00000000000E+00 0.  1.
          4   -1    0    0  502    0 -0.00000000000E+00 -0.00000000000E+00 -0.55243007405E+02  0.55243007405E+02  0.00000000000E+00 0.  1.
        -13    1    1    2    0    0 -0.44367425200E+02  0.24785105915E+02  0.55994500678E+01  0.51128611356E+02  0.10566000000E+00 0.  1.
         13    1    1    2    0    0  0.61231661296E+02 -0.21683258282E+02  0.40037572623E+01  0.65080882531E+02  0.10566000000E+00 0. -1.
          4    1    1    2  501    0 -0.16864236096E+02 -0.31018476333E+01  0.35952469918E+02  0.39832198170E+02  0.00000000000E+00 0.  1.
</event>
<event>
 5    1  0.4419198E-005  0.1869325E+03  0.7818608E-02  0.1069483E+00
         21   -1    0    0  501  502  0.00000000000E+00  0.00000000000E+00  0.55206393206E+02  0.55206393206E+02  0.00000000000E+00 0.  1.
         -4   -1    0    0    0  501 -0.00000000000E+00 -0.00000000000E+00 -0.80683290083E+03  0.80683290083E+03  0.00000000000E+00 0. -1.
        -13    1    1    2    0    0 -0.14559207588E+03  0.11721194598E+03 -0.22436876374E+03  0.29202233844E+03  0.10566000000E+00 0.  1.
         13    1    1    2    0    0  0.16077703675E+03 -0.96545664268E+02 -0.49108618790E+03  0.52567668385E+03  0.10566000000E+00 0. -1.
         -4    1    1    2    0  502 -0.15184960869E+02 -0.20666281709E+02 -0.36171555989E+02  0.44340271751E+02  0.00000000000E+00 0. -1.
</event>
<event>
 5    1  0.4419198E-005  0.4055909E+02  0.7818608E-02  0.1335851E+00
          4   -1    0    0  502    0 -0.00000000000E+00  0.00000000000E+00  0.25334655853E+02  0.25334655853E+02  0.00000000000E+00 0.  1.
         21   -1    0    0  501  502  0.00000000000E+00 -0.00000000000E+00 -0.11415665487E+03  0.11415665487E+03  0.00000000000E+00 0.  1.
        -13    1    1    2    0    0 -0.40032170202E+02  0.17589168073E+01 -0.14190611198E+02  0.42509446593E+02  0.10566000000E+00 0.  1.
         13    1    1    2    0    0  0.39436781673E+02 -0.19264348407E+02 -0.47364258063E+02  0.64573670905E+02  0.10566000000E+00 0. -1.
          4    1    1    2  501    0  0.59538852980E+00  0.17505431600E+02 -0.27267129761E+02  0.32408193229E+02  0.00000000000E+00 0.  1.
</event>
<event>
 5    1  0.4419198E-005  0.1398427E+03  0.7818608E-02  0.1111585E+00
         -4   -1    0    0    0  501 -0.00000000000E+00  0.00000000000E+00  0.91974346536E+02  0.91974346536E+02  0.00000000000E+00 0. -1.
         21   -1    0    0  501  502  0.00000000000E+00 -0.00000000000E+00 -0.44359430251E+03  0.44359430251E+03  0.00000000000E+00 0.  1.
        -13    1    1    2    0    0 -0.64790627715E+02  0.11784222698E+03 -0.20234709393E+03  0.24295878969E+03  0.10566000000E+00 0.  1.
         13    1    1    2    0    0  0.14375553144E+02 -0.14394302171E+03 -0.13309354717E+02  0.14527009367E+03  0.10566000000E+00 0. -1.
         -4    1    1    2    0  502  0.50415074571E+02  0.26100794727E+02 -0.13596350733E+03  0.14733976569E+03  0.00000000000E+00 0. -1.
</event>
<event>
 5    1  0.4419198E-005  0.2586716E+03  0.7818608E-02  0.1026523E+00
         21   -1    0    0  501  502  0.00000000000E+00  0.00000000000E+00  0.21123440342E+03  0.21123440342E+03  0.00000000000E+00 0.  1.
          4   -1    0    0  502    0 -0.00000000000E+00 -0.00000000000E+00 -0.19814164832E+04  0.19814164832E+04  0.00000000000E+00 0.  1.
        -13    1    1    2    0    0  0.40026921722E+02 -0.23832969266E+03  0.19370894833E+02  0.24244265219E+03  0.10566000000E+00 0.  1.
         13    1    1    2    0    0 -0.12304787187E+03 -0.22995713639E+03 -0.36679342752E+03  0.45006498751E+03  0.10566000000E+00 0. -1.
          4    1    1    2  501    0  0.83020950149E+02  0.46828682906E+03 -0.14227595471E+04  0.15001432469E+04  0.00000000000E+00 0.  1.
</event>
<event>
 5    1  0.4419198E-005  0.8205331E+02  0.7818608E-02  0.1198235E+00
         21   -1    0    0  501  502  0.00000000000E+00  0.00000000000E+00  0.61410211920E+02  0.61410211920E+02  0.00000000000E+00 0.  1.
          4   -1    0    0  502    0 -0.00000000000E+00 -0.00000000000E+00 -0.42187800211E+03  0.42187800211E+03  0.00000000000E+00 0.  1.
        -13    1    1    2    0    0 -0.51063710032E+02  0.66919277717E+02 -0.36123296489E+03  0.37091098433E+03  0.10566000000E+00 0.  1.
         13    1    1    2    0    0  0.45442370043E+02 -0.55517370242E+02 -0.31005889770E+02  0.78157301375E+02  0.10566000000E+00 0. -1.
          4    1    1    2  501    0  0.56213399885E+01 -0.11401907476E+02  0.31771064466E+02  0.34219928326E+02  0.00000000000E+00 0.  1.
</event>
<event>
 5    1  0.4419198E-005  0.1109367E+03  0.7818608E-02  0.1147628E+00
         21   -1    0    0  501  502  0.00000000000E+00  0.00000000000E+00  0.16236447024E+03  0.16236447024E+03  0.00000000000E+00 0. -1.
         -4   -1    0    0    0  501 -0.00000000000E+00 -0.00000000000E+00 -0.47179331239E+03  0.47179331239E+03  0.00000000000E+00 0. -1.
        -13    1    1    2    0    0 -0.47526515194E+02 -0.76034963082E+02 -0.13015703576E+03  0.15805363134E+03  0.10566000000E+00 0.  1.
         13    1    1    2    0    0  0.11684217725E+03  0.76472065905E+02 -0.30336600420E+03  0.33396259509E+03  0.10566000000E+00 0. -1.
         -4    1    1    2    0  502 -0.69315662059E+02 -0.43710282273E+00  0.12409419782E+03  0.14214155619E+03  0.00000000000E+00 0. -1.
</event>
<event>
 5    1  0.4419198E-005  0.1737713E+03  0.7818608E-02  0.1079774E+00
          4   -1    0    0  502    0 -0.00000000000E+00  0.00000000000E+00  0.17027344743E+03  0.17027344743E+03  0.00000000000E+00 0.  1.
         21   -1    0    0  501  502  0.00000000000E+00 -0.00000000000E+00 -0.81441709064E+03  0.81441709064E+03  0.00000000000E+00 0. -1.
        -13    1    1    2    0    0  0.10051311835E+03  0.13968045930E+03  0.10371033097E+03  0.20092128206E+03  0.10566000000E+00 0.  1.
         13    1    1    2    0    0 -0.12475837752E+03 -0.15489458686E+03 -0.70272574956E+03  0.73032901905E+03  0.10566000000E+00 0. -1.
          4    1    1    2  501    0  0.24245259169E+02  0.15214127555E+02 -0.45128224615E+02  0.53440236960E+02  0.00000000000E+00 0.  1.
</event>
<event>
 5    1  0.4419198E-005  0.4787290E+03  0.7818608E-02  0.9694025E-01
         21   -1    0    0  501  502  0.00000000000E+00  0.00000000000E+00  0.46566600035E+03  0.46566600035E+03  0.00000000000E+00 0.  1.
          4   -1    0    0  502    0 -0.00000000000E+00 -0.00000000000E+00 -0.11921044763E+04  0.11921044763E+04  0.00000000000E+00 0.  1.
        -13    1    1    2    0    0 -0.37982504305E+03  0.41900534813E+03  0.14385389710E+03  0.58354648484E+03  0.10566000000E+00 0.  1.
         13    1    1    2    0    0  0.23694627703E+03 -0.11532859227E+03 -0.55203108636E+03  0.61170462959E+03  0.10566000000E+00 0. -1.
          4    1    1    2  501    0  0.14287876602E+03 -0.30367675586E+03 -0.31826128673E+03  0.46251936226E+03  0.00000000000E+00 0.  1.
</event>
<event>
 5    1  0.4419198E-005  0.1593658E+03  0.7818608E-02  0.1092225E+00
         21   -1    0    0  501  502  0.00000000000E+00  0.00000000000E+00  0.13223463530E+04  0.13223463530E+04  0.00000000000E+00 0. -1.
         -4   -1    0    0    0  501 -0.00000000000E+00 -0.00000000000E+00 -0.68179019780E+02  0.68179019780E+02  0.00000000000E+00 0. -1.
        -13    1    1    2    0    0 -0.18078175418E+03 -0.16287191066E+02  0.55715845698E+03  0.58598026638E+03  0.10566000000E+00 0.  1.
         13    1    1    2    0    0  0.14925520818E+03  0.43652049155E+02  0.60804429501E+02  0.16697247790E+03  0.10566000000E+00 0. -1.
         -4    1    1    2    0  502  0.31526545995E+02 -0.27364858089E+02  0.63620444669E+03  0.63757262845E+03  0.00000000000E+00 0. -1.
</event>
<event>
 5    1  0.4419198E-005  0.4237108E+03  0.7818608E-02  0.9774262E-01
         -4   -1    0    0    0  501 -0.00000000000E+00  0.00000000000E+00  0.52695341641E+03  0.52695341641E+03  0.00000000000E+00 0. -1.
         21   -1    0    0  501  502  0.00000000000E+00 -0.00000000000E+00 -0.10566462206E+04  0.10566462206E+04  0.00000000000E+00 0. -1.
        -13    1    1    2    0    0 -0.21040036628E+03 -0.19661064463E+03  0.19652371522E+03  0.34863396496E+03  0.10566000000E+00 0.  1.
         13    1    1    2    0    0  0.53927894991E+03 -0.32396115063E+02 -0.20579101094E+03  0.57811871223E+03  0.10566000000E+00 0. -1.
         -4    1    1    2    0  502 -0.32887858362E+03  0.22900675970E+03 -0.52042550841E+03  0.65684695977E+03  0.00000000000E+00 0. -1.
</event>
<event>
 5    1  0.4419198E-005  0.6901060E+02  0.7818608E-02  0.1229348E+00
         21   -1    0    0  501  502  0.00000000000E+00  0.00000000000E+00  0.26077130886E+03  0.26077130886E+03  0.00000000000E+00 0.  1.
         -4   -1    0    0    0  501 -0.00000000000E+00 -0.00000000000E+00 -0.31408772493E+02  0.31408772493E+02  0.00000000000E+00 0. -1.
        -13    1    1    2    0    0 -0.86246551534E+01  0.69728464510E+02  0.91833143121E+02  0.11562776820E+03  0.10566000000E+00 0.  1.
         13    1    1    2    0    0 -0.53887488321E+01 -0.68579107553E+02  0.43308732420E+02  0.81288314502E+02  0.10566000000E+00 0. -1.
         -4    1    1    2    0  502  0.14013403986E+02 -0.11493569571E+01  0.94220660823E+02  0.95263998649E+02  0.00000000000E+00 0. -1.
</event>
<event>
 5    1  0.4419198E-005  0.2233939E+02  0.7818608E-02  0.1479697E+00
         21   -1    0    0  501  502  0.00000000000E+00  0.00000000000E+00  0.11207202599E+03  0.11207202599E+03  0.00000000000E+00 0. -1.
         -4   -1    0    0    0  501 -0.00000000000E+00 -0.00000000000E+00 -0.88921860985E+01  0.88921860985E+01  0.00000000000E+00 0. -1.
        -13    1    1    2    0    0 -0.11485225912E+01  0.18567970856E+02  0.26422237960E+02  0.32314616951E+02  0.10566000000E+00 0.  1.
         13    1    1    2    0    0 -0.73248756845E+01 -0.29562349345E+02  0.53746921024E+02  0.61776443619E+02  0.10566000000E+00 0. -1.
         -4    1    1    2    0  502  0.84733982757E+01  0.10994378489E+02  0.23010680907E+02  0.26873151518E+02  0.00000000000E+00 0. -1.
</event>
<event>
 5    1  0.4419198E-005  0.9379304E+02  0.7818608E-02  0.1234431E+00
         -4   -1    0    0    0  501 -0.00000000000E+00  0.00000000000E+00  0.52864024519E+03  0.52864024519E+03  0.00000000000E+00 0. -1.
         21   -1    0    0  501  502  0.00000000000E+00 -0.00000000000E+00 -0.35553358694E+02  0.35553358694E+02  0.00000000000E+00 0. -1.
        -13    1    1    2    0    0 -0.94065758272E+01  0.22763361477E+02  0.13188811647E+02  0.27939402485E+02  0.10566000000E+00 0.  1.
         13    1    1    2    0    0  0.20596502178E+02 -0.96267104045E+02  0.72844165611E+02  0.12246572929E+03  0.10566000000E+00 0. -1.
         -4    1    1    2    0  502 -0.11189926351E+02  0.73503742568E+02  0.40705390924E+03  0.41378847211E+03  0.00000000000E+00 0. -1.
</event>
<event>
 5    1  0.4419198E-005  0.8222333E+03  0.7818608E-02  0.8962378E-01
          4   -1    0    0  502    0 -0.00000000000E+00  0.00000000000E+00  0.10481620431E+04  0.10481620431E+04  0.00000000000E+00 0.  1.
         21   -1    0    0  501  502  0.00000000000E+00 -0.00000000000E+00 -0.74323373619E+03  0.74323373619E+03  0.00000000000E+00 0. -1.
        -13    1    1    2    0    0  0.69650629016E+03  0.40941089690E+03  0.14149190373E+03  0.82021842500E+03  0.10566000000E+00 0.  1.
         13    1    1    2    0    0 -0.73146766038E+03 -0.40359572217E+03  0.25460648361E+03  0.87336070315E+03  0.10566000000E+00 0. -1.
          4    1    1    2  501    0  0.34961370226E+02 -0.58151747266E+01 -0.91170080460E+02  0.97816651120E+02  0.00000000000E+00 0.  1.
</event>
<event>
 5    1  0.4419198E-005  0.4757914E+03  0.7818608E-02  0.9996888E-01
         21   -1    0    0  501  502  0.00000000000E+00  0.00000000000E+00  0.21834700194E+03  0.21834700194E+03  0.00000000000E+00 0. -1.
         -4   -1    0    0    0  501 -0.00000000000E+00 -0.00000000000E+00 -0.15469167473E+04  0.15469167473E+04  0.00000000000E+00 0. -1.
        -13    1    1    2    0    0  0.29783216083E+02  0.91638677554E+02 -0.37958343157E+03  0.39162262431E+03  0.10566000000E+00 0.  1.
         13    1    1    2    0    0 -0.48470848661E+03 -0.76401689374E+02 -0.28143571535E+03  0.56567270410E+03  0.10566000000E+00 0. -1.
         -4    1    1    2    0  502  0.45492527053E+03 -0.15236988180E+02 -0.66755059839E+03  0.80796842078E+03  0.00000000000E+00 0. -1.
</event>
<event>
 5    1  0.4419198E-005  0.4294646E+03  0.7818608E-02  0.9694003E-01
         21   -1    0    0  501  502  0.00000000000E+00  0.00000000000E+00  0.31039046847E+03  0.31039046847E+03  0.00000000000E+00 0.  1.
          4   -1    0    0  502    0 -0.00000000000E+00 -0.00000000000E+00 -0.23477537417E+04  0.23477537417E+04  0.00000000000E+00 0.  1.
        -13    1    1    2    0    0  0.25826360135E+03  0.31053518672E+03 -0.30818430936E+03  0.50804504690E+03  0.10566000000E+00 0.  1.
         13    1    1    2    0    0 -0.30461922574E+03  0.20114543998E+03 -0.15705171635E+04  0.16123822540E+04  0.10566000000E+00 0. -1.
          4    1    1    2  501    0  0.46355624397E+02 -0.51168062670E+03 -0.15866180028E+03  0.53771690928E+03  0.00000000000E+00 0.  1.
</event>
<event>
 5    1  0.4419198E-005  0.1907900E+03  0.7818608E-02  0.1066640E+00
         21   -1    0    0  501  502  0.00000000000E+00  0.00000000000E+00  0.13031970356E+04  0.13031970356E+04  0.00000000000E+00 0.  1.
         -4   -1    0    0    0  501 -0.00000000000E+00 -0.00000000000E+00 -0.90824594770E+02  0.90824594770E+02  0.00000000000E+00 0. -1.
        -13    1    1    2    0    0  0.90286017716E+02 -0.15203762409E+03  0.51867098893E+03  0.54798413303E+03  0.10566000000E+00 0.  1.
         13    1    1    2    0    0 -0.10482287892E+03  0.16330481865E+03  0.47771838306E+02  0.19984608938E+03  0.10566000000E+00 0. -1.
         -4    1    1    2    0  502  0.14536861206E+02 -0.11267194564E+02  0.64592961360E+03  0.64619140796E+03  0.00000000000E+00 0. -1.
</event>
<event>
 5    1  0.4419198E-005  0.9305983E+02  0.7818608E-02  0.1176579E+00
         21   -1    0    0  501  502  0.00000000000E+00  0.00000000000E+00  0.10330649946E+03  0.10330649946E+03  0.00000000000E+00 0. -1.
          4   -1    0    0  502    0 -0.00000000000E+00 -0.00000000000E+00 -0.27046394735E+03  0.27046394735E+03  0.00000000000E+00 0.  1.
        -13    1    1    2    0    0 -0.79593755590E+02 -0.15547321710E+02 -0.49835895499E+02  0.95186725889E+02  0.10566000000E+00 0.  1.
         13    1    1    2    0    0  0.99575367376E+02  0.86246923377E+01 -0.18358434777E+03  0.20902837850E+03  0.10566000000E+00 0. -1.
          4    1    1    2  501    0 -0.19981611785E+02  0.69226293721E+01  0.66262795387E+02  0.69555342422E+02  0.00000000000E+00 0.  1.
</event>
<event>
 5    1  0.4419198E-005  0.5263424E+03  0.7818608E-02  0.9503699E-01
         21   -1    0    0  501  502  0.00000000000E+00  0.00000000000E+00  0.35747087224E+03  0.35747087224E+03  0.00000000000E+00 0. -1.
         -4   -1    0    0    0  501 -0.00000000000E+00 -0.00000000000E+00 -0.22774857769E+04  0.22774857769E+04  0.00000000000E+00 0. -1.
        -13    1    1    2    0    0  0.31747543953E+03  0.52230768493E+03 -0.90998150638E+03  0.10962035968E+04  0.10566000000E+00 0.  1.
         13    1    1    2    0    0  0.14476353999E+03 -0.97418457851E+02 -0.88057317037E+03  0.89769480225E+03  0.10566000000E+00 0. -1.
         -4    1    1    2    0  502 -0.46223897953E+03 -0.42488922708E+03 -0.12946022795E+03  0.64105825017E+03  0.00000000000E+00 0. -1.
</event>
<event>
 5    1  0.4419198E-005  0.2505133E+03  0.7818608E-02  0.1030127E+00
          4   -1    0    0  502    0 -0.00000000000E+00  0.00000000000E+00  0.26254133172E+03  0.26254133172E+03  0.00000000000E+00 0.  1.
         21   -1    0    0  501  502  0.00000000000E+00 -0.00000000000E+00 -0.29787480057E+03  0.29787480057E+03  0.00000000000E+00 0. -1.
        -13    1    1    2    0    0  0.51240290040E+02  0.24623868117E+03 -0.22357899714E+02  0.25250533117E+03  0.10566000000E+00 0.  1.
         13    1    1    2    0    0 -0.60609054122E+02 -0.24236416879E+03  0.40844209223E+02  0.25314444166E+03  0.10566000000E+00 0. -1.
          4    1    1    2  501    0  0.93687640817E+01 -0.38745123786E+01 -0.53819778353E+02  0.54766359461E+02  0.00000000000E+00 0.  1.
</event>
<event>
 5    1  0.4419198E-005  0.4217212E+03  0.7818608E-02  0.9668330E-01
         21   -1    0    0  501  502  0.00000000000E+00  0.00000000000E+00  0.30500108485E+03  0.30500108485E+03  0.00000000000E+00 0. -1.
          4   -1    0    0  502    0 -0.00000000000E+00 -0.00000000000E+00 -0.11012067869E+04  0.11012067869E+04  0.00000000000E+00 0.  1.
        -13    1    1    2    0    0  0.22914766762E+03 -0.35620159659E+03 -0.33610341656E+03  0.54069746511E+03  0.10566000000E+00 0.  1.
         13    1    1    2    0    0 -0.23956228191E+03  0.34574520057E+03 -0.59563029129E+03  0.72918124338E+03  0.10566000000E+00 0. -1.
          4    1    1    2  501    0  0.10414614298E+02  0.10456396017E+02  0.13552800578E+03  0.13632916328E+03  0.00000000000E+00 0.  1.
</event>
<event>
 5    1  0.4419198E-005  0.8589085E+03  0.7818608E-02  0.8919816E-01
         21   -1    0    0  501  502  0.00000000000E+00  0.00000000000E+00  0.46505052196E+03  0.46505052196E+03  0.00000000000E+00 0. -1.
         -4   -1    0    0    0  501 -0.00000000000E+00 -0.00000000000E+00 -0.32264259490E+04  0.32264259490E+04  0.00000000000E+00 0. -1.
        -13    1    1    2    0    0 -0.67800555363E+03 -0.48495942596E+03 -0.19458992136E+04  0.21169319631E+04  0.10566000000E+00 0.  1.
         13    1    1    2    0    0  0.93979210410E+03  0.30808348119E+03 -0.43621611006E+03  0.10809297554E+04  0.10566000000E+00 0. -1.
         -4    1    1    2    0  502 -0.26178655047E+03  0.17687594477E+03 -0.37926010333E+03  0.49361475243E+03  0.00000000000E+00 0. -1.
</event>
<event>
 5    1  0.4419198E-005  0.1011115E+03  0.7818608E-02  0.1180222E+00
          4   -1    0    0  502    0 -0.00000000000E+00  0.00000000000E+00  0.67859843602E+02  0.67859843602E+02  0.00000000000E+00 0.  1.
         21   -1    0    0  501  502  0.00000000000E+00 -0.00000000000E+00 -0.40810597537E+03  0.40810597537E+03  0.00000000000E+00 0. -1.
        -13    1    1    2    0    0 -0.58023470549E+02  0.26371163787E+02  0.37155207418E+01  0.63843383936E+02  0.10566000000E+00 0.  1.
         13    1    1    2    0    0  0.27180127500E+02 -0.12266352355E+03 -0.18067229315E+03  0.22006269110E+03  0.10566000000E+00 0. -1.
          4    1    1    2  501    0  0.30843343049E+02  0.96292359760E+02 -0.16328935936E+03  0.19205974393E+03  0.00000000000E+00 0.  1.
</event>
<event>
 5    1  0.4419198E-005  0.3769427E+02  0.7818608E-02  0.1351992E+00
          4   -1    0    0  502    0 -0.00000000000E+00  0.00000000000E+00  0.13939019802E+03  0.13939019802E+03  0.00000000000E+00 0.  1.
         21   -1    0    0  501  502  0.00000000000E+00 -0.00000000000E+00 -0.47015122661E+02  0.47015122661E+02  0.00000000000E+00 0.  1.
        -13    1    1    2    0    0 -0.36433680175E+02  0.13809201263E+02  0.11631693036E+03  0.12266925672E+03  0.10566000000E+00 0.  1.
         13    1    1    2    0    0  0.27204327404E+02 -0.18278127048E+02  0.48877340414E+01  0.33137085961E+02  0.10566000000E+00 0. -1.
          4    1    1    2  501    0  0.92293527706E+01  0.44689257848E+01 -0.28829589045E+02  0.30598978002E+02  0.00000000000E+00 0.  1.
</event>
<event>
 5    1  0.4419198E-005  0.5145904E+03  0.7818608E-02  0.9446554E-01
         -4   -1    0    0    0  501 -0.00000000000E+00  0.00000000000E+00  0.20638534331E+04  0.20638534331E+04  0.00000000000E+00 0. -1.
         21   -1    0    0  501  502  0.00000000000E+00 -0.00000000000E+00 -0.42765334278E+03  0.42765334278E+03  0.00000000000E+00 0. -1.
        -13    1    1    2    0    0 -0.39110684057E+03  0.39499756960E+03  0.10773912694E+04  0.12123364217E+04  0.10566000000E+00 0.  1.
         13    1    1    2    0    0  0.25124762920E+03 -0.18127468247E+03 -0.27058289115E+03  0.41134048406E+03  0.10566000000E+00 0. -1.
         -4    1    1    2    0  502  0.13985921136E+03 -0.21372288713E+03  0.82939171202E+03  0.86782987011E+03  0.00000000000E+00 0. -1.
</event>
<event>
 5    1  0.4419198E-005  0.2917731E+03  0.7818608E-02  0.1012023E+00
         21   -1    0    0  501  502  0.00000000000E+00  0.00000000000E+00  0.18223874420E+04  0.18223874420E+04  0.00000000000E+00 0. -1.
         -4   -1    0    0    0  501 -0.00000000000E+00 -0.00000000000E+00 -0.24864229354E+03  0.24864229354E+03  0.00000000000E+00 0. -1.
        -13    1    1    2    0    0 -0.14532429632E+02  0.29738041880E+03  0.34345429620E+03  0.45454061396E+03  0.10566000000E+00 0.  1.
         13    1    1    2    0    0  0.71603939560E+02  0.89269464216E+01 -0.16856118595E+03  0.18335675365E+03  0.10566000000E+00 0. -1.
         -4    1    1    2    0  502 -0.57071509928E+02 -0.30630736522E+03  0.13988520382E+04  0.14331323679E+04  0.00000000000E+00 0. -1.
</event>
<event>
 5    1  0.4419198E-005  0.5334790E+02  0.7818608E-02  0.1278727E+00
         21   -1    0    0  501  502  0.00000000000E+00  0.00000000000E+00  0.20886947867E+02  0.20886947867E+02  0.00000000000E+00 0.  1.
         -4   -1    0    0    0  501 -0.00000000000E+00 -0.00000000000E+00 -0.25813495166E+03  0.25813495166E+03  0.00000000000E+00 0. -1.
        -13    1    1    2    0    0  0.35257621749E+02 -0.12532760651E+02 -0.17119528707E+02  0.41149233384E+02  0.10566000000E+00 0.  1.
         13    1    1    2    0    0 -0.48863100398E+02  0.35830850557E+02 -0.17612645802E+03  0.18625786644E+03  0.10566000000E+00 0. -1.
         -4    1    1    2    0  502  0.13605478649E+02 -0.23298089906E+02 -0.44002017067E+02  0.51614799704E+02  0.00000000000E+00 0. -1.
</event>
<event>
 5    1  0.4419198E-005  0.4673243E+03  0.7818608E-02  0.9979839E-01
         -4   -1    0    0    0  501 -0.00000000000E+00  0.00000000000E+00  0.11244281152E+04  0.11244281152E+04  0.00000000000E+00 0. -1.
         21   -1    0    0  501  502  0.00000000000E+00 -0.00000000000E+00 -0.27257382941E+03  0.27257382941E+03  0.00000000000E+00 0. -1.
        -13    1    1    2    0    0  0.49841943175E+02  0.95301823276E+02  0.12519602525E+03  0.16504760744E+03  0.10566000000E+00 0.  1.
         13    1    1    2    0    0 -0.48228653112E+03 -0.19205124361E+03  0.54604640695E+03  0.75342595388E+03  0.10566000000E+00 0. -1.
         -4    1    1    2    0  502  0.43244458795E+03  0.96749420333E+02  0.18061185362E+03  0.47852838333E+03  0.00000000000E+00 0. -1.
</event>
<event>
 5    1  0.4419198E-005  0.1829022E+03  0.7818608E-02  0.1072535E+00
         21   -1    0    0  501  502  0.00000000000E+00  0.00000000000E+00  0.31987230046E+03  0.31987230046E+03  0.00000000000E+00 0.  1.
          4   -1    0    0  502    0 -0.00000000000E+00 -0.00000000000E+00 -0.13072940116E+04  0.13072940116E+04  0.00000000000E+00 0.  1.
        -13    1    1    2    0    0  0.16966188508E+03  0.34544244341E+02 -0.94143407289E+03  0.95722337248E+03  0.10566000000E+00 0.  1.
         13    1    1    2    0    0 -0.25505820801E+03  0.50753799887E+02 -0.29497419963E+03  0.39324347075E+03  0.10566000000E+00 0. -1.
          4    1    1    2  501    0  0.85396322931E+02 -0.85298044228E+02  0.24898656137E+03  0.27669946885E+03  0.00000000000E+00 0.  1.
</event>
<event>
 5    1  0.4419198E-005  0.7895294E+03  0.7818608E-02  0.9002338E-01
         21   -1    0    0  501  502  0.00000000000E+00  0.00000000000E+00  0.47509801664E+03  0.47509801664E+03  0.00000000000E+00 0.  1.
         -4   -1    0    0    0  501 -0.00000000000E+00 -0.00000000000E+00 -0.17427175449E+04  0.17427175449E+04  0.00000000000E+00 0. -1.
        -13    1    1    2    0    0  0.72659707787E+03  0.20487986675E+03 -0.55875921490E+03  0.93921826258E+03  0.10566000000E+00 0.  1.
         13    1    1    2    0    0 -0.78513894626E+03 -0.23914089158E+03 -0.81239386831E+03  0.11548226441E+04  0.10566000000E+00 0. -1.
         -4    1    1    2    0  502  0.58541868387E+02  0.34261024831E+02  0.10353355495E+03  0.12377465483E+03  0.00000000000E+00 0. -1.
</event>
<event>
 5    1  0.4419198E-005  0.4802950E+03  0.7818608E-02  0.9580879E-01
         21   -1    0    0  501  502  0.00000000000E+00  0.00000000000E+00  0.14197180367E+03  0.14197180367E+03  0.00000000000E+00 0.  1.
          4   -1    0    0  502    0 -0.00000000000E+00 -0.00000000000E+00 -0.38918424202E+04  0.38918424202E+04  0.00000000000E+00 0.  1.
        -13    1    1    2    0    0  0.82758044146E+02  0.42411788945E+03 -0.19949169711E+04  0.20411806904E+04  0.10566000000E+00 0.  1.
         13    1    1    2    0    0  0.37354213701E+03 -0.10865925202E+03 -0.73110092105E+03  0.82816008663E+03  0.10566000000E+00 0. -1.
          4    1    1    2  501    0 -0.45630018115E+03 -0.31545863743E+03 -0.10238527244E+04  0.11644734469E+04  0.00000000000E+00 0.  1.
</event>
<event>
 5    1  0.4419198E-005  0.1698429E+03  0.7818608E-02  0.1083037E+00
         21   -1    0    0  501  502  0.00000000000E+00  0.00000000000E+00  0.15924184901E+03  0.15924184901E+03  0.00000000000E+00 0. -1.
          4   -1    0    0  502    0 -0.00000000000E+00 -0.00000000000E+00 -0.24773700867E+03  0.24773700867E+03  0.00000000000E+00 0.  1.
        -13    1    1    2    0    0  0.69563992541E+01 -0.17556384003E+03 -0.11938919945E+03  0.21242609427E+03  0.10566000000E+00 0.  1.
         13    1    1    2    0    0 -0.55005843668E+01  0.15968800909E+03 -0.56734658639E-02  0.15978275211E+03  0.10566000000E+00 0. -1.
          4    1    1    2  501    0 -0.14558148873E+01  0.15875830938E+02  0.30899713262E+02  0.34770011283E+02  0.00000000000E+00 0.  1.
</event>
<event>
 5    1  0.4419198E-005  0.8053788E+02  0.7818608E-02  0.1219303E+00
         21   -1    0    0  501  502  0.00000000000E+00  0.00000000000E+00  0.12216487238E+04  0.12216487238E+04  0.00000000000E+00 0.  1.
          4   -1    0    0  502    0 -0.00000000000E+00 -0.00000000000E+00 -0.37068645326E+02  0.37068645326E+02  0.00000000000E+00 0.  1.
        -13    1    1    2    0    0  0.78377827039E+02  0.70643780589E+02  0.53240890847E+02  0.11818727144E+03  0.10566000000E+00 0.  1.
         13    1    1    2    0    0 -0.53814540298E+02  0.53634626589E+01  0.26166730842E+03  0.26719761028E+03  0.10566000000E+00 0. -1.
          4    1    1    2  501    0 -0.24563286741E+02 -0.76007243248E+02  0.86967187917E+03  0.87333248738E+03  0.00000000000E+00 0.  1.
</event>
<event>
 5    1  0.4419198E-005  0.4762797E+03  0.7818608E-02  0.9546148E-01
         -4   -1    0    0    0  501 -0.00000000000E+00  0.00000000000E+00  0.15236654457E+04  0.15236654457E+04  0.00000000000E+00 0. -1.
         21   -1    0    0  501  502  0.00000000000E+00 -0.00000000000E+00 -0.43047448188E+03  0.43047448188E+03  0.00000000000E+00 0. -1.
        -13    1    1    2    0    0 -0.38593112177E+03  0.23499336705E+03  0.52706171026E+03  0.69423250492E+03  0.10566000000E+00 0.  1.
         13    1    1    2    0    0  0.50273466477E+03  0.25128349522E+03  0.50589529218E+03  0.75618489535E+03  0.10566000000E+00 0. -1.
         -4    1    1    2    0  502 -0.11680354300E+03 -0.48627686227E+03  0.60233961391E+02  0.50372252733E+03  0.00000000000E+00 0. -1.
</event>
<event>
 5    1  0.4419198E-005  0.1511110E+03  0.7818608E-02  0.1100021E+00
          4   -1    0    0  502    0 -0.00000000000E+00  0.00000000000E+00  0.14645508493E+04  0.14645508493E+04  0.00000000000E+00 0.  1.
         21   -1    0    0  501  502  0.00000000000E+00 -0.00000000000E+00 -0.47968018405E+02  0.47968018405E+02  0.00000000000E+00 0.  1.
        -13    1    1    2    0    0  0.90531756470E+02 -0.13964439049E+03  0.74195246868E+03  0.76038807964E+03  0.10566000000E+00 0.  1.
         13    1    1    2    0    0 -0.89085469119E+02  0.10800717027E+03  0.69855023698E+03  0.71244242882E+03  0.10566000000E+00 0. -1.
          4    1    1    2  501    0 -0.14462873510E+01  0.31637220223E+02 -0.23919874760E+02  0.39688359239E+02  0.00000000000E+00 0.  1.
</event>
<event>
 5    1  0.4419198E-005  0.4735083E+03  0.7818608E-02  0.9999577E-01
          4   -1    0    0  502    0 -0.00000000000E+00  0.00000000000E+00  0.87848190646E+03  0.87848190646E+03  0.00000000000E+00 0.  1.
         21   -1    0    0  501  502  0.00000000000E+00 -0.00000000000E+00 -0.63076617078E+03  0.63076617078E+03  0.00000000000E+00 0.  1.
        -13    1    1    2    0    0 -0.44068847274E+03  0.20938892382E+03 -0.28029636610E+03  0.56268651613E+03  0.10566000000E+00 0.  1.
         13    1    1    2    0    0  0.76034207405E+02  0.60069725051E+02  0.48106537488E+03  0.49072749936E+03  0.10566000000E+00 0. -1.
          4    1    1    2  501    0  0.36465426533E+03 -0.26945864888E+03  0.46946726901E+02  0.45583406174E+03  0.00000000000E+00 0.  1.
</event>
<event>
 5    1  0.4419198E-005  0.2367288E+03  0.7818608E-02  0.1037509E+00
          4   -1    0    0  502    0 -0.00000000000E+00  0.00000000000E+00  0.11421300143E+04  0.11421300143E+04  0.00000000000E+00 0.  1.
         21   -1    0    0  501  502  0.00000000000E+00 -0.00000000000E+00 -0.20203025108E+03  0.20203025108E+03  0.00000000000E+00 0.  1.
        -13    1    1    2    0    0  0.15337833303E+03  0.19374071296E+03  0.93992606109E+03  0.97186490233E+03  0.10566000000E+00 0.  1.
         13    1    1    2    0    0 -0.57386294654E+02 -0.19968466081E+03  0.10266261843E+03  0.23174722213E+03  0.10566000000E+00 0. -1.
          4    1    1    2  501    0 -0.95992038379E+02  0.59439478473E+01 -0.10248891631E+03  0.14054814092E+03  0.00000000000E+00 0.  1.
</event>
<event>
 5    1  0.4419198E-005  0.2043730E+03  0.7818608E-02  0.1057179E+00
         21   -1    0    0  501  502  0.00000000000E+00  0.00000000000E+00  0.22798424004E+03  0.22798424004E+03  0.00000000000E+00 0. -1.
         -4   -1    0    0    0  501 -0.00000000000E+00 -0.00000000000E+00 -0.48655192120E+03  0.48655192120E+03  0.00000000000E+00 0. -1.
        -13    1    1    2    0    0 -0.17290232147E+03  0.90633448770E+02 -0.18803254146E+03  0.27104590500E+03  0.10566000000E+00 0.  1.
         13    1    1    2    0    0  0.22198356149E+03 -0.25531323505E+02 -0.19374601336E+03  0.29574664649E+03  0.10566000000E+00 0. -1.
         -4    1    1    2    0  502 -0.49081240020E+02 -0.65102125265E+02  0.12321087366E+03  0.14774360976E+03  0.00000000000E+00 0. -1.
</event>
<event>
 5    1  0.4419198E-005  0.3718956E+02  0.7818608E-02  0.1355006E+00
         21   -1    0    0  501  502  0.00000000000E+00  0.00000000000E+00  0.57277106125E+02  0.57277106125E+02  0.00000000000E+00 0.  1.
         -4   -1    0    0    0  501 -0.00000000000E+00 -0.00000000000E+00 -0.80319265848E+02  0.80319265848E+02  0.00000000000E+00 0. -1.
        -13    1    1    2    0    0  0.19368639551E+02  0.50282421210E+02 -0.38543347061E+02  0.66250032812E+02  0.10566000000E+00 0.  1.
         13    1    1    2    0    0  0.27913083485E+01 -0.27527581173E+02 -0.11201936148E+02  0.29850522023E+02  0.10566000000E+00 0. -1.
         -4    1    1    2    0  502 -0.22159947900E+02 -0.22754840038E+02  0.26703123486E+02  0.41495817138E+02  0.00000000000E+00 0. -1.
</event>
<event>
 5    1  0.4419198E-005  0.4587558E+03  0.7818608E-02  0.9573263E-01
         -4   -1    0    0    0  501 -0.00000000000E+00  0.00000000000E+00  0.82144011342E+03  0.82144011342E+03  0.00000000000E+00 0. -1.
         21   -1    0    0  501  502  0.00000000000E+00 -0.00000000000E+00 -0.80350956163E+03  0.80350956163E+03  0.00000000000E+00 0.  1.
        -13    1    1    2    0    0 -0.19637189655E+03 -0.36519076225E+03 -0.28086605388E+03  0.50081130775E+03  0.10566000000E+00 0.  1.
         13    1    1    2    0    0  0.49345101590E+03  0.10730414479E+03  0.47482211141E+03  0.69315520140E+03  0.10566000000E+00 0. -1.
         -4    1    1    2    0  502 -0.29707911935E+03  0.25788661746E+03 -0.17602550574E+03  0.43098316590E+03  0.00000000000E+00 0. -1.
</event>
<event>
 5    1  0.4419198E-005  0.1868202E+03  0.7818608E-02  0.1080384E+00
          4   -1    0    0  502    0 -0.00000000000E+00  0.00000000000E+00  0.13250081389E+04  0.13250081389E+04  0.00000000000E+00 0.  1.
         21   -1    0    0  501  502  0.00000000000E+00 -0.00000000000E+00 -0.38721300994E+03  0.38721300994E+03  0.00000000000E+00 0.  1.
        -13    1    1    2    0    0  0.83603151186E+02  0.17003583842E+03 -0.34581102678E+03  0.39431833668E+03  0.10566000000E+00 0.  1.
         13    1    1    2    0    0  0.68790244152E+02 -0.11901297046E+03  0.63109486715E+03  0.64589234965E+03  0.10566000000E+00 0. -1.
          4    1    1    2  501    0 -0.15239339534E+03 -0.51022867966E+02  0.65251128860E+03  0.67201046253E+03  0.00000000000E+00 0.  1.
</event>
<event>
 5    1  0.4419198E-005  0.4628030E+03  0.7818608E-02  0.9742122E-01
         -4   -1    0    0    0  501 -0.00000000000E+00  0.00000000000E+00  0.20838462746E+03  0.20838462746E+03  0.00000000000E+00 0. -1.
         21   -1    0    0  501  502  0.00000000000E+00 -0.00000000000E+00 -0.23182259801E+04  0.23182259801E+04  0.00000000000E+00 0. -1.
        -13    1    1    2    0    0  0.24640270355E+03 -0.14659505065E+02 -0.10254359234E+03  0.26729083953E+03  0.10566000000E+00 0.  1.
         13    1    1    2    0    0  0.20768517247E+03  0.27518030694E+03 -0.25043381950E+03  0.42611552577E+03  0.10566000000E+00 0. -1.
         -4    1    1    2    0  502 -0.45408787601E+03 -0.26052080187E+03 -0.17568639408E+04  0.18332042423E+04  0.00000000000E+00 0. -1.
</event>
<event>
 5    1  0.4419198E-005  0.4413181E+03  0.7818608E-02  0.1003351E+00
         21   -1    0    0  501  502  0.00000000000E+00  0.00000000000E+00  0.18642864008E+04  0.18642864008E+04  0.00000000000E+00 0. -1.
         -4   -1    0    0    0  501 -0.00000000000E+00 -0.00000000000E+00 -0.26775014049E+03  0.26775014049E+03  0.00000000000E+00 0. -1.
        -13    1    1    2    0    0 -0.76449213737E+02  0.75053053982E+02 -0.10472792384E+03  0.14981786405E+03  0.10566000000E+00 0.  1.
         13    1    1    2    0    0  0.23834167871E+03 -0.45815925700E+03  0.53314813245E+03  0.74226922534E+03  0.10566000000E+00 0. -1.
         -4    1    1    2    0  502 -0.16189246498E+03  0.38310620302E+03  0.11681160517E+04  0.12399494519E+04  0.00000000000E+00 0. -1.
</event>
<event>
 5    1  0.4419198E-005  0.4587736E+03  0.7818608E-02  0.9602059E-01
         -4   -1    0    0    0  501 -0.00000000000E+00  0.00000000000E+00  0.29166334784E+04  0.29166334784E+04  0.00000000000E+00 0. -1.
         21   -1    0    0  501  502  0.00000000000E+00 -0.00000000000E+00 -0.21434143949E+03  0.21434143949E+03  0.00000000000E+00 0. -1.
        -13    1    1    2    0    0  0.19623570071E+03  0.36445730627E+03  0.13686654109E+04  0.14298890155E+04  0.10566000000E+00 0.  1.
         13    1    1    2    0    0 -0.57097624863E+03 -0.11432189203E+03  0.92387191060E+03  0.10920726578E+04  0.10566000000E+00 0. -1.
         -4    1    1    2    0  502  0.37474054792E+03 -0.25013541423E+03  0.40975471733E+03  0.60901324459E+03  0.00000000000E+00 0. -1.
</event>
<event>
 5    1  0.4419198E-005  0.5174627E+03  0.7818608E-02  0.9440498E-01
         -4   -1    0    0    0  501 -0.00000000000E+00  0.00000000000E+00  0.22439239811E+04  0.22439239811E+04  0.00000000000E+00 0. -1.
         21   -1    0    0  501  502  0.00000000000E+00 -0.00000000000E+00 -0.27423715436E+03  0.27423715436E+03  0.00000000000E+00 0. -1.
        -13    1    1    2    0    0 -0.14224075328E+03 -0.42953135325E+03  0.41117342322E+03  0.61138630214E+03  0.10566000000E+00 0.  1.
         13    1    1    2    0    0  0.57123271486E+03  0.32303410148E+03  0.95295334128E+03  0.11570557148E+04  0.10566000000E+00 0. -1.
         -4    1    1    2    0  502 -0.42899196158E+03  0.10649725177E+03  0.60556006223E+03  0.74971911854E+03  0.00000000000E+00 0. -1.
</event>
<event>
 5    1  0.4419198E-005  0.4905579E+03  0.7818608E-02  0.9912139E-01
          4   -1    0    0  502    0 -0.00000000000E+00  0.00000000000E+00  0.10482163306E+04  0.10482163306E+04  0.00000000000E+00 0.  1.
         21   -1    0    0  501  502  0.00000000000E+00 -0.00000000000E+00 -0.34965363732E+03  0.34965363732E+03  0.00000000000E+00 0.  1.
        -13    1    1    2    0    0  0.46177614802E+03  0.31910258627E+03  0.39830074353E+03  0.68826387738E+03  0.10566000000E+00 0.  1.
         13    1    1    2    0    0 -0.63456715396E+02 -0.97541556488E+02  0.21705456374E+03  0.24627993174E+03  0.10566000000E+00 0. -1.
          4    1    1    2  501    0 -0.39831943263E+03 -0.22156102978E+03  0.83207385981E+02  0.46332615878E+03  0.00000000000E+00 0.  1.
</event>
<event>
 5    1  0.4419198E-005  0.2622965E+03  0.7818608E-02  0.1024211E+00
         21   -1    0    0  501  502  0.00000000000E+00  0.00000000000E+00  0.91770214821E+02  0.91770214821E+02  0.00000000000E+00 0.  1.
         -4   -1    0    0    0  501 -0.00000000000E+00 -0.00000000000E+00 -0.12683530826E+04  0.12683530826E+04  0.00000000000E+00 0. -1.
        -13    1    1    2    0    0 -0.23094339757E+03 -0.10920227178E+03 -0.50480817038E+03  0.56576610812E+03  0.10566000000E+00 0.  1.
         13    1    1    2    0    0  0.24314814978E+03  0.11221870333E+03 -0.70749938358E+03  0.75648492982E+03  0.10566000000E+00 0. -1.
         -4    1    1    2    0  502 -0.12204752208E+02 -0.30164315469E+01  0.35724686181E+02  0.37872259485E+02  0.00000000000E+00 0. -1.
</event>
<event>
 5    1  0.4419198E-005  0.8233612E+03  0.7818608E-02  0.8961035E-01
         21   -1    0    0  501  502  0.00000000000E+00  0.00000000000E+00  0.22313138386E+04  0.22313138386E+04  0.00000000000E+00 0. -1.
         -4   -1    0    0    0  501 -0.00000000000E+00 -0.00000000000E+00 -0.52812806012E+03  0.52812806012E+03  0.00000000000E+00 0. -1.
        -13    1    1    2    0    0 -0.28612422547E+03 -0.71762588597E+03  0.21729647193E+03  0.80254081048E+03  0.10566000000E+00 0.  1.
         13    1    1    2    0    0  0.21521154546E+03  0.89935771653E+03  0.73551746211E+03  0.11815863319E+04  0.10566000000E+00 0. -1.
         -4    1    1    2    0  502  0.70912680010E+02 -0.18173183056E+03  0.75037184438E+03  0.77531475625E+03  0.00000000000E+00 0. -1.
</event>
<event>
 5    1  0.4419198E-005  0.6138086E+02  0.7818608E-02  0.1251340E+00
         -4   -1    0    0    0  501 -0.00000000000E+00  0.00000000000E+00  0.57134563035E+02  0.57134563035E+02  0.00000000000E+00 0. -1.
         21   -1    0    0  501  502  0.00000000000E+00 -0.00000000000E+00 -0.15213428654E+03  0.15213428654E+03  0.00000000000E+00 0.  1.
        -13    1    1    2    0    0 -0.24662920863E+02  0.55973663778E+02 -0.71717133939E+02  0.94258523045E+02  0.10566000000E+00 0.  1.
         13    1    1    2    0    0  0.35319949328E+02 -0.50554128745E+02  0.24047893207E+02  0.66193134730E+02  0.10566000000E+00 0. -1.
         -4    1    1    2    0  502 -0.10657028465E+02 -0.54195350327E+01 -0.47330482776E+02  0.48817191802E+02  0.00000000000E+00 0. -1.
</event>
<event>
 5    1  0.4419198E-005  0.4727310E+02  0.7818608E-02  0.1303308E+00
         21   -1    0    0  501  502  0.00000000000E+00  0.00000000000E+00  0.67564436357E+02  0.67564436357E+02  0.00000000000E+00 0.  1.
         -4   -1    0    0    0  501 -0.00000000000E+00 -0.00000000000E+00 -0.89426936045E+02  0.89426936045E+02  0.00000000000E+00 0. -1.
        -13    1    1    2    0    0 -0.56064914733E+02 -0.38339864437E+01 -0.50110171042E+02  0.75292858373E+02  0.10566000000E+00 0.  1.
         13    1    1    2    0    0  0.37158033656E+02 -0.41413660042E+01 -0.96397923136E+01  0.38610971724E+02  0.10566000000E+00 0. -1.
         -4    1    1    2    0  502  0.18906881077E+02  0.79753524480E+01  0.37887463668E+02  0.43087542305E+02  0.00000000000E+00 0. -1.
</event>
<event>
 5    1  0.4419198E-005  0.4080464E+03  0.7818608E-02  0.1005774E+00
          4   -1    0    0  502    0 -0.00000000000E+00  0.00000000000E+00  0.18160301992E+03  0.18160301992E+03  0.00000000000E+00 0.  1.
         21   -1    0    0  501  502  0.00000000000E+00 -0.00000000000E+00 -0.19262140426E+04  0.19262140426E+04  0.00000000000E+00 0.  1.
        -13    1    1    2    0    0 -0.29026303168E+03  0.14889785984E+03 -0.16438911400E+03  0.36530397231E+03  0.10566000000E+00 0.  1.
         13    1    1    2    0    0 -0.12359918477E+03 -0.20427920570E+02 -0.24609131046E+02  0.12767019585E+03  0.10566000000E+00 0. -1.
          4    1    1    2  501    0  0.41386221645E+03 -0.12846993927E+03 -0.15556127776E+04  0.16148428943E+04  0.00000000000E+00 0.  1.
</event>
<event>
 5    1  0.4419198E-005  0.4630043E+03  0.7818608E-02  0.9883461E-01
         21   -1    0    0  501  502  0.00000000000E+00  0.00000000000E+00  0.27919466483E+03  0.27919466483E+03  0.00000000000E+00 0. -1.
         -4   -1    0    0    0  501 -0.00000000000E+00 -0.00000000000E+00 -0.12766646725E+04  0.12766646725E+04  0.00000000000E+00 0. -1.
        -13    1    1    2    0    0 -0.13972677234E+03 -0.60707246306E+02 -0.39412007019E+03  0.42253944378E+03  0.10566000000E+00 0.  1.
         13    1    1    2    0    0  0.49271184590E+03  0.17539687020E+03 -0.14340857170E+03  0.54230531509E+03  0.10566000000E+00 0. -1.
         -4    1    1    2    0  502 -0.35298507357E+03 -0.11468962389E+03 -0.45994136575E+03  0.59101457843E+03  0.00000000000E+00 0. -1.
</event>
<event>
 5    1  0.4419198E-005  0.2490394E+03  0.7818608E-02  0.1030892E+00
         -4   -1    0    0    0  501 -0.00000000000E+00  0.00000000000E+00  0.33158929347E+03  0.33158929347E+03  0.00000000000E+00 0. -1.
         21   -1    0    0  501  502  0.00000000000E+00 -0.00000000000E+00 -0.50006402791E+03  0.50006402791E+03  0.00000000000E+00 0. -1.
        -13    1    1    2    0    0  0.72310692951E+02  0.19105161406E+03 -0.12922557516E+03  0.24172053283E+03  0.10566000000E+00 0.  1.
         13    1    1    2    0    0 -0.11412091761E+03 -0.23898370015E+03  0.20666422646E+03  0.33592693616E+03  0.10566000000E+00 0. -1.
         -4    1    1    2    0  502  0.41810224657E+02  0.47932086090E+02 -0.24591338574E+03  0.25400585239E+03  0.00000000000E+00 0. -1.
</event>
<event>
 5    1  0.4419198E-005  0.4463156E+03  0.7818608E-02  0.9604101E-01
         21   -1    0    0  501  502  0.00000000000E+00  0.00000000000E+00  0.11152046275E+04  0.11152046275E+04  0.00000000000E+00 0. -1.
         -4   -1    0    0    0  501 -0.00000000000E+00 -0.00000000000E+00 -0.79836104759E+03  0.79836104759E+03  0.00000000000E+00 0. -1.
        -13    1    1    2    0    0  0.24454609067E+03 -0.38435160530E+03 -0.39211379529E+03  0.60106753912E+03  0.10566000000E+00 0.  1.
         13    1    1    2    0    0 -0.52770776760E+03  0.83880808187E+02  0.72343573245E+03  0.89937241903E+03  0.10566000000E+00 0. -1.
         -4    1    1    2    0  502  0.28316167693E+03  0.30047079711E+03 -0.14478357211E+02  0.41312571698E+03  0.00000000000E+00 0. -1.
</event>
<event>
 5    1  0.4419198E-005  0.3573490E+03  0.7818608E-02  0.9861022E-01
          4   -1    0    0  502    0 -0.00000000000E+00  0.00000000000E+00  0.28082022746E+04  0.28082022746E+04  0.00000000000E+00 0.  1.
         21   -1    0    0  501  502  0.00000000000E+00 -0.00000000000E+00 -0.78482339012E+02  0.78482339012E+02  0.00000000000E+00 0.  1.
        -13    1    1    2    0    0 -0.34995288779E+03  0.88178036523E+02  0.19655614834E+04  0.19984179607E+04  0.10566000000E+00 0.  1.
         13    1    1    2    0    0  0.32985423240E+03 -0.11812583999E+03  0.77507206015E+03  0.85058464499E+03  0.10566000000E+00 0. -1.
          4    1    1    2  501    0  0.20098655396E+02  0.29947803470E+02 -0.10913607905E+02  0.37682007894E+02  0.00000000000E+00 0.  1.
</event>
<event>
 5    1  0.4419198E-005  0.1375728E+03  0.7818608E-02  0.1114059E+00
         21   -1    0    0  501  502  0.00000000000E+00  0.00000000000E+00  0.15503859811E+03  0.15503859811E+03  0.00000000000E+00 0. -1.
          4   -1    0    0  502    0 -0.00000000000E+00 -0.00000000000E+00 -0.47925766012E+03  0.47925766012E+03  0.00000000000E+00 0.  1.
        -13    1    1    2    0    0  0.76359998208E+02 -0.11922858147E+03 -0.42692915258E+03  0.44979419344E+03  0.10566000000E+00 0.  1.
         13    1    1    2    0    0 -0.32441352420E+02  0.10018923201E+03  0.73540692551E+02  0.12844675232E+03  0.10566000000E+00 0. -1.
          4    1    1    2  501    0 -0.43918645788E+02  0.19039349468E+02  0.29169398012E+02  0.56055312473E+02  0.00000000000E+00 0.  1.
</event>
<event>
 5    1  0.4419198E-005  0.1615035E+03  0.7818608E-02  0.1090290E+00
         -4   -1    0    0    0  501 -0.00000000000E+00  0.00000000000E+00  0.10160946248E+04  0.10160946248E+04  0.00000000000E+00 0. -1.
         21   -1    0    0  501  502  0.00000000000E+00 -0.00000000000E+00 -0.24848672309E+03  0.24848672309E+03  0.00000000000E+00 0.  1.
        -13    1    1    2    0    0  0.10846832802E+03  0.25950744545E+03  0.92934250609E+02  0.29621998333E+03  0.10566000000E+00 0.  1.
         13    1    1    2    0    0 -0.90119436547E+02 -0.12391266694E+03  0.78049072229E+03  0.79538772974E+03  0.10566000000E+00 0. -1.
         -4    1    1    2    0  502 -0.18348891471E+02 -0.13559477850E+03 -0.10581707121E+03  0.17297363480E+03  0.00000000000E+00 0. -1.
</event>
<event>
 5    1  0.4419198E-005  0.3062525E+03  0.7818608E-02  0.1004757E+00
         21   -1    0    0  501  502  0.00000000000E+00  0.00000000000E+00  0.63216108714E+03  0.63216108714E+03  0.00000000000E+00 0.  1.
          4   -1    0    0  502    0 -0.00000000000E+00 -0.00000000000E+00 -0.20273344353E+04  0.20273344353E+04  0.00000000000E+00 0.  1.
        -13    1    1    2    0    0 -0.30375421364E+03 -0.11626345575E+03 -0.16926058987E+04  0.17235714528E+04  0.10566000000E+00 0.  1.
         13    1    1    2    0    0  0.24447220151E+03  0.47416082251E+02 -0.26648673680E+03  0.36473296289E+03  0.10566000000E+00 0. -1.
          4    1    1    2  501    0  0.59282012133E+02  0.68847373503E+02  0.56391928733E+03  0.57119110675E+03  0.00000000000E+00 0.  1.
</event>
<event>
 5    1  0.4419198E-005  0.4885693E+02  0.7818608E-02  0.1303211E+00
          4   -1    0    0  502    0 -0.00000000000E+00  0.00000000000E+00  0.12985896533E+03  0.12985896533E+03  0.00000000000E+00 0.  1.
         21   -1    0    0  501  502  0.00000000000E+00 -0.00000000000E+00 -0.71008529745E+02  0.71008529745E+02  0.00000000000E+00 0.  1.
        -13    1    1    2    0    0  0.15995722774E+02  0.37766896573E+02  0.90463176424E+02  0.99326728913E+02  0.10566000000E+00 0.  1.
         13    1    1    2    0    0  0.35202574636E+02 -0.24524673575E+02 -0.80777000936E+01  0.43657087372E+02  0.10566000000E+00 0. -1.
          4    1    1    2  501    0 -0.51198297410E+02 -0.13242222999E+02 -0.23535040744E+02  0.57883678792E+02  0.00000000000E+00 0.  1.
</event>
<event>
 5    1  0.4419198E-005  0.4770811E+02  0.7818608E-02  0.1301412E+00
         21   -1    0    0  501  502  0.00000000000E+00  0.00000000000E+00  0.93447090806E+02  0.93447090806E+02  0.00000000000E+00 0. -1.
          4   -1    0    0  502    0 -0.00000000000E+00 -0.00000000000E+00 -0.18188594591E+03  0.18188594591E+03  0.00000000000E+00 0.  1.
        -13    1    1    2    0    0  0.43085656084E+02  0.22069522148E+02 -0.17075410066E+03  0.17748355311E+03  0.10566000000E+00 0.  1.
         13    1    1    2    0    0 -0.31859425077E+02 -0.19465230637E+02  0.43328760266E+02  0.57195373940E+02  0.10566000000E+00 0. -1.
          4    1    1    2  501    0 -0.11226231007E+02 -0.26042915111E+01  0.38986485294E+02  0.40654109663E+02  0.00000000000E+00 0.  1.
</event>
<event>
 5    1  0.4419198E-005  0.4498229E+03  0.7818608E-02  0.9595300E-01
         -4   -1    0    0    0  501 -0.00000000000E+00  0.00000000000E+00  0.19302311317E+04  0.19302311317E+04  0.00000000000E+00 0. -1.
         21   -1    0    0  501  502  0.00000000000E+00 -0.00000000000E+00 -0.26594181967E+03  0.26594181967E+03  0.00000000000E+00 0. -1.
        -13    1    1    2    0    0 -0.22081021561E+03  0.34935455116E+03  0.88599758618E+03  0.97764895929E+03  0.10566000000E+00 0.  1.
         13    1    1    2    0    0  0.46682051912E+03 -0.29226388574E+03  0.79305578701E+03  0.96554495931E+03  0.10566000000E+00 0. -1.
         -4    1    1    2    0  502 -0.24601030351E+03 -0.57090665427E+02 -0.14764061167E+02  0.25297903276E+03  0.00000000000E+00 0. -1.
</event>
<event>
 5    1  0.4419198E-005  0.3038605E+03  0.7818608E-02  0.1005725E+00
          4   -1    0    0  502    0 -0.00000000000E+00  0.00000000000E+00  0.15438022044E+04  0.15438022044E+04  0.00000000000E+00 0.  1.
         21   -1    0    0  501  502  0.00000000000E+00 -0.00000000000E+00 -0.49442088156E+03  0.49442088156E+03  0.00000000000E+00 0.  1.
        -13    1    1    2    0    0 -0.30026958560E+03 -0.34843533072E+02  0.13107203066E+04  0.13451258785E+04  0.10566000000E+00 0.  1.
         13    1    1    2    0    0  0.29093162031E+03  0.24863024003E+03 -0.39277257428E+02  0.38470887443E+03  0.10566000000E+00 0. -1.
          4    1    1    2  501    0  0.93379652880E+01 -0.21378670696E+03 -0.22206172629E+03  0.30838833303E+03  0.00000000000E+00 0.  1.
</event>
<event>
 5    1  0.4419198E-005  0.6947688E+02  0.7818608E-02  0.1228107E+00
          4   -1    0    0  502    0 -0.00000000000E+00  0.00000000000E+00  0.24192328614E+02  0.24192328614E+02  0.00000000000E+00 0.  1.
         21   -1    0    0  501  502  0.00000000000E+00 -0.00000000000E+00 -0.69870489666E+03  0.69870489666E+03  0.00000000000E+00 0.  1.
        -13    1    1    2    0    0  0.50471815778E+02 -0.39420295268E+02 -0.69418910925E+02  0.94447658652E+02  0.10566000000E+00 0.  1.
         13    1    1    2    0    0 -0.54570694791E+02  0.57015028691E+02 -0.12379788842E+03  0.14681485813E+03  0.10566000000E+00 0. -1.
          4    1    1    2  501    0  0.40988790137E+01 -0.17594733423E+02 -0.48129576870E+03  0.48163470849E+03  0.00000000000E+00 0.  1.
</event>
<event>
 5    1  0.4419198E-005  0.3797081E+03  0.7818608E-02  0.9891042E-01
          4   -1    0    0  502    0 -0.00000000000E+00  0.00000000000E+00  0.21152069277E+04  0.21152069277E+04  0.00000000000E+00 0.  1.
         21   -1    0    0  501  502  0.00000000000E+00 -0.00000000000E+00 -0.23046528498E+03  0.23046528498E+03  0.00000000000E+00 0.  1.
        -13    1    1    2    0    0  0.33450700396E+03 -0.47672722784E+03  0.99063473115E+03  0.11491392288E+04  0.10566000000E+00 0.  1.
         13    1    1    2    0    0 -0.21913155577E+03  0.15648772009E+03  0.79893076765E+03  0.84308803096E+03  0.10566000000E+00 0. -1.
          4    1    1    2  501    0 -0.11537544819E+03  0.32023950775E+03  0.95176143917E+02  0.35344495291E+03  0.00000000000E+00 0.  1.
</event>
<event>
 5    1  0.4419198E-005  0.4474766E+03  0.7818608E-02  0.9668514E-01
         21   -1    0    0  501  502  0.00000000000E+00  0.00000000000E+00  0.56082834833E+03  0.56082834833E+03  0.00000000000E+00 0.  1.
          4   -1    0    0  502    0 -0.00000000000E+00 -0.00000000000E+00 -0.94428888087E+03  0.94428888087E+03  0.00000000000E+00 0.  1.
        -13    1    1    2    0    0  0.53244491675E+01  0.52581890128E+03 -0.24974348253E+03  0.58213888801E+03  0.10566000000E+00 0.  1.
         13    1    1    2    0    0 -0.30159608830E+03 -0.18302145375E+03 -0.27617033857E+03  0.44802580292E+03  0.10566000000E+00 0. -1.
          4    1    1    2  501    0  0.29627163914E+03 -0.34279744753E+03  0.14245328856E+03  0.47495253827E+03  0.00000000000E+00 0.  1.
</event>
<event>
 5    1  0.4419198E-005  0.4591104E+03  0.7818608E-02  0.9718187E-01
         -4   -1    0    0    0  501 -0.00000000000E+00  0.00000000000E+00  0.60971074934E+03  0.60971074934E+03  0.00000000000E+00 0. -1.
         21   -1    0    0  501  502  0.00000000000E+00 -0.00000000000E+00 -0.79002318834E+03  0.79002318834E+03  0.00000000000E+00 0. -1.
        -13    1    1    2    0    0  0.17166098845E+03  0.21443969712E+03  0.15275996220E+03  0.31430478182E+03  0.10566000000E+00 0.  1.
         13    1    1    2    0    0  0.31197710029E+02 -0.58255473642E+03 -0.65213821211E+02  0.58702314408E+03  0.10566000000E+00 0. -1.
         -4    1    1    2    0  502 -0.20285869848E+03  0.36811503931E+03 -0.26785857999E+03  0.49840601179E+03  0.00000000000E+00 0. -1.
</event>
<event>
 5    1  0.4419198E-005  0.4212429E+03  0.7818608E-02  0.1003543E+00
         -4   -1    0    0    0  501 -0.00000000000E+00  0.00000000000E+00  0.24229288005E+04  0.24229288005E+04  0.00000000000E+00 0. -1.
         21   -1    0    0  501  502  0.00000000000E+00 -0.00000000000E+00 -0.11493962241E+03  0.11493962241E+03  0.00000000000E+00 0. -1.
        -13    1    1    2    0    0  0.12196577566E+03 -0.10567244510E+02  0.16429643770E+03  0.20489179509E+03  0.10566000000E+00 0.  1.
         13    1    1    2    0    0  0.34592461156E+03  0.17752610609E+03  0.63486134518E+03  0.74446510596E+03  0.10566000000E+00 0. -1.
         -4    1    1    2    0  502 -0.46789038722E+03 -0.16695886158E+03  0.15088313952E+04  0.15885115218E+04  0.00000000000E+00 0. -1.
</event>
<event>
 5    1  0.4419198E-005  0.9208402E+02  0.7818608E-02  0.1178362E+00
         -4   -1    0    0    0  501 -0.00000000000E+00  0.00000000000E+00  0.25800167261E+02  0.25800167261E+02  0.00000000000E+00 0. -1.
         21   -1    0    0  501  502  0.00000000000E+00 -0.00000000000E+00 -0.79092873585E+03  0.79092873585E+03  0.00000000000E+00 0.  1.
        -13    1    1    2    0    0 -0.37783381780E+02  0.61455121209E+02 -0.35585242079E+03  0.36309127283E+03  0.10566000000E+00 0.  1.
         13    1    1    2    0    0 -0.11756036506E+02 -0.10503308952E+03 -0.13453021600E+03  0.17108052043E+03  0.10566000000E+00 0. -1.
         -4    1    1    2    0  502  0.49539418286E+02  0.43577968314E+02 -0.27474593180E+03  0.28255710985E+03  0.00000000000E+00 0. -1.
</event>
<event>
 5    1  0.4419198E-005  0.1093448E+03  0.7818608E-02  0.1161754E+00
         21   -1    0    0  501  502  0.00000000000E+00  0.00000000000E+00  0.34166200008E+02  0.34166200008E+02  0.00000000000E+00 0.  1.
          4   -1    0    0  502    0 -0.00000000000E+00 -0.00000000000E+00 -0.78981087762E+03  0.78981087762E+03  0.00000000000E+00 0.  1.
        -13    1    1    2    0    0 -0.81673043608E+02  0.13866537987E+03 -0.39740280416E+03  0.42875117906E+03  0.10566000000E+00 0.  1.
         13    1    1    2    0    0  0.23696575902E+02 -0.78358842602E+02 -0.15155557987E+03  0.17225196916E+03  0.10566000000E+00 0. -1.
          4    1    1    2  501    0  0.57976467706E+02 -0.60306537266E+02 -0.20668629358E+03  0.22297392941E+03  0.00000000000E+00 0.  1.
</event>
<event>
 5    1  0.4419198E-005  0.5139047E+03  0.7818608E-02  0.9561239E-01
         -4   -1    0    0    0  501 -0.00000000000E+00  0.00000000000E+00  0.18447283611E+04  0.18447283611E+04  0.00000000000E+00 0. -1.
         21   -1    0    0  501  502  0.00000000000E+00 -0.00000000000E+00 -0.27486376552E+03  0.27486376552E+03  0.00000000000E+00 0. -1.
        -13    1    1    2    0    0  0.65419737629E+02 -0.33437025876E+03  0.35681724973E+03  0.49335765210E+03  0.10566000000E+00 0.  1.
         13    1    1    2    0    0 -0.25740315578E+01 -0.34154712442E+03  0.68774433481E+03  0.76788888849E+03  0.10566000000E+00 0. -1.
         -4    1    1    2    0  502 -0.62845706071E+02  0.67591738318E+03  0.52530301104E+03  0.85834558603E+03  0.00000000000E+00 0. -1.
</event>
<event>
 5    1  0.4419198E-005  0.4917967E+03  0.7818608E-02  0.9643182E-01
         -4   -1    0    0    0  501 -0.00000000000E+00  0.00000000000E+00  0.14521853105E+04  0.14521853105E+04  0.00000000000E+00 0. -1.
         21   -1    0    0  501  502  0.00000000000E+00 -0.00000000000E+00 -0.30156945095E+03  0.30156945095E+03  0.00000000000E+00 0.  1.
        -13    1    1    2    0    0 -0.63724509418E+02  0.28341855064E+03  0.18045961420E+03  0.34198329121E+03  0.10566000000E+00 0.  1.
         13    1    1    2    0    0 -0.13386037202E+03 -0.60570435756E+03  0.43951191267E+03  0.76024147513E+03  0.10566000000E+00 0. -1.
         -4    1    1    2    0  502  0.19758488144E+03  0.32228580692E+03  0.53064433271E+03  0.65152999513E+03  0.00000000000E+00 0. -1.
</event>
<event>
 5    1  0.4419198E-005  0.4104093E+03  0.7818608E-02  0.9699455E-01
         -4   -1    0    0    0  501 -0.00000000000E+00  0.00000000000E+00  0.10760961972E+04  0.10760961972E+04  0.00000000000E+00 0. -1.
         21   -1    0    0  501  502  0.00000000000E+00 -0.00000000000E+00 -0.47509945844E+03  0.47509945844E+03  0.00000000000E+00 0.  1.
        -13    1    1    2    0    0 -0.30800637073E+03  0.37269607768E+03  0.49462967394E+02  0.48602148824E+03  0.10566000000E+00 0.  1.
         13    1    1    2    0    0  0.48843488555E+01 -0.41296537402E+03  0.62645911204E+03  0.75034344618E+03  0.10566000000E+00 0. -1.
         -4    1    1    2    0  502  0.30312202187E+03  0.40269296343E+02 -0.74925340642E+02  0.31483072125E+03  0.00000000000E+00 0. -1.
</event>
<event>
 5    1  0.4419198E-005  0.3379028E+02  0.7818608E-02  0.1448952E+00
         -4   -1    0    0    0  501 -0.00000000000E+00  0.00000000000E+00  0.22276088014E+03  0.22276088014E+03  0.00000000000E+00 0. -1.
         21   -1    0    0  501  502  0.00000000000E+00 -0.00000000000E+00 -0.13868455315E+02  0.13868455315E+02  0.00000000000E+00 0. -1.
        -13    1    1    2    0    0 -0.99720668911E+01  0.26911034548E+01  0.81975709275E+01  0.13186943885E+02  0.10566000000E+00 0.  1.
         13    1    1    2    0    0  0.21091649858E+02  0.29073738747E+02  0.18082870440E+03  0.18436152386E+03  0.10566000000E+00 0. -1.
         -4    1    1    2    0  502 -0.11119582967E+02 -0.31764842202E+02  0.19866149493E+02  0.39080867712E+02  0.00000000000E+00 0. -1.
</event>
<event>
 5    1  0.4419198E-005  0.3554821E+03  0.7818608E-02  0.1031520E+00
         -4   -1    0    0    0  501 -0.00000000000E+00  0.00000000000E+00  0.82785965802E+03  0.82785965802E+03  0.00000000000E+00 0. -1.
         21   -1    0    0  501  502  0.00000000000E+00 -0.00000000000E+00 -0.41068158068E+03  0.41068158068E+03  0.00000000000E+00 0. -1.
        -13    1    1    2    0    0  0.13983119706E+02 -0.82813613549E+02  0.19345199154E+03  0.21089643529E+03  0.10566000000E+00 0.  1.
         13    1    1    2    0    0  0.22004692092E+03 -0.26523537266E+03 -0.22644673653E+03  0.41236947749E+03  0.10566000000E+00 0. -1.
         -4    1    1    2    0  502 -0.23403004063E+03  0.34804898621E+03  0.45017282232E+03  0.61527532591E+03  0.00000000000E+00 0. -1.
</event>
<event>
 5    1  0.4419198E-005  0.4851858E+03  0.7818608E-02  0.1024496E+00
         21   -1    0    0  501  502  0.00000000000E+00  0.00000000000E+00  0.13470332387E+03  0.13470332387E+03  0.00000000000E+00 0.  1.
          4   -1    0    0  502    0 -0.00000000000E+00 -0.00000000000E+00 -0.20750496235E+04  0.20750496235E+04  0.00000000000E+00 0.  1.
        -13    1    1    2    0    0  0.46019316956E+03 -0.20853308887E+03 -0.11840168853E+04  0.12873071888E+04  0.10566000000E+00 0.  1.
         13    1    1    2    0    0 -0.18361695469E+02  0.36741878121E+02 -0.13383796813E+03  0.13999903695E+03  0.10566000000E+00 0. -1.
          4    1    1    2  501    0 -0.44183147410E+03  0.17179121075E+03 -0.62249144618E+03  0.78244672161E+03  0.00000000000E+00 0.  1.
</event>
<event>
 5    1  0.4419198E-005  0.4944069E+03  0.7818608E-02  0.9627250E-01
         21   -1    0    0  501  502  0.00000000000E+00  0.00000000000E+00  0.45645116645E+03  0.45645116645E+03  0.00000000000E+00 0.  1.
          4   -1    0    0  502    0 -0.00000000000E+00 -0.00000000000E+00 -0.10220289489E+04  0.10220289489E+04  0.00000000000E+00 0.  1.
        -13    1    1    2    0    0  0.47236190146E+03 -0.42468225942E+03 -0.16426689217E+03  0.65609786651E+03  0.10566000000E+00 0.  1.
         13    1    1    2    0    0 -0.18982074057E+03  0.23548081264E+03 -0.81487446898E+01  0.30257154505E+03  0.10566000000E+00 0. -1.
          4    1    1    2  501    0 -0.28254116089E+03  0.18920144679E+03 -0.39316214560E+03  0.51981070381E+03  0.00000000000E+00 0.  1.
</event>
<event>
 5    1  0.4419198E-005  0.6056927E+03  0.7818608E-02  0.9272310E-01
         21   -1    0    0  501  502  0.00000000000E+00  0.00000000000E+00  0.49793974142E+03  0.49793974142E+03  0.00000000000E+00 0. -1.
          4   -1    0    0  502    0 -0.00000000000E+00 -0.00000000000E+00 -0.23817669580E+04  0.23817669580E+04  0.00000000000E+00 0.  1.
        -13    1    1    2    0    0 -0.46068553408E+03  0.43760282466E+03 -0.11712226089E+04  0.13324750670E+04  0.10566000000E+00 0.  1.
         13    1    1    2    0    0  0.14973924597E+02 -0.68345019516E+03 -0.77612831395E+03  0.10342647430E+04  0.10566000000E+00 0. -1.
          4    1    1    2  501    0  0.44571160948E+03  0.24584737050E+03  0.63523706257E+02  0.51296688944E+03  0.00000000000E+00 0.  1.
</event>
<event>
 5    1  0.4419198E-005  0.4924628E+03  0.7818608E-02  0.9650905E-01
          4   -1    0    0  502    0 -0.00000000000E+00  0.00000000000E+00  0.27537973561E+04  0.27537973561E+04  0.00000000000E+00 0.  1.
         21   -1    0    0  501  502  0.00000000000E+00 -0.00000000000E+00 -0.16500472644E+03  0.16500472644E+03  0.00000000000E+00 0.  1.
        -13    1    1    2    0    0  0.47443731090E+03  0.34261835681E+03  0.67641521948E+03  0.89443594556E+03  0.10566000000E+00 0.  1.
         13    1    1    2    0    0 -0.10042085191E+03 -0.26303629884E+03  0.82170311391E+03  0.86860143943E+03  0.10566000000E+00 0. -1.
          4    1    1    2  501    0 -0.37401645899E+03 -0.79582057965E+02  0.10906742962E+04  0.11557646975E+04  0.00000000000E+00 0.  1.
</event>
<event>
 5    1  0.4419198E-005  0.4083545E+03  0.7818608E-02  0.9975684E-01
         21   -1    0    0  501  502  0.00000000000E+00  0.00000000000E+00  0.28783156450E+03  0.28783156450E+03  0.00000000000E+00 0.  1.
          4   -1    0    0  502    0 -0.00000000000E+00 -0.00000000000E+00 -0.20159168828E+04  0.20159168828E+04  0.00000000000E+00 0.  1.
        -13    1    1    2    0    0 -0.30504370065E+03  0.28320307860E+03 -0.15242857814E+04  0.15800958191E+04  0.10566000000E+00 0.  1.
         13    1    1    2    0    0 -0.82814800199E+02 -0.14087445928E+03  0.11666606402E+03  0.20078567196E+03  0.10566000000E+00 0. -1.
          4    1    1    2  501    0  0.38785850085E+03 -0.14232861933E+03 -0.32046560096E+03  0.52286695627E+03  0.00000000000E+00 0.  1.
</event>
<event>
 5    1  0.4981078E-005  0.4932795E+03  0.7818608E-02  0.9581492E-01
          4   -1    0    0  502    0 -0.00000000000E+00  0.00000000000E+00  0.67037551068E+03  0.67037551068E+03  0.00000000000E+00 0.  1.
         21   -1    0    0  501  502  0.00000000000E+00 -0.00000000000E+00 -0.99470176883E+03  0.99470176883E+03  0.00000000000E+00 0.  1.
        -13    1    1    2    0    0  0.30929702556E+03 -0.57329355412E+02  0.50276628886E+02  0.31855777433E+03  0.10566000000E+00 0.  1.
         13    1    1    2    0    0  0.22195674777E+03 -0.28129962478E+03  0.26735352140E+03  0.44707068049E+03  0.10566000000E+00 0. -1.
          4    1    1    2  501    0 -0.53125377333E+03  0.33862898019E+03 -0.64195640844E+03  0.89944882469E+03  0.00000000000E+00 0.  1.
</event>
<event>
 5    1  0.4419198E-005  0.2436140E+03  0.7818608E-02  0.1033756E+00
         21   -1    0    0  501  502  0.00000000000E+00  0.00000000000E+00  0.12621983404E+03  0.12621983404E+03  0.00000000000E+00 0.  1.
          4   -1    0    0  502    0 -0.00000000000E+00 -0.00000000000E+00 -0.34471063766E+04  0.34471063766E+04  0.00000000000E+00 0.  1.
        -13    1    1    2    0    0  0.16748512438E+02 -0.31957332983E+03 -0.11317010438E+03  0.33943351263E+03  0.10566000000E+00 0.  1.
         13    1    1    2    0    0 -0.28082477537E+02  0.23376954070E+03 -0.11247944521E+04  0.11491733526E+04  0.10566000000E+00 0. -1.
          4    1    1    2  501    0  0.11333965099E+02  0.85803789131E+02 -0.20829219860E+04  0.20847193453E+04  0.00000000000E+00 0.  1.
</event>
<event>
 5    1  0.4419198E-005  0.3220234E+03  0.7818608E-02  0.9986076E-01
         21   -1    0    0  501  502  0.00000000000E+00  0.00000000000E+00  0.68373986631E+02  0.68373986631E+02  0.00000000000E+00 0.  1.
         -4   -1    0    0    0  501 -0.00000000000E+00 -0.00000000000E+00 -0.17154199529E+04  0.17154199529E+04  0.00000000000E+00 0. -1.
        -13    1    1    2    0    0 -0.32068490347E+03  0.39378887139E+02 -0.86866570541E+03  0.92680614099E+03  0.10566000000E+00 0.  1.
         13    1    1    2    0    0  0.31960423493E+03 -0.29245292038E+02 -0.78268091275E+03  0.84592646042E+03  0.10566000000E+00 0. -1.
         -4    1    1    2    0  502  0.10806685390E+01 -0.10133595101E+02  0.43006518931E+01  0.11061338114E+02  0.00000000000E+00 0. -1.
</event>
<event>
 5    1  0.4419198E-005  0.5437771E+03  0.7818608E-02  0.9386859E-01
         21   -1    0    0  501  502  0.00000000000E+00  0.00000000000E+00  0.15384655586E+03  0.15384655586E+03  0.00000000000E+00 0.  1.
         -4   -1    0    0    0  501 -0.00000000000E+00 -0.00000000000E+00 -0.26367862301E+04  0.26367862301E+04  0.00000000000E+00 0. -1.
        -13    1    1    2    0    0  0.50870968985E+03 -0.94565023528E+02 -0.12708741692E+04  0.13721695440E+04  0.10566000000E+00 0.  1.
         13    1    1    2    0    0 -0.57770789579E+03  0.48899380690E+02 -0.12027557278E+04  0.13351999529E+04  0.10566000000E+00 0. -1.
         -4    1    1    2    0  502  0.68998205941E+02  0.45665642839E+02 -0.93097772136E+01  0.83263289094E+02  0.00000000000E+00 0. -1.
</event>
<event>
 5    1  0.4419198E-005  0.3033169E+02  0.7818608E-02  0.1413575E+00
          4   -1    0    0  502    0 -0.00000000000E+00  0.00000000000E+00  0.89631205110E+02  0.89631205110E+02  0.00000000000E+00 0.  1.
         21   -1    0    0  501  502  0.00000000000E+00 -0.00000000000E+00 -0.11717125623E+03  0.11717125623E+03  0.00000000000E+00 0.  1.
        -13    1    1    2    0    0  0.26099529075E+02  0.45387631661E+01  0.65083406520E+02  0.70268390883E+02  0.10566000000E+00 0.  1.
         13    1    1    2    0    0 -0.46653110611E+02  0.21667402706E+02 -0.17458887264E+02  0.54321386012E+02  0.10566000000E+00 0. -1.
          4    1    1    2  501    0  0.20553581536E+02 -0.26206165872E+02 -0.75164570375E+02  0.82212684443E+02  0.00000000000E+00 0.  1.
</event>
<event>
 5    1  0.4419198E-005  0.6408929E+02  0.7818608E-02  0.1243145E+00
          4   -1    0    0  502    0 -0.00000000000E+00  0.00000000000E+00  0.12081359954E+03  0.12081359954E+03  0.00000000000E+00 0.  1.
         21   -1    0    0  501  502  0.00000000000E+00 -0.00000000000E+00 -0.65586480535E+02  0.65586480535E+02  0.00000000000E+00 0. -1.
        -13    1    1    2    0    0  0.56066516912E+02 -0.29821865287E+02  0.70977536063E+02  0.95239801331E+02  0.10566000000E+00 0.  1.
         13    1    1    2    0    0 -0.66971009592E+02  0.12666398673E+02 -0.54612021349E+01  0.68376821174E+02  0.10566000000E+00 0. -1.
          4    1    1    2  501    0  0.10904492679E+02  0.17155466614E+02 -0.10289214920E+02  0.22783457574E+02  0.00000000000E+00 0.  1.
</event>
<event>
 5    1  0.4419198E-005  0.4683749E+03  0.7818608E-02  0.1007064E+00
          4   -1    0    0  502    0 -0.00000000000E+00  0.00000000000E+00  0.21345603820E+04  0.21345603820E+04  0.00000000000E+00 0.  1.
         21   -1    0    0  501  502  0.00000000000E+00 -0.00000000000E+00 -0.14202909687E+03  0.14202909687E+03  0.00000000000E+00 0.  1.
        -13    1    1    2    0    0  0.28835482923E+03 -0.35618247546E+03  0.13608931373E+04  0.14359821049E+04  0.10566000000E+00 0.  1.
         13    1    1    2    0    0  0.67625668423E+02  0.41701294557E+02  0.82377887025E+02  0.11444805124E+03  0.10566000000E+00 0. -1.
          4    1    1    2  501    0 -0.35598049765E+03  0.31448118090E+03  0.54926026080E+03  0.72615932270E+03  0.00000000000E+00 0.  1.
</event>
<event>
 5    1  0.4419198E-005  0.7864975E+03  0.7818608E-02  0.9006146E-01
         21   -1    0    0  501  502  0.00000000000E+00  0.00000000000E+00  0.57626897268E+03  0.57626897268E+03  0.00000000000E+00 0.  1.
         -4   -1    0    0    0  501 -0.00000000000E+00 -0.00000000000E+00 -0.18950372933E+04  0.18950372933E+04  0.00000000000E+00 0. -1.
        -13    1    1    2    0    0 -0.58528740925E+02  0.75850328270E+03 -0.80482356074E+03  0.11074718138E+04  0.10566000000E+00 0.  1.
         13    1    1    2    0    0  0.43229922151E+03 -0.77309314108E+03 -0.40704973335E+03  0.97480516940E+03  0.10566000000E+00 0. -1.
         -4    1    1    2    0  502 -0.37377048058E+03  0.14589858385E+02 -0.10689502651E+03  0.38902928272E+03  0.00000000000E+00 0. -1.
</event>
<event>
 5    1  0.4419198E-005  0.3589191E+03  0.7818608E-02  0.9960277E-01
         21   -1    0    0  501  502  0.00000000000E+00  0.00000000000E+00  0.13250333517E+03  0.13250333517E+03  0.00000000000E+00 0.  1.
          4   -1    0    0  502    0 -0.00000000000E+00 -0.00000000000E+00 -0.32994096165E+04  0.32994096165E+04  0.00000000000E+00 0.  1.
        -13    1    1    2    0    0  0.24492574331E+03 -0.23138995745E+03 -0.26349182603E+03  0.42773576621E+03  0.10566000000E+00 0.  1.
         13    1    1    2    0    0 -0.50845113023E+02 -0.24805493083E+03 -0.10304220470E+04  0.10610777918E+04  0.10566000000E+00 0. -1.
          4    1    1    2  501    0 -0.19408063029E+03  0.47944488828E+03 -0.18729924083E+04  0.19430993936E+04  0.00000000000E+00 0.  1.
</event>
<event>
 5    1  0.4419198E-005  0.4107988E+03  0.7818608E-02  0.9895331E-01
         21   -1    0    0  501  502  0.00000000000E+00  0.00000000000E+00  0.20778547789E+03  0.20778547789E+03  0.00000000000E+00 0. -1.
         -4   -1    0    0    0  501 -0.00000000000E+00 -0.00000000000E+00 -0.21385723630E+04  0.21385723630E+04  0.00000000000E+00 0. -1.
        -13    1    1    2    0    0  0.20842448866E+03  0.22258327534E+02 -0.73547868146E+03  0.76476473681E+03  0.10566000000E+00 0.  1.
         13    1    1    2    0    0 -0.24521003223E+03 -0.36224693814E+03 -0.12055373111E+03  0.45374444057E+03  0.10566000000E+00 0. -1.
         -4    1    1    2    0  502  0.36785543570E+02  0.33998861061E+03 -0.10747544725E+04  0.11278486635E+04  0.00000000000E+00 0. -1.
</event>
<event>
 5    1  0.4419198E-005  0.2909572E+03  0.7818608E-02  0.1011109E+00
         21   -1    0    0  501  502  0.00000000000E+00  0.00000000000E+00  0.73306212375E+02  0.73306212375E+02  0.00000000000E+00 0.  1.
         -4   -1    0    0    0  501 -0.00000000000E+00 -0.00000000000E+00 -0.14456576802E+04  0.14456576802E+04  0.00000000000E+00 0. -1.
        -13    1    1    2    0    0  0.94739059476E+02  0.27042575638E+03 -0.46840653921E+03  0.54909951397E+03  0.10566000000E+00 0.  1.
         13    1    1    2    0    0 -0.12140836335E+03 -0.26771000648E+03 -0.89430479369E+03  0.94137649930E+03  0.10566000000E+00 0. -1.
         -4    1    1    2    0  502  0.26669303876E+02 -0.27157498996E+01 -0.96401349527E+01  0.28487879329E+02  0.00000000000E+00 0. -1.
</event>
<event>
 5    1  0.4419198E-005  0.2175874E+03  0.7818608E-02  0.1071256E+00
         21   -1    0    0  501  502  0.00000000000E+00  0.00000000000E+00  0.42490383691E+03  0.42490383691E+03  0.00000000000E+00 0.  1.
          4   -1    0    0  502    0 -0.00000000000E+00 -0.00000000000E+00 -0.78898181022E+03  0.78898181022E+03  0.00000000000E+00 0.  1.
        -13    1    1    2    0    0 -0.14878316188E+03 -0.15391593603E+03  0.33835379251E+03  0.40038711854E+03  0.10566000000E+00 0.  1.
         13    1    1    2    0    0  0.17282354590E+02 -0.11133904818E+03 -0.16281289253E+03  0.19799775900E+03  0.10566000000E+00 0. -1.
          4    1    1    2  501    0  0.13150080729E+03  0.26525498421E+03 -0.53961887328E+03  0.61550076959E+03  0.00000000000E+00 0.  1.
</event>
<event>
 5    1  0.4419198E-005  0.1024510E+03  0.7818608E-02  0.1242464E+00
          4   -1    0    0  502    0 -0.00000000000E+00  0.00000000000E+00  0.33511655953E+03  0.33511655953E+03  0.00000000000E+00 0.  1.
         21   -1    0    0  501  502  0.00000000000E+00 -0.00000000000E+00 -0.21268716900E+03  0.21268716900E+03  0.00000000000E+00 0. -1.
        -13    1    1    2    0    0 -0.77110570153E+02 -0.50666622781E+02  0.30744697960E+03  0.32099346274E+03  0.10566000000E+00 0.  1.
         13    1    1    2    0    0 -0.15212007179E+02  0.46847138356E+01 -0.72277019504E+02  0.74008988768E+02  0.10566000000E+00 0. -1.
          4    1    1    2  501    0  0.92322577332E+02  0.45981908946E+02 -0.11274056956E+03  0.15280127703E+03  0.00000000000E+00 0.  1.
</event>
<event>
 5    1  0.4419198E-005  0.3998760E+02  0.7818608E-02  0.1338947E+00
          4   -1    0    0  502    0 -0.00000000000E+00  0.00000000000E+00  0.35018477283E+02  0.35018477283E+02  0.00000000000E+00 0.  1.
         21   -1    0    0  501  502  0.00000000000E+00 -0.00000000000E+00 -0.10804502175E+03  0.10804502175E+03  0.00000000000E+00 0.  1.
        -13    1    1    2    0    0 -0.83715853883E+01  0.38264452613E+02 -0.82271031919E+00  0.39178307672E+02  0.10566000000E+00 0.  1.
         13    1    1    2    0    0 -0.36192438541E+01 -0.42143130259E+02 -0.14337256745E+02  0.44662181419E+02  0.10566000000E+00 0. -1.
          4    1    1    2  501    0  0.11990829242E+02  0.38786776458E+01 -0.57866577398E+02  0.59223009937E+02  0.00000000000E+00 0.  1.
</event>
<event>
 5    1  0.4419198E-005  0.3175036E+02  0.7818608E-02  0.1391381E+00
          4   -1    0    0  502    0 -0.00000000000E+00  0.00000000000E+00  0.18812495481E+03  0.18812495481E+03  0.00000000000E+00 0.  1.
         21   -1    0    0  501  502  0.00000000000E+00 -0.00000000000E+00 -0.42865367317E+02  0.42865367317E+02  0.00000000000E+00 0. -1.
        -13    1    1    2    0    0 -0.29533366432E+02  0.11875675366E+02  0.17547202699E+03  0.17833590445E+03  0.10566000000E+00 0.  1.
         13    1    1    2    0    0  0.31771030155E+02 -0.95439411160E+00 -0.24473889745E+02  0.40115977721E+02  0.10566000000E+00 0. -1.
          4    1    1    2  501    0 -0.22376637228E+01 -0.10921281254E+02 -0.57385497505E+01  0.12538439951E+02  0.00000000000E+00 0.  1.
</event>
<event>
 5    1  0.4419198E-005  0.4719515E+03  0.7818608E-02  0.9554087E-01
         21   -1    0    0  501  502  0.00000000000E+00  0.00000000000E+00  0.25661986914E+03  0.25661986914E+03  0.00000000000E+00 0.  1.
         -4   -1    0    0    0  501 -0.00000000000E+00 -0.00000000000E+00 -0.29208963756E+04  0.29208963756E+04  0.00000000000E+00 0. -1.
        -13    1    1    2    0    0  0.83431225385E+02  0.56287494733E+03 -0.75445579192E+03  0.94498281933E+03  0.10566000000E+00 0.  1.
         13    1    1    2    0    0 -0.41156519285E+03 -0.22366061673E+03 -0.16019842326E+04  0.16690606556E+04  0.10566000000E+00 0. -1.
         -4    1    1    2    0  502  0.32813396746E+03 -0.33921433060E+03 -0.30783648194E+03  0.56347276980E+03  0.00000000000E+00 0. -1.
</event>
<event>
 5    1  0.4419198E-005  0.6124074E+03  0.7818608E-02  0.9260760E-01
         21   -1    0    0  501  502  0.00000000000E+00  0.00000000000E+00  0.26501188235E+03  0.26501188235E+03  0.00000000000E+00 0.  1.
          4   -1    0    0  502    0 -0.00000000000E+00 -0.00000000000E+00 -0.27996315536E+04  0.27996315536E+04  0.00000000000E+00 0.  1.
        -13    1    1    2    0    0 -0.18477702250E+02  0.70497467721E+03 -0.19942775953E+04  0.21152952180E+04  0.10566000000E+00 0.  1.
         13    1    1    2    0    0 -0.16541999203E+02 -0.38000851001E+03 -0.86531872776E+02  0.39008701797E+03  0.10566000000E+00 0. -1.
          4    1    1    2  501    0  0.35019701453E+02 -0.32496616720E+03 -0.45381020319E+03  0.55926120000E+03  0.00000000000E+00 0.  1.
</event>
<event>
 5    1  0.4419198E-005  0.5338755E+02  0.7818608E-02  0.1278579E+00
         21   -1    0    0  501  502  0.00000000000E+00  0.00000000000E+00  0.37706589208E+02  0.37706589208E+02  0.00000000000E+00 0. -1.
          4   -1    0    0  502    0 -0.00000000000E+00 -0.00000000000E+00 -0.13494449079E+03  0.13494449079E+03  0.00000000000E+00 0.  1.
        -13    1    1    2    0    0  0.61501165450E+00  0.52127831050E+02 -0.64795614852E+02  0.83163524922E+02  0.10566000000E+00 0.  1.
         13    1    1    2    0    0  0.21875087653E+02 -0.54364056359E+02 -0.32244598654E+02  0.66885688977E+02  0.10566000000E+00 0. -1.
          4    1    1    2  501    0 -0.22490099308E+02  0.22362253086E+01 -0.19768807561E+00  0.22601866097E+02  0.00000000000E+00 0.  1.
</event>
<event>
 5    1  0.4419198E-005  0.4785732E+03  0.7818608E-02  0.9626279E-01
         -4   -1    0    0    0  501 -0.00000000000E+00  0.00000000000E+00  0.15623552049E+04  0.15623552049E+04  0.00000000000E+00 0. -1.
         21   -1    0    0  501  502  0.00000000000E+00 -0.00000000000E+00 -0.48702341073E+03  0.48702341073E+03  0.00000000000E+00 0. -1.
        -13    1    1    2    0    0 -0.26706921535E+03  0.20162872178E+03  0.96863843705E+03  0.10248124414E+04  0.10566000000E+00 0.  1.
         13    1    1    2    0    0  0.51459583206E+03  0.17983407250E+03 -0.40464037481E+02  0.54661367847E+03  0.10566000000E+00 0. -1.
         -4    1    1    2    0  502 -0.24752661671E+03 -0.38146279428E+03  0.14715739465E+03  0.47795249575E+03  0.00000000000E+00 0. -1.
</event>
<event>
 5    1  0.4419198E-005  0.2431172E+03  0.7818608E-02  0.1034022E+00
         21   -1    0    0  501  502  0.00000000000E+00  0.00000000000E+00  0.19061038654E+03  0.19061038654E+03  0.00000000000E+00 0.  1.
          4   -1    0    0  502    0 -0.00000000000E+00 -0.00000000000E+00 -0.20676599156E+04  0.20676599156E+04  0.00000000000E+00 0.  1.
        -13    1    1    2    0    0 -0.34382067446E+03  0.27978511179E+02 -0.12990278701E+04  0.13440494306E+04  0.10566000000E+00 0.  1.
         13    1    1    2    0    0  0.17288356566E+03 -0.79165131375E+02 -0.68178745835E+03  0.70780646708E+03  0.10566000000E+00 0. -1.
          4    1    1    2  501    0  0.17093710880E+03  0.51186620196E+02  0.10376579942E+03  0.20641440449E+03  0.00000000000E+00 0.  1.
</event>
<event>
 5    1  0.4419198E-005  0.1193880E+03  0.7818608E-02  0.1135949E+00
         21   -1    0    0  501  502  0.00000000000E+00  0.00000000000E+00  0.34780268536E+03  0.34780268536E+03  0.00000000000E+00 0. -1.
         -4   -1    0    0    0  501 -0.00000000000E+00 -0.00000000000E+00 -0.73722415605E+02  0.73722415605E+02  0.00000000000E+00 0. -1.
        -13    1    1    2    0    0  0.79115238381E+02 -0.78617567431E+02  0.18928823335E+03  0.21970432244E+03  0.10566000000E+00 0.  1.
         13    1    1    2    0    0 -0.84544018916E+02  0.87741217877E+02  0.56565413261E+01  0.12197630947E+03  0.10566000000E+00 0. -1.
         -4    1    1    2    0  502  0.54287805348E+01 -0.91236504457E+01  0.79135495083E+02  0.79844469049E+02  0.00000000000E+00 0. -1.
</event>
<event>
 5    1  0.4419198E-005  0.4950337E+03  0.7818608E-02  0.9717842E-01
          4   -1    0    0  502    0 -0.00000000000E+00  0.00000000000E+00  0.75648764245E+03  0.75648764245E+03  0.00000000000E+00 0.  1.
         21   -1    0    0  501  502  0.00000000000E+00 -0.00000000000E+00 -0.68192985113E+03  0.68192985113E+03  0.00000000000E+00 0.  1.
        -13    1    1    2    0    0  0.18704251092E+03  0.48157348820E+03 -0.18969505158E+03  0.55034729870E+03  0.10566000000E+00 0.  1.
         13    1    1    2    0    0 -0.21904217298E+03  0.12219725575E+02  0.32226668011E+03  0.38985204823E+03  0.10566000000E+00 0. -1.
          4    1    1    2  501    0  0.31999662066E+02 -0.49379321378E+03 -0.58013837211E+02  0.49821814665E+03  0.00000000000E+00 0.  1.
</event>
<event>
 5    1  0.4419198E-005  0.4110462E+03  0.7818608E-02  0.1000421E+00
         21   -1    0    0  501  502  0.00000000000E+00  0.00000000000E+00  0.19573422975E+03  0.19573422975E+03  0.00000000000E+00 0.  1.
          4   -1    0    0  502    0 -0.00000000000E+00 -0.00000000000E+00 -0.21028348104E+04  0.21028348104E+04  0.00000000000E+00 0.  1.
        -13    1    1    2    0    0  0.35907631267E+03 -0.32016871026E+03 -0.10523728299E+04  0.11571224592E+04  0.10566000000E+00 0.  1.
         13    1    1    2    0    0 -0.32046155618E+01  0.14585951310E+03 -0.70162067825E+03  0.71662881217E+03  0.10566000000E+00 0. -1.
          4    1    1    2  501    0 -0.35587169711E+03  0.17430919717E+03 -0.15310707253E+03  0.42481776879E+03  0.00000000000E+00 0.  1.
</event>
<event>
 5    1  0.4419198E-005  0.2626223E+03  0.7818608E-02  0.1024052E+00
          4   -1    0    0  502    0 -0.00000000000E+00  0.00000000000E+00  0.21733877290E+03  0.21733877290E+03  0.00000000000E+00 0.  1.
         21   -1    0    0  501  502  0.00000000000E+00 -0.00000000000E+00 -0.42538253134E+03  0.42538253134E+03  0.00000000000E+00 0. -1.
        -13    1    1    2    0    0 -0.16539255363E+03 -0.21678580679E+03 -0.18166635676E+03  0.32764837732E+03  0.10566000000E+00 0.  1.
         13    1    1    2    0    0  0.17350192859E+03  0.19129775938E+03  0.22622744273E+02  0.25924805050E+03  0.10566000000E+00 0. -1.
          4    1    1    2  501    0 -0.81093749552E+01  0.25488047413E+02 -0.49000145954E+02  0.55824876414E+02  0.00000000000E+00 0.  1.
</event>
<event>
 5    1  0.4419198E-005  0.3884322E+03  0.7818608E-02  0.1014618E+00
          4   -1    0    0  502    0 -0.00000000000E+00  0.00000000000E+00  0.46658117127E+03  0.46658117127E+03  0.00000000000E+00 0.  1.
         21   -1    0    0  501  502  0.00000000000E+00 -0.00000000000E+00 -0.11134747166E+04  0.11134747166E+04  0.00000000000E+00 0.  1.
        -13    1    1    2    0    0  0.38792433031E+03 -0.12777103814E+03 -0.93494011831E+03  0.10202567129E+04  0.10566000000E+00 0.  1.
         13    1    1    2    0    0 -0.94476608916E+02  0.54988222949E+02  0.22615759108E+03  0.25119076708E+03  0.10566000000E+00 0. -1.
          4    1    1    2  501    0 -0.29344772139E+03  0.72782815192E+02  0.61888981848E+02  0.30860840794E+03  0.00000000000E+00 0.  1.
</event>
<event>
 5    1  0.4419198E-005  0.3856250E+02  0.7818608E-02  0.1346932E+00
         21   -1    0    0  501  502  0.00000000000E+00  0.00000000000E+00  0.46672637783E+03  0.46672637783E+03  0.00000000000E+00 0. -1.
         -4   -1    0    0    0  501 -0.00000000000E+00 -0.00000000000E+00 -0.15505459029E+03  0.15505459029E+03  0.00000000000E+00 0. -1.
        -13    1    1    2    0    0 -0.29044887542E+02 -0.31633888999E+02  0.15409201674E+03  0.15996458737E+03  0.10566000000E+00 0.  1.
         13    1    1    2    0    0  0.36606504019E+02  0.12171388389E+02 -0.14931207378E+03  0.15421506208E+03  0.10566000000E+00 0. -1.
         -4    1    1    2    0  502 -0.75616164769E+01  0.19462500610E+02  0.30689184459E+03  0.30760131867E+03  0.00000000000E+00 0. -1.
</event>
<event>
 5    1  0.4419198E-005  0.1954590E+03  0.7818608E-02  0.1091746E+00
         21   -1    0    0  501  502  0.00000000000E+00  0.00000000000E+00  0.20402285232E+03  0.20402285232E+03  0.00000000000E+00 0.  1.
          4   -1    0    0  502    0 -0.00000000000E+00 -0.00000000000E+00 -0.14413616167E+04  0.14413616167E+04  0.00000000000E+00 0.  1.
        -13    1    1    2    0    0  0.18087597612E+03 -0.72921609629E+02  0.13026309946E+03  0.23452540615E+03  0.10566000000E+00 0.  1.
         13    1    1    2    0    0 -0.23348409451E+02 -0.84353635332E+02 -0.15508629518E+03  0.17807990941E+03  0.10566000000E+00 0. -1.
          4    1    1    2  501    0 -0.15752756666E+03  0.15727524496E+03 -0.12125155687E+04  0.12327791534E+04  0.00000000000E+00 0.  1.
</event>
<event>
 5    1  0.4419198E-005  0.2429935E+03  0.7818608E-02  0.1058998E+00
         -4   -1    0    0    0  501 -0.00000000000E+00  0.00000000000E+00  0.10014133249E+04  0.10014133249E+04  0.00000000000E+00 0. -1.
         21   -1    0    0  501  502  0.00000000000E+00 -0.00000000000E+00 -0.37562450663E+03  0.37562450663E+03  0.00000000000E+00 0. -1.
        -13    1    1    2    0    0  0.10939526921E+03  0.36375732680E+02  0.31676071594E+03  0.33708734948E+03  0.10566000000E+00 0.  1.
         13    1    1    2    0    0 -0.33160352661E+03  0.46377398835E+02  0.58626451212E+03  0.67514283772E+03  0.10566000000E+00 0. -1.
         -4    1    1    2    0  502  0.22220825741E+03 -0.82753131515E+02 -0.27723640980E+03  0.36480764432E+03  0.00000000000E+00 0. -1.
</event>
<event>
 5    1  0.4419198E-005  0.3678203E+03  0.7818608E-02  0.1003381E+00
         21   -1    0    0  501  502  0.00000000000E+00  0.00000000000E+00  0.30224786096E+03  0.30224786096E+03  0.00000000000E+00 0. -1.
         -4   -1    0    0    0  501 -0.00000000000E+00 -0.00000000000E+00 -0.79584904212E+03  0.79584904212E+03  0.00000000000E+00 0. -1.
        -13    1    1    2    0    0  0.15409686003E+03 -0.10211647638E+03 -0.22042302059E+03  0.28768026729E+03  0.10566000000E+00 0.  1.
         13    1    1    2    0    0 -0.12191660466E+03  0.42277604140E+03 -0.14034424122E+03  0.46184386634E+03  0.10566000000E+00 0. -1.
         -4    1    1    2    0  502 -0.32180255367E+02 -0.32065956501E+03 -0.13283391935E+03  0.34857276945E+03  0.00000000000E+00 0. -1.
</event>
<event>
 5    1  0.4419198E-005  0.4914595E+03  0.7818608E-02  0.9496890E-01
          4   -1    0    0  502    0 -0.00000000000E+00  0.00000000000E+00  0.78751675141E+03  0.78751675141E+03  0.00000000000E+00 0.  1.
         21   -1    0    0  501  502  0.00000000000E+00 -0.00000000000E+00 -0.97039622311E+03  0.97039622311E+03  0.00000000000E+00 0. -1.
        -13    1    1    2    0    0 -0.43048780592E+03 -0.28200161765E+03  0.39854103268E+03  0.65090677466E+03  0.10566000000E+00 0.  1.
         13    1    1    2    0    0  0.10529945052E+03  0.52443310380E+03 -0.29946648086E+03  0.61302384861E+03  0.10566000000E+00 0. -1.
          4    1    1    2  501    0  0.32518835540E+03 -0.24243148615E+03 -0.28195402352E+03  0.49398235125E+03  0.00000000000E+00 0.  1.
</event>
<event>
 5    1  0.4419198E-005  0.5089698E+03  0.7818608E-02  0.9891347E-01
         21   -1    0    0  501  502  0.00000000000E+00  0.00000000000E+00  0.77150385826E+03  0.77150385826E+03  0.00000000000E+00 0. -1.
         -4   -1    0    0    0  501 -0.00000000000E+00 -0.00000000000E+00 -0.42362780237E+03  0.42362780237E+03  0.00000000000E+00 0. -1.
        -13    1    1    2    0    0 -0.85789580540E+02  0.71519905956E+02  0.52847888626E+02  0.12356318049E+03  0.10566000000E+00 0.  1.
         13    1    1    2    0    0 -0.40898533436E+03  0.18525901810E+03  0.18645190660E+02  0.44937463414E+03  0.10566000000E+00 0. -1.
         -4    1    1    2    0  502  0.49477491490E+03 -0.25677892406E+03  0.27638297660E+03  0.62219384600E+03  0.00000000000E+00 0. -1.
</event>
<event>
 5    1  0.4419198E-005  0.8632444E+03  0.7818608E-02  0.8914932E-01
         -4   -1    0    0    0  501 -0.00000000000E+00  0.00000000000E+00  0.16967213488E+04  0.16967213488E+04  0.00000000000E+00 0. -1.
         21   -1    0    0  501  502  0.00000000000E+00 -0.00000000000E+00 -0.76967832377E+03  0.76967832377E+03  0.00000000000E+00 0.  1.
        -13    1    1    2    0    0 -0.87478314193E+03 -0.26410968163E+03  0.56988525406E+03  0.10769255700E+04  0.10566000000E+00 0.  1.
         13    1    1    2    0    0  0.64579921177E+03  0.47295098250E+03 -0.13113590160E+03  0.81113247354E+03  0.10566000000E+00 0. -1.
         -4    1    1    2    0  502  0.22898393016E+03 -0.20884130088E+03  0.48829367257E+03  0.57834162905E+03  0.00000000000E+00 0. -1.
</event>
<event>
 5    1  0.4419198E-005  0.4216085E+03  0.7818608E-02  0.9668635E-01
         -4   -1    0    0    0  501 -0.00000000000E+00  0.00000000000E+00  0.18163483307E+04  0.18163483307E+04  0.00000000000E+00 0. -1.
         21   -1    0    0  501  502  0.00000000000E+00 -0.00000000000E+00 -0.32202117969E+03  0.32202117969E+03  0.00000000000E+00 0.  1.
        -13    1    1    2    0    0 -0.41042816090E+03 -0.14706151192E+03 -0.12307934180E+03  0.45301975574E+03  0.10566000000E+00 0.  1.
         13    1    1    2    0    0  0.39736035751E+03  0.13686106260E+03  0.16147688314E+04  0.16685636321E+04  0.10566000000E+00 0. -1.
         -4    1    1    2    0  502  0.13067803395E+02  0.10200449322E+02  0.26376613262E+01  0.16786122519E+02  0.00000000000E+00 0. -1.
</event>
<event>
 5    1  0.4419198E-005  0.4434522E+03  0.7818608E-02  0.1017393E+00
         21   -1    0    0  501  502  0.00000000000E+00  0.00000000000E+00  0.28201504125E+03  0.28201504125E+03  0.00000000000E+00 0. -1.
         -4   -1    0    0    0  501 -0.00000000000E+00 -0.00000000000E+00 -0.10461015475E+04  0.10461015475E+04  0.00000000000E+00 0. -1.
        -13    1    1    2    0    0 -0.55199628191E+02 -0.38442152050E+02 -0.13526828770E+03  0.15107057565E+03  0.10566000000E+00 0.  1.
         13    1    1    2    0    0  0.45725002160E+03 -0.24654981122E+02 -0.37814566829E+02  0.45947296218E+03  0.10566000000E+00 0. -1.
         -4    1    1    2    0  502 -0.40205039341E+03  0.63097133172E+02 -0.59100365168E+03  0.71757305088E+03  0.00000000000E+00 0. -1.
</event>
<event>
 5    1  0.4419198E-005  0.6618009E+03  0.7818608E-02  0.9378469E-01
         -4   -1    0    0    0  501 -0.00000000000E+00  0.00000000000E+00  0.10654962680E+04  0.10654962680E+04  0.00000000000E+00 0. -1.
         21   -1    0    0  501  502  0.00000000000E+00 -0.00000000000E+00 -0.76342856169E+03  0.76342856169E+03  0.00000000000E+00 0. -1.
        -13    1    1    2    0    0  0.16744086464E+03  0.26233604887E+03  0.34891542251E+03  0.46754532285E+03  0.10566000000E+00 0.  1.
         13    1    1    2    0    0  0.16161271041E+03  0.47740736905E+03  0.15435456093E+03  0.52712598668E+03  0.10566000000E+00 0. -1.
         -4    1    1    2    0  502 -0.32905357505E+03 -0.73974341792E+03 -0.20120227711E+03  0.83425352018E+03  0.00000000000E+00 0. -1.
</event>
<event>
 5    1  0.4419198E-005  0.1532119E+03  0.7818608E-02  0.1097987E+00
         21   -1    0    0  501  502  0.00000000000E+00  0.00000000000E+00  0.31223911756E+02  0.31223911756E+02  0.00000000000E+00 0. -1.
          4   -1    0    0  502    0 -0.00000000000E+00 -0.00000000000E+00 -0.12097717855E+04  0.12097717855E+04  0.00000000000E+00 0.  1.
        -13    1    1    2    0    0 -0.11832464088E+03 -0.11028046369E+03 -0.59168469012E+03  0.61339488504E+03  0.10566000000E+00 0.  1.
         13    1    1    2    0    0  0.69626144428E+02  0.13207177288E+03 -0.52545176715E+03  0.54625115464E+03  0.10566000000E+00 0. -1.
          4    1    1    2  501    0  0.48698496454E+02 -0.21791309188E+02 -0.61411416451E+02  0.81349657550E+02  0.00000000000E+00 0.  1.
</event>
<event>
 5    1  0.4419198E-005  0.1091807E+03  0.7818608E-02  0.1173525E+00
          4   -1    0    0  502    0 -0.00000000000E+00  0.00000000000E+00  0.28923294768E+02  0.28923294768E+02  0.00000000000E+00 0.  1.
         21   -1    0    0  501  502  0.00000000000E+00 -0.00000000000E+00 -0.83224901752E+03  0.83224901752E+03  0.00000000000E+00 0.  1.
        -13    1    1    2    0    0  0.12242526818E+03 -0.57355611909E+02 -0.40702601228E+03  0.42889135960E+03  0.10566000000E+00 0.  1.
         13    1    1    2    0    0 -0.26039974484E+02  0.56221293542E+02 -0.77474195466E+02  0.99202702815E+02  0.10566000000E+00 0. -1.
          4    1    1    2  501    0 -0.96385293692E+02  0.11343183668E+01 -0.31882551501E+03  0.33307824987E+03  0.00000000000E+00 0.  1.
</event>
<event>
 5    1  0.4419198E-005  0.4920847E+03  0.7818608E-02  0.9745440E-01
         21   -1    0    0  501  502  0.00000000000E+00  0.00000000000E+00  0.35997740778E+03  0.35997740778E+03  0.00000000000E+00 0.  1.
          4   -1    0    0  502    0 -0.00000000000E+00 -0.00000000000E+00 -0.11875733194E+04  0.11875733194E+04  0.00000000000E+00 0.  1.
        -13    1    1    2    0    0 -0.38541995468E+03  0.12021246465E+03 -0.21655924003E+03  0.45814571233E+03  0.10566000000E+00 0.  1.
         13    1    1    2    0    0 -0.20214016498E+03  0.18723344913E+02 -0.40222794570E+03  0.45055359439E+03  0.10566000000E+00 0. -1.
          4    1    1    2  501    0  0.58756011967E+03 -0.13893580956E+03 -0.20880872586E+03  0.63885142044E+03  0.00000000000E+00 0.  1.
</event>
<event>
 5    1  0.4419198E-005  0.2078513E+03  0.7818608E-02  0.1054883E+00
         21   -1    0    0  501  502  0.00000000000E+00  0.00000000000E+00  0.15738220958E+03  0.15738220958E+03  0.00000000000E+00 0. -1.
          4   -1    0    0  502    0 -0.00000000000E+00 -0.00000000000E+00 -0.54555868277E+03  0.54555868277E+03  0.00000000000E+00 0.  1.
        -13    1    1    2    0    0 -0.16609360088E+03 -0.11724474852E+03 -0.38770569907E+03  0.43777749550E+03  0.10566000000E+00 0.  1.
         13    1    1    2    0    0  0.17150893396E+03  0.15229505426E+03 -0.49180297602E+01  0.22941947642E+03  0.10566000000E+00 0. -1.
          4    1    1    2  501    0 -0.54153330748E+01 -0.35050305737E+02  0.44472556395E+01  0.35743920424E+02  0.00000000000E+00 0.  1.
</event>
<event>
 5    1  0.4419198E-005  0.1367841E+03  0.7818608E-02  0.1114930E+00
         21   -1    0    0  501  502  0.00000000000E+00  0.00000000000E+00  0.26559240545E+02  0.26559240545E+02  0.00000000000E+00 0.  1.
         -4   -1    0    0    0  501 -0.00000000000E+00 -0.00000000000E+00 -0.11113355399E+04  0.11113355399E+04  0.00000000000E+00 0. -1.
        -13    1    1    2    0    0 -0.12039759682E+03 -0.78249134369E+02 -0.51764479533E+03  0.53719144972E+03  0.10566000000E+00 0.  1.
         13    1    1    2    0    0  0.11399213800E+03  0.65861840739E+02 -0.57120101790E+03  0.58617625643E+03  0.10566000000E+00 0. -1.
         -4    1    1    2    0  502  0.64054588141E+01  0.12387293630E+02  0.40695138328E+01  0.14527074342E+02  0.00000000000E+00 0. -1.
</event>
<event>
 5    1  0.4419198E-005  0.4758911E+03  0.7818608E-02  0.9821397E-01
          4   -1    0    0  502    0 -0.00000000000E+00  0.00000000000E+00  0.26335947668E+04  0.26335947668E+04  0.00000000000E+00 0.  1.
         21   -1    0    0  501  502  0.00000000000E+00 -0.00000000000E+00 -0.14957033848E+03  0.14957033848E+03  0.00000000000E+00 0.  1.
        -13    1    1    2    0    0 -0.10809670089E+03 -0.51163212816E+03  0.53459658860E+03  0.74782742329E+03  0.10566000000E+00 0.  1.
         13    1    1    2    0    0  0.13093830121E+03  0.11310619729E+03  0.80214146912E+03  0.82059051800E+03  0.10566000000E+00 0. -1.
          4    1    1    2  501    0 -0.22841600317E+02  0.39852593087E+03  0.11472863706E+04  0.12147471640E+04  0.00000000000E+00 0.  1.
</event>
<event>
 5    1  0.4419198E-005  0.4317926E+03  0.7818608E-02  0.9807066E-01
         -4   -1    0    0    0  501 -0.00000000000E+00  0.00000000000E+00  0.12441753907E+04  0.12441753907E+04  0.00000000000E+00 0. -1.
         21   -1    0    0  501  502  0.00000000000E+00 -0.00000000000E+00 -0.32311354094E+03  0.32311354094E+03  0.00000000000E+00 0.  1.
        -13    1    1    2    0    0 -0.23894754046E+03 -0.45374354841E+02  0.12467390581E+03  0.27330999456E+03  0.10566000000E+00 0.  1.
         13    1    1    2    0    0 -0.13787229635E+03  0.39486094715E+03  0.10272446331E+03  0.43066955339E+03  0.10566000000E+00 0. -1.
         -4    1    1    2    0  502  0.37681983682E+03 -0.34948659231E+03  0.69366348068E+03  0.86330938374E+03  0.00000000000E+00 0. -1.
</event>
<event>
 5    1  0.4419198E-005  0.4411503E+03  0.7818608E-02  0.9633031E-01
          4   -1    0    0  502    0 -0.00000000000E+00  0.00000000000E+00  0.29735641713E+04  0.29735641713E+04  0.00000000000E+00 0.  1.
         21   -1    0    0  501  502  0.00000000000E+00 -0.00000000000E+00 -0.19943602119E+03  0.19943602119E+03  0.00000000000E+00 0.  1.
        -13    1    1    2    0    0  0.33731534308E+03 -0.22818009662E+03  0.15192512045E+04  0.15728865283E+04  0.10566000000E+00 0.  1.
         13    1    1    2    0    0  0.10645891924E+03  0.44099671922E+03  0.84724397457E+03  0.96105877627E+03  0.10566000000E+00 0. -1.
          4    1    1    2  501    0 -0.44377426232E+03 -0.21281662260E+03  0.40763297099E+03  0.63905488793E+03  0.00000000000E+00 0.  1.
</event>
<event>
 5    1  0.4419198E-005  0.4768195E+03  0.7818608E-02  0.9659296E-01
          4   -1    0    0  502    0 -0.00000000000E+00  0.00000000000E+00  0.26695982548E+04  0.26695982548E+04  0.00000000000E+00 0.  1.
         21   -1    0    0  501  502  0.00000000000E+00 -0.00000000000E+00 -0.24791112946E+03  0.24791112946E+03  0.00000000000E+00 0.  1.
        -13    1    1    2    0    0 -0.54040043483E+03  0.18457507723E+03  0.21388592083E+03  0.60979323331E+03  0.10566000000E+00 0.  1.
         13    1    1    2    0    0  0.29940627354E+03  0.32518043341E+02  0.14885449806E+04  0.15187059327E+04  0.10566000000E+00 0. -1.
          4    1    1    2  501    0  0.24099416129E+03 -0.21709312057E+03  0.71925622394E+03  0.78901021821E+03  0.00000000000E+00 0.  1.
</event>
<event>
 5    1  0.4419198E-005  0.5010819E+03  0.7818608E-02  0.9740894E-01
          4   -1    0    0  502    0 -0.00000000000E+00  0.00000000000E+00  0.26181005425E+04  0.26181005425E+04  0.00000000000E+00 0.  1.
         21   -1    0    0  501  502  0.00000000000E+00 -0.00000000000E+00 -0.16146496892E+03  0.16146496892E+03  0.00000000000E+00 0.  1.
        -13    1    1    2    0    0  0.38265752493E+03 -0.39401931372E+03  0.13222897429E+04  0.14318268667E+04  0.10566000000E+00 0.  1.
         13    1    1    2    0    0 -0.19032139970E+03 -0.43845786908E+02  0.12794185011E+03  0.23348194017E+03  0.10566000000E+00 0. -1.
          4    1    1    2  501    0 -0.19233612524E+03  0.43786510063E+03  0.10064039805E+04  0.11142567045E+04  0.00000000000E+00 0.  1.
</event>
<event>
 5    1  0.4419198E-005  0.3430113E+03  0.7818608E-02  0.9909838E-01
         21   -1    0    0  501  502  0.00000000000E+00  0.00000000000E+00  0.23811523851E+03  0.23811523851E+03  0.00000000000E+00 0.  1.
          4   -1    0    0  502    0 -0.00000000000E+00 -0.00000000000E+00 -0.23297438254E+04  0.23297438254E+04  0.00000000000E+00 0.  1.
        -13    1    1    2    0    0 -0.48763731279E+03  0.36880788543E+02 -0.13224155093E+03  0.50659469040E+03  0.10566000000E+00 0.  1.
         13    1    1    2    0    0  0.29291312449E+03  0.13642344660E+03 -0.64654845817E+03  0.72279621970E+03  0.10566000000E+00 0. -1.
          4    1    1    2  501    0  0.19472418830E+03 -0.17330423514E+03 -0.13128385778E+04  0.13384681538E+04  0.00000000000E+00 0.  1.
</event>
<event>
 5    1  0.4419198E-005  0.3364038E+03  0.7818608E-02  0.1013023E+00
         -4   -1    0    0    0  501 -0.00000000000E+00  0.00000000000E+00  0.39836900324E+03  0.39836900324E+03  0.00000000000E+00 0. -1.
         21   -1    0    0  501  502  0.00000000000E+00 -0.00000000000E+00 -0.76164949336E+03  0.76164949336E+03  0.00000000000E+00 0. -1.
        -13    1    1    2    0    0 -0.16924814464E+03  0.52025023035E+02  0.89533534125E+02  0.19841321121E+03  0.10566000000E+00 0.  1.
         13    1    1    2    0    0  0.32407921964E+03  0.16144244851E+03 -0.56820607906E+03  0.67375749661E+03  0.10566000000E+00 0. -1.
         -4    1    1    2    0  502 -0.15483107500E+03 -0.21346747155E+03  0.11539205482E+03  0.28784778879E+03  0.00000000000E+00 0. -1.
</event>
<event>
 5    1  0.4419198E-005  0.1601463E+03  0.7818608E-02  0.1091515E+00
         21   -1    0    0  501  502  0.00000000000E+00  0.00000000000E+00  0.36004344522E+03  0.36004344522E+03  0.00000000000E+00 0. -1.
          4   -1    0    0  502    0 -0.00000000000E+00 -0.00000000000E+00 -0.20313318607E+03  0.20313318607E+03  0.00000000000E+00 0.  1.
        -13    1    1    2    0    0 -0.12134220828E+03  0.10662167453E+03 -0.14453275266E+03  0.21675294864E+03  0.10566000000E+00 0.  1.
         13    1    1    2    0    0  0.12173439910E+03 -0.86705837683E+02  0.27826802794E+03  0.31586432649E+03  0.10566000000E+00 0. -1.
          4    1    1    2  501    0 -0.39219082745E+00 -0.19915836851E+02  0.23174983874E+02  0.30559356156E+02  0.00000000000E+00 0.  1.
</event>
<event>
 5    1  0.4419198E-005  0.3883781E+03  0.7818608E-02  0.1012695E+00
         21   -1    0    0  501  502  0.00000000000E+00  0.00000000000E+00  0.15605461032E+03  0.15605461032E+03  0.00000000000E+00 0.  1.
          4   -1    0    0  502    0 -0.00000000000E+00 -0.00000000000E+00 -0.21833209813E+04  0.21833209813E+04  0.00000000000E+00 0.  1.
        -13    1    1    2    0    0  0.74389067014E+02 -0.39995565664E+03 -0.18233593124E+03  0.44580787740E+03  0.10566000000E+00 0.  1.
         13    1    1    2    0    0  0.32875073090E+02  0.11153714297E+03 -0.42074885080E+03  0.43652137555E+03  0.10566000000E+00 0. -1.
          4    1    1    2  501    0 -0.10726414010E+03  0.28841851367E+03 -0.14241815890E+04  0.14570463387E+04  0.00000000000E+00 0.  1.
</event>
<event>
 5    1  0.4419198E-005  0.4678170E+03  0.7818608E-02  0.9551445E-01
         21   -1    0    0  501  502  0.00000000000E+00  0.00000000000E+00  0.13103307107E+04  0.13103307107E+04  0.00000000000E+00 0. -1.
         -4   -1    0    0    0  501 -0.00000000000E+00 -0.00000000000E+00 -0.92420585736E+03  0.92420585736E+03  0.00000000000E+00 0. -1.
        -13    1    1    2    0    0 -0.29046048848E+03 -0.37671406715E+03 -0.61576416888E+03  0.77810430316E+03  0.10566000000E+00 0.  1.
         13    1    1    2    0    0  0.39210726178E+03  0.24999742157E+03  0.24535385428E+02  0.46567028232E+03  0.10566000000E+00 0. -1.
         -4    1    1    2    0  502 -0.10164677330E+03  0.12671664558E+03  0.97735363675E+03  0.99076198254E+03  0.00000000000E+00 0. -1.
</event>
<event>
 5    1  0.4419198E-005  0.5351437E+03  0.7818608E-02  0.9404101E-01
         21   -1    0    0  501  502  0.00000000000E+00  0.00000000000E+00  0.74341230917E+03  0.74341230917E+03  0.00000000000E+00 0. -1.
         -4   -1    0    0    0  501 -0.00000000000E+00 -0.00000000000E+00 -0.78364932662E+03  0.78364932662E+03  0.00000000000E+00 0. -1.
        -13    1    1    2    0    0 -0.10677856963E+03 -0.43341120376E+03 -0.11939900320E+02  0.44653052176E+03  0.10566000000E+00 0.  1.
         13    1    1    2    0    0  0.43188514983E+03  0.57537098606E+03  0.34554666521E+02  0.72025730845E+03  0.10566000000E+00 0. -1.
         -4    1    1    2    0  502 -0.32510658020E+03 -0.14195978230E+03 -0.62851783648E+02  0.36027380558E+03  0.00000000000E+00 0. -1.
</event>
<event>
 5    1  0.4419198E-005  0.2619015E+03  0.7818608E-02  0.1024403E+00
         21   -1    0    0  501  502  0.00000000000E+00  0.00000000000E+00  0.10930398868E+04  0.10930398868E+04  0.00000000000E+00 0. -1.
          4   -1    0    0  502    0 -0.00000000000E+00 -0.00000000000E+00 -0.10300120960E+03  0.10300120960E+03  0.00000000000E+00 0.  1.
        -13    1    1    2    0    0  0.26927894327E+02  0.28667703569E+03  0.26534830323E+03  0.39155914940E+03  0.10566000000E+00 0.  1.
         13    1    1    2    0    0  0.48470104265E+02 -0.23057962773E+03  0.37921903893E+03  0.44645649999E+03  0.10566000000E+00 0. -1.
          4    1    1    2  501    0 -0.75397998592E+02 -0.56097407967E+02  0.34547133504E+03  0.35802544701E+03  0.00000000000E+00 0.  1.
</event>
<event>
 5    1  0.4419198E-005  0.4038163E+03  0.7818608E-02  0.9999489E-01
         -4   -1    0    0    0  501 -0.00000000000E+00  0.00000000000E+00  0.16316729102E+04  0.16316729102E+04  0.00000000000E+00 0. -1.
         21   -1    0    0  501  502  0.00000000000E+00 -0.00000000000E+00 -0.16995894924E+03  0.16995894924E+03  0.00000000000E+00 0. -1.
        -13    1    1    2    0    0 -0.12111103584E+03  0.98756026791E+02  0.54890209828E+03  0.57071372902E+03  0.10566000000E+00 0.  1.
         13    1    1    2    0    0 -0.21707682605E+03  0.25329511528E+03  0.43107308009E+03  0.54507318350E+03  0.10566000000E+00 0. -1.
         -4    1    1    2    0  502  0.33818786189E+03 -0.35205114207E+03  0.48173878261E+03  0.68584494693E+03  0.00000000000E+00 0. -1.
</event>
<event>
 5    1  0.4419198E-005  0.3802599E+03  0.7818608E-02  0.9787852E-01
         21   -1    0    0  501  502  0.00000000000E+00  0.00000000000E+00  0.63725839860E+02  0.63725839860E+02  0.00000000000E+00 0. -1.
          4   -1    0    0  502    0 -0.00000000000E+00 -0.00000000000E+00 -0.23705790620E+04  0.23705790620E+04  0.00000000000E+00 0.  1.
        -13    1    1    2    0    0 -0.38011777732E+03 -0.73221487289E+02 -0.10936007524E+04  0.11600920341E+04  0.10566000000E+00 0.  1.
         13    1    1    2    0    0  0.36884624853E+03  0.63726114021E+02 -0.11767336408E+04  0.12348322336E+04  0.10566000000E+00 0. -1.
          4    1    1    2  501    0  0.11271528790E+02  0.94953732684E+01 -0.36518828992E+02  0.39380634145E+02  0.00000000000E+00 0.  1.
</event>
<event>
 5    1  0.4419198E-005  0.4870501E+03  0.7818608E-02  0.9506816E-01
         21   -1    0    0  501  502  0.00000000000E+00  0.00000000000E+00  0.63473845726E+03  0.63473845726E+03  0.00000000000E+00 0. -1.
          4   -1    0    0  502    0 -0.00000000000E+00 -0.00000000000E+00 -0.94540559875E+03  0.94540559875E+03  0.00000000000E+00 0.  1.
        -13    1    1    2    0    0  0.67362177075E+03 -0.10849053694E+03  0.11717241984E+03  0.69229031033E+03  0.10566000000E+00 0.  1.
         13    1    1    2    0    0 -0.41808029169E+03 -0.11681321243E+03 -0.19958714545E+03  0.47777766450E+03  0.10566000000E+00 0. -1.
          4    1    1    2  501    0 -0.25554147906E+03  0.22530374937E+03 -0.22825241589E+03  0.41007608119E+03  0.00000000000E+00 0.  1.
</event>
<event>
 5    1  0.4419198E-005  0.3382455E+03  0.7818608E-02  0.9926630E-01
          4   -1    0    0  502    0 -0.00000000000E+00  0.00000000000E+00  0.19891096530E+04  0.19891096530E+04  0.00000000000E+00 0.  1.
         21   -1    0    0  501  502  0.00000000000E+00 -0.00000000000E+00 -0.29303222155E+03  0.29303222155E+03  0.00000000000E+00 0. -1.
        -13    1    1    2    0    0  0.32009818723E+03 -0.10340068132E+03  0.17762081205E+04  0.18077803652E+04  0.10566000000E+00 0.  1.
         13    1    1    2    0    0 -0.33675007804E+03  0.12046012711E+03  0.32607661516E+02  0.35913023826E+03  0.10566000000E+00 0. -1.
          4    1    1    2  501    0  0.16651890803E+02 -0.17059445789E+02 -0.11273835054E+03  0.11523127110E+03  0.00000000000E+00 0.  1.
</event>
<event>
 5    1  0.4419198E-005  0.4129641E+02  0.7818608E-02  0.1411434E+00
          4   -1    0    0  502    0 -0.00000000000E+00  0.00000000000E+00  0.48755540559E+02  0.48755540559E+02  0.00000000000E+00 0.  1.
         21   -1    0    0  501  502  0.00000000000E+00 -0.00000000000E+00 -0.91609505581E+02  0.91609505581E+02  0.00000000000E+00 0.  1.
        -13    1    1    2    0    0  0.27997180514E+02 -0.22667208831E+02  0.24790671353E+02  0.43729086694E+02  0.10566000000E+00 0.  1.
         13    1    1    2    0    0  0.54387756147E+00 -0.10310597763E+02 -0.47474324814E+02  0.48584224905E+02  0.10566000000E+00 0. -1.
          4    1    1    2  501    0 -0.28541058076E+02  0.32977806595E+02 -0.20170311561E+02  0.48051734541E+02  0.00000000000E+00 0.  1.
</event>
<event>
 5    1  0.4419198E-005  0.3372761E+03  0.7818608E-02  0.1025512E+00
         21   -1    0    0  501  502  0.00000000000E+00  0.00000000000E+00  0.71649073802E+03  0.71649073802E+03  0.00000000000E+00 0. -1.
         -4   -1    0    0    0  501 -0.00000000000E+00 -0.00000000000E+00 -0.44913396768E+03  0.44913396768E+03  0.00000000000E+00 0. -1.
        -13    1    1    2    0    0  0.11829443082E+03 -0.62508474787E+01  0.23414600316E+02  0.12075139805E+03  0.10566000000E+00 0.  1.
         13    1    1    2    0    0 -0.29931771070E+02  0.33468574236E+03 -0.26830353911E+03  0.42999681083E+03  0.10566000000E+00 0. -1.
         -4    1    1    2    0  502 -0.88362659754E+02 -0.32843489489E+03  0.51224570914E+03  0.61487649682E+03  0.00000000000E+00 0. -1.
</event>
<event>
 5    1  0.4419198E-005  0.5232176E+03  0.7818608E-02  0.9461732E-01
         21   -1    0    0  501  502  0.00000000000E+00  0.00000000000E+00  0.31821609632E+03  0.31821609632E+03  0.00000000000E+00 0.  1.
          4   -1    0    0  502    0 -0.00000000000E+00 -0.00000000000E+00 -0.26619049892E+04  0.26619049892E+04  0.00000000000E+00 0.  1.
        -13    1    1    2    0    0 -0.29765692772E+03 -0.45491099752E+02 -0.46813233240E+03  0.55661205393E+03  0.10566000000E+00 0.  1.
         13    1    1    2    0    0 -0.33350487668E+03 -0.44509392470E+03 -0.13676223004E+04  0.14763891331E+04  0.10566000000E+00 0. -1.
          4    1    1    2  501    0  0.63116180441E+03  0.49058502445E+03 -0.50793426005E+03  0.94711989848E+03  0.00000000000E+00 0.  1.
</event>
<event>
 5    1  0.4419198E-005  0.5045327E+03  0.7818608E-02  0.9572868E-01
         -4   -1    0    0    0  501 -0.00000000000E+00  0.00000000000E+00  0.23621128062E+04  0.23621128062E+04  0.00000000000E+00 0. -1.
         21   -1    0    0  501  502  0.00000000000E+00 -0.00000000000E+00 -0.21177522593E+03  0.21177522593E+03  0.00000000000E+00 0.  1.
        -13    1    1    2    0    0  0.90532708658E+02 -0.33328316628E+03  0.59237299892E+03  0.68569644981E+03  0.10566000000E+00 0.  1.
         13    1    1    2    0    0  0.36669761435E+03 -0.12987500972E+03  0.79698847816E+03  0.88686261845E+03  0.10566000000E+00 0. -1.
         -4    1    1    2    0  502 -0.45723032300E+03  0.46315817600E+03  0.76097610321E+03  0.10013289639E+04  0.00000000000E+00 0. -1.
</event>
<event>
 5    1  0.4419198E-005  0.4995927E+03  0.7818608E-02  0.9770229E-01
          4   -1    0    0  502    0 -0.00000000000E+00  0.00000000000E+00  0.15828467224E+04  0.15828467224E+04  0.00000000000E+00 0.  1.
         21   -1    0    0  501  502  0.00000000000E+00 -0.00000000000E+00 -0.25762854455E+03  0.25762854455E+03  0.00000000000E+00 0.  1.
        -13    1    1    2    0    0  0.17596498201E+03 -0.40489258446E+03  0.34064970562E+03  0.55762345086E+03  0.10566000000E+00 0.  1.
         13    1    1    2    0    0 -0.48177769340E+02 -0.17148113364E+03  0.45932085736E+03  0.49264849317E+03  0.10566000000E+00 0. -1.
          4    1    1    2  501    0 -0.12778721267E+03  0.57637371810E+03  0.52524761488E+03  0.79020332293E+03  0.00000000000E+00 0.  1.
</event>
<event>
 5    1  0.4419198E-005  0.4568566E+03  0.7818608E-02  0.9852758E-01
         21   -1    0    0  501  502  0.00000000000E+00  0.00000000000E+00  0.31155804237E+03  0.31155804237E+03  0.00000000000E+00 0.  1.
          4   -1    0    0  502    0 -0.00000000000E+00 -0.00000000000E+00 -0.13480051136E+04  0.13480051136E+04  0.00000000000E+00 0.  1.
        -13    1    1    2    0    0 -0.19924923637E+03  0.42376874127E+03 -0.52974631711E+03  0.70704411173E+03  0.10566000000E+00 0.  1.
         13    1    1    2    0    0  0.17182920345E+03  0.37388214352E+02 -0.45483479967E+03  0.48764521928E+03  0.10566000000E+00 0. -1.
          4    1    1    2  501    0  0.27420032929E+02 -0.46115695562E+03 -0.51865954475E+02  0.46487382499E+03  0.00000000000E+00 0.  1.
</event>
<event>
 5    1  0.4419198E-005  0.3521511E+03  0.7818608E-02  0.9886528E-01
         -4   -1    0    0    0  501 -0.00000000000E+00  0.00000000000E+00  0.10976322052E+04  0.10976322052E+04  0.00000000000E+00 0. -1.
         21   -1    0    0  501  502  0.00000000000E+00 -0.00000000000E+00 -0.53404013280E+03  0.53404013280E+03  0.00000000000E+00 0. -1.
        -13    1    1    2    0    0  0.34633542205E+03  0.86479010278E+02  0.43514477257E+03  0.56283019468E+03  0.10566000000E+00 0.  1.
         13    1    1    2    0    0 -0.48752378045E+02 -0.35956132983E+03 -0.30672406786E+03  0.47512188883E+03  0.10566000000E+00 0. -1.
         -4    1    1    2    0  502 -0.29758304400E+03  0.27308231955E+03  0.43517136769E+03  0.59372025448E+03  0.00000000000E+00 0. -1.
</event>
<event>
 5    1  0.4419198E-005  0.1507471E+03  0.7818608E-02  0.1109923E+00
         -4   -1    0    0    0  501 -0.00000000000E+00  0.00000000000E+00  0.10157029285E+03  0.10157029285E+03  0.00000000000E+00 0. -1.
         21   -1    0    0  501  502  0.00000000000E+00 -0.00000000000E+00 -0.47573648331E+03  0.47573648331E+03  0.00000000000E+00 0. -1.
        -13    1    1    2    0    0 -0.95240447796E+02  0.12017420064E+03 -0.14483041943E+03  0.21092283649E+03  0.10566000000E+00 0.  1.
         13    1    1    2    0    0 -0.55405473552E+02 -0.11465283375E+03 -0.63571748362E+02  0.14232504045E+03  0.10566000000E+00 0. -1.
         -4    1    1    2    0  502  0.15064592135E+03 -0.55213668866E+01 -0.16576402266E+03  0.22405889922E+03  0.00000000000E+00 0. -1.
</event>
<event>
 5    1  0.4419198E-005  0.3547659E+03  0.7818608E-02  0.9869635E-01
          4   -1    0    0  502    0 -0.00000000000E+00  0.00000000000E+00  0.13935545430E+04  0.13935545430E+04  0.00000000000E+00 0.  1.
         21   -1    0    0  501  502  0.00000000000E+00 -0.00000000000E+00 -0.32786829698E+03  0.32786829698E+03  0.00000000000E+00 0.  1.
        -13    1    1    2    0    0  0.30913028039E+03  0.31402722371E+03  0.85949707431E+03  0.96587258963E+03  0.10566000000E+00 0.  1.
         13    1    1    2    0    0 -0.41469666965E+02 -0.29749539081E+03  0.34181081116E+03  0.45503613332E+03  0.10566000000E+00 0. -1.
          4    1    1    2  501    0 -0.26766061343E+03 -0.16531832901E+02 -0.13562163941E+03  0.30051411707E+03  0.00000000000E+00 0.  1.
</event>
<event>
 5    1  0.4419198E-005  0.6584260E+02  0.7818608E-02  0.1238077E+00
         -4   -1    0    0    0  501 -0.00000000000E+00  0.00000000000E+00  0.37534522370E+03  0.37534522370E+03  0.00000000000E+00 0. -1.
         21   -1    0    0  501  502  0.00000000000E+00 -0.00000000000E+00 -0.28519318005E+02  0.28519318005E+02  0.00000000000E+00 0. -1.
        -13    1    1    2    0    0 -0.20784936130E+02  0.52406947976E+02  0.12747072620E+03  0.13938184590E+03  0.10566000000E+00 0.  1.
         13    1    1    2    0    0  0.70592035619E+02 -0.54296695347E+02  0.18053277289E+03  0.20130439605E+03  0.10566000000E+00 0. -1.
         -4    1    1    2    0  502 -0.49807099490E+02  0.18897473713E+01  0.38822406611E+02  0.63178299754E+02  0.00000000000E+00 0. -1.
</event>
<event>
 5    1  0.4419198E-005  0.4690282E+03  0.7818608E-02  0.9668495E-01
         21   -1    0    0  501  502  0.00000000000E+00  0.00000000000E+00  0.62647368954E+03  0.62647368954E+03  0.00000000000E+00 0.  1.
          4   -1    0    0  502    0 -0.00000000000E+00 -0.00000000000E+00 -0.82199542919E+03  0.82199542919E+03  0.00000000000E+00 0.  1.
        -13    1    1    2    0    0  0.31276251495E+03 -0.36538382357E+03  0.19343572598E+03  0.51840439865E+03  0.10566000000E+00 0.  1.
         13    1    1    2    0    0  0.18282310356E+03  0.24584884749E+03 -0.26579158940E+03  0.40559970804E+03  0.10566000000E+00 0. -1.
          4    1    1    2  501    0 -0.49558561852E+03  0.11953497609E+03 -0.12316587623E+03  0.52446501204E+03  0.00000000000E+00 0.  1.
</event>
<event>
 5    1  0.8952444E-005  0.3559359E+03  0.7818608E-02  0.1026912E+00
          4   -1    0    0  502    0 -0.00000000000E+00  0.00000000000E+00  0.14766255594E+04  0.14766255594E+04  0.00000000000E+00 0.  1.
         21   -1    0    0  501  502  0.00000000000E+00 -0.00000000000E+00 -0.22951069688E+03  0.22951069688E+03  0.00000000000E+00 0.  1.
        -13    1    1    2    0    0 -0.69167588840E+02  0.27012892444E+03  0.96285021454E+03  0.10024142547E+04  0.10566000000E+00 0.  1.
         13    1    1    2    0    0  0.15211967190E+02  0.95283717210E+02  0.31847047675E+03  0.33276695515E+03  0.10566000000E+00 0. -1.
          4    1    1    2  501    0  0.53955621651E+02 -0.36541264165E+03 -0.34205828770E+02  0.37095504647E+03  0.00000000000E+00 0.  1.
</event>
<event>
 5    1  0.4419198E-005  0.3239698E+02  0.7818608E-02  0.1395538E+00
         -4   -1    0    0    0  501 -0.00000000000E+00  0.00000000000E+00  0.19182478643E+02  0.19182478643E+02  0.00000000000E+00 0. -1.
         21   -1    0    0  501  502  0.00000000000E+00 -0.00000000000E+00 -0.19287006218E+03  0.19287006218E+03  0.00000000000E+00 0. -1.
        -13    1    1    2    0    0 -0.34703553191E+02 -0.40105819758E+01 -0.13975094004E+02  0.37626264607E+02  0.10566000000E+00 0.  1.
         13    1    1    2    0    0  0.11840562493E+02 -0.26606021675E+02 -0.45788780191E+02  0.54265116464E+02  0.10566000000E+00 0. -1.
         -4    1    1    2    0  502  0.22862990698E+02  0.30616603650E+02 -0.11392370934E+03  0.12016115975E+03  0.00000000000E+00 0. -1.
</event>
<event>
 5    1  0.4419198E-005  0.3975880E+03  0.7818608E-02  0.9876849E-01
          4   -1    0    0  502    0 -0.00000000000E+00  0.00000000000E+00  0.85493978619E+03  0.85493978619E+03  0.00000000000E+00 0.  1.
         21   -1    0    0  501  502  0.00000000000E+00 -0.00000000000E+00 -0.50271422826E+03  0.50271422826E+03  0.00000000000E+00 0. -1.
        -13    1    1    2    0    0 -0.47471416976E+03  0.34167600970E+03  0.39723338558E+03  0.70702928678E+03  0.10566000000E+00 0.  1.
         13    1    1    2    0    0  0.23391687565E+03 -0.76137808280E+02  0.97854723262E+02  0.26474445904E+03  0.10566000000E+00 0. -1.
          4    1    1    2  501    0  0.24079729411E+03 -0.26553820142E+03 -0.14286255091E+03  0.38588026863E+03  0.00000000000E+00 0.  1.
</event>
<event>
 5    1  0.9354302E-005  0.4972766E+03  0.7818608E-02  0.1028246E+00
          4   -1    0    0  502    0 -0.00000000000E+00  0.00000000000E+00  0.19162887706E+04  0.19162887706E+04  0.00000000000E+00 0.  1.
         21   -1    0    0  501  502  0.00000000000E+00 -0.00000000000E+00 -0.14885004608E+03  0.14885004608E+03  0.00000000000E+00 0.  1.
        -13    1    1    2    0    0 -0.12565052239E+03 -0.46912855304E+03  0.64964370033E+03  0.81111441954E+03  0.10566000000E+00 0.  1.
         13    1    1    2    0    0  0.12678130413E+02 -0.31491165324E+02  0.19667947619E+03  0.19958771506E+03  0.10566000000E+00 0. -1.
          4    1    1    2  501    0  0.11297239198E+03  0.50061971836E+03  0.92111554805E+03  0.10544366821E+04  0.00000000000E+00 0.  1.
</event>
<event>
 5    1  0.4419198E-005  0.3259451E+03  0.7818608E-02  0.9971367E-01
         21   -1    0    0  501  502  0.00000000000E+00  0.00000000000E+00  0.38731421545E+03  0.38731421545E+03  0.00000000000E+00 0.  1.
          4   -1    0    0  502    0 -0.00000000000E+00 -0.00000000000E+00 -0.14162673258E+04  0.14162673258E+04  0.00000000000E+00 0.  1.
        -13    1    1    2    0    0 -0.43129950567E+03  0.14925939964E+03 -0.61130743555E+03  0.76288559031E+03  0.10566000000E+00 0.  1.
         13    1    1    2    0    0  0.28344233925E+03  0.42871279692E+02 -0.64656142589E+03  0.70726175841E+03  0.10566000000E+00 0. -1.
          4    1    1    2  501    0  0.14785716642E+03 -0.19213067933E+03  0.22891575114E+03  0.33343419249E+03  0.00000000000E+00 0.  1.
</event>
<event>
 5    1  0.4419198E-005  0.3370245E+02  0.7818608E-02  0.1378080E+00
          4   -1    0    0  502    0 -0.00000000000E+00  0.00000000000E+00  0.12640748776E+03  0.12640748776E+03  0.00000000000E+00 0.  1.
         21   -1    0    0  501  502  0.00000000000E+00 -0.00000000000E+00 -0.20825654416E+03  0.20825654416E+03  0.00000000000E+00 0.  1.
        -13    1    1    2    0    0 -0.35599447453E+02  0.45615594743E+02  0.11391136879E+03  0.12776507444E+03  0.10566000000E+00 0.  1.
         13    1    1    2    0    0  0.47302456547E+01 -0.32988885866E+02 -0.88190948484E+02  0.94277761817E+02  0.10566000000E+00 0. -1.
          4    1    1    2  501    0  0.30869201799E+02 -0.12626708877E+02 -0.10756947670E+03  0.11262119567E+03  0.00000000000E+00 0.  1.
</event>
<event>
 5    1  0.4419198E-005  0.1272502E+03  0.7818608E-02  0.1125998E+00
          4   -1    0    0  502    0 -0.00000000000E+00  0.00000000000E+00  0.22648521856E+03  0.22648521856E+03  0.00000000000E+00 0.  1.
         21   -1    0    0  501  502  0.00000000000E+00 -0.00000000000E+00 -0.33146446574E+03  0.33146446574E+03  0.00000000000E+00 0. -1.
        -13    1    1    2    0    0  0.83625384327E+02  0.10135851528E+03  0.18792595568E+03  0.22930968036E+03  0.10566000000E+00 0.  1.
         13    1    1    2    0    0 -0.28736175661E+02 -0.85819720943E+02 -0.20153993688E+03  0.22092792855E+03  0.10566000000E+00 0. -1.
          4    1    1    2  501    0 -0.54889208666E+02 -0.15538794340E+02 -0.91365265984E+02  0.10771207539E+03  0.00000000000E+00 0.  1.
</event>
<event>
 5    1  0.4419198E-005  0.2036829E+03  0.7818608E-02  0.1057640E+00
         -4   -1    0    0    0  501 -0.00000000000E+00  0.00000000000E+00  0.19063148063E+04  0.19063148063E+04  0.00000000000E+00 0. -1.
         21   -1    0    0  501  502  0.00000000000E+00 -0.00000000000E+00 -0.48211937975E+02  0.48211937975E+02  0.00000000000E+00 0.  1.
        -13    1    1    2    0    0  0.22620257836E+02 -0.25759411640E+03  0.94483968565E+03  0.97958585515E+03  0.10566000000E+00 0.  1.
         13    1    1    2    0    0  0.38365926314E+02  0.17281888928E+03  0.80609351083E+03  0.82530301839E+03  0.10566000000E+00 0. -1.
         -4    1    1    2    0  502 -0.60986184150E+02  0.84775227126E+02  0.10716967181E+03  0.14963787070E+03  0.00000000000E+00 0. -1.
</event>
<event>
 5    1  0.4419198E-005  0.5085873E+03  0.7818608E-02  0.9652863E-01
          4   -1    0    0  502    0 -0.00000000000E+00  0.00000000000E+00  0.25204643340E+04  0.25204643340E+04  0.00000000000E+00 0.  1.
         21   -1    0    0  501  502  0.00000000000E+00 -0.00000000000E+00 -0.17234911040E+03  0.17234911040E+03  0.00000000000E+00 0.  1.
        -13    1    1    2    0    0 -0.40994977194E+03 -0.35174225505E+03  0.11359342219E+04  0.12578266960E+04  0.10566000000E+00 0.  1.
         13    1    1    2    0    0  0.22142201440E+03 -0.12416438364E+03  0.45461847535E+03  0.52069422113E+03  0.10566000000E+00 0. -1.
          4    1    1    2  501    0  0.18852775754E+03  0.47590663869E+03  0.75756252630E+03  0.91429252724E+03  0.00000000000E+00 0.  1.
</event>
<event>
 5    1  0.4419198E-005  0.4947417E+03  0.7818608E-02  0.9994273E-01
         21   -1    0    0  501  502  0.00000000000E+00  0.00000000000E+00  0.15383683931E+03  0.15383683931E+03  0.00000000000E+00 0.  1.
          4   -1    0    0  502    0 -0.00000000000E+00 -0.00000000000E+00 -0.20337239460E+04  0.20337239460E+04  0.00000000000E+00 0.  1.
        -13    1    1    2    0    0  0.45448503470E+03  0.25593684173E+03 -0.60381985552E+03  0.79790898153E+03  0.10566000000E+00 0.  1.
         13    1    1    2    0    0 -0.32515962077E+02 -0.80092859690E+02 -0.29315092502E+03  0.30562989050E+03  0.10566000000E+00 0. -1.
          4    1    1    2  501    0 -0.42196907262E+03 -0.17584398204E+03 -0.98291632612E+03  0.10840219133E+04  0.00000000000E+00 0.  1.
</event>
<event>
 5    1  0.4419198E-005  0.2426629E+03  0.7818608E-02  0.1034267E+00
          4   -1    0    0  502    0 -0.00000000000E+00  0.00000000000E+00  0.10710067862E+04  0.10710067862E+04  0.00000000000E+00 0.  1.
         21   -1    0    0  501  502  0.00000000000E+00 -0.00000000000E+00 -0.26646489423E+03  0.26646489423E+03  0.00000000000E+00 0.  1.
        -13    1    1    2    0    0  0.21295886079E+03 -0.13067102558E+03  0.79146467333E+03  0.82996550146E+03  0.10566000000E+00 0.  1.
         13    1    1    2    0    0 -0.18961781435E+03  0.12025896122E+03  0.21089245315E+03  0.30804670301E+03  0.10566000000E+00 0. -1.
          4    1    1    2  501    0 -0.23341046441E+02  0.10412064358E+02 -0.19781523453E+03  0.19945947595E+03  0.00000000000E+00 0.  1.
</event>
<event>
 5    1  0.4419198E-005  0.6147842E+03  0.7818608E-02  0.9256708E-01
         21   -1    0    0  501  502  0.00000000000E+00  0.00000000000E+00  0.55279314458E+03  0.55279314458E+03  0.00000000000E+00 0.  1.
         -4   -1    0    0    0  501 -0.00000000000E+00 -0.00000000000E+00 -0.12301794241E+04  0.12301794241E+04  0.00000000000E+00 0. -1.
        -13    1    1    2    0    0  0.15793792071E+03 -0.41844457230E+03  0.73097253463E+02  0.45319252698E+03  0.10566000000E+00 0.  1.
         13    1    1    2    0    0 -0.14717378517E+03  0.74463714575E+03 -0.43005883486E+03  0.87240771115E+03  0.10566000000E+00 0. -1.
         -4    1    1    2    0  502 -0.10764135544E+02 -0.32619257345E+03 -0.32042469812E+03  0.45737233055E+03  0.00000000000E+00 0. -1.
</event>
<event>
 5    1  0.4419198E-005  0.1563308E+03  0.7818608E-02  0.1095031E+00
         -4   -1    0    0    0  501 -0.00000000000E+00  0.00000000000E+00  0.17783174114E+04  0.17783174114E+04  0.00000000000E+00 0. -1.
         21   -1    0    0  501  502  0.00000000000E+00 -0.00000000000E+00 -0.29441322341E+02  0.29441322341E+02  0.00000000000E+00 0. -1.
        -13    1    1    2    0    0  0.87986302116E+02  0.11400934130E+03  0.75599677011E+03  0.76959135055E+03  0.10566000000E+00 0.  1.
         13    1    1    2    0    0 -0.15421292705E+03 -0.90042244080E+02  0.91863777778E+03  0.93583364468E+03  0.10566000000E+00 0. -1.
         -4    1    1    2    0  502  0.66226624936E+02 -0.23967097217E+02  0.74241541126E+02  0.10233373846E+03  0.00000000000E+00 0. -1.
</event>
<event>
 5    1  0.4419198E-005  0.8027383E+02  0.7818608E-02  0.1202088E+00
         21   -1    0    0  501  502  0.00000000000E+00  0.00000000000E+00  0.59678810074E+03  0.59678810074E+03  0.00000000000E+00 0. -1.
         -4   -1    0    0    0  501 -0.00000000000E+00 -0.00000000000E+00 -0.74515797529E+02  0.74515797529E+02  0.00000000000E+00 0. -1.
        -13    1    1    2    0    0  0.53368608536E+02  0.45859981494E+02  0.56159658420E+02  0.90029243458E+02  0.10566000000E+00 0.  1.
         13    1    1    2    0    0 -0.69069007637E+02 -0.48841413608E+02 -0.26311905881E+02  0.88590851978E+02  0.10566000000E+00 0. -1.
         -4    1    1    2    0  502  0.15700399101E+02  0.29814321144E+01  0.49242455068E+03  0.49268380284E+03  0.00000000000E+00 0. -1.
</event>
<event>
 5    1  0.4419198E-005  0.4974880E+03  0.7818608E-02  0.9920465E-01
         -4   -1    0    0    0  501 -0.00000000000E+00  0.00000000000E+00  0.30576606970E+03  0.30576606970E+03  0.00000000000E+00 0. -1.
         21   -1    0    0  501  502  0.00000000000E+00 -0.00000000000E+00 -0.10999442264E+04  0.10999442264E+04  0.00000000000E+00 0. -1.
        -13    1    1    2    0    0  0.10231108221E+03 -0.36167887064E+02 -0.17681821595E+03  0.20746172238E+03  0.10566000000E+00 0.  1.
         13    1    1    2    0    0 -0.49716128186E+03 -0.18133940037E+03 -0.50977143983E+03  0.73479265806E+03  0.10566000000E+00 0. -1.
         -4    1    1    2    0  502  0.39485019965E+03  0.21750728743E+03 -0.10758850095E+03  0.46345591569E+03  0.00000000000E+00 0. -1.
</event>
<event>
 5    1  0.4419198E-005  0.1596226E+03  0.7818608E-02  0.1091991E+00
         21   -1    0    0  501  502  0.00000000000E+00  0.00000000000E+00  0.21274770206E+03  0.21274770206E+03  0.00000000000E+00 0. -1.
         -4   -1    0    0    0  501 -0.00000000000E+00 -0.00000000000E+00 -0.54114459437E+03  0.54114459437E+03  0.00000000000E+00 0. -1.
        -13    1    1    2    0    0  0.15274463291E+03  0.34173870139E+02 -0.21204302872E+01  0.15653524738E+03  0.10566000000E+00 0.  1.
         13    1    1    2    0    0 -0.94761256445E+02 -0.13853546274E+03 -0.41562582504E+03  0.44823722265E+03  0.10566000000E+00 0. -1.
         -4    1    1    2    0  502 -0.57983376463E+02  0.10436159260E+03  0.89349363015E+02  0.14911982641E+03  0.00000000000E+00 0. -1.
</event>
<event>
 5    1  0.4419198E-005  0.5761889E+02  0.7818608E-02  0.1263540E+00
         -4   -1    0    0    0  501 -0.00000000000E+00  0.00000000000E+00  0.94243981594E+02  0.94243981594E+02  0.00000000000E+00 0. -1.
         21   -1    0    0  501  502  0.00000000000E+00 -0.00000000000E+00 -0.11450580318E+03  0.11450580318E+03  0.00000000000E+00 0.  1.
        -13    1    1    2    0    0  0.54037170873E+02  0.23376381563E+02  0.66776262775E+02  0.89025566469E+02  0.10566000000E+00 0.  1.
         13    1    1    2    0    0 -0.44448806283E+02 -0.29249102879E+02 -0.28983745350E+02  0.60591047670E+02  0.10566000000E+00 0. -1.
         -4    1    1    2    0  502 -0.95883645902E+01  0.58727213157E+01 -0.58054339016E+02  0.59133170638E+02  0.00000000000E+00 0. -1.
</event>
<event>
 5    1  0.4419198E-005  0.4222935E+03  0.7818608E-02  0.9784858E-01
         21   -1    0    0  501  502  0.00000000000E+00  0.00000000000E+00  0.19330822066E+03  0.19330822066E+03  0.00000000000E+00 0.  1.
          4   -1    0    0  502    0 -0.00000000000E+00 -0.00000000000E+00 -0.25514254785E+04  0.25514254785E+04  0.00000000000E+00 0.  1.
        -13    1    1    2    0    0  0.44605801395E+03  0.18347818327E+03 -0.11490508481E+04  0.12461740882E+04  0.10566000000E+00 0.  1.
         13    1    1    2    0    0 -0.21904622861E+03  0.17520822076E+03 -0.97346645171E+03  0.10130726107E+04  0.10566000000E+00 0. -1.
          4    1    1    2  501    0 -0.22701178534E+03 -0.35868640403E+03 -0.23559995809E+03  0.48548700021E+03  0.00000000000E+00 0.  1.
</event>
<event>
 5    1  0.4419198E-005  0.6166140E+02  0.7818608E-02  0.1250469E+00
          4   -1    0    0  502    0 -0.00000000000E+00  0.00000000000E+00  0.31496632740E+02  0.31496632740E+02  0.00000000000E+00 0.  1.
         21   -1    0    0  501  502  0.00000000000E+00 -0.00000000000E+00 -0.33057979522E+03  0.33057979522E+03  0.00000000000E+00 0. -1.
        -13    1    1    2    0    0  0.35916714827E+02 -0.52504568201E+02 -0.12656034264E+02  0.64860823717E+02  0.10566000000E+00 0.  1.
         13    1    1    2    0    0 -0.14856105624E+02  0.53447280233E+02 -0.16786056799E+03  0.17678941453E+03  0.10566000000E+00 0. -1.
          4    1    1    2  501    0 -0.21060609204E+02 -0.94271203256E+00 -0.11856656023E+03  0.12042618972E+03  0.00000000000E+00 0.  1.
</event>
<event>
 5    1  0.4419198E-005  0.3129242E+02  0.7818608E-02  0.1394821E+00
         21   -1    0    0  501  502  0.00000000000E+00  0.00000000000E+00  0.66180722083E+03  0.66180722083E+03  0.00000000000E+00 0. -1.
         -4   -1    0    0    0  501 -0.00000000000E+00 -0.00000000000E+00 -0.13707923015E+02  0.13707923015E+02  0.00000000000E+00 0. -1.
        -13    1    1    2    0    0  0.38826547595E+02  0.24326569231E+02  0.12751447077E+03  0.13549625156E+03  0.10566000000E+00 0.  1.
         13    1    1    2    0    0 -0.24833143644E+02 -0.14757963541E+02  0.12210883840E+02  0.31362387653E+02  0.10566000000E+00 0. -1.
         -4    1    1    2    0  502 -0.13993403951E+02 -0.95686056899E+01  0.50837394320E+03  0.50865650462E+03  0.00000000000E+00 0. -1.
</event>
<event>
 5    1  0.4419198E-005  0.4877459E+03  0.7818608E-02  0.9505242E-01
         -4   -1    0    0    0  501 -0.00000000000E+00  0.00000000000E+00  0.29652117956E+04  0.29652117956E+04  0.00000000000E+00 0. -1.
         21   -1    0    0  501  502  0.00000000000E+00 -0.00000000000E+00 -0.18635030396E+03  0.18635030396E+03  0.00000000000E+00 0. -1.
        -13    1    1    2    0    0 -0.39328534657E+03 -0.90207172217E+01  0.95776131198E+03  0.10354040173E+04  0.10566000000E+00 0.  1.
         13    1    1    2    0    0  0.61328519268E+03 -0.71001821626E+02  0.17726640692E+04  0.18770982659E+04  0.10566000000E+00 0. -1.
         -4    1    1    2    0  502 -0.21999984611E+03  0.80022538848E+02  0.48436110435E+02  0.23905981638E+03  0.00000000000E+00 0. -1.
</event>
<event>
 5    1  0.4419198E-005  0.9582095E+02  0.7818608E-02  0.1171661E+00
          4   -1    0    0  502    0 -0.00000000000E+00  0.00000000000E+00  0.47237882806E+03  0.47237882806E+03  0.00000000000E+00 0.  1.
         21   -1    0    0  501  502  0.00000000000E+00 -0.00000000000E+00 -0.34083148273E+03  0.34083148273E+03  0.00000000000E+00 0. -1.
        -13    1    1    2    0    0  0.64525696996E+02 -0.70679383501E+02  0.45473989483E+03  0.46470154287E+03  0.10566000000E+00 0.  1.
         13    1    1    2    0    0 -0.50828630747E+02  0.91966470533E+02 -0.26229608495E+03  0.28256084080E+03  0.10566000000E+00 0. -1.
          4    1    1    2  501    0 -0.13697066249E+02 -0.21287087032E+02 -0.60896464545E+02  0.65947927126E+02  0.00000000000E+00 0.  1.
</event>
<event>
 5    1  0.4419198E-005  0.3383871E+03  0.7818608E-02  0.9926126E-01
          4   -1    0    0  502    0 -0.00000000000E+00  0.00000000000E+00  0.75011044583E+03  0.75011044583E+03  0.00000000000E+00 0.  1.
         21   -1    0    0  501  502  0.00000000000E+00 -0.00000000000E+00 -0.36146384114E+03  0.36146384114E+03  0.00000000000E+00 0.  1.
        -13    1    1    2    0    0  0.24249488422E+03  0.25171804488E+03  0.11720328346E+03  0.36864937788E+03  0.10566000000E+00 0.  1.
         13    1    1    2    0    0 -0.24724960304E+03 -0.22418442633E+03  0.45108032557E+03  0.56112787713E+03  0.10566000000E+00 0. -1.
          4    1    1    2  501    0  0.47547188200E+01 -0.27533618552E+02 -0.17963700435E+03  0.18179703197E+03  0.00000000000E+00 0.  1.
</event>
<event>
 5    1  0.4419198E-005  0.1329880E+03  0.7818608E-02  0.1146767E+00
         21   -1    0    0  501  502  0.00000000000E+00  0.00000000000E+00  0.42761895595E+03  0.42761895595E+03  0.00000000000E+00 0. -1.
         -4   -1    0    0    0  501 -0.00000000000E+00 -0.00000000000E+00 -0.18270360785E+03  0.18270360785E+03  0.00000000000E+00 0. -1.
        -13    1    1    2    0    0  0.14100853387E+02  0.64262523966E+02  0.20427556101E+02  0.68889783459E+02  0.10566000000E+00 0.  1.
         13    1    1    2    0    0  0.31819464432E+00 -0.19140041030E+03 -0.82820534019E+02  0.20855088187E+03  0.10566000000E+00 0. -1.
         -4    1    1    2    0  502 -0.14419048031E+02  0.12713788633E+03  0.30730832602E+03  0.33288189847E+03  0.00000000000E+00 0. -1.
</event>
<event>
 5    1  0.4419198E-005  0.4653475E+03  0.7818608E-02  0.9721930E-01
         21   -1    0    0  501  502  0.00000000000E+00  0.00000000000E+00  0.17853196720E+03  0.17853196720E+03  0.00000000000E+00 0.  1.
          4   -1    0    0  502    0 -0.00000000000E+00 -0.00000000000E+00 -0.31000551131E+04  0.31000551131E+04  0.00000000000E+00 0.  1.
        -13    1    1    2    0    0 -0.22671580036E+03 -0.59966671657E+03 -0.97236952901E+03  0.11646899747E+04  0.10566000000E+00 0.  1.
         13    1    1    2    0    0  0.10633961094E+03  0.23768152070E+03 -0.15095961551E+04  0.15318881098E+04  0.10566000000E+00 0. -1.
          4    1    1    2  501    0  0.12037618942E+03  0.36198519587E+03 -0.43955746180E+03  0.58200899583E+03  0.00000000000E+00 0.  1.
</event>
<event>
 5    1  0.4419198E-005  0.4423372E+03  0.7818608E-02  0.9614189E-01
         -4   -1    0    0    0  501 -0.00000000000E+00  0.00000000000E+00  0.14510881843E+04  0.14510881843E+04  0.00000000000E+00 0. -1.
         21   -1    0    0  501  502  0.00000000000E+00 -0.00000000000E+00 -0.53421628799E+03  0.53421628799E+03  0.00000000000E+00 0. -1.
        -13    1    1    2    0    0  0.27311296689E+03 -0.34365096469E+03  0.50596136781E+03  0.66983848434E+03  0.10566000000E+00 0.  1.
         13    1    1    2    0    0 -0.28647549659E+03  0.34022485819E+03  0.80576606321E+03  0.92036955842E+03  0.10566000000E+00 0. -1.
         -4    1    1    2    0  502  0.13362529700E+02  0.34261065012E+01 -0.39485553467E+03  0.39509642958E+03  0.00000000000E+00 0. -1.
</event>
<event>
 5    1  0.4419198E-005  0.4891804E+03  0.7818608E-02  0.9782219E-01
          4   -1    0    0  502    0 -0.00000000000E+00  0.00000000000E+00  0.47500696947E+03  0.47500696947E+03  0.00000000000E+00 0.  1.
         21   -1    0    0  501  502  0.00000000000E+00 -0.00000000000E+00 -0.83486553167E+03  0.83486553167E+03  0.00000000000E+00 0.  1.
        -13    1    1    2    0    0  0.68513044411E+02  0.51134777003E+03 -0.18460941225E+03  0.54795184590E+03  0.10566000000E+00 0.  1.
         13    1    1    2    0    0 -0.17388354651E+03 -0.54056713046E+02 -0.22563874592E+03  0.28994908311E+03  0.10566000000E+00 0. -1.
          4    1    1    2  501    0  0.10537050210E+03 -0.45729105699E+03  0.50389595977E+02  0.47197157213E+03  0.00000000000E+00 0.  1.
</event>
<event>
 5    1  0.4419198E-005  0.1753963E+02  0.7818608E-02  0.1547273E+00
          4   -1    0    0  502    0 -0.00000000000E+00  0.00000000000E+00  0.39688392741E+02  0.39688392741E+02  0.00000000000E+00 0.  1.
         21   -1    0    0  501  502  0.00000000000E+00 -0.00000000000E+00 -0.47519019649E+02  0.47519019649E+02  0.00000000000E+00 0.  1.
        -13    1    1    2    0    0 -0.18109005124E+02  0.26090785173E+01  0.66163264005E+01  0.19455855066E+02  0.10566000000E+00 0.  1.
         13    1    1    2    0    0  0.16485996815E+02  0.76038264924E+01  0.22771514596E+02  0.29123174782E+02  0.10566000000E+00 0. -1.
          4    1    1    2  501    0  0.16230083088E+01 -0.10212905010E+02 -0.37218467904E+02  0.38628382542E+02  0.00000000000E+00 0.  1.
</event>
<event>
 5    1  0.4419198E-005  0.1977193E+03  0.7818608E-02  0.1061711E+00
         21   -1    0    0  501  502  0.00000000000E+00  0.00000000000E+00  0.63005610735E+02  0.63005610735E+02  0.00000000000E+00 0.  1.
         -4   -1    0    0    0  501 -0.00000000000E+00 -0.00000000000E+00 -0.18194833772E+04  0.18194833772E+04  0.00000000000E+00 0. -1.
        -13    1    1    2    0    0 -0.19535904754E+03 -0.45576817648E+02 -0.70746570877E+03  0.73535715405E+03  0.10566000000E+00 0.  1.
         13    1    1    2    0    0  0.20289184554E+03 -0.14609002119E+03 -0.41256306078E+03  0.48240614171E+03  0.10566000000E+00 0. -1.
         -4    1    1    2    0  502 -0.75327979929E+01  0.19166683884E+03 -0.63644899688E+03  0.66472569214E+03  0.00000000000E+00 0. -1.
</event>
<event>
 5    1  0.4419198E-005  0.1604259E+03  0.7818608E-02  0.1091261E+00
          4   -1    0    0  502    0 -0.00000000000E+00  0.00000000000E+00  0.14273384199E+03  0.14273384199E+03  0.00000000000E+00 0.  1.
         21   -1    0    0  501  502  0.00000000000E+00 -0.00000000000E+00 -0.55869497621E+03  0.55869497621E+03  0.00000000000E+00 0.  1.
        -13    1    1    2    0    0 -0.29710311075E+02 -0.16589107030E+03  0.38178386875E+02  0.17280089750E+03  0.10566000000E+00 0.  1.
         13    1    1    2    0    0  0.57678087937E+02  0.13353475483E+03 -0.11136390213E+03  0.18319449347E+03  0.10566000000E+00 0. -1.
          4    1    1    2  501    0 -0.27967776862E+02  0.32356315465E+02 -0.34277561896E+03  0.34543342723E+03  0.00000000000E+00 0.  1.
</event>
<event>
 5    1  0.4419198E-005  0.6223652E+02  0.7818608E-02  0.1302977E+00
          4   -1    0    0  502    0 -0.00000000000E+00  0.00000000000E+00  0.39823221888E+03  0.39823221888E+03  0.00000000000E+00 0.  1.
         21   -1    0    0  501  502  0.00000000000E+00 -0.00000000000E+00 -0.13878708018E+02  0.13878708018E+02  0.00000000000E+00 0. -1.
        -13    1    1    2    0    0 -0.50298345483E+02 -0.48425739725E+02  0.15647629383E+03  0.17134706744E+03  0.10566000000E+00 0.  1.
         13    1    1    2    0    0  0.39910076756E+01  0.20463545504E+02  0.38149133649E+02  0.43474732881E+02  0.10566000000E+00 0. -1.
          4    1    1    2  501    0  0.46307337807E+02  0.27962194220E+02  0.18972808338E+03  0.19728912658E+03  0.00000000000E+00 0.  1.
</event>
<event>
 5    1  0.4419198E-005  0.4746463E+03  0.7818608E-02  0.9944474E-01
          4   -1    0    0  502    0 -0.00000000000E+00  0.00000000000E+00  0.88557766905E+03  0.88557766905E+03  0.00000000000E+00 0.  1.
         21   -1    0    0  501  502  0.00000000000E+00 -0.00000000000E+00 -0.36931045002E+03  0.36931045002E+03  0.00000000000E+00 0.  1.
        -13    1    1    2    0    0  0.23270459401E+03 -0.38616691515E+03  0.42047565694E+03  0.61650312543E+03  0.10566000000E+00 0.  1.
         13    1    1    2    0    0  0.10968733750E+03  0.35750773655E+02  0.93434971674E+02  0.14845718211E+03  0.10566000000E+00 0. -1.
          4    1    1    2  501    0 -0.34239193151E+03  0.35041614149E+03  0.23565904135E+01  0.48992781152E+03  0.00000000000E+00 0.  1.
</event>
<event>
 5    1  0.4419198E-005  0.6208532E+03  0.7818608E-02  0.9246451E-01
         -4   -1    0    0    0  501 -0.00000000000E+00  0.00000000000E+00  0.12201219895E+04  0.12201219895E+04  0.00000000000E+00 0. -1.
         21   -1    0    0  501  502  0.00000000000E+00 -0.00000000000E+00 -0.56670093099E+03  0.56670093099E+03  0.00000000000E+00 0. -1.
        -13    1    1    2    0    0 -0.52279676985E+03 -0.69801683479E+01  0.27795815525E+03  0.59213675156E+03  0.10566000000E+00 0.  1.
         13    1    1    2    0    0  0.76676253684E+03  0.21755145724E+03  0.35279368314E+03  0.87161735783E+03  0.10566000000E+00 0. -1.
         -4    1    1    2    0  502 -0.24396576699E+03 -0.21057128889E+03  0.22669220141E+02  0.32306881111E+03  0.00000000000E+00 0. -1.
</event>
<event>
 5    1  0.4419198E-005  0.5044779E+03  0.7818608E-02  0.1024869E+00
          4   -1    0    0  502    0 -0.00000000000E+00  0.00000000000E+00  0.17470311490E+04  0.17470311490E+04  0.00000000000E+00 0.  1.
         21   -1    0    0  501  502  0.00000000000E+00 -0.00000000000E+00 -0.16290260918E+03  0.16290260918E+03  0.00000000000E+00 0.  1.
        -13    1    1    2    0    0  0.49637805895E+03  0.75976037650E+02  0.69458763578E+03  0.85709715356E+03  0.10566000000E+00 0.  1.
         13    1    1    2    0    0  0.94919820714E+01 -0.34846777142E+02  0.16057764869E+03  0.16458914916E+03  0.10566000000E+00 0. -1.
          4    1    1    2  501    0 -0.50587004102E+03 -0.41129260508E+02  0.72896325535E+03  0.88824745545E+03  0.00000000000E+00 0.  1.
</event>
<event>
 5    1  0.4419198E-005  0.4029034E+03  0.7818608E-02  0.9720698E-01
          4   -1    0    0  502    0 -0.00000000000E+00  0.00000000000E+00  0.74848128020E+03  0.74848128020E+03  0.00000000000E+00 0.  1.
         21   -1    0    0  501  502  0.00000000000E+00 -0.00000000000E+00 -0.10677629954E+04  0.10677629954E+04  0.00000000000E+00 0.  1.
        -13    1    1    2    0    0 -0.13673045159E+03  0.53495816634E+03 -0.71862353407E+03  0.90625341434E+03  0.10566000000E+00 0.  1.
         13    1    1    2    0    0  0.32395688485E+03 -0.23327968142E+03  0.38505610301E+03  0.55464915635E+03  0.10566000000E+00 0. -1.
          4    1    1    2  501    0 -0.18722643326E+03 -0.30167848491E+03  0.14285715852E+02  0.35534170491E+03  0.00000000000E+00 0.  1.
</event>
<event>
 5    1  0.4419198E-005  0.2226515E+03  0.7818608E-02  0.1045627E+00
         -4   -1    0    0    0  501 -0.00000000000E+00  0.00000000000E+00  0.85212675044E+03  0.85212675044E+03  0.00000000000E+00 0. -1.
         21   -1    0    0  501  502  0.00000000000E+00 -0.00000000000E+00 -0.51700047981E+03  0.51700047981E+03  0.00000000000E+00 0. -1.
        -13    1    1    2    0    0  0.11186851993E+03  0.18277052692E+03  0.60703215737E+03  0.64374504465E+03  0.10566000000E+00 0.  1.
         13    1    1    2    0    0 -0.15828991514E+03 -0.20300853693E+03  0.15167377751E+03  0.29878605933E+03  0.10566000000E+00 0. -1.
         -4    1    1    2    0  502  0.46421395207E+02  0.20238010013E+02 -0.42357966425E+03  0.42659612627E+03  0.00000000000E+00 0. -1.
</event>
<event>
 5    1  0.4419198E-005  0.4666078E+03  0.7818608E-02  0.9639070E-01
         21   -1    0    0  501  502  0.00000000000E+00  0.00000000000E+00  0.51036676316E+03  0.51036676316E+03  0.00000000000E+00 0. -1.
          4   -1    0    0  502    0 -0.00000000000E+00 -0.00000000000E+00 -0.98229422719E+03  0.98229422719E+03  0.00000000000E+00 0.  1.
        -13    1    1    2    0    0 -0.19879058178E+03  0.12630145501E+03 -0.46793017913E+03  0.52385915726E+03  0.10566000000E+00 0.  1.
         13    1    1    2    0    0 -0.20597354673E+03  0.27688251574E+03 -0.15435547595E+03  0.37804054491E+03  0.10566000000E+00 0. -1.
          4    1    1    2  501    0  0.40476412851E+03 -0.40318397075E+03  0.15035819105E+03  0.59076128818E+03  0.00000000000E+00 0.  1.
</event>
<event>
 5    1  0.4419198E-005  0.4126351E+03  0.7818608E-02  0.9830480E-01
          4   -1    0    0  502    0 -0.00000000000E+00  0.00000000000E+00  0.38423436698E+04  0.38423436698E+04  0.00000000000E+00 0.  1.
         21   -1    0    0  501  502  0.00000000000E+00 -0.00000000000E+00 -0.11408682246E+03  0.11408682246E+03  0.00000000000E+00 0.  1.
        -13    1    1    2    0    0  0.41997884155E+03 -0.66726806116E+02  0.50305210793E+03  0.65870792349E+03  0.10566000000E+00 0.  1.
         13    1    1    2    0    0 -0.35739862758E+02  0.25486392068E+03  0.10759932744E+04  0.11063428463E+04  0.10566000000E+00 0. -1.
          4    1    1    2  501    0 -0.38423897880E+03 -0.18813711457E+03  0.21492114651E+04  0.21913797225E+04  0.00000000000E+00 0.  1.
</event>
<event>
 5    1  0.4419198E-005  0.4337066E+03  0.7818608E-02  0.1034043E+00
         21   -1    0    0  501  502  0.00000000000E+00  0.00000000000E+00  0.32558460368E+03  0.32558460368E+03  0.00000000000E+00 0.  1.
          4   -1    0    0  502    0 -0.00000000000E+00 -0.00000000000E+00 -0.84987319616E+03  0.84987319616E+03  0.00000000000E+00 0.  1.
        -13    1    1    2    0    0  0.34674045538E+03 -0.20276193429E+03 -0.55743020095E+03  0.68707334797E+03  0.10566000000E+00 0.  1.
         13    1    1    2    0    0  0.34861729329E+02 -0.24822284128E+02 -0.49882862552E+00  0.42798901332E+02  0.10566000000E+00 0. -1.
          4    1    1    2  501    0 -0.38160218471E+03  0.22758421842E+03  0.33640437096E+02  0.44558555055E+03  0.00000000000E+00 0.  1.
</event>
<event>
 5    1  0.4419198E-005  0.6532997E+03  0.7818608E-02  0.9193624E-01
         -4   -1    0    0    0  501 -0.00000000000E+00  0.00000000000E+00  0.20563346269E+04  0.20563346269E+04  0.00000000000E+00 0. -1.
         21   -1    0    0  501  502  0.00000000000E+00 -0.00000000000E+00 -0.44372762387E+03  0.44372762387E+03  0.00000000000E+00 0.  1.
        -13    1    1    2    0    0 -0.26671626728E+03 -0.54253893618E+03  0.10304005616E+04  0.11946595302E+04  0.10566000000E+00 0.  1.
         13    1    1    2    0    0  0.38368748342E+03  0.63818257390E+03  0.76545024529E+03  0.10678984838E+04  0.10566000000E+00 0. -1.
         -4    1    1    2    0  502 -0.11697121615E+03 -0.95643637725E+02 -0.18324380385E+03  0.23750423680E+03  0.00000000000E+00 0. -1.
</event>
<event>
 5    1  0.4419198E-005  0.4919946E+03  0.7818608E-02  0.9837203E-01
         21   -1    0    0  501  502  0.00000000000E+00  0.00000000000E+00  0.52679133837E+03  0.52679133837E+03  0.00000000000E+00 0.  1.
          4   -1    0    0  502    0 -0.00000000000E+00 -0.00000000000E+00 -0.69969746354E+03  0.69969746354E+03  0.00000000000E+00 0.  1.
        -13    1    1    2    0    0  0.14919528800E+03  0.43676800911E+03 -0.19773147241E+03  0.50211878484E+03  0.10566000000E+00 0.  1.
         13    1    1    2    0    0  0.14767905913E+03 -0.14681640627E+02 -0.11724929088E+03  0.18913503762E+03  0.10566000000E+00 0. -1.
          4    1    1    2  501    0 -0.29687434713E+03 -0.42208636848E+03  0.14207463812E+03  0.53523497946E+03  0.00000000000E+00 0.  1.
</event>
<event>
 5    1  0.4419198E-005  0.4955100E+03  0.7818608E-02  0.9900542E-01
          4   -1    0    0  502    0 -0.00000000000E+00  0.00000000000E+00  0.88889190827E+03  0.88889190827E+03  0.00000000000E+00 0.  1.
         21   -1    0    0  501  502  0.00000000000E+00 -0.00000000000E+00 -0.43050870495E+03  0.43050870495E+03  0.00000000000E+00 0.  1.
        -13    1    1    2    0    0 -0.46425838270E+02 -0.43445532546E+03  0.13607076609E+03  0.45762654296E+03  0.10566000000E+00 0.  1.
         13    1    1    2    0    0 -0.16323814310E+02 -0.11623227897E+03  0.28271361114E+03  0.30611012181E+03  0.10566000000E+00 0. -1.
          4    1    1    2  501    0  0.62749652581E+02  0.55068760443E+03  0.39598826092E+02  0.55566394844E+03  0.00000000000E+00 0.  1.
</event>
<event>
 5    1  0.4419198E-005  0.4762777E+03  0.7818608E-02  0.9544497E-01
         -4   -1    0    0    0  501 -0.00000000000E+00  0.00000000000E+00  0.35494223896E+04  0.35494223896E+04  0.00000000000E+00 0. -1.
         21   -1    0    0  501  502  0.00000000000E+00 -0.00000000000E+00 -0.18043211632E+03  0.18043211632E+03  0.00000000000E+00 0. -1.
        -13    1    1    2    0    0 -0.96306008091E+02 -0.44422516867E+03  0.62033867086E+03  0.76904546381E+03  0.10566000000E+00 0.  1.
         13    1    1    2    0    0 -0.44309921929E+03  0.15650011331E+03  0.92693805105E+03  0.10392513484E+04  0.10566000000E+00 0. -1.
         -4    1    1    2    0  502  0.53940522738E+03  0.28772505536E+03  0.18217135514E+04  0.19215576937E+04  0.00000000000E+00 0. -1.
</event>
<event>
 5    1  0.4419198E-005  0.5007965E+03  0.7818608E-02  0.9823641E-01
         21   -1    0    0  501  502  0.00000000000E+00  0.00000000000E+00  0.53746762656E+03  0.53746762656E+03  0.00000000000E+00 0. -1.
         -4   -1    0    0    0  501 -0.00000000000E+00 -0.00000000000E+00 -0.74948781066E+03  0.74948781066E+03  0.00000000000E+00 0. -1.
        -13    1    1    2    0    0 -0.10379707955E+03  0.10457979971E+03 -0.23142128175E+03  0.27434756978E+03  0.10566000000E+00 0.  1.
         13    1    1    2    0    0  0.44296183031E+03 -0.36628918605E+03  0.78602256463E+02  0.58013901508E+03  0.10566000000E+00 0. -1.
         -4    1    1    2    0  502 -0.33916475076E+03  0.26170938635E+03 -0.59201158802E+02  0.43246885236E+03  0.00000000000E+00 0. -1.
</event>
<event>
 5    1  0.4419198E-005  0.5069061E+02  0.7818608E-02  0.1325455E+00
          4   -1    0    0  502    0 -0.00000000000E+00  0.00000000000E+00  0.16018577421E+03  0.16018577421E+03  0.00000000000E+00 0.  1.
         21   -1    0    0  501  502  0.00000000000E+00 -0.00000000000E+00 -0.18341341272E+03  0.18341341272E+03  0.00000000000E+00 0.  1.
        -13    1    1    2    0    0 -0.37365775288E+02  0.12422628317E+02  0.14799676543E+03  0.15314560587E+03  0.10566000000E+00 0.  1.
         13    1    1    2    0    0 -0.12957881627E+02 -0.21597871940E+02 -0.24783762815E+02  0.35335829294E+02  0.10566000000E+00 0. -1.
          4    1    1    2  501    0  0.50323656915E+02  0.91752436237E+01 -0.14644064112E+03  0.15511775177E+03  0.00000000000E+00 0.  1.
</event>
<event>
 5    1  0.4419198E-005  0.3689211E+03  0.7818608E-02  0.9823361E-01
         -4   -1    0    0    0  501 -0.00000000000E+00  0.00000000000E+00  0.11126069842E+04  0.11126069842E+04  0.00000000000E+00 0. -1.
         21   -1    0    0  501  502  0.00000000000E+00 -0.00000000000E+00 -0.79491910504E+03  0.79491910504E+03  0.00000000000E+00 0. -1.
        -13    1    1    2    0    0 -0.17294420764E+03  0.31101966989E+03 -0.32550799977E+03  0.48228456651E+03  0.10566000000E+00 0.  1.
         13    1    1    2    0    0  0.17666378806E+03 -0.32509044681E+03  0.10009748756E+04  0.10671666249E+04  0.10566000000E+00 0. -1.
         -4    1    1    2    0  502 -0.37195804147E+01  0.14070776920E+02 -0.35777899662E+03  0.35807489784E+03  0.00000000000E+00 0. -1.
</event>
<event>
 5    1  0.4419198E-005  0.2516885E+03  0.7818608E-02  0.1029521E+00
         -4   -1    0    0    0  501 -0.00000000000E+00  0.00000000000E+00  0.51441635755E+03  0.51441635755E+03  0.00000000000E+00 0. -1.
         21   -1    0    0  501  502  0.00000000000E+00 -0.00000000000E+00 -0.28840015718E+03  0.28840015718E+03  0.00000000000E+00 0.  1.
        -13    1    1    2    0    0 -0.10708280791E+03 -0.21516675974E+03 -0.41073568984E+02  0.24382475567E+03  0.10566000000E+00 0.  1.
         13    1    1    2    0    0  0.10836862885E+03  0.23064772509E+03  0.37311349514E+03  0.45183605901E+03  0.10566000000E+00 0. -1.
         -4    1    1    2    0  502 -0.12858209370E+01 -0.15480965348E+02 -0.10602372578E+03  0.10715570004E+03  0.00000000000E+00 0. -1.
</event>
<event>
 5    1  0.4419198E-005  0.9284078E+02  0.7818608E-02  0.1176977E+00
          4   -1    0    0  502    0 -0.00000000000E+00  0.00000000000E+00  0.58124488487E+03  0.58124488487E+03  0.00000000000E+00 0.  1.
         21   -1    0    0  501  502  0.00000000000E+00 -0.00000000000E+00 -0.24541128027E+02  0.24541128027E+02  0.00000000000E+00 0. -1.
        -13    1    1    2    0    0 -0.16437150507E+02  0.88464804488E+02  0.30427608283E+03  0.31730135092E+03  0.10566000000E+00 0.  1.
         13    1    1    2    0    0 -0.98921108022E+01 -0.99129068596E+02  0.23478223702E+03  0.25504340039E+03  0.10566000000E+00 0. -1.
          4    1    1    2  501    0  0.26329261310E+02  0.10664264108E+02  0.17645436994E+02  0.33441261591E+02  0.00000000000E+00 0.  1.
</event>
<event>
 5    1  0.4419198E-005  0.4014062E+03  0.7818608E-02  0.9847298E-01
         -4   -1    0    0    0  501 -0.00000000000E+00  0.00000000000E+00  0.95561517655E+03  0.95561517655E+03  0.00000000000E+00 0. -1.
         21   -1    0    0  501  502  0.00000000000E+00 -0.00000000000E+00 -0.62306446815E+03  0.62306446815E+03  0.00000000000E+00 0. -1.
        -13    1    1    2    0    0 -0.18960444395E+03  0.18382317035E+03  0.47687593585E+03  0.54511601744E+03  0.10566000000E+00 0.  1.
         13    1    1    2    0    0  0.46698049231E+02  0.36308390548E+03 -0.26952816226E+03  0.45459440344E+03  0.10566000000E+00 0. -1.
         -4    1    1    2    0  502  0.14290639472E+03 -0.54690707583E+03  0.12520293482E+03  0.57896922382E+03  0.00000000000E+00 0. -1.
</event>
<event>
 5    1  0.4419198E-005  0.2995029E+03  0.7818608E-02  0.1007511E+00
         21   -1    0    0  501  502  0.00000000000E+00  0.00000000000E+00  0.57002295494E+03  0.57002295494E+03  0.00000000000E+00 0.  1.
          4   -1    0    0  502    0 -0.00000000000E+00 -0.00000000000E+00 -0.31785230901E+03  0.31785230901E+03  0.00000000000E+00 0.  1.
        -13    1    1    2    0    0  0.22268286560E+03 -0.24229403845E+03  0.22282482150E+03  0.39742291320E+03  0.10566000000E+00 0.  1.
         13    1    1    2    0    0 -0.17101370853E+03  0.23553872113E+03 -0.13294740690E+03  0.31999875285E+03  0.10566000000E+00 0. -1.
          4    1    1    2  501    0 -0.51669157069E+02  0.67553173157E+01  0.16229323132E+03  0.17045359790E+03  0.00000000000E+00 0.  1.
</event>
<event>
 5    1  0.4419198E-005  0.3816463E+03  0.7818608E-02  0.9901729E-01
         -4   -1    0    0    0  501 -0.00000000000E+00  0.00000000000E+00  0.13934123531E+04  0.13934123531E+04  0.00000000000E+00 0. -1.
         21   -1    0    0  501  502  0.00000000000E+00 -0.00000000000E+00 -0.36919185008E+03  0.36919185008E+03  0.00000000000E+00 0. -1.
        -13    1    1    2    0    0  0.24570945890E+03 -0.71385126762E+02  0.59098405125E+03  0.64399622243E+03  0.10566000000E+00 0.  1.
         13    1    1    2    0    0 -0.34022254418E+03 -0.22746532979E+03 -0.16655833923E+03  0.44185240450E+03  0.10566000000E+00 0. -1.
         -4    1    1    2    0  502  0.94513085285E+02  0.29885045655E+03  0.59979479101E+03  0.67675557625E+03  0.00000000000E+00 0. -1.
</event>
<event>
 5    1  0.4419198E-005  0.4950955E+03  0.7818608E-02  0.9589068E-01
          4   -1    0    0  502    0 -0.00000000000E+00  0.00000000000E+00  0.44782470880E+03  0.44782470880E+03  0.00000000000E+00 0.  1.
         21   -1    0    0  501  502  0.00000000000E+00 -0.00000000000E+00 -0.11101253958E+04  0.11101253958E+04  0.00000000000E+00 0.  1.
        -13    1    1    2    0    0  0.36784434317E+02 -0.31318441144E+03  0.82851901783E+02  0.32603990395E+03  0.10566000000E+00 0.  1.
         13    1    1    2    0    0 -0.15304165032E+03 -0.30913007859E+03 -0.21765698158E+03  0.40786974025E+03  0.10566000000E+00 0. -1.
          4    1    1    2  501    0  0.11625721600E+03  0.62231449002E+03 -0.52749560723E+03  0.82404046042E+03  0.00000000000E+00 0.  1.
</event>
<event>
 5    1  0.4419198E-005  0.4990063E+03  0.7818608E-02  0.9504173E-01
         21   -1    0    0  501  502  0.00000000000E+00  0.00000000000E+00  0.56997107157E+03  0.56997107157E+03  0.00000000000E+00 0. -1.
         -4   -1    0    0    0  501 -0.00000000000E+00 -0.00000000000E+00 -0.16761433310E+04  0.16761433310E+04  0.00000000000E+00 0. -1.
        -13    1    1    2    0    0 -0.52124852266E+03  0.73136009825E+01 -0.99949300493E+03  0.11272709476E+04  0.10566000000E+00 0.  1.
         13    1    1    2    0    0  0.70245917458E+02  0.45750112180E+03 -0.25365575159E+01  0.46286953957E+03  0.10566000000E+00 0. -1.
         -4    1    1    2    0  502  0.45100260521E+03 -0.46481472278E+03 -0.10414269700E+03  0.65597391546E+03  0.00000000000E+00 0. -1.
</event>
<event>
 5    1  0.4419198E-005  0.7404473E+02  0.7818608E-02  0.1216498E+00
         21   -1    0    0  501  502  0.00000000000E+00  0.00000000000E+00  0.13172456115E+03  0.13172456115E+03  0.00000000000E+00 0.  1.
         -4   -1    0    0    0  501 -0.00000000000E+00 -0.00000000000E+00 -0.54542131074E+02  0.54542131074E+02  0.00000000000E+00 0. -1.
        -13    1    1    2    0    0  0.16753766210E+02  0.75373940421E+02  0.42379625133E+02  0.88079301583E+02  0.10566000000E+00 0.  1.
         13    1    1    2    0    0 -0.27359728403E+02 -0.66960880029E+02  0.14482182422E+02  0.73770312215E+02  0.10566000000E+00 0. -1.
         -4    1    1    2    0  502  0.10605962194E+02 -0.84130603926E+01  0.20320622521E+02  0.24417078426E+02  0.00000000000E+00 0. -1.
</event>
<event>
 5    1  0.4419198E-005  0.4385001E+03  0.7818608E-02  0.9624025E-01
         -4   -1    0    0    0  501 -0.00000000000E+00  0.00000000000E+00  0.24789484975E+03  0.24789484975E+03  0.00000000000E+00 0. -1.
         21   -1    0    0  501  502  0.00000000000E+00 -0.00000000000E+00 -0.12407844543E+04  0.12407844543E+04  0.00000000000E+00 0. -1.
        -13    1    1    2    0    0  0.86787282943E+02  0.44671895909E+03 -0.39713345176E+03  0.60399077027E+03  0.10566000000E+00 0.  1.
         13    1    1    2    0    0 -0.64379686929E+02 -0.42323124612E+03 -0.17468532392E+03  0.46236825728E+03  0.10566000000E+00 0. -1.
         -4    1    1    2    0  502 -0.22407596014E+02 -0.23487712977E+02 -0.42107082884E+03  0.42232027647E+03  0.00000000000E+00 0. -1.
</event>
<event>
 5    1  0.4419198E-005  0.7793159E+02  0.7818608E-02  0.1207331E+00
         -4   -1    0    0    0  501 -0.00000000000E+00  0.00000000000E+00  0.43755564125E+02  0.43755564125E+02  0.00000000000E+00 0. -1.
         21   -1    0    0  501  502  0.00000000000E+00 -0.00000000000E+00 -0.29621576859E+03  0.29621576859E+03  0.00000000000E+00 0. -1.
        -13    1    1    2    0    0 -0.29325529050E+02  0.51489942415E+02 -0.82395133836E+02  0.10148975351E+03  0.10566000000E+00 0.  1.
         13    1    1    2    0    0  0.11702075783E+02 -0.95674010599E+02 -0.48418227659E+02  0.10786468753E+03  0.10566000000E+00 0. -1.
         -4    1    1    2    0  502  0.17623453268E+02  0.44184068185E+02 -0.12164684297E+03  0.13061689168E+03  0.00000000000E+00 0. -1.
</event>
<event>
 5    1  0.4419198E-005  0.5391003E+03  0.7818608E-02  0.9446356E-01
         21   -1    0    0  501  502  0.00000000000E+00  0.00000000000E+00  0.94974306777E+03  0.94974306777E+03  0.00000000000E+00 0.  1.
         -4   -1    0    0    0  501 -0.00000000000E+00 -0.00000000000E+00 -0.80876624063E+03  0.80876624063E+03  0.00000000000E+00 0. -1.
        -13    1    1    2    0    0  0.59126969525E+03 -0.15118767150E+02 -0.42606237090E+01  0.59147831213E+03  0.10566000000E+00 0.  1.
         13    1    1    2    0    0  0.14630280609E+03 -0.38191612026E+02 -0.27692535901E+03  0.31551668090E+03  0.10566000000E+00 0. -1.
         -4    1    1    2    0  502 -0.73757250133E+03  0.53310379176E+02  0.42216280986E+03  0.85151431537E+03  0.00000000000E+00 0. -1.
</event>
<event>
 5    1  0.4419198E-005  0.5586501E+02  0.7818608E-02  0.1269592E+00
          4   -1    0    0  502    0 -0.00000000000E+00  0.00000000000E+00  0.20552973903E+03  0.20552973903E+03  0.00000000000E+00 0.  1.
         21   -1    0    0  501  502  0.00000000000E+00 -0.00000000000E+00 -0.72119747871E+02  0.72119747871E+02  0.00000000000E+00 0.  1.
        -13    1    1    2    0    0 -0.38047186305E+02 -0.45009222505E+02  0.14572974479E+03  0.15719601833E+03  0.10566000000E+00 0.  1.
         13    1    1    2    0    0  0.40333496610E+02  0.30178666756E+02  0.41070265364E+02  0.64994774690E+02  0.10566000000E+00 0. -1.
          4    1    1    2  501    0 -0.22863103048E+01  0.14830555749E+02 -0.53390018998E+02  0.55458693883E+02  0.00000000000E+00 0.  1.
</event>
<event>
 5    1  0.4419198E-005  0.3272530E+03  0.7818608E-02  0.1026532E+00
         21   -1    0    0  501  502  0.00000000000E+00  0.00000000000E+00  0.48886621687E+03  0.48886621687E+03  0.00000000000E+00 0.  1.
          4   -1    0    0  502    0 -0.00000000000E+00 -0.00000000000E+00 -0.10081078258E+04  0.10081078258E+04  0.00000000000E+00 0.  1.
        -13    1    1    2    0    0  0.51906802563E+02 -0.30838386744E+03 -0.39393292235E+03  0.50296926777E+03  0.10566000000E+00 0.  1.
         13    1    1    2    0    0 -0.12462034031E+03 -0.15870812398E+02 -0.48693623269E+03  0.50288071923E+03  0.10566000000E+00 0. -1.
          4    1    1    2  501    0  0.72713537748E+02  0.32425467984E+03  0.36162754609E+03  0.49112405567E+03  0.00000000000E+00 0.  1.
</event>
<event>
 5    1  0.4419198E-005  0.2318338E+03  0.7818608E-02  0.1051459E+00
         -4   -1    0    0    0  501 -0.00000000000E+00  0.00000000000E+00  0.27291273097E+03  0.27291273097E+03  0.00000000000E+00 0. -1.
         21   -1    0    0  501  502  0.00000000000E+00 -0.00000000000E+00 -0.51028165360E+03  0.51028165360E+03  0.00000000000E+00 0.  1.
        -13    1    1    2    0    0 -0.55418807312E+02  0.15620238351E+03 -0.14452767266E+03  0.21990608938E+03  0.10566000000E+00 0.  1.
         13    1    1    2    0    0 -0.16155740876E+03 -0.22849181081E+03  0.62610619469E+02  0.28675669961E+03  0.10566000000E+00 0. -1.
         -4    1    1    2    0  502  0.21697621607E+03  0.72289427308E+02 -0.15545186944E+03  0.27653159558E+03  0.00000000000E+00 0. -1.
</event>
<event>
 5    1  0.4419198E-005  0.6822249E+02  0.7818608E-02  0.1231470E+00
          4   -1    0    0  502    0 -0.00000000000E+00  0.00000000000E+00  0.53518691630E+02  0.53518691630E+02  0.00000000000E+00 0.  1.
         21   -1    0    0  501  502  0.00000000000E+00 -0.00000000000E+00 -0.10898320316E+03  0.10898320316E+03  0.00000000000E+00 0. -1.
        -13    1    1    2    0    0 -0.63604024136E+02  0.35258535848E+02 -0.59862017283E+01  0.72969048312E+02  0.10566000000E+00 0.  1.
         13    1    1    2    0    0  0.53171651598E+02 -0.32285693299E+02 -0.34792044051E+02  0.71274736188E+02  0.10566000000E+00 0. -1.
          4    1    1    2  501    0  0.10432372539E+02 -0.29728425489E+01 -0.14686265750E+02  0.18258110288E+02  0.00000000000E+00 0.  1.
</event>
<event>
 5    1  0.4419198E-005  0.1473875E+03  0.7818608E-02  0.1103717E+00
         21   -1    0    0  501  502  0.00000000000E+00  0.00000000000E+00  0.83141840907E+02  0.83141840907E+02  0.00000000000E+00 0.  1.
         -4   -1    0    0    0  501 -0.00000000000E+00 -0.00000000000E+00 -0.45454773197E+03  0.45454773197E+03  0.00000000000E+00 0. -1.
        -13    1    1    2    0    0 -0.12878422634E+03  0.65485542630E+02 -0.21240122565E+03  0.25688134434E+03  0.10566000000E+00 0.  1.
         13    1    1    2    0    0  0.10000676533E+03 -0.12783280663E+03 -0.11987564498E+03  0.20177403447E+03  0.10566000000E+00 0. -1.
         -4    1    1    2    0  502  0.28777461017E+02  0.62347264004E+02 -0.39129020429E+02  0.79034194063E+02  0.00000000000E+00 0. -1.
</event>
<event>
 5    1  0.4419198E-005  0.3801755E+03  0.7818608E-02  0.9788112E-01
         21   -1    0    0  501  502  0.00000000000E+00  0.00000000000E+00  0.93611014208E+02  0.93611014208E+02  0.00000000000E+00 0.  1.
          4   -1    0    0  502    0 -0.00000000000E+00 -0.00000000000E+00 -0.28696673317E+04  0.28696673317E+04  0.00000000000E+00 0.  1.
        -13    1    1    2    0    0  0.40087894705E+03 -0.28042604697E+03 -0.10841245251E+04  0.11893984593E+04  0.10566000000E+00 0.  1.
         13    1    1    2    0    0 -0.20371117529E+03  0.26571915357E+03 -0.10964726134E+04  0.11464541485E+04  0.10566000000E+00 0. -1.
          4    1    1    2  501    0 -0.19716777176E+03  0.14706893402E+02 -0.59545917904E+03  0.62742573810E+03  0.00000000000E+00 0.  1.
</event>
<event>
 5    1  0.4419198E-005  0.1085687E+03  0.7818608E-02  0.1151107E+00
         21   -1    0    0  501  502  0.00000000000E+00  0.00000000000E+00  0.31266982422E+03  0.31266982422E+03  0.00000000000E+00 0.  1.
          4   -1    0    0  502    0 -0.00000000000E+00 -0.00000000000E+00 -0.36894020523E+03  0.36894020523E+03  0.00000000000E+00 0.  1.
        -13    1    1    2    0    0 -0.10770427021E+03  0.12076430391E+02 -0.33154771698E+03  0.34881219846E+03  0.10566000000E+00 0.  1.
         13    1    1    2    0    0  0.11176162597E+03  0.14102700807E+01  0.81059267445E+02  0.13806978636E+03  0.10566000000E+00 0. -1.
          4    1    1    2  501    0 -0.40573557604E+01 -0.13486700471E+02  0.19421806853E+03  0.19472804464E+03  0.00000000000E+00 0.  1.
</event>
<event>
 5    1  0.4419198E-005  0.3482745E+03  0.7818608E-02  0.9891628E-01
         -4   -1    0    0    0  501 -0.00000000000E+00  0.00000000000E+00  0.12726403075E+04  0.12726403075E+04  0.00000000000E+00 0. -1.
         21   -1    0    0  501  502  0.00000000000E+00 -0.00000000000E+00 -0.14339925350E+03  0.14339925350E+03  0.00000000000E+00 0. -1.
        -13    1    1    2    0    0 -0.30458771297E+03 -0.70492742562E+02  0.15333539478E+03  0.34821639264E+03  0.10566000000E+00 0.  1.
         13    1    1    2    0    0  0.35523085718E+03  0.62399476098E+02  0.93522725652E+03  0.10023635513E+04  0.10566000000E+00 0. -1.
         -4    1    1    2    0  502 -0.50643144208E+02  0.80932664639E+01  0.40678402708E+02  0.65459617049E+02  0.00000000000E+00 0. -1.
</event>
<event>
 5    1  0.4419198E-005  0.3280807E+02  0.7818608E-02  0.1383684E+00
         21   -1    0    0  501  502  0.00000000000E+00  0.00000000000E+00  0.16083344434E+02  0.16083344434E+02  0.00000000000E+00 0.  1.
          4   -1    0    0  502    0 -0.00000000000E+00 -0.00000000000E+00 -0.14716047847E+03  0.14716047847E+03  0.00000000000E+00 0.  1.
        -13    1    1    2    0    0  0.94657971629E+01  0.35079320340E+02 -0.11622035240E+03  0.12176757166E+03  0.10566000000E+00 0.  1.
         13    1    1    2    0    0 -0.10516457348E+02 -0.21933427640E+02 -0.14427707969E+02  0.28281461145E+02  0.10566000000E+00 0. -1.
          4    1    1    2  501    0  0.10506601855E+01 -0.13145892700E+02 -0.42907367103E+00  0.13194790105E+02  0.00000000000E+00 0.  1.
</event>
<event>
 5    1  0.4419198E-005  0.4011861E+03  0.7818608E-02  0.1007553E+00
         21   -1    0    0  501  502  0.00000000000E+00  0.00000000000E+00  0.22917692993E+03  0.22917692993E+03  0.00000000000E+00 0. -1.
         -4   -1    0    0    0  501 -0.00000000000E+00 -0.00000000000E+00 -0.14162657456E+04  0.14162657456E+04  0.00000000000E+00 0. -1.
        -13    1    1    2    0    0 -0.34394255118E+02  0.11959712504E+03 -0.74650472734E+02  0.14511768103E+03  0.10566000000E+00 0.  1.
         13    1    1    2    0    0 -0.25287068296E+03 -0.32985798076E+03 -0.10052110336E+03  0.42761474852E+03  0.10566000000E+00 0. -1.
         -4    1    1    2    0  502  0.28726493808E+03  0.21026085572E+03 -0.10119172396E+04  0.10727102460E+04  0.00000000000E+00 0. -1.
</event>
<event>
 5    1  0.4419198E-005  0.3835022E+03  0.7818608E-02  0.9905028E-01
         21   -1    0    0  501  502  0.00000000000E+00  0.00000000000E+00  0.28896491829E+03  0.28896491829E+03  0.00000000000E+00 0. -1.
         -4   -1    0    0    0  501 -0.00000000000E+00 -0.00000000000E+00 -0.21370251896E+04  0.21370251896E+04  0.00000000000E+00 0. -1.
        -13    1    1    2    0    0  0.20575918508E+03 -0.14094870595E+03 -0.11783587910E+04  0.12044637112E+04  0.10566000000E+00 0.  1.
         13    1    1    2    0    0 -0.51521965555E+03  0.27788859649E+03 -0.66108654146E+03  0.88301120717E+03  0.10566000000E+00 0. -1.
         -4    1    1    2    0  502  0.30946047047E+03 -0.13693989054E+03 -0.86149388410E+01  0.33851518958E+03  0.00000000000E+00 0. -1.
</event>
<event>
 5    1  0.4419198E-005  0.3153498E+02  0.7818608E-02  0.1392991E+00
         21   -1    0    0  501  502  0.00000000000E+00  0.00000000000E+00  0.17663692289E+02  0.17663692289E+02  0.00000000000E+00 0.  1.
          4   -1    0    0  502    0 -0.00000000000E+00 -0.00000000000E+00 -0.16807060751E+03  0.16807060751E+03  0.00000000000E+00 0.  1.
        -13    1    1    2    0    0  0.33351138912E+02  0.94298326670E+01 -0.71264725734E+02  0.79245772814E+02  0.10566000000E+00 0.  1.
         13    1    1    2    0    0 -0.29785661626E+02  0.13126598612E+02 -0.76944955505E+02  0.83546577257E+02  0.10566000000E+00 0. -1.
          4    1    1    2  501    0 -0.35654772852E+01 -0.22556431279E+02 -0.21972339855E+01  0.22941949732E+02  0.00000000000E+00 0.  1.
</event>
<event>
 5    1  0.4419198E-005  0.4951390E+03  0.7818608E-02  0.9588555E-01
         21   -1    0    0  501  502  0.00000000000E+00  0.00000000000E+00  0.42437171840E+03  0.42437171840E+03  0.00000000000E+00 0. -1.
         -4   -1    0    0    0  501 -0.00000000000E+00 -0.00000000000E+00 -0.18100550865E+04  0.18100550865E+04  0.00000000000E+00 0. -1.
        -13    1    1    2    0    0 -0.30603551406E+03  0.16031031621E+03 -0.10810650118E+04  0.11349267396E+04  0.10566000000E+00 0.  1.
         13    1    1    2    0    0  0.63787611191E+03 -0.25932601787E+03 -0.96045159174E+02  0.69524139797E+03  0.10566000000E+00 0. -1.
         -4    1    1    2    0  502 -0.33184059785E+03  0.99015701664E+02 -0.20857319711E+03  0.40425866733E+03  0.00000000000E+00 0. -1.
</event>
<event>
 5    1  0.4419198E-005  0.1395057E+03  0.7818608E-02  0.1111949E+00
          4   -1    0    0  502    0 -0.00000000000E+00  0.00000000000E+00  0.10153464106E+04  0.10153464106E+04  0.00000000000E+00 0.  1.
         21   -1    0    0  501  502  0.00000000000E+00 -0.00000000000E+00 -0.37965355815E+03  0.37965355815E+03  0.00000000000E+00 0.  1.
        -13    1    1    2    0    0  0.27276801557E+02 -0.13115673414E+03  0.72624087010E+03  0.73849300970E+03  0.10566000000E+00 0.  1.
         13    1    1    2    0    0 -0.10573244530E+03  0.14319957480E+03  0.24996336542E+03  0.30686668674E+03  0.10566000000E+00 0. -1.
          4    1    1    2  501    0  0.78455643745E+02 -0.12042840658E+02 -0.34051138305E+03  0.34964027233E+03  0.00000000000E+00 0.  1.
</event>
<event>
 5    1  0.4419198E-005  0.4663456E+03  0.7818608E-02  0.9629209E-01
         21   -1    0    0  501  502  0.00000000000E+00  0.00000000000E+00  0.75863874337E+03  0.75863874337E+03  0.00000000000E+00 0.  1.
          4   -1    0    0  502    0 -0.00000000000E+00 -0.00000000000E+00 -0.66527973288E+03  0.66527973288E+03  0.00000000000E+00 0.  1.
        -13    1    1    2    0    0  0.36079379415E+03 -0.16862152946E+03  0.67412581480E+02  0.40391812215E+03  0.10566000000E+00 0.  1.
         13    1    1    2    0    0  0.29124239236E+03  0.20805725424E+03  0.72212079304E+02  0.36513634126E+03  0.10566000000E+00 0. -1.
          4    1    1    2  501    0 -0.65203618651E+03 -0.39435724774E+02 -0.46265650285E+02  0.65486401284E+03  0.00000000000E+00 0.  1.
</event>
<event>
 5    1  0.4419198E-005  0.3884272E+03  0.7818608E-02  0.9763076E-01
          4   -1    0    0  502    0 -0.00000000000E+00  0.00000000000E+00  0.13036209653E+04  0.13036209653E+04  0.00000000000E+00 0.  1.
         21   -1    0    0  501  502  0.00000000000E+00 -0.00000000000E+00 -0.65142095784E+03  0.65142095784E+03  0.00000000000E+00 0. -1.
        -13    1    1    2    0    0 -0.32226749989E+03 -0.15107238958E+03  0.74923337285E+03  0.82947565759E+03  0.10566000000E+00 0.  1.
         13    1    1    2    0    0  0.64425109388E+03 -0.26296353302E+02  0.17516269539E+03  0.66815638228E+03  0.10566000000E+00 0. -1.
          4    1    1    2  501    0 -0.32198359399E+03  0.17736874288E+03 -0.27219606082E+03  0.45740988323E+03  0.00000000000E+00 0.  1.
</event>
<event>
 5    1  0.4419198E-005  0.3687264E+03  0.7818608E-02  0.9960777E-01
         21   -1    0    0  501  502  0.00000000000E+00  0.00000000000E+00  0.21458572447E+04  0.21458572447E+04  0.00000000000E+00 0.  1.
          4   -1    0    0  502    0 -0.00000000000E+00 -0.00000000000E+00 -0.18234367555E+03  0.18234367555E+03  0.00000000000E+00 0.  1.
        -13    1    1    2    0    0 -0.39320684496E+03 -0.20551114150E+03  0.28172299894E+03  0.52556094936E+03  0.10566000000E+00 0.  1.
         13    1    1    2    0    0  0.20678844195E+03 -0.10770217768E+03  0.34028146362E+03  0.41249570234E+03  0.10566000000E+00 0. -1.
          4    1    1    2  501    0  0.18641840301E+03  0.31321331918E+03  0.13415091066E+04  0.13901442685E+04  0.00000000000E+00 0.  1.
</event>
<event>
 5    1  0.4419198E-005  0.7360386E+02  0.7818608E-02  0.1217577E+00
          4   -1    0    0  502    0 -0.00000000000E+00  0.00000000000E+00  0.16143333073E+02  0.16143333073E+02  0.00000000000E+00 0.  1.
         21   -1    0    0  501  502  0.00000000000E+00 -0.00000000000E+00 -0.60266734650E+03  0.60266734650E+03  0.00000000000E+00 0. -1.
        -13    1    1    2    0    0 -0.74671806458E+02  0.65374652030E+01 -0.10211039368E+03  0.12666949433E+03  0.10566000000E+00 0.  1.
         13    1    1    2    0    0  0.67011517879E+02 -0.21224637154E+02 -0.38868995617E+03  0.39499483787E+03  0.10566000000E+00 0. -1.
          4    1    1    2  501    0  0.76602885790E+01  0.14687171951E+02 -0.95723663577E+02  0.97146347381E+02  0.00000000000E+00 0.  1.
</event>
<event>
 5    1  0.4419198E-005  0.4658050E+03  0.7818608E-02  0.9583634E-01
         21   -1    0    0  501  502  0.00000000000E+00  0.00000000000E+00  0.30342155026E+03  0.30342155026E+03  0.00000000000E+00 0.  1.
         -4   -1    0    0    0  501 -0.00000000000E+00 -0.00000000000E+00 -0.38718535811E+04  0.38718535811E+04  0.00000000000E+00 0. -1.
        -13    1    1    2    0    0 -0.69810626268E+03  0.29264845503E+03 -0.21453288985E+04  0.22749574867E+04  0.10566000000E+00 0.  1.
         13    1    1    2    0    0  0.35169126734E+03  0.52787250962E+02 -0.13615729577E+04  0.14072505717E+04  0.10566000000E+00 0. -1.
         -4    1    1    2    0  502  0.34641499534E+03 -0.34543570599E+03 -0.61530174572E+02  0.49306707288E+03  0.00000000000E+00 0. -1.
</event>
<event>
 5    1  0.4419198E-005  0.2052366E+03  0.7818608E-02  0.1056604E+00
         -4   -1    0    0    0  501 -0.00000000000E+00  0.00000000000E+00  0.18539199076E+04  0.18539199076E+04  0.00000000000E+00 0. -1.
         21   -1    0    0  501  502  0.00000000000E+00 -0.00000000000E+00 -0.66784158571E+02  0.66784158571E+02  0.00000000000E+00 0. -1.
        -13    1    1    2    0    0  0.12145854726E+03  0.18159837167E+03  0.80753067107E+03  0.83656197809E+03  0.10566000000E+00 0.  1.
         13    1    1    2    0    0 -0.10438371755E+03 -0.16671983484E+03  0.10194809085E+04  0.10382835825E+04  0.10566000000E+00 0. -1.
         -4    1    1    2    0  502 -0.17074829706E+02 -0.14878536828E+02 -0.39875830551E+02  0.45858505534E+02  0.00000000000E+00 0. -1.
</event>
<event>
 5    1  0.4419198E-005  0.5187292E+03  0.7818608E-02  0.9437840E-01
         21   -1    0    0  501  502  0.00000000000E+00  0.00000000000E+00  0.87705361283E+03  0.87705361283E+03  0.00000000000E+00 0.  1.
         -4   -1    0    0    0  501 -0.00000000000E+00 -0.00000000000E+00 -0.10518087700E+04  0.10518087700E+04  0.00000000000E+00 0. -1.
        -13    1    1    2    0    0 -0.39554252753E+03  0.36052409224E+03 -0.52798604244E+03  0.75179836682E+03  0.10566000000E+00 0.  1.
         13    1    1    2    0    0  0.59527089630E+03  0.14204517951E+02 -0.42053810006E+02  0.59692356497E+03  0.10566000000E+00 0. -1.
         -4    1    1    2    0  502 -0.19972836877E+03 -0.37472861019E+03  0.39528469529E+03  0.58014045103E+03  0.00000000000E+00 0. -1.
</event>
<event>
 5    1  0.4419198E-005  0.4801518E+03  0.7818608E-02  0.9761052E-01
         -4   -1    0    0    0  501 -0.00000000000E+00  0.00000000000E+00  0.27519118153E+04  0.27519118153E+04  0.00000000000E+00 0. -1.
         21   -1    0    0  501  502  0.00000000000E+00 -0.00000000000E+00 -0.14586078020E+03  0.14586078020E+03  0.00000000000E+00 0. -1.
        -13    1    1    2    0    0 -0.19105663773E+02 -0.20619088644E+03  0.82347052645E+03  0.84910742968E+03  0.10566000000E+00 0.  1.
         13    1    1    2    0    0 -0.29839964740E+03 -0.23907158704E+03  0.11529448285E+04  0.12146931143E+04  0.10566000000E+00 0. -1.
         -4    1    1    2    0  502  0.31750531118E+03  0.44526247348E+03  0.62963568013E+03  0.83397205145E+03  0.00000000000E+00 0. -1.
</event>
<event>
 5    1  0.4419198E-005  0.1055776E+03  0.7818608E-02  0.1155643E+00
         21   -1    0    0  501  502  0.00000000000E+00  0.00000000000E+00  0.36451535627E+03  0.36451535627E+03  0.00000000000E+00 0.  1.
          4   -1    0    0  502    0 -0.00000000000E+00 -0.00000000000E+00 -0.65250416471E+02  0.65250416471E+02  0.00000000000E+00 0.  1.
        -13    1    1    2    0    0 -0.17827405803E+02  0.10707852951E+03  0.26485338176E+03  0.28623583436E+03  0.10566000000E+00 0.  1.
         13    1    1    2    0    0  0.30242976939E+02 -0.10071164520E+03 -0.13283519611E+01  0.10516296314E+03  0.10566000000E+00 0. -1.
          4    1    1    2  501    0 -0.12415571136E+02 -0.63668843084E+01  0.35739909998E+02  0.38366975240E+02  0.00000000000E+00 0.  1.
</event>
<event>
 5    1  0.4419198E-005  0.3504431E+03  0.7818608E-02  0.1005128E+00
         21   -1    0    0  501  502  0.00000000000E+00  0.00000000000E+00  0.13735574420E+04  0.13735574420E+04  0.00000000000E+00 0. -1.
         -4   -1    0    0    0  501 -0.00000000000E+00 -0.00000000000E+00 -0.23029232132E+03  0.23029232132E+03  0.00000000000E+00 0. -1.
        -13    1    1    2    0    0  0.75968010205E+02 -0.18711712076E+03  0.90601463238E+02  0.22134270207E+03  0.10566000000E+00 0.  1.
         13    1    1    2    0    0  0.28915637598E+03  0.12804108422E+03  0.58280922752E+02  0.32156275614E+03  0.10566000000E+00 0. -1.
         -4    1    1    2    0  502 -0.36512438618E+03  0.59076036542E+02  0.99438273472E+03  0.10609443051E+04  0.00000000000E+00 0. -1.
</event>
<event>
 5    1  0.4419198E-005  0.3656891E+03  0.7818608E-02  0.1058394E+00
         -4   -1    0    0    0  501 -0.00000000000E+00  0.00000000000E+00  0.57186947989E+03  0.57186947989E+03  0.00000000000E+00 0. -1.
         21   -1    0    0  501  502  0.00000000000E+00 -0.00000000000E+00 -0.28456663884E+03  0.28456663884E+03  0.00000000000E+00 0. -1.
        -13    1    1    2    0    0  0.73676452900E+00  0.34418246887E+02  0.89012878709E+02  0.95438264238E+02  0.10566000000E+00 0.  1.
         13    1    1    2    0    0 -0.13803521839E+03  0.32299122752E+03  0.79708265093E+02  0.36018116728E+03  0.10566000000E+00 0. -1.
         -4    1    1    2    0  502  0.13729845386E+03 -0.35740947441E+03  0.11858169725E+03  0.40081668722E+03  0.00000000000E+00 0. -1.
</event>
<event>
 5    1  0.4419198E-005  0.4998113E+03  0.7818608E-02  0.9642445E-01
         21   -1    0    0  501  502  0.00000000000E+00  0.00000000000E+00  0.40755424224E+03  0.40755424224E+03  0.00000000000E+00 0.  1.
          4   -1    0    0  502    0 -0.00000000000E+00 -0.00000000000E+00 -0.10690190397E+04  0.10690190397E+04  0.00000000000E+00 0.  1.
        -13    1    1    2    0    0 -0.34131951505E+03  0.15995098003E+03 -0.38348452678E+03  0.53772085770E+03  0.10566000000E+00 0.  1.
         13    1    1    2    0    0 -0.27019615247E+03 -0.63083574733E+02 -0.94053796371E+02  0.29297035001E+03  0.10566000000E+00 0. -1.
          4    1    1    2  501    0  0.61151566752E+03 -0.96867405295E+02 -0.18392647427E+03  0.64588207419E+03  0.00000000000E+00 0.  1.
</event>
<event>
 5    1  0.4419198E-005  0.4405114E+03  0.7818608E-02  0.9821771E-01
         21   -1    0    0  501  502  0.00000000000E+00  0.00000000000E+00  0.35987265198E+03  0.35987265198E+03  0.00000000000E+00 0.  1.
          4   -1    0    0  502    0 -0.00000000000E+00 -0.00000000000E+00 -0.20755206431E+04  0.20755206431E+04  0.00000000000E+00 0.  1.
        -13    1    1    2    0    0  0.10958197286E+03 -0.44050083705E+03 -0.45916112158E+03  0.64566101242E+03  0.10566000000E+00 0.  1.
         13    1    1    2    0    0 -0.21783901003E+03  0.40260102624E+01 -0.13179625183E+04  0.13358500117E+04  0.10566000000E+00 0. -1.
          4    1    1    2  501    0  0.10825703717E+03  0.43647482679E+03  0.61475648718E+02  0.45388227097E+03  0.00000000000E+00 0.  1.
</event>
<event>
 5    1  0.4419198E-005  0.3865029E+03  0.7818608E-02  0.9768855E-01
          4   -1    0    0  502    0 -0.00000000000E+00  0.00000000000E+00  0.16632159136E+04  0.16632159136E+04  0.00000000000E+00 0.  1.
         21   -1    0    0  501  502  0.00000000000E+00 -0.00000000000E+00 -0.25494871216E+03  0.25494871216E+03  0.00000000000E+00 0.  1.
        -13    1    1    2    0    0  0.24960319430E+02 -0.51898864529E+03  0.10954873507E+04  0.12124622791E+04  0.10566000000E+00 0.  1.
         13    1    1    2    0    0  0.11357815114E+02  0.27890587880E+03  0.36283287231E+03  0.45778291098E+03  0.10566000000E+00 0. -1.
          4    1    1    2  501    0 -0.36318134544E+02  0.24008276649E+03 -0.50053021505E+02  0.24791943576E+03  0.00000000000E+00 0.  1.
</event>
<event>
 5    1  0.4419198E-005  0.6103593E+03  0.7818608E-02  0.9264266E-01
          4   -1    0    0  502    0 -0.00000000000E+00  0.00000000000E+00  0.15497567185E+04  0.15497567185E+04  0.00000000000E+00 0.  1.
         21   -1    0    0  501  502  0.00000000000E+00 -0.00000000000E+00 -0.43854763169E+03  0.43854763169E+03  0.00000000000E+00 0.  1.
        -13    1    1    2    0    0 -0.39701971016E+02 -0.75156596303E+03  0.62029060115E+03  0.97528871845E+03  0.10566000000E+00 0.  1.
         13    1    1    2    0    0  0.36785144465E+02  0.43728364717E+03  0.10539389084E+02  0.43895469564E+03  0.10566000000E+00 0. -1.
          4    1    1    2  501    0  0.29168265512E+01  0.31428231586E+03  0.48037909654E+03  0.57406093608E+03  0.00000000000E+00 0.  1.
</event>
<event>
 5    1  0.4419198E-005  0.4035496E+03  0.7818608E-02  0.9796083E-01
         21   -1    0    0  501  502  0.00000000000E+00  0.00000000000E+00  0.24579512164E+03  0.24579512164E+03  0.00000000000E+00 0.  1.
          4   -1    0    0  502    0 -0.00000000000E+00 -0.00000000000E+00 -0.22070083066E+04  0.22070083066E+04  0.00000000000E+00 0.  1.
        -13    1    1    2    0    0 -0.18348276950E+02  0.25221880545E+03 -0.92055522345E+03  0.95465853354E+03  0.10566000000E+00 0.  1.
         13    1    1    2    0    0  0.28447495582E+03  0.12146185852E+03 -0.98928773047E+03  0.10365178283E+04  0.10566000000E+00 0. -1.
          4    1    1    2  501    0 -0.26612667887E+03 -0.37368066397E+03 -0.51370231081E+02  0.46162706644E+03  0.00000000000E+00 0.  1.
</event>
<event>
 5    1  0.4419198E-005  0.5244276E+03  0.7818608E-02  0.9757697E-01
         -4   -1    0    0    0  501 -0.00000000000E+00  0.00000000000E+00  0.13387369435E+04  0.13387369435E+04  0.00000000000E+00 0. -1.
         21   -1    0    0  501  502  0.00000000000E+00 -0.00000000000E+00 -0.40416887454E+03  0.40416887454E+03  0.00000000000E+00 0. -1.
        -13    1    1    2    0    0 -0.11342538180E+03 -0.11394529427E+03  0.41269591168E+03  0.44290718441E+03  0.10566000000E+00 0.  1.
         13    1    1    2    0    0  0.52283249483E+03  0.36816298031E+03  0.51002646939E+03  0.81793936717E+03  0.10566000000E+00 0. -1.
         -4    1    1    2    0  502 -0.40940711303E+03 -0.25421768604E+03  0.11845687935E+02  0.48205926650E+03  0.00000000000E+00 0. -1.
</event>
<event>
 5    1  0.4419198E-005  0.4798092E+03  0.7818608E-02  0.9853343E-01
         -4   -1    0    0    0  501 -0.00000000000E+00  0.00000000000E+00  0.22517518078E+04  0.22517518078E+04  0.00000000000E+00 0. -1.
         21   -1    0    0  501  502  0.00000000000E+00 -0.00000000000E+00 -0.15205967548E+03  0.15205967548E+03  0.00000000000E+00 0. -1.
        -13    1    1    2    0    0  0.11422801832E+03  0.99522803076E+02  0.50293451452E+03  0.52525799905E+03  0.10566000000E+00 0.  1.
         13    1    1    2    0    0 -0.54706066465E+03 -0.30509168671E+02  0.96381165120E+03  0.11086654547E+04  0.10566000000E+00 0. -1.
         -4    1    1    2    0  502  0.43283264633E+03 -0.69013634405E+02  0.63294596655E+03  0.76988802955E+03  0.00000000000E+00 0. -1.
</event>
<event>
 5    1  0.4419198E-005  0.3113093E+03  0.7818608E-02  0.1010846E+00
         21   -1    0    0  501  502  0.00000000000E+00  0.00000000000E+00  0.15248889882E+03  0.15248889882E+03  0.00000000000E+00 0. -1.
         -4   -1    0    0    0  501 -0.00000000000E+00 -0.00000000000E+00 -0.25725384948E+04  0.25725384948E+04  0.00000000000E+00 0. -1.
        -13    1    1    2    0    0 -0.23912458030E+03 -0.14404963517E+02 -0.48322596140E+03  0.53934720617E+03  0.10566000000E+00 0.  1.
         13    1    1    2    0    0  0.22322663423E+03  0.32389266966E+03 -0.18076245919E+04  0.18499306117E+04  0.10566000000E+00 0. -1.
         -4    1    1    2    0  502  0.15897946068E+02 -0.30948770615E+03 -0.12919904259E+03  0.33574957565E+03  0.00000000000E+00 0. -1.
</event>
<event>
 5    1  0.4419198E-005  0.2977109E+03  0.7818608E-02  0.1017048E+00
         -4   -1    0    0    0  501 -0.00000000000E+00  0.00000000000E+00  0.21880923115E+04  0.21880923115E+04  0.00000000000E+00 0. -1.
         21   -1    0    0  501  502  0.00000000000E+00 -0.00000000000E+00 -0.22301705794E+03  0.22301705794E+03  0.00000000000E+00 0. -1.
        -13    1    1    2    0    0  0.17618073389E+03  0.13955349039E+03  0.88430296657E+03  0.91241798290E+03  0.10566000000E+00 0.  1.
         13    1    1    2    0    0  0.86140074777E+02  0.26604108253E+03 -0.35987405094E+02  0.28194516234E+03  0.10566000000E+00 0. -1.
         -4    1    1    2    0  502 -0.26232080867E+03 -0.40559457292E+03  0.11167596921E+04  0.12167462242E+04  0.00000000000E+00 0. -1.
</event>
<event>
 5    1  0.4419198E-005  0.3158812E+03  0.7818608E-02  0.1000957E+00
         21   -1    0    0  501  502  0.00000000000E+00  0.00000000000E+00  0.17339539816E+03  0.17339539816E+03  0.00000000000E+00 0. -1.
          4   -1    0    0  502    0 -0.00000000000E+00 -0.00000000000E+00 -0.29274474145E+04  0.29274474145E+04  0.00000000000E+00 0.  1.
        -13    1    1    2    0    0  0.17248815495E+03 -0.19023287010E+03 -0.25123522136E+02  0.25801533093E+03  0.10566000000E+00 0.  1.
         13    1    1    2    0    0 -0.73206375685E+02  0.34731800131E+03 -0.54115958214E+03  0.64718055594E+03  0.10566000000E+00 0. -1.
          4    1    1    2  501    0 -0.99281779261E+02 -0.15708513121E+03 -0.21877689121E+04  0.21956469258E+04  0.00000000000E+00 0.  1.
</event>
<event>
 5    1  0.4419198E-005  0.4780444E+03  0.7818608E-02  0.9620445E-01
         21   -1    0    0  501  502  0.00000000000E+00  0.00000000000E+00  0.23564593192E+03  0.23564593192E+03  0.00000000000E+00 0. -1.
         -4   -1    0    0    0  501 -0.00000000000E+00 -0.00000000000E+00 -0.24739447028E+04  0.24739447028E+04  0.00000000000E+00 0. -1.
        -13    1    1    2    0    0 -0.77673333370E+02  0.33383386749E+03 -0.11626872079E+04  0.12121550034E+04  0.10566000000E+00 0.  1.
         13    1    1    2    0    0  0.49014021456E+03 -0.38801147319E+03 -0.67199941043E+03  0.91780910436E+03  0.10566000000E+00 0. -1.
         -4    1    1    2    0  502 -0.41246688119E+03  0.54177605700E+02 -0.40361215258E+03  0.57962652695E+03  0.00000000000E+00 0. -1.
</event>
<event>
 5    1  0.4419198E-005  0.4577176E+03  0.7818608E-02  0.9917812E-01
         21   -1    0    0  501  502  0.00000000000E+00  0.00000000000E+00  0.40191795920E+03  0.40191795920E+03  0.00000000000E+00 0. -1.
         -4   -1    0    0    0  501 -0.00000000000E+00 -0.00000000000E+00 -0.83326073208E+03  0.83326073208E+03  0.00000000000E+00 0. -1.
        -13    1    1    2    0    0  0.12569297383E+03 -0.62934890516E+02 -0.99046065394E+02  0.17195830410E+03  0.10566000000E+00 0.  1.
         13    1    1    2    0    0  0.32376233477E+03  0.29980804441E+03  0.25229113614E+02  0.44197673270E+03  0.10566000000E+00 0. -1.
         -4    1    1    2    0  502 -0.44945530860E+03 -0.23687315390E+03 -0.35752582110E+03  0.62124365447E+03  0.00000000000E+00 0. -1.
</event>
<event>
 5    1  0.4419198E-005  0.9431513E+02  0.7818608E-02  0.1174320E+00
         -4   -1    0    0    0  501 -0.00000000000E+00  0.00000000000E+00  0.17916751745E+03  0.17916751745E+03  0.00000000000E+00 0. -1.
         21   -1    0    0  501  502  0.00000000000E+00 -0.00000000000E+00 -0.81677450691E+03  0.81677450691E+03  0.00000000000E+00 0. -1.
        -13    1    1    2    0    0  0.10213383638E+03 -0.27990988538E+02 -0.31599456848E+03  0.33326775188E+03  0.10566000000E+00 0.  1.
         13    1    1    2    0    0 -0.75251358969E+02  0.56557738705E+02  0.15667539924E+03  0.18278056988E+03  0.10566000000E+00 0. -1.
         -4    1    1    2    0  502 -0.26882477407E+02 -0.28566750167E+02 -0.47828782023E+03  0.47989370260E+03  0.00000000000E+00 0. -1.
</event>
<event>
 5    1  0.4419198E-005  0.1303483E+03  0.7818608E-02  0.1122289E+00
         21   -1    0    0  501  502  0.00000000000E+00  0.00000000000E+00  0.36782786783E+03  0.36782786783E+03  0.00000000000E+00 0. -1.
         -4   -1    0    0    0  501 -0.00000000000E+00 -0.00000000000E+00 -0.87933059175E+03  0.87933059175E+03  0.00000000000E+00 0. -1.
        -13    1    1    2    0    0 -0.97086687160E+02 -0.46913428603E+02 -0.12112423542E+03  0.16216592175E+03  0.10566000000E+00 0.  1.
         13    1    1    2    0    0  0.13736219899E+03  0.20012588060E+02 -0.72941908143E+03  0.74250998977E+03  0.10566000000E+00 0. -1.
         -4    1    1    2    0  502 -0.40275511826E+02  0.26900840543E+02  0.33904059293E+03  0.34248254807E+03  0.00000000000E+00 0. -1.
</event>
<event>
 5    1  0.4419198E-005  0.2171291E+03  0.7818608E-02  0.1048988E+00
         21   -1    0    0  501  502  0.00000000000E+00  0.00000000000E+00  0.14945073081E+03  0.14945073081E+03  0.00000000000E+00 0. -1.
          4   -1    0    0  502    0 -0.00000000000E+00 -0.00000000000E+00 -0.41238712447E+03  0.41238712447E+03  0.00000000000E+00 0.  1.
        -13    1    1    2    0    0 -0.13605853728E+03 -0.17703297629E+03 -0.13503151874E+03  0.26093317627E+03  0.10566000000E+00 0.  1.
         13    1    1    2    0    0  0.12784001437E+03  0.16910757851E+03 -0.16080468764E+03  0.26608006523E+03  0.10566000000E+00 0. -1.
          4    1    1    2  501    0  0.82185229136E+01  0.79253977781E+01  0.32899812712E+02  0.34824613786E+02  0.00000000000E+00 0.  1.
</event>
<event>
 5    1  0.4419198E-005  0.5768411E+03  0.7818608E-02  0.9323798E-01
         21   -1    0    0  501  502  0.00000000000E+00  0.00000000000E+00  0.49593010041E+03  0.49593010041E+03  0.00000000000E+00 0.  1.
          4   -1    0    0  502    0 -0.00000000000E+00 -0.00000000000E+00 -0.18267901579E+04  0.18267901579E+04  0.00000000000E+00 0.  1.
        -13    1    1    2    0    0 -0.64775668568E+03 -0.40623503547E+03 -0.30732282631E+03  0.82405276447E+03  0.10566000000E+00 0.  1.
         13    1    1    2    0    0  0.53677537658E+03  0.68055781728E+02 -0.10060421622E+04  0.11423135461E+04  0.10566000000E+00 0. -1.
          4    1    1    2  501    0  0.11098130910E+03  0.33817925375E+03 -0.17495068993E+02  0.35635394774E+03  0.00000000000E+00 0.  1.
</event>
<event>
 5    1  0.4419198E-005  0.3996656E+03  0.7818608E-02  0.9816824E-01
         21   -1    0    0  501  502  0.00000000000E+00  0.00000000000E+00  0.14382461816E+04  0.14382461816E+04  0.00000000000E+00 0.  1.
          4   -1    0    0  502    0 -0.00000000000E+00 -0.00000000000E+00 -0.37647190408E+03  0.37647190408E+03  0.00000000000E+00 0.  1.
        -13    1    1    2    0    0 -0.18696508623E+02 -0.58660029011E+03  0.33201748844E+03  0.67430340618E+03  0.10566000000E+00 0.  1.
         13    1    1    2    0    0 -0.14216337487E+03  0.26040748906E+03 -0.29893188680E+02  0.29818802693E+03  0.10566000000E+00 0. -1.
          4    1    1    2  501    0  0.16085988349E+03  0.32619280106E+03  0.75964997775E+03  0.84222665255E+03  0.00000000000E+00 0.  1.
</event>
<event>
 5    1  0.4419198E-005  0.5215351E+03  0.7818608E-02  0.9431981E-01
         21   -1    0    0  501  502  0.00000000000E+00  0.00000000000E+00  0.61721539053E+03  0.61721539053E+03  0.00000000000E+00 0. -1.
         -4   -1    0    0    0  501 -0.00000000000E+00 -0.00000000000E+00 -0.99754680979E+03  0.99754680979E+03  0.00000000000E+00 0. -1.
        -13    1    1    2    0    0  0.43614812681E+03  0.11053400432E+03 -0.31345570399E+03  0.54835886439E+03  0.10566000000E+00 0.  1.
         13    1    1    2    0    0 -0.60144708858E+03 -0.37601305213E+03 -0.18344451106E+03  0.73265019999E+03  0.10566000000E+00 0. -1.
         -4    1    1    2    0  502  0.16529896178E+03  0.26547904781E+03  0.11656879580E+03  0.33375313594E+03  0.00000000000E+00 0. -1.
</event>
<event>
 5    1  0.4419198E-005  0.1636998E+03  0.7818608E-02  0.1088334E+00
         -4   -1    0    0    0  501 -0.00000000000E+00  0.00000000000E+00  0.14406619708E+03  0.14406619708E+03  0.00000000000E+00 0. -1.
         21   -1    0    0  501  502  0.00000000000E+00 -0.00000000000E+00 -0.27901673794E+03  0.27901673794E+03  0.00000000000E+00 0.  1.
        -13    1    1    2    0    0  0.69073191633E+02  0.15180985603E+03 -0.74613524625E+02  0.18271433280E+03  0.10566000000E+00 0.  1.
         13    1    1    2    0    0 -0.76324811899E+02 -0.14296418906E+03  0.16302363481E+02  0.16288036863E+03  0.10566000000E+00 0. -1.
         -4    1    1    2    0  502  0.72516202658E+01 -0.88456669730E+01 -0.76639379716E+02  0.77488233584E+02  0.00000000000E+00 0. -1.
</event>
<event>
 5    1  0.4419198E-005  0.2370462E+03  0.7818608E-02  0.1037333E+00
          4   -1    0    0  502    0 -0.00000000000E+00  0.00000000000E+00  0.15099471656E+04  0.15099471656E+04  0.00000000000E+00 0.  1.
         21   -1    0    0  501  502  0.00000000000E+00 -0.00000000000E+00 -0.48427093436E+02  0.48427093436E+02  0.00000000000E+00 0. -1.
        -13    1    1    2    0    0 -0.22744807503E+03 -0.11663413702E+03  0.53293456243E+03  0.59106294737E+03  0.10566000000E+00 0.  1.
         13    1    1    2    0    0  0.20711844746E+03  0.89480899567E+02  0.68073997274E+03  0.71715535578E+03  0.10566000000E+00 0. -1.
          4    1    1    2  501    0  0.20329627572E+02  0.27153237458E+02  0.24784553701E+03  0.25015595591E+03  0.00000000000E+00 0.  1.
</event>
<event>
 5    1  0.4419198E-005  0.7257344E+03  0.7818608E-02  0.9086460E-01
         -4   -1    0    0    0  501 -0.00000000000E+00  0.00000000000E+00  0.12284737511E+04  0.12284737511E+04  0.00000000000E+00 0. -1.
         21   -1    0    0  501  502  0.00000000000E+00 -0.00000000000E+00 -0.70184316869E+03  0.70184316869E+03  0.00000000000E+00 0. -1.
        -13    1    1    2    0    0 -0.36243992120E+03  0.52887288105E+03  0.35680153927E+03  0.73374148743E+03  0.10566000000E+00 0.  1.
         13    1    1    2    0    0  0.59980775763E+03 -0.64014400485E+03  0.26702684855E+03  0.91698257457E+03  0.10566000000E+00 0. -1.
         -4    1    1    2    0  502 -0.23736783643E+03  0.11127112380E+03 -0.97197805383E+02  0.27959285780E+03  0.00000000000E+00 0. -1.
</event>
<event>
 5    1  0.4419198E-005  0.1528695E+03  0.7818608E-02  0.1098316E+00
          4   -1    0    0  502    0 -0.00000000000E+00  0.00000000000E+00  0.18188895080E+03  0.18188895080E+03  0.00000000000E+00 0.  1.
         21   -1    0    0  501  502  0.00000000000E+00 -0.00000000000E+00 -0.79113144692E+03  0.79113144692E+03  0.00000000000E+00 0.  1.
        -13    1    1    2    0    0  0.12032449633E+03  0.94972358284E+02  0.13701778267E+03  0.20560062545E+03  0.10566000000E+00 0.  1.
         13    1    1    2    0    0 -0.10908253439E+03 -0.98290692465E+02 -0.50600333185E+03  0.52687706587E+03  0.10566000000E+00 0. -1.
          4    1    1    2  501    0 -0.11241961939E+02  0.33183341807E+01 -0.24025694693E+03  0.24054270639E+03  0.00000000000E+00 0.  1.
</event>
<event>
 5    1  0.4419198E-005  0.4586526E+03  0.7818608E-02  0.9573514E-01
          4   -1    0    0  502    0 -0.00000000000E+00  0.00000000000E+00  0.30510915563E+04  0.30510915563E+04  0.00000000000E+00 0.  1.
         21   -1    0    0  501  502  0.00000000000E+00 -0.00000000000E+00 -0.18453475041E+03  0.18453475041E+03  0.00000000000E+00 0. -1.
        -13    1    1    2    0    0  0.28327940294E+03 -0.55413417966E+03  0.83827923400E+03  0.10440421421E+04  0.10566000000E+00 0.  1.
         13    1    1    2    0    0  0.80523795267E+02  0.40832710631E+03  0.79241505105E+03  0.89506241774E+03  0.10566000000E+00 0. -1.
          4    1    1    2  501    0 -0.36380319821E+03  0.14580707335E+03  0.12358625208E+04  0.12965217468E+04  0.00000000000E+00 0.  1.
</event>
<event>
 5    1  0.4419198E-005  0.6290928E+03  0.7818608E-02  0.9232720E-01
         21   -1    0    0  501  502  0.00000000000E+00  0.00000000000E+00  0.52936203495E+03  0.52936203495E+03  0.00000000000E+00 0.  1.
         -4   -1    0    0    0  501 -0.00000000000E+00 -0.00000000000E+00 -0.23896608455E+04  0.23896608455E+04  0.00000000000E+00 0. -1.
        -13    1    1    2    0    0  0.64770845201E+03  0.47025912752E+03 -0.12880044537E+04  0.15164515718E+04  0.10566000000E+00 0.  1.
         13    1    1    2    0    0 -0.54481641621E+03 -0.17471867498E+02 -0.73100512936E+03  0.91186550754E+03  0.10566000000E+00 0. -1.
         -4    1    1    2    0  502 -0.10289203580E+03 -0.45278726002E+03  0.15871077254E+03  0.49070580105E+03  0.00000000000E+00 0. -1.
</event>
<event>
 5    1  0.4419198E-005  0.3966366E+03  0.7818608E-02  0.9738810E-01
         -4   -1    0    0    0  501 -0.00000000000E+00  0.00000000000E+00  0.21174865100E+04  0.21174865100E+04  0.00000000000E+00 0. -1.
         21   -1    0    0  501  502  0.00000000000E+00 -0.00000000000E+00 -0.91594555172E+02  0.91594555172E+02  0.00000000000E+00 0.  1.
        -13    1    1    2    0    0 -0.22580104018E+03 -0.32881972514E+03  0.94511999599E+03  0.10258461577E+04  0.10566000000E+00 0.  1.
         13    1    1    2    0    0  0.23381038958E+03  0.31813025713E+03  0.10948309850E+04  0.11638423671E+04  0.10566000000E+00 0. -1.
         -4    1    1    2    0  502 -0.80093494006E+01  0.10689468014E+02 -0.14059026099E+02  0.19392540295E+02  0.00000000000E+00 0. -1.
</event>
<event>
 5    1  0.4419198E-005  0.4844928E+03  0.7818608E-02  0.9612087E-01
         21   -1    0    0  501  502  0.00000000000E+00  0.00000000000E+00  0.33095451243E+03  0.33095451243E+03  0.00000000000E+00 0. -1.
         -4   -1    0    0    0  501 -0.00000000000E+00 -0.00000000000E+00 -0.14831660889E+04  0.14831660889E+04  0.00000000000E+00 0. -1.
        -13    1    1    2    0    0  0.32143627891E+03 -0.10816932308E+03 -0.42399733124E+03  0.54295085589E+03  0.10566000000E+00 0.  1.
         13    1    1    2    0    0  0.21480508716E+03  0.33046702354E+03 -0.52425065474E+03  0.65588752029E+03  0.10566000000E+00 0. -1.
         -4    1    1    2    0  502 -0.53624136607E+03 -0.22229770046E+03 -0.20396359046E+03  0.61528222512E+03  0.00000000000E+00 0. -1.
</event>
<event>
 5    1  0.4419198E-005  0.4174676E+03  0.7818608E-02  0.9914852E-01
         21   -1    0    0  501  502  0.00000000000E+00  0.00000000000E+00  0.12347496894E+03  0.12347496894E+03  0.00000000000E+00 0.  1.
          4   -1    0    0  502    0 -0.00000000000E+00 -0.00000000000E+00 -0.29936922495E+04  0.29936922495E+04  0.00000000000E+00 0.  1.
        -13    1    1    2    0    0 -0.30334803159E+03 -0.34327903449E+03 -0.43583275989E+03  0.63230588290E+03  0.10566000000E+00 0.  1.
         13    1    1    2    0    0  0.96164508944E+02  0.16050811746E+03 -0.56514070608E+03  0.59531042103E+03  0.10566000000E+00 0. -1.
          4    1    1    2  501    0  0.20718352265E+03  0.18277091703E+03 -0.18692438146E+04  0.18895509145E+04  0.00000000000E+00 0.  1.
</event>
<event>
 5    1  0.4419199E-005  0.4947801E+03  0.7818608E-02  0.1032134E+00
         21   -1    0    0  501  502  0.00000000000E+00  0.00000000000E+00  0.27331890739E+04  0.27331890739E+04  0.00000000000E+00 0. -1.
         -4   -1    0    0    0  501 -0.00000000000E+00 -0.00000000000E+00 -0.98828203614E+02  0.98828203614E+02  0.00000000000E+00 0. -1.
        -13    1    1    2    0    0 -0.27299439100E+02 -0.13744432564E+02  0.35089734531E+02  0.46534604706E+02  0.10566000000E+00 0.  1.
         13    1    1    2    0    0 -0.26314562833E+02  0.49916622154E+03  0.15390286285E+04  0.16181682556E+04  0.10566000000E+00 0. -1.
         -4    1    1    2    0  502  0.53614001932E+02 -0.48542178897E+03  0.10602425073E+04  0.11673144172E+04  0.00000000000E+00 0. -1.
</event>
<event>
 5    1  0.4419198E-005  0.3074103E+03  0.7818608E-02  0.1004293E+00
          4   -1    0    0  502    0 -0.00000000000E+00  0.00000000000E+00  0.23212385037E+04  0.23212385037E+04  0.00000000000E+00 0.  1.
         21   -1    0    0  501  502  0.00000000000E+00 -0.00000000000E+00 -0.33458598107E+03  0.33458598107E+03  0.00000000000E+00 0.  1.
        -13    1    1    2    0    0 -0.15371269878E+02  0.26103777377E+03  0.88114235496E+03  0.91912396125E+03  0.10566000000E+00 0.  1.
         13    1    1    2    0    0 -0.20971654543E+03 -0.36685145748E+03  0.13337745814E+04  0.13991124567E+04  0.10566000000E+00 0. -1.
          4    1    1    2  501    0  0.22508781530E+03  0.10581368371E+03 -0.22826441377E+03  0.33758806681E+03  0.00000000000E+00 0.  1.
</event>
<event>
 5    1  0.4419198E-005  0.5586704E+03  0.7818608E-02  0.9357886E-01
         -4   -1    0    0    0  501 -0.00000000000E+00  0.00000000000E+00  0.43156070057E+04  0.43156070057E+04  0.00000000000E+00 0. -1.
         21   -1    0    0  501  502  0.00000000000E+00 -0.00000000000E+00 -0.13267081790E+03  0.13267081790E+03  0.00000000000E+00 0. -1.
        -13    1    1    2    0    0  0.41509175505E+03  0.84376908373E+02  0.10798158761E+04  0.11599236894E+04  0.10566000000E+00 0.  1.
         13    1    1    2    0    0 -0.70484290584E+03 -0.18386548353E+03  0.25924087719E+04  0.26928039828E+04  0.10566000000E+00 0. -1.
         -4    1    1    2    0  502  0.28975115079E+03  0.99488575153E+02  0.51071153977E+03  0.59555015139E+03  0.00000000000E+00 0. -1.
</event>
<event>
 5    1  0.4419198E-005  0.1023829E+03  0.7818608E-02  0.1161580E+00
         21   -1    0    0  501  502  0.00000000000E+00  0.00000000000E+00  0.10161216140E+04  0.10161216140E+04  0.00000000000E+00 0. -1.
         -4   -1    0    0    0  501 -0.00000000000E+00 -0.00000000000E+00 -0.28030113789E+03  0.28030113789E+03  0.00000000000E+00 0. -1.
        -13    1    1    2    0    0  0.71956709664E+02  0.69654459105E+02  0.44113145336E+02  0.10943259338E+03  0.10566000000E+00 0.  1.
         13    1    1    2    0    0  0.28714245591E+02 -0.91519854912E+02 -0.23539209956E+03  0.25418466406E+03  0.10566000000E+00 0. -1.
         -4    1    1    2    0  502 -0.10067095525E+03  0.21865395808E+02  0.92709943032E+03  0.93280549445E+03  0.00000000000E+00 0. -1.
</event>
<event>
 5    1  0.4419198E-005  0.1949334E+03  0.7818608E-02  0.1063666E+00
         21   -1    0    0  501  502  0.00000000000E+00  0.00000000000E+00  0.11080000807E+04  0.11080000807E+04  0.00000000000E+00 0.  1.
         -4   -1    0    0    0  501 -0.00000000000E+00 -0.00000000000E+00 -0.10439755381E+03  0.10439755381E+03  0.00000000000E+00 0. -1.
        -13    1    1    2    0    0  0.25755206203E+03  0.12022332056E+03  0.44021642293E+03  0.52400116569E+03  0.10566000000E+00 0.  1.
         13    1    1    2    0    0 -0.17232125887E+03 -0.10401300683E+02  0.89329480398E+02  0.19437739207E+03  0.10566000000E+00 0. -1.
         -4    1    1    2    0  502 -0.85230803162E+02 -0.10982201987E+03  0.47405662354E+03  0.49401907674E+03  0.00000000000E+00 0. -1.
</event>
<event>
 5    1  0.4419198E-005  0.6963545E+03  0.7818608E-02  0.9128283E-01
          4   -1    0    0  502    0 -0.00000000000E+00  0.00000000000E+00  0.23791300299E+04  0.23791300299E+04  0.00000000000E+00 0.  1.
         21   -1    0    0  501  502  0.00000000000E+00 -0.00000000000E+00 -0.56376766276E+03  0.56376766276E+03  0.00000000000E+00 0.  1.
        -13    1    1    2    0    0 -0.61717932424E+03 -0.30732724101E+03  0.18204614547E+04  0.19466484712E+04  0.10566000000E+00 0.  1.
         13    1    1    2    0    0  0.66983202351E+03  0.28218213678E+03  0.22341359181E+03  0.76040472263E+03  0.10566000000E+00 0. -1.
          4    1    1    2  501    0 -0.52652699267E+02  0.25145104225E+02 -0.22851267934E+03  0.23584449883E+03  0.00000000000E+00 0.  1.
</event>
<event>
 5    1  0.4419198E-005  0.4418428E+03  0.7818608E-02  0.9807336E-01
         -4   -1    0    0    0  501 -0.00000000000E+00  0.00000000000E+00  0.11208662527E+04  0.11208662527E+04  0.00000000000E+00 0. -1.
         21   -1    0    0  501  502  0.00000000000E+00 -0.00000000000E+00 -0.71120438525E+03  0.71120438525E+03  0.00000000000E+00 0. -1.
        -13    1    1    2    0    0  0.22474582990E+03 -0.30356705695E+02  0.72595931349E+03  0.76055844854E+03  0.10566000000E+00 0.  1.
         13    1    1    2    0    0 -0.60512212703E+03 -0.12632159501E+02 -0.54393025896E+02  0.60769315654E+03  0.10566000000E+00 0. -1.
         -4    1    1    2    0  502  0.38037629713E+03  0.42988865195E+02 -0.26190442015E+03  0.46381903286E+03  0.00000000000E+00 0. -1.
</event>
<event>
 5    1  0.4419198E-005  0.4865291E+03  0.7818608E-02  0.9624557E-01
         -4   -1    0    0    0  501 -0.00000000000E+00  0.00000000000E+00  0.47838401874E+03  0.47838401874E+03  0.00000000000E+00 0. -1.
         21   -1    0    0  501  502  0.00000000000E+00 -0.00000000000E+00 -0.14015751869E+04  0.14015751869E+04  0.00000000000E+00 0. -1.
        -13    1    1    2    0    0 -0.14248976600E+03 -0.28700696971E+03  0.17819614569E+03  0.36664725770E+03  0.10566000000E+00 0.  1.
         13    1    1    2    0    0 -0.16653718625E+03  0.55033280326E+03 -0.87911066666E+03  0.10504458121E+04  0.10566000000E+00 0. -1.
         -4    1    1    2    0  502  0.30902695224E+03 -0.26332583355E+03 -0.22227664718E+03  0.46286613584E+03  0.00000000000E+00 0. -1.
</event>
<event>
 5    1  0.4419198E-005  0.1692377E+03  0.7818608E-02  0.1095822E+00
         21   -1    0    0  501  502  0.00000000000E+00  0.00000000000E+00  0.12351356112E+03  0.12351356112E+03  0.00000000000E+00 0.  1.
          4   -1    0    0  502    0 -0.00000000000E+00 -0.00000000000E+00 -0.10108267814E+04  0.10108267814E+04  0.00000000000E+00 0.  1.
        -13    1    1    2    0    0 -0.15503412313E+03 -0.20221457710E+03 -0.79369110611E+03  0.83358976578E+03  0.10566000000E+00 0.  1.
         13    1    1    2    0    0  0.11086474851E+03  0.47430319647E+02 -0.65902188423E+02  0.13741811120E+03  0.10566000000E+00 0. -1.
          4    1    1    2  501    0  0.44169374621E+02  0.15478425745E+03 -0.27719925726E+02  0.16333246552E+03  0.00000000000E+00 0.  1.
</event>
<event>
 5    1  0.4419198E-005  0.3337232E+03  0.7818608E-02  0.9966662E-01
          4   -1    0    0  502    0 -0.00000000000E+00  0.00000000000E+00  0.13942893037E+04  0.13942893037E+04  0.00000000000E+00 0.  1.
         21   -1    0    0  501  502  0.00000000000E+00 -0.00000000000E+00 -0.36041592695E+03  0.36041592695E+03  0.00000000000E+00 0.  1.
        -13    1    1    2    0    0 -0.21059365958E+03 -0.23152502452E+03  0.71623252628E+03  0.78162815284E+03  0.10566000000E+00 0.  1.
         13    1    1    2    0    0  0.28629663100E+03 -0.11473475797E+03  0.48997023724E+03  0.57896517180E+03  0.10566000000E+00 0. -1.
          4    1    1    2  501    0 -0.75702971423E+02  0.34625978249E+03 -0.17232938683E+03  0.39411190596E+03  0.00000000000E+00 0.  1.
</event>
<event>
 5    1  0.4419198E-005  0.4082726E+03  0.7818608E-02  0.1000181E+00
          4   -1    0    0  502    0 -0.00000000000E+00  0.00000000000E+00  0.18762576477E+04  0.18762576477E+04  0.00000000000E+00 0.  1.
         21   -1    0    0  501  502  0.00000000000E+00 -0.00000000000E+00 -0.17816841028E+03  0.17816841028E+03  0.00000000000E+00 0.  1.
        -13    1    1    2    0    0  0.22216832161E+03  0.47562339756E+03  0.12427955902E+04  0.13491172186E+04  0.10566000000E+00 0.  1.
         13    1    1    2    0    0 -0.46017399375E+02 -0.14283666670E+03  0.20145463167E+03  0.25120488487E+03  0.10566000000E+00 0. -1.
          4    1    1    2  501    0 -0.17615092223E+03 -0.33278673085E+03  0.25383901553E+03  0.45410395444E+03  0.00000000000E+00 0.  1.
</event>
<event>
 5    1  0.4419198E-005  0.1509748E+03  0.7818608E-02  0.1100154E+00
         21   -1    0    0  501  502  0.00000000000E+00  0.00000000000E+00  0.11048360563E+04  0.11048360563E+04  0.00000000000E+00 0. -1.
         -4   -1    0    0    0  501 -0.00000000000E+00 -0.00000000000E+00 -0.11811466529E+03  0.11811466529E+03  0.00000000000E+00 0. -1.
        -13    1    1    2    0    0 -0.65302606387E+02  0.12467986838E+03  0.29801876974E+03  0.32958261219E+03  0.10566000000E+00 0.  1.
         13    1    1    2    0    0  0.67046910161E+02 -0.13735457782E+03 -0.45173280709E+02  0.15938069101E+03  0.10566000000E+00 0. -1.
         -4    1    1    2    0  502 -0.17443037739E+01  0.12674709448E+02  0.73387590197E+03  0.73398741838E+03  0.00000000000E+00 0. -1.
</event>
<event>
 5    1  0.4419198E-005  0.6509215E+03  0.7818608E-02  0.9197385E-01
         21   -1    0    0  501  502  0.00000000000E+00  0.00000000000E+00  0.63449302856E+03  0.63449302856E+03  0.00000000000E+00 0. -1.
          4   -1    0    0  502    0 -0.00000000000E+00 -0.00000000000E+00 -0.11960047563E+04  0.11960047563E+04  0.00000000000E+00 0.  1.
        -13    1    1    2    0    0 -0.73694735027E+03  0.23590592579E+03 -0.70149355882E+02  0.77695813671E+03  0.10566000000E+00 0.  1.
         13    1    1    2    0    0  0.47731068720E+03 -0.33205592782E+03 -0.12570020266E+03  0.59488417648E+03  0.10566000000E+00 0. -1.
          4    1    1    2  501    0  0.25963666308E+03  0.96150002035E+02 -0.36566216922E+03  0.45865547169E+03  0.00000000000E+00 0.  1.
</event>
<event>
 5    1  0.4419198E-005  0.5658168E+03  0.7818608E-02  0.9344318E-01
         -4   -1    0    0    0  501 -0.00000000000E+00  0.00000000000E+00  0.18818498882E+04  0.18818498882E+04  0.00000000000E+00 0. -1.
         21   -1    0    0  501  502  0.00000000000E+00 -0.00000000000E+00 -0.48126529540E+03  0.48126529540E+03  0.00000000000E+00 0. -1.
        -13    1    1    2    0    0  0.62050026765E+03 -0.14802468799E+03  0.84071250657E+03  0.10553337957E+04  0.10566000000E+00 0.  1.
         13    1    1    2    0    0 -0.37930654281E+03  0.39725432025E+03  0.73634825643E+03  0.91863660622E+03  0.10566000000E+00 0. -1.
         -4    1    1    2    0  502 -0.24119372483E+03 -0.24922963226E+03 -0.17647617019E+03  0.38914478172E+03  0.00000000000E+00 0. -1.
</event>
<event>
 5    1  0.4419198E-005  0.5108992E+03  0.7818608E-02  0.9464558E-01
         21   -1    0    0  501  502  0.00000000000E+00  0.00000000000E+00  0.93730612237E+03  0.93730612237E+03  0.00000000000E+00 0. -1.
          4   -1    0    0  502    0 -0.00000000000E+00 -0.00000000000E+00 -0.84933612843E+03  0.84933612843E+03  0.00000000000E+00 0.  1.
        -13    1    1    2    0    0 -0.18442153603E+03  0.44702551320E+03 -0.88696920435E+02  0.49164038408E+03  0.10566000000E+00 0.  1.
         13    1    1    2    0    0 -0.40106636850E+03 -0.33175856875E+03 -0.23393952782E+03  0.57065374241E+03  0.10566000000E+00 0. -1.
          4    1    1    2  501    0  0.58548790453E+03 -0.11526694444E+03  0.41060644219E+03  0.72434812432E+03  0.00000000000E+00 0.  1.
</event>
<event>
 5    1  0.4419198E-005  0.1763567E+03  0.7818608E-02  0.1155905E+00
         21   -1    0    0  501  502  0.00000000000E+00  0.00000000000E+00  0.16819655329E+04  0.16819655329E+04  0.00000000000E+00 0.  1.
         -4   -1    0    0    0  501 -0.00000000000E+00 -0.00000000000E+00 -0.44195508667E+03  0.44195508667E+03  0.00000000000E+00 0. -1.
        -13    1    1    2    0    0  0.60520977834E+02 -0.55050235734E+03  0.57410461202E+03  0.79769151362E+03  0.10566000000E+00 0.  1.
         13    1    1    2    0    0 -0.13248994094E+02  0.59109269770E+02 -0.26537234740E+03  0.27219833862E+03  0.10566000000E+00 0. -1.
         -4    1    1    2    0  502 -0.47271983739E+02  0.49139308757E+03  0.93127818165E+03  0.10540307674E+04  0.00000000000E+00 0. -1.
</event>
<event>
 5    1  0.4419198E-005  0.3243455E+03  0.7818608E-02  0.1073028E+00
         -4   -1    0    0    0  501 -0.00000000000E+00  0.00000000000E+00  0.15106081984E+04  0.15106081984E+04  0.00000000000E+00 0. -1.
         21   -1    0    0  501  502  0.00000000000E+00 -0.00000000000E+00 -0.82049540752E+02  0.82049540752E+02  0.00000000000E+00 0. -1.
        -13    1    1    2    0    0  0.13540929055E+02  0.29369033597E+02  0.13403349559E+03  0.13787996953E+03  0.10566000000E+00 0.  1.
         13    1    1    2    0    0 -0.31488125618E+03 -0.12320199052E+03  0.79476807671E+03  0.86370437239E+03  0.10566000000E+00 0. -1.
         -4    1    1    2    0  502  0.30134032713E+03  0.93832956925E+02  0.49975708536E+03  0.59107339724E+03  0.00000000000E+00 0. -1.
</event>
<event>
 5    1  0.4419198E-005  0.4278299E+03  0.7818608E-02  0.9983950E-01
         21   -1    0    0  501  502  0.00000000000E+00  0.00000000000E+00  0.80558339878E+02  0.80558339878E+02  0.00000000000E+00 0.  1.
          4   -1    0    0  502    0 -0.00000000000E+00 -0.00000000000E+00 -0.41873649327E+04  0.41873649327E+04  0.00000000000E+00 0.  1.
        -13    1    1    2    0    0 -0.44834017288E+03 -0.86270079760E+02 -0.76612065808E+03  0.89184769506E+03  0.10566000000E+00 0.  1.
         13    1    1    2    0    0  0.13170137451E+03 -0.42156308542E+02 -0.71495122214E+03  0.72820166685E+03  0.10566000000E+00 0. -1.
          4    1    1    2  501    0  0.31663879837E+03  0.12842638830E+03 -0.26257347126E+04  0.26478739107E+04  0.00000000000E+00 0.  1.
</event>
<event>
 5    1  0.4419198E-005  0.1876246E+03  0.7818608E-02  0.1101934E+00
          4   -1    0    0  502    0 -0.00000000000E+00  0.00000000000E+00  0.78532917239E+03  0.78532917239E+03  0.00000000000E+00 0.  1.
         21   -1    0    0  501  502  0.00000000000E+00 -0.00000000000E+00 -0.13630624730E+03  0.13630624730E+03  0.00000000000E+00 0.  1.
        -13    1    1    2    0    0 -0.66048114984E+02 -0.13522990048E+03  0.58927283100E+03  0.60818743821E+03  0.10566000000E+00 0.  1.
         13    1    1    2    0    0 -0.74680756758E+02 -0.64929728399E+01 -0.45497392748E+02  0.87689212775E+02  0.10566000000E+00 0. -1.
          4    1    1    2  501    0  0.14072887174E+03  0.14172287332E+03  0.10524748683E+03  0.22575876870E+03  0.00000000000E+00 0.  1.
</event>
<event>
 5    1  0.4419198E-005  0.3399253E+03  0.7818608E-02  0.1001435E+00
          4   -1    0    0  502    0 -0.00000000000E+00  0.00000000000E+00  0.57606844907E+03  0.57606844907E+03  0.00000000000E+00 0.  1.
         21   -1    0    0  501  502  0.00000000000E+00 -0.00000000000E+00 -0.11003071414E+04  0.11003071414E+04  0.00000000000E+00 0.  1.
        -13    1    1    2    0    0  0.17287731487E+03  0.29612501679E+03 -0.83131031477E+03  0.89925160116E+03  0.10566000000E+00 0.  1.
         13    1    1    2    0    0 -0.23056913028E+03  0.95464979454E+02  0.28767583414E+03  0.38083209273E+03  0.10566000000E+00 0. -1.
          4    1    1    2  501    0  0.57691815413E+02 -0.39158999624E+03  0.19395788276E+02  0.39629189662E+03  0.00000000000E+00 0.  1.
</event>
<event>
 5    1  0.4419198E-005  0.2971607E+03  0.7818608E-02  0.1039246E+00
         21   -1    0    0  501  502  0.00000000000E+00  0.00000000000E+00  0.10808213180E+03  0.10808213180E+03  0.00000000000E+00 0. -1.
         -4   -1    0    0    0  501 -0.00000000000E+00 -0.00000000000E+00 -0.23118155096E+04  0.23118155096E+04  0.00000000000E+00 0. -1.
        -13    1    1    2    0    0 -0.53465318576E+01 -0.11340223905E+03 -0.52606009739E+03  0.53817087477E+03  0.10566000000E+00 0.  1.
         13    1    1    2    0    0 -0.13536065493E+02  0.39359905898E+03 -0.14966665067E+04  0.15476156137E+04  0.10566000000E+00 0. -1.
         -4    1    1    2    0  502  0.18882597351E+02 -0.28019681993E+03 -0.18100677368E+03  0.33411115291E+03  0.00000000000E+00 0. -1.
</event>
<event>
 5    1  0.7422073E-005  0.3039056E+03  0.7818608E-02  0.1020367E+00
         21   -1    0    0  501  502  0.00000000000E+00  0.00000000000E+00  0.87795144059E+03  0.87795144059E+03  0.00000000000E+00 0.  1.
          4   -1    0    0  502    0 -0.00000000000E+00 -0.00000000000E+00 -0.46989364464E+03  0.46989364464E+03  0.00000000000E+00 0.  1.
        -13    1    1    2    0    0  0.83132211412E+02 -0.19958831658E+03 -0.24252444792E+03  0.32490703238E+03  0.10566000000E+00 0.  1.
         13    1    1    2    0    0  0.18753017144E+03  0.32069726359E+02 -0.94706121282E+02  0.21252127687E+03  0.10566000000E+00 0. -1.
          4    1    1    2  501    0 -0.27066238286E+03  0.16751859022E+03  0.74528836515E+03  0.81041677598E+03  0.00000000000E+00 0.  1.
</event>
<event>
 5    1  0.4419198E-005  0.4682069E+03  0.7818608E-02  0.9808814E-01
         21   -1    0    0  501  502  0.00000000000E+00  0.00000000000E+00  0.16362566154E+03  0.16362566154E+03  0.00000000000E+00 0. -1.
         -4   -1    0    0    0  501 -0.00000000000E+00 -0.00000000000E+00 -0.22356098398E+04  0.22356098398E+04  0.00000000000E+00 0. -1.
        -13    1    1    2    0    0  0.14544694777E+03 -0.12168256985E+03 -0.32114124717E+03  0.37295197308E+03  0.10566000000E+00 0.  1.
         13    1    1    2    0    0  0.33593277554E+03 -0.91736095968E+02 -0.12571008553E+04  0.13044419927E+04  0.10566000000E+00 0. -1.
         -4    1    1    2    0  502 -0.48137972331E+03  0.21341866582E+03 -0.49374207581E+03  0.72184153549E+03  0.00000000000E+00 0. -1.
</event>
<event>
 5    1  0.4419198E-005  0.2018160E+03  0.7818608E-02  0.1058898E+00
          4   -1    0    0  502    0 -0.00000000000E+00  0.00000000000E+00  0.22524174653E+03  0.22524174653E+03  0.00000000000E+00 0.  1.
         21   -1    0    0  501  502  0.00000000000E+00 -0.00000000000E+00 -0.20259135612E+03  0.20259135612E+03  0.00000000000E+00 0. -1.
        -13    1    1    2    0    0  0.94584374939E+01 -0.20745620711E+03  0.41936814928E+02  0.21186374754E+03  0.10566000000E+00 0.  1.
         13    1    1    2    0    0  0.17485384629E+01  0.19500767305E+03 -0.69009673585E+01  0.19513760389E+03  0.10566000000E+00 0. -1.
          4    1    1    2  501    0 -0.11206975957E+02  0.12448534060E+02 -0.12385457159E+02  0.20831751231E+02  0.00000000000E+00 0.  1.
</event>
<event>
 5    1  0.4419198E-005  0.2851072E+03  0.7818608E-02  0.1013649E+00
         21   -1    0    0  501  502  0.00000000000E+00  0.00000000000E+00  0.53309502029E+02  0.53309502029E+02  0.00000000000E+00 0. -1.
          4   -1    0    0  502    0 -0.00000000000E+00 -0.00000000000E+00 -0.23640958656E+04  0.23640958656E+04  0.00000000000E+00 0.  1.
        -13    1    1    2    0    0 -0.23248280074E+03  0.18432288561E+03 -0.74357259967E+03  0.80057691757E+03  0.10566000000E+00 0.  1.
         13    1    1    2    0    0  0.24567257003E+03 -0.13660600823E+03 -0.15280887294E+04  0.15537282225E+04  0.10566000000E+00 0. -1.
          4    1    1    2  501    0 -0.13189769297E+02 -0.47716877381E+02 -0.39125034525E+02  0.63100227636E+02  0.00000000000E+00 0.  1.
</event>
<event>
 5    1  0.4419198E-005  0.1663677E+03  0.7818608E-02  0.1086003E+00
         21   -1    0    0  501  502  0.00000000000E+00  0.00000000000E+00  0.10188898078E+03  0.10188898078E+03  0.00000000000E+00 0. -1.
          4   -1    0    0  502    0 -0.00000000000E+00 -0.00000000000E+00 -0.72849198393E+03  0.72849198393E+03  0.00000000000E+00 0.  1.
        -13    1    1    2    0    0 -0.16683368233E+01 -0.16776123987E+03 -0.61727266960E+03  0.63966567576E+03  0.10566000000E+00 0.  1.
         13    1    1    2    0    0  0.84545449873E+01  0.15830515643E+03 -0.35161201321E+02  0.16238325999E+03  0.10566000000E+00 0. -1.
          4    1    1    2  501    0 -0.67862081641E+01  0.94560834453E+01  0.25830867762E+02  0.28332028955E+02  0.00000000000E+00 0.  1.
</event>
<event>
 5    1  0.4419198E-005  0.1251860E+03  0.7818608E-02  0.1128533E+00
         21   -1    0    0  501  502  0.00000000000E+00  0.00000000000E+00  0.47816452345E+03  0.47816452345E+03  0.00000000000E+00 0. -1.
          4   -1    0    0  502    0 -0.00000000000E+00 -0.00000000000E+00 -0.43281506760E+02  0.43281506760E+02  0.00000000000E+00 0.  1.
        -13    1    1    2    0    0  0.64608749863E+02 -0.10267207139E+03  0.11355148233E+03  0.16616195445E+03  0.10566000000E+00 0.  1.
         13    1    1    2    0    0 -0.63340908503E+02  0.11685943359E+03  0.25637624407E+03  0.28878536597E+03  0.10566000000E+00 0. -1.
          4    1    1    2  501    0 -0.12678413606E+01 -0.14187362199E+02  0.64955290287E+02  0.66498709793E+02  0.00000000000E+00 0.  1.
</event>
<event>
 5    1  0.4419198E-005  0.4315033E+02  0.7818608E-02  0.1322503E+00
          4   -1    0    0  502    0 -0.00000000000E+00  0.00000000000E+00  0.44587290414E+02  0.44587290414E+02  0.00000000000E+00 0.  1.
         21   -1    0    0  501  502  0.00000000000E+00 -0.00000000000E+00 -0.19937899447E+03  0.19937899447E+03  0.00000000000E+00 0.  1.
        -13    1    1    2    0    0  0.14968838717E+02  0.45195294095E+02  0.24381652128E+02  0.53489782813E+02  0.10566000000E+00 0.  1.
         13    1    1    2    0    0 -0.44010884054E+01 -0.29556246181E+02 -0.39480474255E+02  0.49514243192E+02  0.10566000000E+00 0. -1.
          4    1    1    2  501    0 -0.10567750311E+02 -0.15639047915E+02 -0.13969288193E+03  0.14096225888E+03  0.00000000000E+00 0.  1.
</event>
<event>
 5    1  0.4419198E-005  0.2286399E+03  0.7818608E-02  0.1042097E+00
          4   -1    0    0  502    0 -0.00000000000E+00  0.00000000000E+00  0.19625822045E+03  0.19625822045E+03  0.00000000000E+00 0.  1.
         21   -1    0    0  501  502  0.00000000000E+00 -0.00000000000E+00 -0.82834827188E+03  0.82834827188E+03  0.00000000000E+00 0.  1.
        -13    1    1    2    0    0  0.15667424367E+03  0.16154939257E+03  0.63198511599E+02  0.23375005433E+03  0.10566000000E+00 0.  1.
         13    1    1    2    0    0 -0.17794255464E+03 -0.16389122757E+03 -0.26036390168E+03  0.35540576766E+03  0.10566000000E+00 0. -1.
          4    1    1    2  501    0  0.21268310973E+02  0.23418350068E+01 -0.43492466135E+03  0.43545067033E+03  0.00000000000E+00 0.  1.
</event>
<event>
 5    1  0.4419198E-005  0.3412979E+03  0.7818608E-02  0.9915841E-01
         21   -1    0    0  501  502  0.00000000000E+00  0.00000000000E+00  0.10180646142E+03  0.10180646142E+03  0.00000000000E+00 0. -1.
          4   -1    0    0  502    0 -0.00000000000E+00 -0.00000000000E+00 -0.23505740223E+04  0.23505740223E+04  0.00000000000E+00 0.  1.
        -13    1    1    2    0    0  0.35308995830E+02  0.34282853731E+03 -0.19378286635E+04  0.19682373006E+04  0.10566000000E+00 0.  1.
         13    1    1    2    0    0 -0.68045092194E+02 -0.31800817769E+03 -0.24797884649E+03  0.40896559161E+03  0.10566000000E+00 0. -1.
          4    1    1    2  501    0  0.32736096364E+02 -0.24820359615E+02 -0.62960050828E+02  0.75177591454E+02  0.00000000000E+00 0.  1.
</event>
<event>
 5    1  0.4419198E-005  0.2271654E+03  0.7818608E-02  0.1053117E+00
         21   -1    0    0  501  502  0.00000000000E+00  0.00000000000E+00  0.11997709029E+03  0.11997709029E+03  0.00000000000E+00 0.  1.
          4   -1    0    0  502    0 -0.00000000000E+00 -0.00000000000E+00 -0.29356467170E+04  0.29356467170E+04  0.00000000000E+00 0.  1.
        -13    1    1    2    0    0  0.10873001590E+03  0.19804429552E+03 -0.37320205418E+02  0.22899032346E+03  0.10566000000E+00 0.  1.
         13    1    1    2    0    0 -0.13664874403E+03  0.97268321912E+02 -0.46466626915E+03  0.49401291334E+03  0.10566000000E+00 0. -1.
          4    1    1    2  501    0  0.27918728129E+02 -0.29531261743E+03 -0.23136831521E+04  0.23326205705E+04  0.00000000000E+00 0.  1.
</event>
<event>
 5    1  0.4419198E-005  0.3994088E+03  0.7818608E-02  0.9934536E-01
          4   -1    0    0  502    0 -0.00000000000E+00  0.00000000000E+00  0.23661482780E+04  0.23661482780E+04  0.00000000000E+00 0.  1.
         21   -1    0    0  501  502  0.00000000000E+00 -0.00000000000E+00 -0.14303845920E+03  0.14303845920E+03  0.00000000000E+00 0.  1.
        -13    1    1    2    0    0  0.30598148337E+03 -0.30348458062E+03  0.85621528202E+03  0.95855734266E+03  0.10566000000E+00 0.  1.
         13    1    1    2    0    0 -0.18471990536E+03 -0.76946911899E+02  0.95966755366E+03  0.98030816349E+03  0.10566000000E+00 0. -1.
          4    1    1    2  501    0 -0.12126157801E+03  0.38043149252E+03  0.40722698309E+03  0.57032123103E+03  0.00000000000E+00 0.  1.
</event>
<event>
 5    1  0.4419198E-005  0.3093932E+03  0.7818608E-02  0.1003502E+00
         21   -1    0    0  501  502  0.00000000000E+00  0.00000000000E+00  0.12102129210E+03  0.12102129210E+03  0.00000000000E+00 0.  1.
          4   -1    0    0  502    0 -0.00000000000E+00 -0.00000000000E+00 -0.33274874935E+04  0.33274874935E+04  0.00000000000E+00 0.  1.
        -13    1    1    2    0    0 -0.36421671792E+03 -0.13424848332E+02 -0.23031172511E+03  0.43113518304E+03  0.10566000000E+00 0.  1.
         13    1    1    2    0    0  0.26970731295E+03 -0.14892852367E+03 -0.17504802124E+04  0.17773864872E+04  0.10566000000E+00 0. -1.
          4    1    1    2  501    0  0.94509404973E+02  0.16235337200E+03 -0.12256742639E+04  0.12399871154E+04  0.00000000000E+00 0.  1.
</event>
<event>
 5    1  0.4419198E-005  0.4937823E+03  0.7818608E-02  0.9592644E-01
          4   -1    0    0  502    0 -0.00000000000E+00  0.00000000000E+00  0.12531145216E+04  0.12531145216E+04  0.00000000000E+00 0.  1.
         21   -1    0    0  501  502  0.00000000000E+00 -0.00000000000E+00 -0.38660525762E+03  0.38660525762E+03  0.00000000000E+00 0.  1.
        -13    1    1    2    0    0  0.23119411683E+03 -0.25093762011E+03  0.39805802359E+03  0.52428104119E+03  0.10566000000E+00 0.  1.
         13    1    1    2    0    0  0.10490347431E+03 -0.32687521934E+03  0.17650224802E+03  0.38601192036E+03  0.10566000000E+00 0. -1.
          4    1    1    2  501    0 -0.33609759114E+03  0.57781283945E+03  0.29194899238E+03  0.72942681768E+03  0.00000000000E+00 0.  1.
</event>
<event>
 5    1  0.4419198E-005  0.4054501E+03  0.7818608E-02  0.9713437E-01
         21   -1    0    0  501  502  0.00000000000E+00  0.00000000000E+00  0.43869871401E+03  0.43869871401E+03  0.00000000000E+00 0. -1.
         -4   -1    0    0    0  501 -0.00000000000E+00 -0.00000000000E+00 -0.15758134165E+04  0.15758134165E+04  0.00000000000E+00 0. -1.
        -13    1    1    2    0    0 -0.14742300818E+03  0.39690360838E+03 -0.73532267323E+03  0.84850778584E+03  0.10566000000E+00 0.  1.
         13    1    1    2    0    0  0.97528573601E+01 -0.30131421444E+03  0.31137676899E+03  0.43340613457E+03  0.10566000000E+00 0. -1.
         -4    1    1    2    0  502  0.13767015082E+03 -0.95589393941E+02 -0.71316879826E+03  0.73259821012E+03  0.00000000000E+00 0. -1.
</event>
<event>
 5    1  0.4419198E-005  0.5062534E+02  0.7818608E-02  0.1289263E+00
         21   -1    0    0  501  502  0.00000000000E+00  0.00000000000E+00  0.15555966660E+03  0.15555966660E+03  0.00000000000E+00 0. -1.
         -4   -1    0    0    0  501 -0.00000000000E+00 -0.00000000000E+00 -0.41555465233E+02  0.41555465233E+02  0.00000000000E+00 0. -1.
        -13    1    1    2    0    0 -0.45458332089E+02  0.14111728192E+02 -0.66232777947E+01  0.48057047368E+02  0.10566000000E+00 0.  1.
         13    1    1    2    0    0  0.65879538660E+02 -0.90648985264E+01  0.93210852145E+02  0.11450135423E+03  0.10566000000E+00 0. -1.
         -4    1    1    2    0  502 -0.20421206571E+02 -0.50468296661E+01  0.27416627019E+02  0.34556730236E+02  0.00000000000E+00 0. -1.
</event>
<event>
 5    1  0.4419198E-005  0.2055769E+03  0.7818608E-02  0.1056378E+00
         -4   -1    0    0    0  501 -0.00000000000E+00  0.00000000000E+00  0.12902988631E+04  0.12902988631E+04  0.00000000000E+00 0. -1.
         21   -1    0    0  501  502  0.00000000000E+00 -0.00000000000E+00 -0.14106271655E+03  0.14106271655E+03  0.00000000000E+00 0.  1.
        -13    1    1    2    0    0 -0.18300436126E+03  0.47217873791E+02  0.19083700013E+03  0.26858684932E+03  0.10566000000E+00 0.  1.
         13    1    1    2    0    0  0.19862997089E+03 -0.68642216654E+02  0.10482416413E+04  0.10691006355E+04  0.10566000000E+00 0. -1.
         -4    1    1    2    0  502 -0.15625609630E+02  0.21424342863E+02 -0.89842494877E+02  0.93674094760E+02  0.00000000000E+00 0. -1.
</event>
<event>
 5    1  0.4419198E-005  0.5294114E+03  0.7818608E-02  0.9415738E-01
         21   -1    0    0  501  502  0.00000000000E+00  0.00000000000E+00  0.53609721611E+03  0.53609721611E+03  0.00000000000E+00 0. -1.
         -4   -1    0    0    0  501 -0.00000000000E+00 -0.00000000000E+00 -0.13886731223E+04  0.13886731223E+04  0.00000000000E+00 0. -1.
        -13    1    1    2    0    0  0.43309637011E+03 -0.17562700567E+02 -0.35335085715E+03  0.55922960729E+03  0.10566000000E+00 0.  1.
         13    1    1    2    0    0 -0.62013087481E+03  0.29935118990E+03 -0.69200964943E+03  0.97624320886E+03  0.10566000000E+00 0. -1.
         -4    1    1    2    0  502  0.18703450469E+03 -0.28178848934E+03  0.19278460040E+03  0.38929752224E+03  0.00000000000E+00 0. -1.
</event>
<event>
 5    1  0.4419198E-005  0.5216158E+03  0.7818608E-02  0.9572960E-01
         21   -1    0    0  501  502  0.00000000000E+00  0.00000000000E+00  0.15924955669E+04  0.15924955669E+04  0.00000000000E+00 0. -1.
         -4   -1    0    0    0  501 -0.00000000000E+00 -0.00000000000E+00 -0.38929245130E+03  0.38929245130E+03  0.00000000000E+00 0. -1.
        -13    1    1    2    0    0  0.20595694339E+03 -0.23492612219E+03 -0.54987375742E+02  0.31722573678E+03  0.10566000000E+00 0.  1.
         13    1    1    2    0    0  0.11227413424E+02 -0.38579295745E+03  0.24661368300E+03  0.45801810078E+03  0.10566000000E+00 0. -1.
         -4    1    1    2    0  502 -0.21718435681E+03  0.62071907965E+03  0.10115768083E+04  0.12065441806E+04  0.00000000000E+00 0. -1.
</event>
<event>
 5    1  0.4419198E-005  0.4188246E+02  0.7818608E-02  0.1346235E+00
         21   -1    0    0  501  502  0.00000000000E+00  0.00000000000E+00  0.17698014002E+03  0.17698014002E+03  0.00000000000E+00 0. -1.
          4   -1    0    0  502    0 -0.00000000000E+00 -0.00000000000E+00 -0.10041888986E+03  0.10041888986E+03  0.00000000000E+00 0.  1.
        -13    1    1    2    0    0 -0.15873577842E+02  0.14556544862E+02 -0.89620516860E+02  0.92172184948E+02  0.10566000000E+00 0.  1.
         13    1    1    2    0    0  0.96180009700E+01  0.28923957280E+02  0.10863268177E+03  0.11282806371E+03  0.10566000000E+00 0. -1.
          4    1    1    2  501    0  0.62555768722E+01 -0.43480502142E+02  0.57549085247E+02  0.72398781214E+02  0.00000000000E+00 0.  1.
</event>
<event>
 5    1  0.4419198E-005  0.1466173E+03  0.7818608E-02  0.1104496E+00
         -4   -1    0    0    0  501 -0.00000000000E+00  0.00000000000E+00  0.14767915027E+04  0.14767915027E+04  0.00000000000E+00 0. -1.
         21   -1    0    0  501  502  0.00000000000E+00 -0.00000000000E+00 -0.23242859512E+03  0.23242859512E+03  0.00000000000E+00 0. -1.
        -13    1    1    2    0    0  0.14292595862E+03 -0.32998852873E+02  0.42285323485E+02  0.15265914216E+03  0.10566000000E+00 0.  1.
         13    1    1    2    0    0 -0.13531776685E+03  0.61528568656E+02 -0.14588412153E+03  0.20827590082E+03  0.10566000000E+00 0. -1.
         -4    1    1    2    0  502 -0.76081917712E+01 -0.28529715783E+02  0.13479617056E+04  0.13482850548E+04  0.00000000000E+00 0. -1.
</event>
<event>
 5    1  0.4419198E-005  0.7097220E+03  0.7818608E-02  0.9108993E-01
         -4   -1    0    0    0  501 -0.00000000000E+00  0.00000000000E+00  0.10338239507E+04  0.10338239507E+04  0.00000000000E+00 0. -1.
         21   -1    0    0  501  502  0.00000000000E+00 -0.00000000000E+00 -0.64028070088E+03  0.64028070088E+03  0.00000000000E+00 0.  1.
        -13    1    1    2    0    0  0.38970425460E+03 -0.58104012082E+03  0.21477279687E+03  0.73184998018E+03  0.10566000000E+00 0.  1.
         13    1    1    2    0    0 -0.40837105924E+03  0.59148270377E+03  0.32902091607E+03  0.79048939604E+03  0.10566000000E+00 0. -1.
         -4    1    1    2    0  502  0.18666804647E+02 -0.10442582949E+02 -0.15025046313E+03  0.15176527536E+03  0.00000000000E+00 0. -1.
</event>
<event>
 5    1  0.4419198E-005  0.2887306E+03  0.7818608E-02  0.1012069E+00
         21   -1    0    0  501  502  0.00000000000E+00  0.00000000000E+00  0.16883246588E+03  0.16883246588E+03  0.00000000000E+00 0. -1.
          4   -1    0    0  502    0 -0.00000000000E+00 -0.00000000000E+00 -0.19850008179E+04  0.19850008179E+04  0.00000000000E+00 0.  1.
        -13    1    1    2    0    0  0.21560086187E+03  0.21436884999E+03 -0.18106302599E+04  0.18359792169E+04  0.10566000000E+00 0.  1.
         13    1    1    2    0    0 -0.92212715082E+02 -0.15196408273E+03  0.13560283783E+02  0.17826990695E+03  0.10566000000E+00 0. -1.
          4    1    1    2  501    0 -0.12338814678E+03 -0.62404767257E+02 -0.19098375859E+02  0.13958415993E+03  0.00000000000E+00 0.  1.
</event>
<event>
 5    1  0.4419198E-005  0.5371852E+02  0.7818608E-02  0.1277347E+00
         21   -1    0    0  501  502  0.00000000000E+00  0.00000000000E+00  0.85543208206E+02  0.85543208206E+02  0.00000000000E+00 0.  1.
         -4   -1    0    0    0  501 -0.00000000000E+00 -0.00000000000E+00 -0.62273240471E+02  0.62273240471E+02  0.00000000000E+00 0. -1.
        -13    1    1    2    0    0  0.46982827601E+02 -0.75598526029E+01 -0.98235038627E+00  0.47597412084E+02  0.10566000000E+00 0.  1.
         13    1    1    2    0    0 -0.57027375105E+02  0.35371607441E+02  0.11809418219E+02  0.68137696226E+02  0.10566000000E+00 0. -1.
         -4    1    1    2    0  502  0.10044547504E+02 -0.27811754838E+02  0.12442899903E+02  0.32081340367E+02  0.00000000000E+00 0. -1.
</event>
<event>
 5    1  0.4419198E-005  0.5026792E+03  0.7818608E-02  0.9569104E-01
         21   -1    0    0  501  502  0.00000000000E+00  0.00000000000E+00  0.71520968903E+03  0.71520968903E+03  0.00000000000E+00 0. -1.
         -4   -1    0    0    0  501 -0.00000000000E+00 -0.00000000000E+00 -0.13202722312E+04  0.13202722312E+04  0.00000000000E+00 0. -1.
        -13    1    1    2    0    0  0.35054492258E+03 -0.48835143124E+02 -0.86466403490E+03  0.93429680421E+03  0.10566000000E+00 0.  1.
         13    1    1    2    0    0 -0.12434167968E+03 -0.47941075533E+03  0.13165530290E+03  0.51247307790E+03  0.10566000000E+00 0. -1.
         -4    1    1    2    0  502 -0.22620324290E+03  0.52824589845E+03  0.12794618983E+03  0.58871203812E+03  0.00000000000E+00 0. -1.
</event>
<event>
 5    1  0.4419198E-005  0.2535433E+03  0.7818608E-02  0.1075213E+00
          4   -1    0    0  502    0 -0.00000000000E+00  0.00000000000E+00  0.13294184503E+03  0.13294184503E+03  0.00000000000E+00 0.  1.
         21   -1    0    0  501  502  0.00000000000E+00 -0.00000000000E+00 -0.13384214682E+04  0.13384214682E+04  0.00000000000E+00 0.  1.
        -13    1    1    2    0    0 -0.20248189815E+03 -0.10456286936E+03 -0.63146137239E+01  0.22797411747E+03  0.10566000000E+00 0.  1.
         13    1    1    2    0    0 -0.48523872349E+02  0.41161030737E+02 -0.34627592971E+03  0.35207361063E+03  0.10566000000E+00 0. -1.
          4    1    1    2  501    0  0.25100577050E+03  0.63401838623E+02 -0.85288907975E+03  0.89131558514E+03  0.00000000000E+00 0.  1.
</event>
<event>
 5    1  0.4419198E-005  0.4461011E+03  0.7818608E-02  0.1000973E+00
         -4   -1    0    0    0  501 -0.00000000000E+00  0.00000000000E+00  0.82840448000E+03  0.82840448000E+03  0.00000000000E+00 0. -1.
         21   -1    0    0  501  502  0.00000000000E+00 -0.00000000000E+00 -0.39793261166E+03  0.39793261166E+03  0.00000000000E+00 0. -1.
        -13    1    1    2    0    0 -0.78220893879E+02 -0.80284132721E+02 -0.63028269360E+02  0.12859480592E+03  0.10566000000E+00 0.  1.
         13    1    1    2    0    0  0.24882635610E+03 -0.36093120733E+03  0.36349777365E+02  0.43989454349E+03  0.10566000000E+00 0. -1.
         -4    1    1    2    0  502 -0.17060546222E+03  0.44121534005E+03  0.45715036034E+03  0.65784774226E+03  0.00000000000E+00 0. -1.
</event>
<event>
 5    1  0.4419198E-005  0.3944205E+03  0.7818608E-02  0.9877154E-01
         21   -1    0    0  501  502  0.00000000000E+00  0.00000000000E+00  0.31488268634E+03  0.31488268634E+03  0.00000000000E+00 0.  1.
          4   -1    0    0  502    0 -0.00000000000E+00 -0.00000000000E+00 -0.22098237596E+04  0.22098237596E+04  0.00000000000E+00 0.  1.
        -13    1    1    2    0    0  0.68128676247E+02  0.59323751039E+03 -0.59593745487E+03  0.84363127108E+03  0.10566000000E+00 0.  1.
         13    1    1    2    0    0 -0.51371023085E+02 -0.24641500180E+03 -0.13097140015E+04  0.13336829128E+04  0.10566000000E+00 0. -1.
          4    1    1    2  501    0 -0.16757653162E+02 -0.34682250858E+03  0.10710383113E+02  0.34739226201E+03  0.00000000000E+00 0.  1.
</event>
<event>
 5    1  0.4419198E-005  0.4595278E+03  0.7818608E-02  0.9765041E-01
          4   -1    0    0  502    0 -0.00000000000E+00  0.00000000000E+00  0.20295401523E+04  0.20295401523E+04  0.00000000000E+00 0.  1.
         21   -1    0    0  501  502  0.00000000000E+00 -0.00000000000E+00 -0.19099922777E+03  0.19099922777E+03  0.00000000000E+00 0.  1.
        -13    1    1    2    0    0 -0.39998076531E+03  0.10723134707E+02  0.46283842841E+03  0.61181616538E+03  0.10566000000E+00 0.  1.
         13    1    1    2    0    0 -0.14425241729E+03 -0.18298422465E+03  0.61495664989E+03  0.65761970680E+03  0.10566000000E+00 0. -1.
          4    1    1    2  501    0  0.54423318260E+03  0.17226108994E+03  0.76074584621E+03  0.95110350787E+03  0.00000000000E+00 0.  1.
</event>
<event>
 5    1  0.4419198E-005  0.4029397E+03  0.7818608E-02  0.9985817E-01
         21   -1    0    0  501  502  0.00000000000E+00  0.00000000000E+00  0.12015648933E+03  0.12015648933E+03  0.00000000000E+00 0.  1.
          4   -1    0    0  502    0 -0.00000000000E+00 -0.00000000000E+00 -0.29612868927E+04  0.29612868927E+04  0.00000000000E+00 0.  1.
        -13    1    1    2    0    0 -0.60466246960E+02  0.45000420239E+03 -0.17736954912E+04  0.18308893074E+04  0.10566000000E+00 0.  1.
         13    1    1    2    0    0  0.15110356409E+03 -0.65055642706E+02 -0.66991809457E+03  0.68982228749E+03  0.10566000000E+00 0. -1.
          4    1    1    2  501    0 -0.90637317130E+02 -0.38494855968E+03 -0.39751681762E+03  0.56073178718E+03  0.00000000000E+00 0.  1.
</event>
<event>
 5    1  0.4419198E-005  0.1943037E+03  0.7818608E-02  0.1064113E+00
         21   -1    0    0  501  502  0.00000000000E+00  0.00000000000E+00  0.42482993030E+03  0.42482993030E+03  0.00000000000E+00 0. -1.
         -4   -1    0    0    0  501 -0.00000000000E+00 -0.00000000000E+00 -0.93980454503E+03  0.93980454503E+03  0.00000000000E+00 0. -1.
        -13    1    1    2    0    0  0.46882015935E+02 -0.18717932811E+03 -0.26318592421E+03  0.32634470450E+03  0.10566000000E+00 0.  1.
         13    1    1    2    0    0  0.64532559000E+02  0.23062976857E+03  0.35035504477E+03  0.42438568530E+03  0.10566000000E+00 0. -1.
         -4    1    1    2    0  502 -0.11141457494E+03 -0.43450440464E+02 -0.60214373529E+03  0.61390408554E+03  0.00000000000E+00 0. -1.
</event>
<event>
 5    1  0.4419198E-005  0.5105088E+02  0.7818608E-02  0.1291189E+00
         -4   -1    0    0    0  501 -0.00000000000E+00  0.00000000000E+00  0.14069007110E+03  0.14069007110E+03  0.00000000000E+00 0. -1.
         21   -1    0    0  501  502  0.00000000000E+00 -0.00000000000E+00 -0.68508413010E+02  0.68508413010E+02  0.00000000000E+00 0. -1.
        -13    1    1    2    0    0  0.47455148310E+02 -0.27133939043E+01 -0.13393507482E+01  0.47551641739E+02  0.10566000000E+00 0.  1.
         13    1    1    2    0    0 -0.42513509584E+02  0.53206751979E+02  0.85704603229E+02  0.10946984577E+03  0.10566000000E+00 0. -1.
         -4    1    1    2    0  502 -0.49416387262E+01 -0.50493358075E+02 -0.12183594386E+02  0.52176996609E+02  0.00000000000E+00 0. -1.
</event>
<event>
 5    1  0.4419198E-005  0.5328743E+03  0.7818608E-02  0.9408690E-01
         21   -1    0    0  501  502  0.00000000000E+00  0.00000000000E+00  0.44943399595E+03  0.44943399595E+03  0.00000000000E+00 0.  1.
          4   -1    0    0  502    0 -0.00000000000E+00 -0.00000000000E+00 -0.12961638730E+04  0.12961638730E+04  0.00000000000E+00 0.  1.
        -13    1    1    2    0    0  0.50888510379E+03  0.38073803422E+03 -0.65488958378E+03  0.91258198408E+03  0.10566000000E+00 0.  1.
         13    1    1    2    0    0 -0.35764152978E+03 -0.75185712488E+02  0.10577078231E+03  0.38045738886E+03  0.10566000000E+00 0. -1.
          4    1    1    2  501    0 -0.15124357401E+03 -0.30555232173E+03 -0.29761107555E+03  0.45255849599E+03  0.00000000000E+00 0.  1.
</event>
<event>
 5    1  0.4419198E-005  0.6526418E+02  0.7818608E-02  0.1259643E+00
          4   -1    0    0  502    0 -0.00000000000E+00  0.00000000000E+00  0.16441260844E+03  0.16441260844E+03  0.00000000000E+00 0.  1.
         21   -1    0    0  501  502  0.00000000000E+00 -0.00000000000E+00 -0.71047195112E+02  0.71047195112E+02  0.00000000000E+00 0.  1.
        -13    1    1    2    0    0  0.94282124962E+02 -0.32393115310E+02  0.88459612335E+02  0.13327995793E+03  0.10566000000E+00 0.  1.
         13    1    1    2    0    0 -0.38444006811E+02  0.19179143864E+02  0.11355795835E+02  0.44438119696E+02  0.10566000000E+00 0. -1.
          4    1    1    2  501    0 -0.55838118151E+02  0.13213971446E+02 -0.64499948385E+01  0.57741725931E+02  0.00000000000E+00 0.  1.
</event>
<event>
 5    1  0.4419198E-005  0.5683068E+03  0.7818608E-02  0.9339640E-01
         21   -1    0    0  501  502  0.00000000000E+00  0.00000000000E+00  0.10606000048E+04  0.10606000048E+04  0.00000000000E+00 0. -1.
          4   -1    0    0  502    0 -0.00000000000E+00 -0.00000000000E+00 -0.63578726250E+03  0.63578726250E+03  0.00000000000E+00 0.  1.
        -13    1    1    2    0    0  0.65045995635E+03  0.55574749791E+02 -0.15733097515E+03  0.67152047961E+03  0.10566000000E+00 0.  1.
         13    1    1    2    0    0 -0.41792898096E+03  0.22854474736E+03  0.32855932228E+03  0.57866101830E+03  0.10566000000E+00 0. -1.
          4    1    1    2  501    0 -0.23253097538E+03 -0.28411949715E+03  0.25358439519E+03  0.44620576941E+03  0.00000000000E+00 0.  1.
</event>
<event>
 5    1  0.4419198E-005  0.4554077E+03  0.7818608E-02  0.9581460E-01
         21   -1    0    0  501  502  0.00000000000E+00  0.00000000000E+00  0.20298510495E+03  0.20298510495E+03  0.00000000000E+00 0. -1.
          4   -1    0    0  502    0 -0.00000000000E+00 -0.00000000000E+00 -0.28410709233E+04  0.28410709233E+04  0.00000000000E+00 0.  1.
        -13    1    1    2    0    0 -0.46224157920E+03 -0.12847765010E+03 -0.23736056432E+04  0.24216063976E+04  0.10566000000E+00 0.  1.
         13    1    1    2    0    0  0.31310194622E+03  0.20085660459E+03 -0.26490568991E+03  0.45667410704E+03  0.10566000000E+00 0. -1.
          4    1    1    2  501    0  0.14913963298E+03 -0.72378954490E+02  0.42551475669E+00  0.16577552365E+03  0.00000000000E+00 0.  1.
</event>
<event>
 5    1  0.4419198E-005  0.2783183E+03  0.7818608E-02  0.1016679E+00
         21   -1    0    0  501  502  0.00000000000E+00  0.00000000000E+00  0.15850048227E+03  0.15850048227E+03  0.00000000000E+00 0.  1.
          4   -1    0    0  502    0 -0.00000000000E+00 -0.00000000000E+00 -0.13173408124E+04  0.13173408124E+04  0.00000000000E+00 0.  1.
        -13    1    1    2    0    0 -0.12316407780E+03  0.27792984102E+03 -0.78169374459E+03  0.83872492993E+03  0.10566000000E+00 0.  1.
         13    1    1    2    0    0  0.11197992010E+03 -0.22379102767E+03 -0.46803603698E+03  0.53073502772E+03  0.10566000000E+00 0. -1.
          4    1    1    2  501    0  0.11184157698E+02 -0.54138813349E+02  0.90889451413E+02  0.10638133705E+03  0.00000000000E+00 0.  1.
</event>
<event>
 5    1  0.4419198E-005  0.4577991E+03  0.7818608E-02  0.9706844E-01
         21   -1    0    0  501  502  0.00000000000E+00  0.00000000000E+00  0.20217803444E+03  0.20217803444E+03  0.00000000000E+00 0. -1.
         -4   -1    0    0    0  501 -0.00000000000E+00 -0.00000000000E+00 -0.27349716006E+04  0.27349716006E+04  0.00000000000E+00 0. -1.
        -13    1    1    2    0    0  0.23680520669E+03 -0.16424191902E+03 -0.12734439394E+04  0.13056460438E+04  0.10566000000E+00 0.  1.
         13    1    1    2    0    0 -0.24001375546E+03  0.56614293191E+03 -0.91398809956E+03  0.11015891609E+04  0.10566000000E+00 0. -1.
         -4    1    1    2    0  502  0.32085487745E+01 -0.40190101289E+03 -0.34536152722E+03  0.52991443029E+03  0.00000000000E+00 0. -1.
</event>
<event>
 5    1  0.4419198E-005  0.7889772E+02  0.7818608E-02  0.1256922E+00
         21   -1    0    0  501  502  0.00000000000E+00  0.00000000000E+00  0.45466571182E+03  0.45466571182E+03  0.00000000000E+00 0.  1.
          4   -1    0    0  502    0 -0.00000000000E+00 -0.00000000000E+00 -0.56080654294E+02  0.56080654294E+02  0.00000000000E+00 0.  1.
        -13    1    1    2    0    0  0.32716922665E+02  0.61667501200E+02 -0.24347185677E+02  0.73932904362E+02  0.10566000000E+00 0.  1.
         13    1    1    2    0    0 -0.19157853914E+02  0.17171828793E+02  0.62071705209E+02  0.67192282461E+02  0.10566000000E+00 0. -1.
          4    1    1    2  501    0 -0.13559068751E+02 -0.78839329994E+02  0.36086053799E+03  0.36962117929E+03  0.00000000000E+00 0.  1.
</event>
<event>
 5    1  0.4419198E-005  0.1558068E+03  0.7818608E-02  0.1095522E+00
         -4   -1    0    0    0  501 -0.00000000000E+00  0.00000000000E+00  0.12870397949E+03  0.12870397949E+03  0.00000000000E+00 0. -1.
         21   -1    0    0  501  502  0.00000000000E+00 -0.00000000000E+00 -0.23998047787E+03  0.23998047787E+03  0.00000000000E+00 0.  1.
        -13    1    1    2    0    0 -0.90404519758E+01 -0.15222679788E+03 -0.25937215196E+02  0.15468509321E+03  0.10566000000E+00 0.  1.
         13    1    1    2    0    0  0.17230346229E+02  0.15863070646E+03 -0.35997073747E+02  0.16357379480E+03  0.10566000000E+00 0. -1.
         -4    1    1    2    0  502 -0.81898942528E+01 -0.64039085812E+01 -0.49342209429E+02  0.50425569350E+02  0.00000000000E+00 0. -1.
</event>
<event>
 5    1  0.4419198E-005  0.3670486E+03  0.7818608E-02  0.9835116E-01
         21   -1    0    0  501  502  0.00000000000E+00  0.00000000000E+00  0.30876702590E+03  0.30876702590E+03  0.00000000000E+00 0.  1.
          4   -1    0    0  502    0 -0.00000000000E+00 -0.00000000000E+00 -0.17699167667E+04  0.17699167667E+04  0.00000000000E+00 0.  1.
        -13    1    1    2    0    0  0.10812490017E+03  0.28641291122E+03 -0.37813940798E+02  0.30846921245E+03  0.10566000000E+00 0.  1.
         13    1    1    2    0    0  0.22663537277E+03  0.29329076709E+03 -0.64213256463E+03  0.74142923328E+03  0.10566000000E+00 0. -1.
          4    1    1    2  501    0 -0.33476027293E+03 -0.57970367831E+03 -0.78120323543E+03  0.10287853469E+04  0.00000000000E+00 0.  1.
</event>
<event>
 5    1  0.4419198E-005  0.4427083E+03  0.7818608E-02  0.9613243E-01
         -4   -1    0    0    0  501 -0.00000000000E+00  0.00000000000E+00  0.34873945834E+03  0.34873945834E+03  0.00000000000E+00 0. -1.
         21   -1    0    0  501  502  0.00000000000E+00 -0.00000000000E+00 -0.79416361857E+03  0.79416361857E+03  0.00000000000E+00 0.  1.
        -13    1    1    2    0    0 -0.44085205494E+03  0.62929884175E+02 -0.28250297083E+03  0.52736955198E+03  0.10566000000E+00 0.  1.
         13    1    1    2    0    0  0.43838704393E+03 -0.51214669980E+02  0.10701858360E+02  0.44149822609E+03  0.10566000000E+00 0. -1.
         -4    1    1    2    0  502  0.24650110127E+01 -0.11715214194E+02 -0.17362304777E+03  0.17403529883E+03  0.00000000000E+00 0. -1.
</event>
<event>
 5    1  0.4419198E-005  0.1996644E+03  0.7818608E-02  0.1076748E+00
         21   -1    0    0  501  502  0.00000000000E+00  0.00000000000E+00  0.36591933964E+03  0.36591933964E+03  0.00000000000E+00 0.  1.
          4   -1    0    0  502    0 -0.00000000000E+00 -0.00000000000E+00 -0.12093269104E+04  0.12093269104E+04  0.00000000000E+00 0.  1.
        -13    1    1    2    0    0  0.20068042184E+03  0.15661273725E+03 -0.66591790629E+03  0.71291433585E+03  0.10566000000E+00 0.  1.
         13    1    1    2    0    0 -0.46770384777E+01 -0.12466600456E+03 -0.48250089307E+03  0.49836794676E+03  0.10566000000E+00 0. -1.
          4    1    1    2  501    0 -0.19600338336E+03 -0.31946732690E+02  0.30501122860E+03  0.36396396743E+03  0.00000000000E+00 0.  1.
</event>
<event>
 5    1  0.4419198E-005  0.1716409E+03  0.7818608E-02  0.1081532E+00
         21   -1    0    0  501  502  0.00000000000E+00  0.00000000000E+00  0.59397132734E+03  0.59397132734E+03  0.00000000000E+00 0. -1.
          4   -1    0    0  502    0 -0.00000000000E+00 -0.00000000000E+00 -0.78940056218E+02  0.78940056218E+02  0.00000000000E+00 0.  1.
        -13    1    1    2    0    0  0.19179974490E+01 -0.17632347766E+03  0.16422983502E+03  0.24096700472E+03  0.10566000000E+00 0.  1.
         13    1    1    2    0    0  0.51359139124E+01  0.16760293104E+03  0.13344966127E+03  0.21430339093E+03  0.10566000000E+00 0. -1.
          4    1    1    2  501    0 -0.70539113614E+01  0.87205466125E+01  0.21735177483E+03  0.21764098791E+03  0.00000000000E+00 0.  1.
</event>
<event>
 5    1  0.4419198E-005  0.4442150E+03  0.7818608E-02  0.9880039E-01
          4   -1    0    0  502    0 -0.00000000000E+00  0.00000000000E+00  0.43230551691E+03  0.43230551691E+03  0.00000000000E+00 0.  1.
         21   -1    0    0  501  502  0.00000000000E+00 -0.00000000000E+00 -0.91495929869E+03  0.91495929869E+03  0.00000000000E+00 0.  1.
        -13    1    1    2    0    0 -0.53303720962E+03  0.19352597384E+01 -0.99184904239E+02  0.54219006673E+03  0.10566000000E+00 0.  1.
         13    1    1    2    0    0  0.13255298589E+03  0.11348891579E+03  0.71034177468E+02  0.18840353927E+03  0.10566000000E+00 0. -1.
          4    1    1    2  501    0  0.40048422373E+03 -0.11542417553E+03 -0.45450305501E+03  0.61667120961E+03  0.00000000000E+00 0.  1.
</event>
<event>
 5    1  0.4419198E-005  0.3807489E+03  0.7818608E-02  0.1026049E+00
         -4   -1    0    0    0  501 -0.00000000000E+00  0.00000000000E+00  0.90755914696E+03  0.90755914696E+03  0.00000000000E+00 0. -1.
         21   -1    0    0  501  502  0.00000000000E+00 -0.00000000000E+00 -0.57333883030E+03  0.57333883030E+03  0.00000000000E+00 0. -1.
        -13    1    1    2    0    0  0.80386856325E+02  0.97304024415E+01  0.27887626433E+03  0.29039405878E+03  0.10566000000E+00 0.  1.
         13    1    1    2    0    0  0.28498878597E+03  0.24036484579E+03 -0.40590044032E+03  0.55113432649E+03  0.10566000000E+00 0. -1.
         -4    1    1    2    0  502 -0.36537564230E+03 -0.25009524823E+03  0.46124449265E+03  0.63936959199E+03  0.00000000000E+00 0. -1.
</event>
<event>
 5    1  0.4419198E-005  0.4721563E+03  0.7818608E-02  0.9799089E-01
         21   -1    0    0  501  502  0.00000000000E+00  0.00000000000E+00  0.18858093125E+03  0.18858093125E+03  0.00000000000E+00 0. -1.
         -4   -1    0    0    0  501 -0.00000000000E+00 -0.00000000000E+00 -0.22083787649E+04  0.22083787649E+04  0.00000000000E+00 0. -1.
        -13    1    1    2    0    0 -0.81918001122E+01 -0.19097836513E+03 -0.77011062623E+03  0.79347982288E+03  0.10566000000E+00 0.  1.
         13    1    1    2    0    0 -0.42980913522E+03 -0.60314913966E+02 -0.86808813790E+03  0.97054150241E+03  0.10566000000E+00 0. -1.
         -4    1    1    2    0  502  0.43800093533E+03  0.25129327909E+03 -0.38159906956E+03  0.63293837090E+03  0.00000000000E+00 0. -1.
</event>
<event>
 5    1  0.4419198E-005  0.2908470E+03  0.7818608E-02  0.1011157E+00
         -4   -1    0    0    0  501 -0.00000000000E+00  0.00000000000E+00  0.90161945908E+03  0.90161945908E+03  0.00000000000E+00 0. -1.
         21   -1    0    0  501  502  0.00000000000E+00 -0.00000000000E+00 -0.51214746164E+03  0.51214746164E+03  0.00000000000E+00 0. -1.
        -13    1    1    2    0    0 -0.28148476045E+03 -0.11340598070E+03 -0.18521671307E+02  0.30403560696E+03  0.10566000000E+00 0.  1.
         13    1    1    2    0    0  0.22198243667E+03  0.18804302988E+03  0.72366002648E+03  0.77994886266E+03  0.10566000000E+00 0. -1.
         -4    1    1    2    0  502  0.59502323783E+02 -0.74637049179E+02 -0.31566635773E+03  0.32978245109E+03  0.00000000000E+00 0. -1.
</event>
<event>
 5    1  0.4419198E-005  0.8587450E+02  0.7818608E-02  0.1190312E+00
         -4   -1    0    0    0  501 -0.00000000000E+00  0.00000000000E+00  0.92292581150E+02  0.92292581150E+02  0.00000000000E+00 0. -1.
         21   -1    0    0  501  502  0.00000000000E+00 -0.00000000000E+00 -0.18620148450E+03  0.18620148450E+03  0.00000000000E+00 0. -1.
        -13    1    1    2    0    0 -0.33788015625E+01 -0.72762100438E+02  0.88642535850E+01  0.73377964784E+02  0.10566000000E+00 0.  1.
         13    1    1    2    0    0  0.24722236287E+01  0.11548643062E+03 -0.27787335626E+02  0.11880814254E+03  0.10566000000E+00 0. -1.
         -4    1    1    2    0  502  0.90657793382E+00 -0.42724330185E+02 -0.74985821310E+02  0.86307958328E+02  0.00000000000E+00 0. -1.
</event>
<event>
 5    1  0.4419198E-005  0.4182167E+03  0.7818608E-02  0.9677861E-01
         21   -1    0    0  501  502  0.00000000000E+00  0.00000000000E+00  0.18658528184E+03  0.18658528184E+03  0.00000000000E+00 0.  1.
          4   -1    0    0  502    0 -0.00000000000E+00 -0.00000000000E+00 -0.15787433153E+04  0.15787433153E+04  0.00000000000E+00 0.  1.
        -13    1    1    2    0    0  0.23576151196E+03 -0.34397232494E+03 -0.11322301443E+04  0.12065842539E+04  0.10566000000E+00 0.  1.
         13    1    1    2    0    0 -0.24747775193E+03  0.34162793183E+03 -0.29953496370E+03  0.51737422351E+03  0.10566000000E+00 0. -1.
          4    1    1    2  501    0  0.11716239977E+02  0.23443931007E+01  0.39607074523E+02  0.41370119779E+02  0.00000000000E+00 0.  1.
</event>
<event>
 5    1  0.4419198E-005  0.1449725E+03  0.7818608E-02  0.1106178E+00
         21   -1    0    0  501  502  0.00000000000E+00  0.00000000000E+00  0.26512201602E+02  0.26512201602E+02  0.00000000000E+00 0. -1.
          4   -1    0    0  502    0 -0.00000000000E+00 -0.00000000000E+00 -0.12365242451E+04  0.12365242451E+04  0.00000000000E+00 0.  1.
        -13    1    1    2    0    0  0.89321456918E+02 -0.12075555200E+03 -0.65645835269E+03  0.67342245729E+03  0.10566000000E+00 0.  1.
         13    1    1    2    0    0 -0.33794511745E+02  0.13984476229E+03 -0.37484194649E+03  0.40150357729E+03  0.10566000000E+00 0. -1.
          4    1    1    2  501    0 -0.55526945173E+02 -0.19089210288E+02 -0.17871174428E+03  0.18811041208E+03  0.00000000000E+00 0.  1.
</event>
<event>
 5    1  0.4419198E-005  0.1642214E+03  0.7818608E-02  0.1087875E+00
         21   -1    0    0  501  502  0.00000000000E+00  0.00000000000E+00  0.12083421301E+03  0.12083421301E+03  0.00000000000E+00 0. -1.
         -4   -1    0    0    0  501 -0.00000000000E+00 -0.00000000000E+00 -0.47085446259E+03  0.47085446259E+03  0.00000000000E+00 0. -1.
        -13    1    1    2    0    0 -0.12617483299E+03 -0.10383552897E+03 -0.30877442211E+03  0.34934733500E+03  0.10566000000E+00 0.  1.
         13    1    1    2    0    0  0.14092615281E+03  0.89780550344E+02 -0.89791990395E+02  0.18969275281E+03  0.10566000000E+00 0. -1.
         -4    1    1    2    0  502 -0.14751319818E+02  0.14054978624E+02  0.48546162929E+02  0.52648587784E+02  0.00000000000E+00 0. -1.
</event>
<event>
 5    1  0.4419198E-005  0.3352495E+03  0.7818608E-02  0.1005045E+00
         21   -1    0    0  501  502  0.00000000000E+00  0.00000000000E+00  0.31905559165E+03  0.31905559165E+03  0.00000000000E+00 0. -1.
         -4   -1    0    0    0  501 -0.00000000000E+00 -0.00000000000E+00 -0.22863880178E+04  0.22863880178E+04  0.00000000000E+00 0. -1.
        -13    1    1    2    0    0 -0.22167623207E+03  0.66009421779E+02 -0.13761703262E+04  0.13954720970E+04  0.10566000000E+00 0.  1.
         13    1    1    2    0    0 -0.18120423052E+03  0.25505205505E+03  0.11719115927E+03  0.33409624799E+03  0.10566000000E+00 0. -1.
         -4    1    1    2    0  502  0.40288046259E+03 -0.32106147683E+03 -0.70835325920E+03  0.87587526444E+03  0.00000000000E+00 0. -1.
</event>
<event>
 5    1  0.4419198E-005  0.6996523E+02  0.7818608E-02  0.1240552E+00
         21   -1    0    0  501  502  0.00000000000E+00  0.00000000000E+00  0.57157706389E+03  0.57157706389E+03  0.00000000000E+00 0.  1.
          4   -1    0    0  502    0 -0.00000000000E+00 -0.00000000000E+00 -0.37395421810E+02  0.37395421810E+02  0.00000000000E+00 0.  1.
        -13    1    1    2    0    0 -0.51375445336E+02  0.48156122032E+02  0.11104045825E+02  0.71286460639E+02  0.10566000000E+00 0.  1.
         13    1    1    2    0    0  0.46196731164E+02  0.23984690408E+02  0.22986029090E+03  0.23568022370E+03  0.10566000000E+00 0. -1.
          4    1    1    2  501    0  0.51787141721E+01 -0.72140812440E+02  0.29321730535E+03  0.30200580136E+03  0.00000000000E+00 0.  1.
</event>
<event>
 5    1  0.4419198E-005  0.2733227E+03  0.7818608E-02  0.1020483E+00
         -4   -1    0    0    0  501 -0.00000000000E+00  0.00000000000E+00  0.12793930618E+04  0.12793930618E+04  0.00000000000E+00 0. -1.
         21   -1    0    0  501  502  0.00000000000E+00 -0.00000000000E+00 -0.29951217647E+03  0.29951217647E+03  0.00000000000E+00 0. -1.
        -13    1    1    2    0    0 -0.14430157968E+02 -0.27955872090E+03  0.37993648162E+03  0.47192483418E+03  0.10566000000E+00 0.  1.
         13    1    1    2    0    0  0.25011791199E+03 -0.68751176512E+02 -0.11005227667E+03  0.28177510347E+03  0.10566000000E+00 0. -1.
         -4    1    1    2    0  502 -0.23568775402E+03  0.34830989741E+03  0.70999668037E+03  0.82520530062E+03  0.00000000000E+00 0. -1.
</event>
<event>
 5    1  0.4419198E-005  0.5309565E+03  0.7818608E-02  0.9412586E-01
         21   -1    0    0  501  502  0.00000000000E+00  0.00000000000E+00  0.27630277893E+03  0.27630277893E+03  0.00000000000E+00 0. -1.
         -4   -1    0    0    0  501 -0.00000000000E+00 -0.00000000000E+00 -0.26529347984E+04  0.26529347984E+04  0.00000000000E+00 0. -1.
        -13    1    1    2    0    0  0.26407629328E+03 -0.47386038134E+03 -0.10900478043E+04  0.12175730682E+04  0.10566000000E+00 0.  1.
         13    1    1    2    0    0 -0.45537168415E+03  0.29626107849E+03 -0.17636586660E+03  0.57117329018E+03  0.10566000000E+00 0. -1.
         -4    1    1    2    0  502  0.19129539086E+03  0.17759930285E+03 -0.11102183485E+04  0.11404912189E+04  0.00000000000E+00 0. -1.
</event>
<event>
 5    1  0.4419198E-005  0.4485032E+03  0.7818608E-02  0.9697909E-01
         21   -1    0    0  501  502  0.00000000000E+00  0.00000000000E+00  0.12080137684E+04  0.12080137684E+04  0.00000000000E+00 0. -1.
         -4   -1    0    0    0  501 -0.00000000000E+00 -0.00000000000E+00 -0.43480717180E+03  0.43480717180E+03  0.00000000000E+00 0. -1.
        -13    1    1    2    0    0  0.62005901476E+02  0.31002310445E+03 -0.31886133043E+02  0.31776688587E+03  0.10566000000E+00 0.  1.
         13    1    1    2    0    0 -0.36126441182E+03  0.93341654156E+02 -0.35309458115E+01  0.37314490267E+03  0.10566000000E+00 0. -1.
         -4    1    1    2    0  502  0.29925851034E+03 -0.40336475861E+03  0.80862367541E+03  0.95190915162E+03  0.00000000000E+00 0. -1.
</event>
<event>
 5    1  0.4419198E-005  0.2260988E+03  0.7818608E-02  0.1043581E+00
         21   -1    0    0  501  502  0.00000000000E+00  0.00000000000E+00  0.30871908747E+03  0.30871908747E+03  0.00000000000E+00 0. -1.
         -4   -1    0    0    0  501 -0.00000000000E+00 -0.00000000000E+00 -0.77296673421E+03  0.77296673421E+03  0.00000000000E+00 0. -1.
        -13    1    1    2    0    0 -0.52745312229E+02  0.21813029340E+03  0.16509409434E+03  0.27860180188E+03  0.10566000000E+00 0.  1.
         13    1    1    2    0    0  0.89254411313E+02 -0.20814318085E+03 -0.69297560944E+03  0.72904399052E+03  0.10566000000E+00 0. -1.
         -4    1    1    2    0  502 -0.36509099084E+02 -0.99871125557E+01  0.63633868367E+02  0.74040029285E+02  0.00000000000E+00 0. -1.
</event>
<event>
 5    1  0.4419198E-005  0.3322617E+03  0.7818608E-02  0.9948135E-01
          4   -1    0    0  502    0 -0.00000000000E+00  0.00000000000E+00  0.85833431796E+03  0.85833431796E+03  0.00000000000E+00 0.  1.
         21   -1    0    0  501  502  0.00000000000E+00 -0.00000000000E+00 -0.56757939556E+03  0.56757939556E+03  0.00000000000E+00 0.  1.
        -13    1    1    2    0    0 -0.36917115658E+03  0.37133149408E+01 -0.33952866163E+03  0.50157836356E+03  0.10566000000E+00 0.  1.
         13    1    1    2    0    0  0.27896013177E+03  0.18738912014E+03  0.95575651650E+02  0.34938253221E+03  0.10566000000E+00 0. -1.
          4    1    1    2  501    0  0.90211024808E+02 -0.19110243508E+03  0.53470793238E+03  0.57495281775E+03  0.00000000000E+00 0.  1.
</event>
<event>
 5    1  0.4419198E-005  0.2169672E+03  0.7818608E-02  0.1049088E+00
         21   -1    0    0  501  502  0.00000000000E+00  0.00000000000E+00  0.18334516702E+03  0.18334516702E+03  0.00000000000E+00 0. -1.
          4   -1    0    0  502    0 -0.00000000000E+00 -0.00000000000E+00 -0.38640626363E+03  0.38640626363E+03  0.00000000000E+00 0.  1.
        -13    1    1    2    0    0  0.59046055423E+02  0.19816067008E+03 -0.15041342379E+03  0.25569180090E+03  0.10566000000E+00 0.  1.
         13    1    1    2    0    0 -0.10498207816E+03 -0.20963814846E+03 -0.92627703595E+02  0.25208985038E+03  0.10566000000E+00 0. -1.
          4    1    1    2  501    0  0.45936022735E+02  0.11477478388E+02  0.39980030779E+02  0.61969779376E+02  0.00000000000E+00 0.  1.
</event>
<event>
 5    1  0.4419198E-005  0.3874193E+03  0.7818608E-02  0.9884192E-01
         -4   -1    0    0    0  501 -0.00000000000E+00  0.00000000000E+00  0.11918924353E+04  0.11918924353E+04  0.00000000000E+00 0. -1.
         21   -1    0    0  501  502  0.00000000000E+00 -0.00000000000E+00 -0.31366626488E+03  0.31366626488E+03  0.00000000000E+00 0. -1.
        -13    1    1    2    0    0 -0.16699520644E+03 -0.19849989807E+03  0.47733027255E+03  0.54326219155E+03  0.10566000000E+00 0.  1.
         13    1    1    2    0    0  0.37224128782E+03 -0.15307736204E+03  0.38176619276E+03  0.55474470905E+03  0.10566000000E+00 0. -1.
         -4    1    1    2    0  502 -0.20524608138E+03  0.35157726011E+03  0.19129705134E+02  0.40755179961E+03  0.00000000000E+00 0. -1.
</event>
<event>
 5    1  0.4419198E-005  0.4321197E+03  0.7818608E-02  0.9849093E-01
         21   -1    0    0  501  502  0.00000000000E+00  0.00000000000E+00  0.27767272241E+03  0.27767272241E+03  0.00000000000E+00 0.  1.
          4   -1    0    0  502    0 -0.00000000000E+00 -0.00000000000E+00 -0.20453507166E+04  0.20453507166E+04  0.00000000000E+00 0.  1.
        -13    1    1    2    0    0  0.35115107633E+03 -0.25162225987E+03 -0.53595456598E+02  0.43530830936E+03  0.10566000000E+00 0.  1.
         13    1    1    2    0    0 -0.13251464367E+03 -0.16342776155E+03 -0.10723760905E+04  0.10928216939E+04  0.10566000000E+00 0. -1.
          4    1    1    2  501    0 -0.21863643265E+03  0.41505002142E+03 -0.64170644714E+03  0.79489343579E+03  0.00000000000E+00 0.  1.
</event>
<event>
 5    1  0.4419198E-005  0.4309867E+02  0.7818608E-02  0.1322758E+00
         21   -1    0    0  501  502  0.00000000000E+00  0.00000000000E+00  0.36893523437E+02  0.36893523437E+02  0.00000000000E+00 0. -1.
         -4   -1    0    0    0  501 -0.00000000000E+00 -0.00000000000E+00 -0.16145058055E+03  0.16145058055E+03  0.00000000000E+00 0. -1.
        -13    1    1    2    0    0 -0.29801549689E+02  0.16476675737E+02 -0.67931073882E+01  0.34724208835E+02  0.10566000000E+00 0.  1.
         13    1    1    2    0    0  0.39314407739E+02 -0.22933036441E+02 -0.13524436158E+03  0.14269756592E+03  0.10566000000E+00 0. -1.
         -4    1    1    2    0  502 -0.95128580499E+01  0.64563607037E+01  0.17480411856E+02  0.20922329231E+02  0.00000000000E+00 0. -1.
</event>
<event>
 5    1  0.4419198E-005  0.4956083E+03  0.7818608E-02  0.9809913E-01
         21   -1    0    0  501  502  0.00000000000E+00  0.00000000000E+00  0.24500434197E+03  0.24500434197E+03  0.00000000000E+00 0. -1.
         -4   -1    0    0    0  501 -0.00000000000E+00 -0.00000000000E+00 -0.18947886691E+04  0.18947886691E+04  0.00000000000E+00 0. -1.
        -13    1    1    2    0    0  0.28584538355E+02  0.15670492925E+03 -0.79737452495E+03  0.81312954373E+03  0.10566000000E+00 0.  1.
         13    1    1    2    0    0 -0.55019607019E+02 -0.58494073624E+03 -0.49484439416E+03  0.76814959979E+03  0.10566000000E+00 0. -1.
         -4    1    1    2    0  502  0.26435068664E+02  0.42823580699E+03 -0.35756540806E+03  0.55851386759E+03  0.00000000000E+00 0. -1.
</event>
<event>
 5    1  0.4419198E-005  0.5676451E+03  0.7818608E-02  0.9340881E-01
         21   -1    0    0  501  502  0.00000000000E+00  0.00000000000E+00  0.94483702736E+03  0.94483702736E+03  0.00000000000E+00 0. -1.
         -4   -1    0    0    0  501 -0.00000000000E+00 -0.00000000000E+00 -0.19516246531E+04  0.19516246531E+04  0.00000000000E+00 0. -1.
        -13    1    1    2    0    0 -0.32493865083E+03 -0.48399292259E+03 -0.15209326252E+04  0.16288248332E+04  0.10566000000E+00 0.  1.
         13    1    1    2    0    0 -0.13651278979E+03  0.61794164537E+03  0.11548992493E+03  0.64329274268E+03  0.10566000000E+00 0. -1.
         -4    1    1    2    0  502  0.46145144062E+03 -0.13394872278E+03  0.39865507453E+03  0.62434410450E+03  0.00000000000E+00 0. -1.
</event>
<event>
 5    1  0.4419198E-005  0.4978089E+03  0.7818608E-02  0.9683989E-01
         -4   -1    0    0    0  501 -0.00000000000E+00  0.00000000000E+00  0.67972617847E+03  0.67972617847E+03  0.00000000000E+00 0. -1.
         21   -1    0    0  501  502  0.00000000000E+00 -0.00000000000E+00 -0.72788286784E+03  0.72788286784E+03  0.00000000000E+00 0. -1.
        -13    1    1    2    0    0 -0.16985808646E+03  0.17338606273E+03  0.21549853663E+03  0.32458300439E+03  0.10566000000E+00 0.  1.
         13    1    1    2    0    0 -0.59194045120E+01  0.42550608328E+03 -0.12689094231E+03  0.44406282062E+03  0.10566000000E+00 0. -1.
         -4    1    1    2    0  502  0.17577749097E+03 -0.59889214601E+03 -0.13676428369E+03  0.63896322130E+03  0.00000000000E+00 0. -1.
</event>
<event>
 5    1  0.6012173E-005  0.4936420E+03  0.7818608E-02  0.1011067E+00
         21   -1    0    0  501  502  0.00000000000E+00  0.00000000000E+00  0.12863976131E+03  0.12863976131E+03  0.00000000000E+00 0.  1.
          4   -1    0    0  502    0 -0.00000000000E+00 -0.00000000000E+00 -0.22375836728E+04  0.22375836728E+04  0.00000000000E+00 0.  1.
        -13    1    1    2    0    0  0.23878751637E+03  0.41458198749E+03 -0.78033823117E+03  0.91532806606E+03  0.10566000000E+00 0.  1.
         13    1    1    2    0    0  0.59326530773E+02  0.62806824522E+01 -0.22415084913E+03  0.23195408717E+03  0.10566000000E+00 0. -1.
          4    1    1    2  501    0 -0.29811404715E+03 -0.42086266995E+03 -0.11044548312E+04  0.12189412808E+04  0.00000000000E+00 0.  1.
</event>
<event>
 5    1  0.4419198E-005  0.1082725E+03  0.7818608E-02  0.1151549E+00
         21   -1    0    0  501  502  0.00000000000E+00  0.00000000000E+00  0.29609649404E+03  0.29609649404E+03  0.00000000000E+00 0.  1.
         -4   -1    0    0    0  501 -0.00000000000E+00 -0.00000000000E+00 -0.94922973493E+02  0.94922973493E+02  0.00000000000E+00 0. -1.
        -13    1    1    2    0    0  0.60681701085E+02  0.91825529845E+02  0.22686515135E+03  0.25215472401E+03  0.10566000000E+00 0.  1.
         13    1    1    2    0    0 -0.67450136358E+02 -0.84425691825E+02 -0.45039983271E+02  0.11707189924E+03  0.10566000000E+00 0. -1.
         -4    1    1    2    0  502  0.67684352734E+01 -0.73998380204E+01  0.19348352474E+02  0.21792844290E+02  0.00000000000E+00 0. -1.
</event>
<event>
 5    1  0.4419198E-005  0.5191921E+02  0.7818608E-02  0.1284166E+00
         21   -1    0    0  501  502  0.00000000000E+00  0.00000000000E+00  0.23732948303E+03  0.23732948303E+03  0.00000000000E+00 0.  1.
         -4   -1    0    0    0  501 -0.00000000000E+00 -0.00000000000E+00 -0.14633235508E+03  0.14633235508E+03  0.00000000000E+00 0. -1.
        -13    1    1    2    0    0 -0.43597394635E+02 -0.46082352428E+02  0.11298767199E+03  0.12957832075E+03  0.10566000000E+00 0.  1.
         13    1    1    2    0    0  0.21134335569E+02  0.47065483503E+02 -0.13203939903E+03  0.14176118629E+03  0.10566000000E+00 0. -1.
         -4    1    1    2    0  502  0.22463059066E+02 -0.98313107543E+00  0.11004885500E+03  0.11232233106E+03  0.00000000000E+00 0. -1.
</event>
<event>
 5    1  0.4419198E-005  0.7304281E+03  0.7818608E-02  0.9079969E-01
         21   -1    0    0  501  502  0.00000000000E+00  0.00000000000E+00  0.73776054159E+03  0.73776054159E+03  0.00000000000E+00 0.  1.
          4   -1    0    0  502    0 -0.00000000000E+00 -0.00000000000E+00 -0.19400974718E+04  0.19400974718E+04  0.00000000000E+00 0.  1.
        -13    1    1    2    0    0 -0.94497815961E+03 -0.46554416740E+01 -0.13504365177E+03  0.95459006611E+03  0.10566000000E+00 0.  1.
         13    1    1    2    0    0  0.68179467091E+03 -0.61985620388E+02 -0.12293275873E+04  0.14071007492E+04  0.10566000000E+00 0. -1.
          4    1    1    2  501    0  0.26318348870E+03  0.66641062062E+02  0.16203430885E+03  0.31616719805E+03  0.00000000000E+00 0.  1.
</event>
<event>
 5    1  0.4419198E-005  0.4776628E+03  0.7818608E-02  0.9736587E-01
         21   -1    0    0  501  502  0.00000000000E+00  0.00000000000E+00  0.20296151559E+03  0.20296151559E+03  0.00000000000E+00 0. -1.
         -4   -1    0    0    0  501 -0.00000000000E+00 -0.00000000000E+00 -0.19497848921E+04  0.19497848921E+04  0.00000000000E+00 0. -1.
        -13    1    1    2    0    0  0.21056449245E+03  0.89628485304E+02 -0.31192247564E+03  0.38686730649E+03  0.10566000000E+00 0.  1.
         13    1    1    2    0    0  0.33597113798E+03 -0.27779597530E+03 -0.46966230543E+03  0.64080410560E+03  0.10566000000E+00 0. -1.
         -4    1    1    2    0  502 -0.54653563042E+03  0.18816749000E+03 -0.96523859548E+03  0.11250749956E+04  0.00000000000E+00 0. -1.
</event>
<event>
 5    1  0.4419198E-005  0.5312163E+03  0.7818608E-02  0.9466276E-01
         21   -1    0    0  501  502  0.00000000000E+00  0.00000000000E+00  0.44358763940E+03  0.44358763940E+03  0.00000000000E+00 0.  1.
          4   -1    0    0  502    0 -0.00000000000E+00 -0.00000000000E+00 -0.25851248891E+04  0.25851248891E+04  0.00000000000E+00 0.  1.
        -13    1    1    2    0    0  0.37568972143E+03  0.20755108168E+03 -0.44143204763E+03  0.61569674527E+03  0.10566000000E+00 0.  1.
         13    1    1    2    0    0 -0.41589146420E+03  0.41416374293E+03 -0.16909677377E+04  0.17899355344E+04  0.10566000000E+00 0. -1.
          4    1    1    2  501    0  0.40201742765E+02 -0.62171482461E+03 -0.91374643387E+01  0.62308024886E+03  0.00000000000E+00 0.  1.
</event>
<event>
 5    1  0.4419198E-005  0.6895298E+02  0.7818608E-02  0.1267718E+00
         21   -1    0    0  501  502  0.00000000000E+00  0.00000000000E+00  0.19785261703E+02  0.19785261703E+02  0.00000000000E+00 0.  1.
          4   -1    0    0  502    0 -0.00000000000E+00 -0.00000000000E+00 -0.16688893673E+04  0.16688893673E+04  0.00000000000E+00 0.  1.
        -13    1    1    2    0    0 -0.53952686560E+02 -0.43984613903E+02 -0.62897283330E+02  0.93816939097E+02  0.10566000000E+00 0.  1.
         13    1    1    2    0    0  0.28105065074E+02 -0.12757194379E+02 -0.60880501436E+02  0.68257507355E+02  0.10566000000E+00 0. -1.
          4    1    1    2  501    0  0.25847621485E+02  0.56741808282E+02 -0.15253263208E+04  0.15266001825E+04  0.00000000000E+00 0.  1.
</event>
<event>
 5    1  0.4419198E-005  0.3144274E+03  0.7818608E-02  0.1004076E+00
          4   -1    0    0  502    0 -0.00000000000E+00  0.00000000000E+00  0.18279099282E+04  0.18279099282E+04  0.00000000000E+00 0.  1.
         21   -1    0    0  501  502  0.00000000000E+00 -0.00000000000E+00 -0.24286825814E+03  0.24286825814E+03  0.00000000000E+00 0. -1.
        -13    1    1    2    0    0  0.24948644840E+02 -0.22265740007E+03  0.12734517660E+04  0.12930112777E+04  0.10566000000E+00 0.  1.
         13    1    1    2    0    0 -0.28907262617E+03  0.11883355581E+02  0.33059799375E+03  0.43931679000E+03  0.10566000000E+00 0. -1.
          4    1    1    2  501    0  0.26412398133E+03  0.21077404449E+03 -0.19008089712E+02  0.33845011865E+03  0.00000000000E+00 0.  1.
</event>
<event>
 5    1  0.4419198E-005  0.1907309E+03  0.7818608E-02  0.1066683E+00
         21   -1    0    0  501  502  0.00000000000E+00  0.00000000000E+00  0.94502313077E+02  0.94502313077E+02  0.00000000000E+00 0.  1.
         -4   -1    0    0    0  501 -0.00000000000E+00 -0.00000000000E+00 -0.12164097392E+04  0.12164097392E+04  0.00000000000E+00 0. -1.
        -13    1    1    2    0    0  0.53846320751E+02  0.18072125189E+03 -0.54785901810E+03  0.57940410080E+03  0.10566000000E+00 0.  1.
         13    1    1    2    0    0  0.11977394054E+02 -0.19836598266E+03 -0.61883487757E+03  0.64996087414E+03  0.10566000000E+00 0. -1.
         -4    1    1    2    0  502 -0.65823714805E+02  0.17644730777E+02  0.44786469603E+02  0.81547077289E+02  0.00000000000E+00 0. -1.
</event>
<event>
 5    1  0.4419198E-005  0.4993247E+03  0.7818608E-02  0.9521901E-01
         -4   -1    0    0    0  501 -0.00000000000E+00  0.00000000000E+00  0.18924801576E+04  0.18924801576E+04  0.00000000000E+00 0. -1.
         21   -1    0    0  501  502  0.00000000000E+00 -0.00000000000E+00 -0.30323512977E+03  0.30323512977E+03  0.00000000000E+00 0.  1.
        -13    1    1    2    0    0  0.28072065735E+03 -0.32303990583E+03  0.43491107030E+03  0.61016925394E+03  0.10566000000E+00 0.  1.
         13    1    1    2    0    0 -0.81359775981E+02 -0.32861840132E+03  0.66621312259E+03  0.74729472279E+03  0.10566000000E+00 0. -1.
         -4    1    1    2    0  502 -0.19936088137E+03  0.65165830715E+03  0.48812083493E+03  0.83825131064E+03  0.00000000000E+00 0. -1.
</event>
<event>
 5    1  0.4419198E-005  0.3944548E+02  0.7818608E-02  0.1387591E+00
         21   -1    0    0  501  502  0.00000000000E+00  0.00000000000E+00  0.10165582781E+03  0.10165582781E+03  0.00000000000E+00 0.  1.
          4   -1    0    0  502    0 -0.00000000000E+00 -0.00000000000E+00 -0.43104204968E+02  0.43104204968E+02  0.00000000000E+00 0.  1.
        -13    1    1    2    0    0  0.29967543379E+02  0.44231781166E+02 -0.10739218369E+02  0.54496294337E+02  0.10566000000E+00 0.  1.
         13    1    1    2    0    0 -0.44953740483E+01 -0.17076500712E+02  0.10118049806E+02  0.20351937507E+02  0.10566000000E+00 0. -1.
          4    1    1    2  501    0 -0.25472169331E+02 -0.27155280454E+02  0.59172791406E+02  0.69911800933E+02  0.00000000000E+00 0.  1.
</event>
<event>
 5    1  0.4419198E-005  0.6749263E+03  0.7818608E-02  0.9160167E-01
         21   -1    0    0  501  502  0.00000000000E+00  0.00000000000E+00  0.73777455107E+03  0.73777455107E+03  0.00000000000E+00 0. -1.
         -4   -1    0    0    0  501 -0.00000000000E+00 -0.00000000000E+00 -0.31861481294E+04  0.31861481294E+04  0.00000000000E+00 0. -1.
        -13    1    1    2    0    0 -0.50057803376E+03  0.83861780545E+02 -0.25144745788E+03  0.56642475348E+03  0.10566000000E+00 0.  1.
         13    1    1    2    0    0  0.68308582286E+03 -0.25327369201E+03 -0.26997881271E+04  0.27963565129E+04  0.10566000000E+00 0. -1.
         -4    1    1    2    0  502 -0.18250778909E+03  0.16941191146E+03  0.50286200671E+03  0.56114141410E+03  0.00000000000E+00 0. -1.
</event>
<event>
 5    1  0.4419198E-005  0.4325304E+03  0.7818608E-02  0.9921927E-01
         21   -1    0    0  501  502  0.00000000000E+00  0.00000000000E+00  0.68246919460E+03  0.68246919460E+03  0.00000000000E+00 0. -1.
         -4   -1    0    0    0  501 -0.00000000000E+00 -0.00000000000E+00 -0.68798026630E+03  0.68798026630E+03  0.00000000000E+00 0. -1.
        -13    1    1    2    0    0  0.12515893456E+03  0.10646420389E+03 -0.28545316649E+03  0.32936743468E+03  0.10566000000E+00 0.  1.
         13    1    1    2    0    0 -0.46508095901E+03 -0.29947169244E+03 -0.11857728948E+02  0.55328492652E+03  0.10566000000E+00 0. -1.
         -4    1    1    2    0  502  0.33992202446E+03  0.19300748855E+03  0.29179982373E+03  0.48779709971E+03  0.00000000000E+00 0. -1.
</event>
<event>
 5    1  0.4419198E-005  0.4961643E+03  0.7818608E-02  0.9911182E-01
          4   -1    0    0  502    0 -0.00000000000E+00  0.00000000000E+00  0.16971637813E+04  0.16971637813E+04  0.00000000000E+00 0.  1.
         21   -1    0    0  501  502  0.00000000000E+00 -0.00000000000E+00 -0.18621586728E+03  0.18621586728E+03  0.00000000000E+00 0.  1.
        -13    1    1    2    0    0  0.51777063589E+03  0.68836458432E+02  0.59555612071E+03  0.79215654607E+03  0.10566000000E+00 0.  1.
         13    1    1    2    0    0 -0.50290670251E+02 -0.10099738706E+03  0.99925339336E+02  0.15071399508E+03  0.10566000000E+00 0. -1.
          4    1    1    2  501    0 -0.46747996564E+03  0.32160928629E+02  0.81546645397E+03  0.94050910743E+03  0.00000000000E+00 0.  1.
</event>
<event>
 5    1  0.4419198E-005  0.1163275E+03  0.7818608E-02  0.1165854E+00
         21   -1    0    0  501  502  0.00000000000E+00  0.00000000000E+00  0.61794905890E+03  0.61794905890E+03  0.00000000000E+00 0. -1.
         -4   -1    0    0    0  501 -0.00000000000E+00 -0.00000000000E+00 -0.40057486224E+02  0.40057486224E+02  0.00000000000E+00 0. -1.
        -13    1    1    2    0    0  0.36013990921E+02 -0.49932909812E+02  0.69196233091E+02  0.92619829747E+02  0.10566000000E+00 0.  1.
         13    1    1    2    0    0 -0.35393040013E+02  0.14623008880E+03  0.30769982190E+03  0.34251291613E+03  0.10566000000E+00 0. -1.
         -4    1    1    2    0  502 -0.62095090797E+00 -0.96297178993E+02  0.20099551769E+03  0.22287379925E+03  0.00000000000E+00 0. -1.
</event>
<event>
 5    1  0.4419198E-005  0.6590192E+03  0.7818608E-02  0.9184645E-01
         21   -1    0    0  501  502  0.00000000000E+00  0.00000000000E+00  0.64651813175E+03  0.64651813175E+03  0.00000000000E+00 0.  1.
          4   -1    0    0  502    0 -0.00000000000E+00 -0.00000000000E+00 -0.16196802837E+04  0.16196802837E+04  0.00000000000E+00 0.  1.
        -13    1    1    2    0    0 -0.75225184062E+03  0.15571860254E+03  0.23462746456E+03  0.80323170579E+03  0.10566000000E+00 0.  1.
         13    1    1    2    0    0  0.63838666859E+03 -0.17540848088E+02 -0.85321048637E+03  0.10657454505E+04  0.10566000000E+00 0. -1.
          4    1    1    2  501    0  0.11386517203E+03 -0.13817775445E+03 -0.35457913015E+03  0.39722125920E+03  0.00000000000E+00 0.  1.
</event>
<event>
 5    1  0.4419198E-005  0.4917633E+03  0.7818608E-02  0.9562307E-01
         21   -1    0    0  501  502  0.00000000000E+00  0.00000000000E+00  0.35751874870E+03  0.35751874870E+03  0.00000000000E+00 0. -1.
         -4   -1    0    0    0  501 -0.00000000000E+00 -0.00000000000E+00 -0.26192202501E+04  0.26192202501E+04  0.00000000000E+00 0. -1.
        -13    1    1    2    0    0  0.11446547828E+03 -0.37004793899E+03 -0.17371314780E+04  0.17797931357E+04  0.10566000000E+00 0.  1.
         13    1    1    2    0    0 -0.50902934536E+03  0.31318700751E+03 -0.85230188263E+02  0.60370619697E+03  0.10566000000E+00 0. -1.
         -4    1    1    2    0  502  0.39456386709E+03  0.56860931488E+02 -0.43933983517E+03  0.59323966616E+03  0.00000000000E+00 0. -1.
</event>
<event>
 5    1  0.4419198E-005  0.4974715E+03  0.7818608E-02  0.9639022E-01
         -4   -1    0    0    0  501 -0.00000000000E+00  0.00000000000E+00  0.80215401211E+03  0.80215401211E+03  0.00000000000E+00 0. -1.
         21   -1    0    0  501  502  0.00000000000E+00 -0.00000000000E+00 -0.54837209414E+03  0.54837209414E+03  0.00000000000E+00 0. -1.
        -13    1    1    2    0    0 -0.53628594307E+02  0.27971910897E+03  0.54810190516E+02  0.29003960798E+03  0.10566000000E+00 0.  1.
         13    1    1    2    0    0 -0.22045616161E+03 -0.58621789155E+03  0.73523279779E+02  0.63060131573E+03  0.10566000000E+00 0. -1.
         -4    1    1    2    0  502  0.27408475592E+03  0.30649878259E+03  0.12544844767E+03  0.42988518255E+03  0.00000000000E+00 0. -1.
</event>
<event>
 5    1  0.4419198E-005  0.3640243E+03  0.7818608E-02  0.9912256E-01
         -4   -1    0    0    0  501 -0.00000000000E+00  0.00000000000E+00  0.53438378361E+03  0.53438378361E+03  0.00000000000E+00 0. -1.
         21   -1    0    0  501  502  0.00000000000E+00 -0.00000000000E+00 -0.95404084023E+03  0.95404084023E+03  0.00000000000E+00 0. -1.
        -13    1    1    2    0    0 -0.26174566082E+03  0.11191259401E+03  0.12209437137E+03  0.30974548639E+03  0.10566000000E+00 0.  1.
         13    1    1    2    0    0  0.37044543737E+03 -0.42670722073E+03 -0.27164931600E+02  0.56572680595E+03  0.10566000000E+00 0. -1.
         -4    1    1    2    0  502 -0.10869977654E+03  0.31479462672E+03 -0.51458649638E+03  0.61295233150E+03  0.00000000000E+00 0. -1.
</event>
<event>
 5    1  0.4419198E-005  0.2419558E+03  0.7818608E-02  0.1047192E+00
         -4   -1    0    0    0  501 -0.00000000000E+00  0.00000000000E+00  0.10640321975E+04  0.10640321975E+04  0.00000000000E+00 0. -1.
         21   -1    0    0  501  502  0.00000000000E+00 -0.00000000000E+00 -0.84168147965E+03  0.84168147965E+03  0.00000000000E+00 0. -1.
        -13    1    1    2    0    0  0.10627069607E+02 -0.45130890978E+03 -0.80774690660E+02  0.45860356352E+03  0.10566000000E+00 0.  1.
         13    1    1    2    0    0 -0.89325179729E+02  0.16959057655E+03  0.82601747851E+03  0.84796511565E+03  0.10566000000E+00 0. -1.
         -4    1    1    2    0  502  0.78698110121E+02  0.28171833323E+03 -0.52289206997E+03  0.59914499801E+03  0.00000000000E+00 0. -1.
</event>
<event>
 5    1  0.4419198E-005  0.3435372E+02  0.7818608E-02  0.1373014E+00
         21   -1    0    0  501  502  0.00000000000E+00  0.00000000000E+00  0.13369318369E+02  0.13369318369E+02  0.00000000000E+00 0. -1.
         -4   -1    0    0    0  501 -0.00000000000E+00 -0.00000000000E+00 -0.32228620651E+03  0.32228620651E+03  0.00000000000E+00 0. -1.
        -13    1    1    2    0    0 -0.18797017914E+02 -0.24502099298E+02 -0.15573903470E+03  0.15877134139E+03  0.10566000000E+00 0.  1.
         13    1    1    2    0    0  0.46126068046E+01  0.49611487011E+02 -0.13204031574E+03  0.14112842354E+03  0.10566000000E+00 0. -1.
         -4    1    1    2    0  502  0.14184411109E+02 -0.25109387712E+02 -0.21137537695E+02  0.35755759950E+02  0.00000000000E+00 0. -1.
</event>
<event>
 5    1  0.4419198E-005  0.4518793E+03  0.7818608E-02  0.9946382E-01
         -4   -1    0    0    0  501 -0.00000000000E+00  0.00000000000E+00  0.10392162870E+04  0.10392162870E+04  0.00000000000E+00 0. -1.
         21   -1    0    0  501  502  0.00000000000E+00 -0.00000000000E+00 -0.34324191514E+03  0.34324191514E+03  0.00000000000E+00 0. -1.
        -13    1    1    2    0    0 -0.12663334953E+03 -0.40178380795E+02  0.22626122413E+03  0.26238227875E+03  0.10566000000E+00 0.  1.
         13    1    1    2    0    0  0.35492339991E+03  0.39605242697E+03  0.45026387898E+03  0.69682545633E+03  0.10566000000E+00 0. -1.
         -4    1    1    2    0  502 -0.22829005038E+03 -0.35587404617E+03  0.19449268786E+02  0.42325046710E+03  0.00000000000E+00 0. -1.
</event>
<event>
 5    1  0.4419198E-005  0.1399355E+03  0.7818608E-02  0.1111485E+00
         21   -1    0    0  501  502  0.00000000000E+00  0.00000000000E+00  0.11164776012E+03  0.11164776012E+03  0.00000000000E+00 0. -1.
          4   -1    0    0  502    0 -0.00000000000E+00 -0.00000000000E+00 -0.38257935064E+03  0.38257935064E+03  0.00000000000E+00 0.  1.
        -13    1    1    2    0    0 -0.62696978848E+02  0.12569716382E+03 -0.29151867168E+03  0.32359517185E+03  0.10566000000E+00 0.  1.
         13    1    1    2    0    0  0.74256934408E+02 -0.11676136415E+03 -0.79181946224E+01  0.13860020720E+03  0.10566000000E+00 0. -1.
          4    1    1    2  501    0 -0.11559955560E+02 -0.89357996614E+01  0.28505275781E+02  0.32031731696E+02  0.00000000000E+00 0.  1.
</event>
<event>
 5    1  0.4419198E-005  0.5068453E+03  0.7818608E-02  0.9622133E-01
         21   -1    0    0  501  502  0.00000000000E+00  0.00000000000E+00  0.16983285218E+03  0.16983285218E+03  0.00000000000E+00 0.  1.
          4   -1    0    0  502    0 -0.00000000000E+00 -0.00000000000E+00 -0.28542113420E+04  0.28542113420E+04  0.00000000000E+00 0.  1.
        -13    1    1    2    0    0  0.34365742203E+03  0.48900577419E+03 -0.64628958067E+03  0.88029387375E+03  0.10566000000E+00 0.  1.
         13    1    1    2    0    0 -0.25887865020E+03 -0.12124702599E+03 -0.80880869460E+03  0.85784061017E+03  0.10566000000E+00 0. -1.
          4    1    1    2  501    0 -0.84778771832E+02 -0.36775874821E+03 -0.12292802146E+04  0.12859097103E+04  0.00000000000E+00 0.  1.
</event>
<event>
 5    1  0.4419198E-005  0.8913060E+02  0.7818608E-02  0.1244384E+00
          4   -1    0    0  502    0 -0.00000000000E+00  0.00000000000E+00  0.11359485726E+03  0.11359485726E+03  0.00000000000E+00 0.  1.
         21   -1    0    0  501  502  0.00000000000E+00 -0.00000000000E+00 -0.28351643894E+03  0.28351643894E+03  0.00000000000E+00 0.  1.
        -13    1    1    2    0    0 -0.53090099392E+02 -0.75837523106E+02 -0.23566880338E+03  0.25319890326E+03  0.10566000000E+00 0.  1.
         13    1    1    2    0    0 -0.64394412861E+00  0.23199750018E+02  0.64644010328E+02  0.68684076031E+02  0.10566000000E+00 0. -1.
          4    1    1    2  501    0  0.53734043520E+02  0.52637773087E+02  0.11032113728E+01  0.75228316902E+02  0.00000000000E+00 0.  1.
</event>
<event>
 5    1  0.4419198E-005  0.5401998E+03  0.7818608E-02  0.9393962E-01
         -4   -1    0    0    0  501 -0.00000000000E+00  0.00000000000E+00  0.22794836545E+04  0.22794836545E+04  0.00000000000E+00 0. -1.
         21   -1    0    0  501  502  0.00000000000E+00 -0.00000000000E+00 -0.24349416760E+03  0.24349416760E+03  0.00000000000E+00 0. -1.
        -13    1    1    2    0    0  0.52253127015E+03  0.19230530105E+02  0.10142361027E+04  0.11410887892E+04  0.10566000000E+00 0.  1.
         13    1    1    2    0    0 -0.55542584491E+03 -0.60652562630E+02  0.11304591494E+04  0.12609974236E+04  0.10566000000E+00 0. -1.
         -4    1    1    2    0  502  0.32894574760E+02  0.41422032525E+02 -0.10870576522E+03  0.12089160939E+03  0.00000000000E+00 0. -1.
</event>
<event>
 5    1  0.4419198E-005  0.2865425E+03  0.7818608E-02  0.1013020E+00
         21   -1    0    0  501  502  0.00000000000E+00  0.00000000000E+00  0.14604012425E+04  0.14604012425E+04  0.00000000000E+00 0.  1.
          4   -1    0    0  502    0 -0.00000000000E+00 -0.00000000000E+00 -0.43468190894E+03  0.43468190894E+03  0.00000000000E+00 0.  1.
        -13    1    1    2    0    0  0.29574734077E+03  0.12129928158E+03 -0.47744981242E+02  0.32320210346E+03  0.10566000000E+00 0.  1.
         13    1    1    2    0    0 -0.22519723531E+03 -0.15050680419E+03 -0.17409558673E+03  0.32198661057E+03  0.10566000000E+00 0. -1.
          4    1    1    2  501    0 -0.70550105456E+02  0.29207522617E+02  0.12475599015E+04  0.12498944374E+04  0.00000000000E+00 0.  1.
</event>
<event>
 5    1  0.4419198E-005  0.5268350E+03  0.7818608E-02  0.9421018E-01
          4   -1    0    0  502    0 -0.00000000000E+00  0.00000000000E+00  0.27453958179E+04  0.27453958179E+04  0.00000000000E+00 0.  1.
         21   -1    0    0  501  502  0.00000000000E+00 -0.00000000000E+00 -0.31835438796E+03  0.31835438796E+03  0.00000000000E+00 0.  1.
        -13    1    1    2    0    0 -0.47751380843E+03  0.23106686177E+02  0.14761269433E+04  0.15516133926E+04  0.10566000000E+00 0.  1.
         13    1    1    2    0    0  0.63179713157E+03 -0.12914561003E+03  0.10984698675E+04  0.12737669586E+04  0.10566000000E+00 0. -1.
          4    1    1    2  501    0 -0.15428332314E+03  0.10603892386E+03 -0.14755538083E+03  0.23836985460E+03  0.00000000000E+00 0.  1.
</event>
<event>
 5    1  0.4419198E-005  0.2631597E+02  0.7818608E-02  0.1437187E+00
         21   -1    0    0  501  502  0.00000000000E+00  0.00000000000E+00  0.10619882239E+03  0.10619882239E+03  0.00000000000E+00 0.  1.
          4   -1    0    0  502    0 -0.00000000000E+00 -0.00000000000E+00 -0.11147322401E+03  0.11147322401E+03  0.00000000000E+00 0.  1.
        -13    1    1    2    0    0  0.11565825142E+02  0.31602262901E+02 -0.72505402988E+02  0.79934447882E+02  0.10566000000E+00 0.  1.
         13    1    1    2    0    0  0.54103235916E+00 -0.20916042641E+02 -0.31433445666E+02  0.37760379053E+02  0.10566000000E+00 0. -1.
          4    1    1    2  501    0 -0.12106857501E+02 -0.10686220260E+02  0.98664447033E+02  0.99977219457E+02  0.00000000000E+00 0.  1.
</event>
<event>
 5    1  0.4419198E-005  0.2965240E+03  0.7818608E-02  0.1012019E+00
         21   -1    0    0  501  502  0.00000000000E+00  0.00000000000E+00  0.20104444065E+03  0.20104444065E+03  0.00000000000E+00 0. -1.
         -4   -1    0    0    0  501 -0.00000000000E+00 -0.00000000000E+00 -0.22953190897E+04  0.22953190897E+04  0.00000000000E+00 0. -1.
        -13    1    1    2    0    0 -0.22252826097E+03  0.14750976613E+03 -0.88771349307E+03  0.92699148593E+03  0.10566000000E+00 0.  1.
         13    1    1    2    0    0  0.34152258443E+03 -0.39214454238E+03 -0.11878501122E+04  0.12966892141E+04  0.10566000000E+00 0. -1.
         -4    1    1    2    0  502 -0.11899432346E+03  0.24463477625E+03 -0.18711043750E+02  0.27268283027E+03  0.00000000000E+00 0. -1.
</event>
<event>
 5    1  0.4419198E-005  0.4214846E+03  0.7818608E-02  0.9787158E-01
          4   -1    0    0  502    0 -0.00000000000E+00  0.00000000000E+00  0.14857652991E+04  0.14857652991E+04  0.00000000000E+00 0.  1.
         21   -1    0    0  501  502  0.00000000000E+00 -0.00000000000E+00 -0.53308780714E+03  0.53308780714E+03  0.00000000000E+00 0.  1.
        -13    1    1    2    0    0 -0.88565154700E+02 -0.32567001512E+03  0.75735198773E+03  0.82914823153E+03  0.10566000000E+00 0.  1.
         13    1    1    2    0    0 -0.41616700145E+03  0.43859761163E+03  0.27879843187E+03  0.66580133283E+03  0.10566000000E+00 0. -1.
          4    1    1    2  501    0  0.50473215615E+03 -0.11292759651E+03 -0.83472927668E+02  0.52390354185E+03  0.00000000000E+00 0.  1.
</event>
<event>
 5    1  0.4419198E-005  0.4454861E+03  0.7818608E-02  0.9606195E-01
          4   -1    0    0  502    0 -0.00000000000E+00  0.00000000000E+00  0.21537720232E+04  0.21537720232E+04  0.00000000000E+00 0.  1.
         21   -1    0    0  501  502  0.00000000000E+00 -0.00000000000E+00 -0.19146519968E+03  0.19146519968E+03  0.00000000000E+00 0. -1.
        -13    1    1    2    0    0  0.31097514931E+03 -0.31494685631E+03  0.16112713294E+04  0.16709555272E+04  0.10566000000E+00 0.  1.
         13    1    1    2    0    0 -0.33504230586E+03  0.30889200690E+03  0.40830485976E+03  0.61186639743E+03  0.10566000000E+00 0. -1.
          4    1    1    2  501    0  0.24067156549E+02  0.60548494087E+01 -0.57269365591E+02  0.62415298292E+02  0.00000000000E+00 0.  1.
</event>
<event>
 5    1  0.4419198E-005  0.3262341E+03  0.7818608E-02  0.9970292E-01
         21   -1    0    0  501  502  0.00000000000E+00  0.00000000000E+00  0.34241115366E+03  0.34241115366E+03  0.00000000000E+00 0.  1.
          4   -1    0    0  502    0 -0.00000000000E+00 -0.00000000000E+00 -0.20156128926E+04  0.20156128926E+04  0.00000000000E+00 0.  1.
        -13    1    1    2    0    0  0.15004182722E+03 -0.19830087382E+03  0.25535249020E+03  0.35642768115E+03  0.10566000000E+00 0.  1.
         13    1    1    2    0    0 -0.61562048187E+01  0.33579460730E+03 -0.11534937612E+04  0.12013924361E+04  0.10566000000E+00 0. -1.
          4    1    1    2  501    0 -0.14388562240E+03 -0.13749373348E+03 -0.77506046791E+03  0.80020392900E+03  0.00000000000E+00 0.  1.
</event>
<event>
 5    1  0.4419198E-005  0.5042164E+03  0.7818608E-02  0.9889632E-01
         21   -1    0    0  501  502  0.00000000000E+00  0.00000000000E+00  0.21753798261E+03  0.21753798261E+03  0.00000000000E+00 0. -1.
         -4   -1    0    0    0  501 -0.00000000000E+00 -0.00000000000E+00 -0.15159050261E+04  0.15159050261E+04  0.00000000000E+00 0. -1.
        -13    1    1    2    0    0  0.85532483559E+02 -0.77680158888E+02 -0.23067776198E+03  0.25799661599E+03  0.10566000000E+00 0.  1.
         13    1    1    2    0    0 -0.79190120093E+02 -0.46115635280E+03 -0.60755444450E+03  0.76684983605E+03  0.10566000000E+00 0. -1.
         -4    1    1    2    0  502 -0.63423634665E+01  0.53883651169E+03 -0.46013483703E+03  0.70859655669E+03  0.00000000000E+00 0. -1.
</event>
<event>
 5    1  0.4419198E-005  0.1400066E+03  0.7818608E-02  0.1111408E+00
         21   -1    0    0  501  502  0.00000000000E+00  0.00000000000E+00  0.70665713192E+02  0.70665713192E+02  0.00000000000E+00 0.  1.
         -4   -1    0    0    0  501 -0.00000000000E+00 -0.00000000000E+00 -0.59537066363E+03  0.59537066363E+03  0.00000000000E+00 0. -1.
        -13    1    1    2    0    0 -0.13953673094E+03 -0.18033424120E+02 -0.49314268753E+03  0.51282104588E+03  0.10566000000E+00 0.  1.
         13    1    1    2    0    0  0.13645906273E+03  0.70130858386E+01 -0.35393795548E+02  0.14114882607E+03  0.10566000000E+00 0. -1.
         -4    1    1    2    0  502  0.30776682122E+01  0.11020338281E+02  0.38315326402E+01  0.12066504872E+02  0.00000000000E+00 0. -1.
</event>
<event>
 5    1  0.4419198E-005  0.4019493E+02  0.7818608E-02  0.1337817E+00
         21   -1    0    0  501  502  0.00000000000E+00  0.00000000000E+00  0.42071820989E+02  0.42071820989E+02  0.00000000000E+00 0. -1.
          4   -1    0    0  502    0 -0.00000000000E+00 -0.00000000000E+00 -0.96214630297E+02  0.96214630297E+02  0.00000000000E+00 0.  1.
        -13    1    1    2    0    0 -0.43266022366E+02  0.16097284475E+02 -0.54264339529E+02  0.71243953901E+02  0.10566000000E+00 0.  1.
         13    1    1    2    0    0  0.34031318275E+02  0.11094889382E+02 -0.90048744637E+01  0.36909702275E+02  0.10566000000E+00 0. -1.
          4    1    1    2  501    0  0.92347040911E+01 -0.27192173857E+02  0.91264046844E+01  0.30132795111E+02  0.00000000000E+00 0.  1.
</event>
<event>
 5    1  0.4419198E-005  0.2003476E+03  0.7818608E-02  0.1059898E+00
          4   -1    0    0  502    0 -0.00000000000E+00  0.00000000000E+00  0.75153790223E+02  0.75153790223E+02  0.00000000000E+00 0.  1.
         21   -1    0    0  501  502  0.00000000000E+00 -0.00000000000E+00 -0.14680631936E+04  0.14680631936E+04  0.00000000000E+00 0.  1.
        -13    1    1    2    0    0 -0.16488433617E+03  0.15515507032E+03 -0.28341593477E+03  0.36274583858E+03  0.10566000000E+00 0.  1.
         13    1    1    2    0    0  0.14822406438E+03 -0.10550646341E+03 -0.20353006485E+03  0.27299539473E+03  0.10566000000E+00 0. -1.
          4    1    1    2  501    0  0.16660271793E+02 -0.49648606913E+02 -0.90596340376E+03  0.90747575052E+03  0.00000000000E+00 0.  1.
</event>
<event>
 5    1  0.4419198E-005  0.5942582E+03  0.7818608E-02  0.9292347E-01
          4   -1    0    0  502    0 -0.00000000000E+00  0.00000000000E+00  0.29260646082E+04  0.29260646082E+04  0.00000000000E+00 0.  1.
         21   -1    0    0  501  502  0.00000000000E+00 -0.00000000000E+00 -0.17943914425E+03  0.17943914425E+03  0.00000000000E+00 0. -1.
        -13    1    1    2    0    0  0.52802754835E+03  0.27782763052E+03  0.21197223642E+04  0.22020954104E+04  0.10566000000E+00 0.  1.
         13    1    1    2    0    0 -0.52435200475E+03 -0.26546061244E+03  0.65039904224E+03  0.87660326657E+03  0.10566000000E+00 0. -1.
          4    1    1    2  501    0 -0.36755436049E+01 -0.12367018074E+02 -0.23495942504E+02  0.26805075470E+02  0.00000000000E+00 0.  1.
</event>
<event>
 5    1  0.4419198E-005  0.3551916E+03  0.7818608E-02  0.1026955E+00
         21   -1    0    0  501  502  0.00000000000E+00  0.00000000000E+00  0.20036383346E+03  0.20036383346E+03  0.00000000000E+00 0. -1.
         -4   -1    0    0    0  501 -0.00000000000E+00 -0.00000000000E+00 -0.15884166518E+04  0.15884166518E+04  0.00000000000E+00 0. -1.
        -13    1    1    2    0    0 -0.78743265102E+02  0.56586689577E+02 -0.30562790565E+03  0.32064151807E+03  0.10566000000E+00 0.  1.
         13    1    1    2    0    0 -0.33655292170E+03  0.59524447102E+02 -0.45082278372E+02  0.34473678639E+03  0.10566000000E+00 0. -1.
         -4    1    1    2    0  502  0.41529618680E+03 -0.11611113668E+03 -0.10373426343E+04  0.11234021808E+04  0.00000000000E+00 0. -1.
</event>
<event>
 5    1  0.4419198E-005  0.5839130E+03  0.7818608E-02  0.9347624E-01
         21   -1    0    0  501  502  0.00000000000E+00  0.00000000000E+00  0.65972201979E+03  0.65972201979E+03  0.00000000000E+00 0. -1.
          4   -1    0    0  502    0 -0.00000000000E+00 -0.00000000000E+00 -0.15143231774E+04  0.15143231774E+04  0.00000000000E+00 0.  1.
        -13    1    1    2    0    0 -0.42500021459E+03  0.36181279383E+03 -0.39707644501E+02  0.55956267601E+03  0.10566000000E+00 0.  1.
         13    1    1    2    0    0  0.59654479540E+03  0.23994209384E+03 -0.74616995952E+03  0.98499112736E+03  0.10566000000E+00 0. -1.
          4    1    1    2  501    0 -0.17154458081E+03 -0.60175488767E+03 -0.68723553540E+02  0.62949139379E+03  0.00000000000E+00 0.  1.
</event>
<event>
 5    1  0.4419198E-005  0.1662285E+03  0.7818608E-02  0.1086124E+00
         -4   -1    0    0    0  501 -0.00000000000E+00  0.00000000000E+00  0.65492383880E+03  0.65492383880E+03  0.00000000000E+00 0. -1.
         21   -1    0    0  501  502  0.00000000000E+00 -0.00000000000E+00 -0.63610427624E+03  0.63610427624E+03  0.00000000000E+00 0. -1.
        -13    1    1    2    0    0 -0.18810607380E+03  0.10028437855E+03  0.15454208516E+03  0.26329473757E+03  0.10566000000E+00 0.  1.
         13    1    1    2    0    0  0.15964293856E+03  0.40644106988E+02  0.42134894058E+03  0.45240772778E+03  0.10566000000E+00 0. -1.
         -4    1    1    2    0  502  0.28463135238E+02 -0.14092848554E+03 -0.55707146318E+03  0.57532564969E+03  0.00000000000E+00 0. -1.
</event>
<event>
 5    1  0.4419198E-005  0.4923521E+03  0.7818608E-02  0.9879697E-01
         -4   -1    0    0    0  501 -0.00000000000E+00  0.00000000000E+00  0.80308176063E+03  0.80308176063E+03  0.00000000000E+00 0. -1.
         21   -1    0    0  501  502  0.00000000000E+00 -0.00000000000E+00 -0.41128500875E+03  0.41128500875E+03  0.00000000000E+00 0. -1.
        -13    1    1    2    0    0  0.64804766498E+02  0.11073665245E+03  0.78005183345E+02  0.15015686381E+03  0.10566000000E+00 0.  1.
         13    1    1    2    0    0 -0.10685449052E+03 -0.52890806267E+03 -0.19307412321E+00  0.53959398564E+03  0.10566000000E+00 0. -1.
         -4    1    1    2    0  502  0.42049724026E+02  0.41817141022E+03  0.31398464265E+03  0.52461591993E+03  0.00000000000E+00 0. -1.
</event>
<event>
 5    1  0.4419198E-005  0.1229057E+03  0.7818608E-02  0.1131396E+00
          4   -1    0    0  502    0 -0.00000000000E+00  0.00000000000E+00  0.64810681098E+03  0.64810681098E+03  0.00000000000E+00 0.  1.
         21   -1    0    0  501  502  0.00000000000E+00 -0.00000000000E+00 -0.24129923698E+03  0.24129923698E+03  0.00000000000E+00 0. -1.
        -13    1    1    2    0    0  0.95351835442E+02 -0.78944147491E+02  0.62030804059E+03  0.63253950654E+03  0.10566000000E+00 0.  1.
         13    1    1    2    0    0 -0.82188489541E+02  0.46424558111E+02 -0.19625211171E+03  0.21777302386E+03  0.10566000000E+00 0. -1.
          4    1    1    2  501    0 -0.13163345901E+02  0.32519589379E+02 -0.17248354883E+02  0.39093517556E+02  0.00000000000E+00 0.  1.
</event>
<event>
 5    1  0.4419198E-005  0.4902474E+03  0.7818608E-02  0.9975127E-01
         -4   -1    0    0    0  501 -0.00000000000E+00  0.00000000000E+00  0.55311480703E+03  0.55311480703E+03  0.00000000000E+00 0. -1.
         21   -1    0    0  501  502  0.00000000000E+00 -0.00000000000E+00 -0.61070984540E+03  0.61070984540E+03  0.00000000000E+00 0. -1.
        -13    1    1    2    0    0 -0.17005331499E+02 -0.93072132299E+02  0.86785108277E+02  0.12838718508E+03  0.10566000000E+00 0.  1.
         13    1    1    2    0    0 -0.43098024070E+03  0.27189411299E+03  0.56947758772E+02  0.51275085075E+03  0.10566000000E+00 0. -1.
         -4    1    1    2    0  502  0.44798557219E+03 -0.17882198069E+03 -0.20132790541E+03  0.52268661660E+03  0.00000000000E+00 0. -1.
</event>
<event>
 5    1  0.4419198E-005  0.4915939E+03  0.7818608E-02  0.9595383E-01
         -4   -1    0    0    0  501 -0.00000000000E+00  0.00000000000E+00  0.10761047717E+04  0.10761047717E+04  0.00000000000E+00 0. -1.
         21   -1    0    0  501  502  0.00000000000E+00 -0.00000000000E+00 -0.49707624587E+03  0.49707624587E+03  0.00000000000E+00 0. -1.
        -13    1    1    2    0    0 -0.30806081548E+03 -0.15425662866E+03 -0.57652493556E+02  0.34931417764E+03  0.10566000000E+00 0.  1.
         13    1    1    2    0    0 -0.19588422611E+03  0.42868381592E+03  0.29475623719E+03  0.55589719787E+03  0.10566000000E+00 0. -1.
         -4    1    1    2    0  502  0.50394504159E+03 -0.27442718726E+03  0.34192478220E+03  0.66796964208E+03  0.00000000000E+00 0. -1.
</event>
<event>
 5    1  0.4419198E-005  0.2115761E+03  0.7818608E-02  0.1064430E+00
         -4   -1    0    0    0  501 -0.00000000000E+00  0.00000000000E+00  0.15501872260E+04  0.15501872260E+04  0.00000000000E+00 0. -1.
         21   -1    0    0  501  502  0.00000000000E+00 -0.00000000000E+00 -0.92208417003E+02  0.92208417003E+02  0.00000000000E+00 0.  1.
        -13    1    1    2    0    0  0.14118921530E+03 -0.47977351245E+02  0.10227951525E+03  0.18082403367E+03  0.10566000000E+00 0.  1.
         13    1    1    2    0    0 -0.69961129798E+02  0.24547570799E+03  0.11072638045E+04  0.11363036684E+04  0.10566000000E+00 0. -1.
         -4    1    1    2    0  502 -0.71228085502E+02 -0.19749835675E+03  0.24843548924E+03  0.32526794093E+03  0.00000000000E+00 0. -1.
</event>
<event>
 5    1  0.5140969E-005  0.3575046E+03  0.7818608E-02  0.9867898E-01
         -4   -1    0    0    0  501 -0.00000000000E+00  0.00000000000E+00  0.19144034919E+04  0.19144034919E+04  0.00000000000E+00 0. -1.
         21   -1    0    0  501  502  0.00000000000E+00 -0.00000000000E+00 -0.45913242757E+03  0.45913242757E+03  0.00000000000E+00 0. -1.
        -13    1    1    2    0    0  0.44991725349E+03 -0.46987920792E+03  0.71036016986E+03  0.96323599762E+03  0.10566000000E+00 0.  1.
         13    1    1    2    0    0 -0.15857588063E+03  0.25504408275E+03  0.94855526573E+03  0.99496276180E+03  0.10566000000E+00 0. -1.
         -4    1    1    2    0  502 -0.29134137286E+03  0.21483512517E+03 -0.20364437128E+03  0.41533716003E+03  0.00000000000E+00 0. -1.
</event>
<event>
 5    1  0.4419198E-005  0.7937576E+03  0.7818608E-02  0.8997059E-01
         21   -1    0    0  501  502  0.00000000000E+00  0.00000000000E+00  0.39231990435E+03  0.39231990435E+03  0.00000000000E+00 0.  1.
         -4   -1    0    0    0  501 -0.00000000000E+00 -0.00000000000E+00 -0.23573734388E+04  0.23573734388E+04  0.00000000000E+00 0. -1.
        -13    1    1    2    0    0  0.47671025135E+03 -0.50439244080E+03 -0.70053737831E+03  0.98611207661E+03  0.10566000000E+00 0.  1.
         13    1    1    2    0    0 -0.76590595166E+03  0.51671587636E+03 -0.10756011488E+04  0.14179298524E+04  0.10566000000E+00 0. -1.
         -4    1    1    2    0  502  0.28919570031E+03 -0.12323435562E+02 -0.18891500734E+03  0.34565141420E+03  0.00000000000E+00 0. -1.
</event>
<event>
 5    1  0.4419198E-005  0.6482950E+02  0.7818608E-02  0.1240984E+00
         21   -1    0    0  501  502  0.00000000000E+00  0.00000000000E+00  0.16476478433E+02  0.16476478433E+02  0.00000000000E+00 0.  1.
         -4   -1    0    0    0  501 -0.00000000000E+00 -0.00000000000E+00 -0.39165928337E+03  0.39165928337E+03  0.00000000000E+00 0. -1.
        -13    1    1    2    0    0  0.43178877361E+02 -0.45332037045E+02 -0.15809705807E+03  0.17004146544E+03  0.10566000000E+00 0.  1.
         13    1    1    2    0    0 -0.59450803688E+02  0.33629617255E+02 -0.20132696462E+03  0.21259799402E+03  0.10566000000E+00 0. -1.
         -4    1    1    2    0  502  0.16271926326E+02  0.11702419790E+02 -0.15758782244E+02  0.25496302342E+02  0.00000000000E+00 0. -1.
</event>
<event>
 5    1  0.4419198E-005  0.4854358E+03  0.7818608E-02  0.9631317E-01
         21   -1    0    0  501  502  0.00000000000E+00  0.00000000000E+00  0.10613480554E+04  0.10613480554E+04  0.00000000000E+00 0. -1.
         -4   -1    0    0    0  501 -0.00000000000E+00 -0.00000000000E+00 -0.45345292186E+03  0.45345292186E+03  0.00000000000E+00 0. -1.
        -13    1    1    2    0    0 -0.18167228170E+03 -0.25730911282E+03 -0.19955613023E+02  0.31561215935E+03  0.10566000000E+00 0.  1.
         13    1    1    2    0    0  0.46144787862E+03  0.43109910605E+03  0.59593825178E+03  0.86828739195E+03  0.10566000000E+00 0. -1.
         -4    1    1    2    0  502 -0.27977559693E+03 -0.17378999323E+03  0.31912494800E+02  0.33090142597E+03  0.00000000000E+00 0. -1.
</event>
<event>
 5    1  0.4419198E-005  0.4158277E+03  0.7818608E-02  0.9684415E-01
         -4   -1    0    0    0  501 -0.00000000000E+00  0.00000000000E+00  0.73932894879E+03  0.73932894879E+03  0.00000000000E+00 0. -1.
         21   -1    0    0  501  502  0.00000000000E+00 -0.00000000000E+00 -0.68807203573E+03  0.68807203573E+03  0.00000000000E+00 0. -1.
        -13    1    1    2    0    0  0.11379709464E+03  0.33724180490E+03  0.76662308525E+02  0.36408643813E+03  0.10566000000E+00 0.  1.
         13    1    1    2    0    0 -0.43906123325E+03 -0.46122995269E+03 -0.20842774207E+03  0.67003729048E+03  0.10566000000E+00 0. -1.
         -4    1    1    2    0  502  0.32526413861E+03  0.12398814779E+03  0.18302234660E+03  0.39327725591E+03  0.00000000000E+00 0. -1.
</event>
<event>
 5    1  0.4419198E-005  0.2878952E+03  0.7818608E-02  0.1031337E+00
         21   -1    0    0  501  502  0.00000000000E+00  0.00000000000E+00  0.19557924149E+03  0.19557924149E+03  0.00000000000E+00 0.  1.
          4   -1    0    0  502    0 -0.00000000000E+00 -0.00000000000E+00 -0.17568226553E+04  0.17568226553E+04  0.00000000000E+00 0.  1.
        -13    1    1    2    0    0 -0.13034451600E+03  0.24954153782E+03 -0.10716060424E+02  0.28173660938E+03  0.10566000000E+00 0.  1.
         13    1    1    2    0    0  0.98278854319E+02  0.12499202806E+03 -0.14313713135E+03  0.21393921992E+03  0.10566000000E+00 0. -1.
          4    1    1    2  501    0  0.32065661681E+02 -0.37453356588E+03 -0.14073902220E+04  0.14567260675E+04  0.00000000000E+00 0.  1.
</event>
<event>
 5    1  0.4419198E-005  0.3174542E+02  0.7818608E-02  0.1391418E+00
         21   -1    0    0  501  502  0.00000000000E+00  0.00000000000E+00  0.19326852216E+02  0.19326852216E+02  0.00000000000E+00 0. -1.
          4   -1    0    0  502    0 -0.00000000000E+00 -0.00000000000E+00 -0.21630762942E+03  0.21630762942E+03  0.00000000000E+00 0.  1.
        -13    1    1    2    0    0 -0.23586352536E+02 -0.17129171331E+02 -0.13147412512E+03  0.13466692718E+03  0.10566000000E+00 0.  1.
         13    1    1    2    0    0  0.46869875508E+02  0.12170708013E+02 -0.58923139981E+02  0.76268335192E+02  0.10566000000E+00 0. -1.
          4    1    1    2  501    0 -0.23283522972E+02  0.49584633180E+01 -0.65835121002E+01  0.24699219260E+02  0.00000000000E+00 0.  1.
</event>
<event>
 5    1  0.4419198E-005  0.3544942E+03  0.7818608E-02  0.9870545E-01
          4   -1    0    0  502    0 -0.00000000000E+00  0.00000000000E+00  0.15594706377E+04  0.15594706377E+04  0.00000000000E+00 0.  1.
         21   -1    0    0  501  502  0.00000000000E+00 -0.00000000000E+00 -0.29702148396E+03  0.29702148396E+03  0.00000000000E+00 0.  1.
        -13    1    1    2    0    0  0.50987737451E+03  0.28129885641E+03  0.17471846585E+03  0.60797248057E+03  0.10566000000E+00 0.  1.
         13    1    1    2    0    0 -0.23781451367E+03 -0.18461535560E+03  0.38464667624E+03  0.48845844157E+03  0.10566000000E+00 0. -1.
          4    1    1    2  501    0 -0.27206286084E+03 -0.96683500818E+02  0.70308401159E+03  0.76006119947E+03  0.00000000000E+00 0.  1.
</event>
<event>
 5    1  0.4419198E-005  0.4265330E+02  0.7818608E-02  0.1324980E+00
         21   -1    0    0  501  502  0.00000000000E+00  0.00000000000E+00  0.53869420765E+03  0.53869420765E+03  0.00000000000E+00 0.  1.
          4   -1    0    0  502    0 -0.00000000000E+00 -0.00000000000E+00 -0.55781854188E+02  0.55781854188E+02  0.00000000000E+00 0.  1.
        -13    1    1    2    0    0 -0.30006046194E+02  0.31604086512E+02 -0.44815746092E+02  0.62511145840E+02  0.10566000000E+00 0.  1.
         13    1    1    2    0    0  0.32233984365E+02 -0.38833793799E+01  0.16447860069E+03  0.16765241314E+03  0.10566000000E+00 0. -1.
          4    1    1    2  501    0 -0.22279381710E+01 -0.27720707132E+02  0.36324949886E+03  0.36431250286E+03  0.00000000000E+00 0.  1.
</event>
<event>
 5    1  0.4419198E-005  0.4372044E+03  0.7818608E-02  0.9833113E-01
          4   -1    0    0  502    0 -0.00000000000E+00  0.00000000000E+00  0.39508035330E+03  0.39508035330E+03  0.00000000000E+00 0.  1.
         21   -1    0    0  501  502  0.00000000000E+00 -0.00000000000E+00 -0.97252585769E+03  0.97252585769E+03  0.00000000000E+00 0.  1.
        -13    1    1    2    0    0 -0.16074790347E+03 -0.41136858367E+03 -0.52342739881E+03  0.68486513496E+03  0.10566000000E+00 0.  1.
         13    1    1    2    0    0 -0.18655963160E+03  0.10573345717E+03 -0.49506851959E+02  0.22007953032E+03  0.10566000000E+00 0. -1.
          4    1    1    2  501    0  0.34730753507E+03  0.30563512649E+03 -0.45112536139E+01  0.46266154571E+03  0.00000000000E+00 0.  1.
</event>
<event>
 5    1  0.4419198E-005  0.1206672E+03  0.7818608E-02  0.1134274E+00
          4   -1    0    0  502    0 -0.00000000000E+00  0.00000000000E+00  0.84198964454E+02  0.84198964454E+02  0.00000000000E+00 0.  1.
         21   -1    0    0  501  502  0.00000000000E+00 -0.00000000000E+00 -0.27010161071E+03  0.27010161071E+03  0.00000000000E+00 0. -1.
        -13    1    1    2    0    0 -0.10843052458E+03 -0.59921080170E+02 -0.50803630144E+01  0.12399006316E+03  0.10566000000E+00 0.  1.
         13    1    1    2    0    0  0.10827144497E+03  0.37637706936E+02 -0.12196575942E+03  0.16737670213E+03  0.10566000000E+00 0. -1.
          4    1    1    2  501    0  0.15907961019E+00  0.22283373234E+02 -0.58856523819E+02  0.62933809872E+02  0.00000000000E+00 0.  1.
</event>
<event>
 5    1  0.4419198E-005  0.5543450E+03  0.7818608E-02  0.9366202E-01
          4   -1    0    0  502    0 -0.00000000000E+00  0.00000000000E+00  0.23563527807E+04  0.23563527807E+04  0.00000000000E+00 0.  1.
         21   -1    0    0  501  502  0.00000000000E+00 -0.00000000000E+00 -0.26296801452E+03  0.26296801452E+03  0.00000000000E+00 0. -1.
        -13    1    1    2    0    0 -0.58167373328E+03 -0.38247842557E+03  0.10423492654E+04  0.12534456830E+04  0.10566000000E+00 0.  1.
         13    1    1    2    0    0  0.44927384770E+03  0.18137730291E+03  0.10119416355E+04  0.11219494646E+04  0.10566000000E+00 0. -1.
          4    1    1    2  501    0  0.13239988558E+03  0.20110112266E+03  0.39093865211E+02  0.24392564755E+03  0.00000000000E+00 0.  1.
</event>
<event>
 5    1  0.4419198E-005  0.3131815E+03  0.7818608E-02  0.1022809E+00
         21   -1    0    0  501  502  0.00000000000E+00  0.00000000000E+00  0.12281422590E+03  0.12281422590E+03  0.00000000000E+00 0. -1.
         -4   -1    0    0    0  501 -0.00000000000E+00 -0.00000000000E+00 -0.30282614391E+04  0.30282614391E+04  0.00000000000E+00 0. -1.
        -13    1    1    2    0    0 -0.14333405680E+03 -0.73335229893E+02 -0.70352405121E+03  0.72171241473E+03  0.10566000000E+00 0.  1.
         13    1    1    2    0    0  0.29116878542E+03 -0.14045344000E+03 -0.14196781192E+03  0.35307407324E+03  0.10566000000E+00 0. -1.
         -4    1    1    2    0  502 -0.14783472861E+03  0.21378866989E+03 -0.20599553500E+04  0.20762891770E+04  0.00000000000E+00 0. -1.
</event>
<event>
 5    1  0.4419198E-005  0.2499511E+03  0.7818608E-02  0.1030418E+00
          4   -1    0    0  502    0 -0.00000000000E+00  0.00000000000E+00  0.87784982529E+03  0.87784982529E+03  0.00000000000E+00 0.  1.
         21   -1    0    0  501  502  0.00000000000E+00 -0.00000000000E+00 -0.19756817362E+03  0.19756817362E+03  0.00000000000E+00 0. -1.
        -13    1    1    2    0    0  0.23552772041E+03 -0.83616318929E+02  0.73709370758E+03  0.77831365193E+03  0.10566000000E+00 0.  1.
         13    1    1    2    0    0 -0.22793481333E+03  0.10506596696E+03 -0.17388983551E+02  0.25158601800E+03  0.10566000000E+00 0. -1.
          4    1    1    2  501    0 -0.75929070742E+01 -0.21449648027E+02 -0.39423072355E+02  0.45518328970E+02  0.00000000000E+00 0.  1.
</event>
<event>
 5    1  0.4419198E-005  0.1890804E+03  0.7818608E-02  0.1067891E+00
          4   -1    0    0  502    0 -0.00000000000E+00  0.00000000000E+00  0.17444501558E+03  0.17444501558E+03  0.00000000000E+00 0.  1.
         21   -1    0    0  501  502  0.00000000000E+00 -0.00000000000E+00 -0.43996961012E+03  0.43996961012E+03  0.00000000000E+00 0. -1.
        -13    1    1    2    0    0  0.11984532617E+02  0.18365743767E+03  0.56669080961E+02  0.19257486683E+03  0.10566000000E+00 0.  1.
         13    1    1    2    0    0 -0.64588687710E+02 -0.20502550651E+03 -0.24359108348E+03  0.32487502831E+03  0.10566000000E+00 0. -1.
          4    1    1    2  501    0  0.52604155093E+02  0.21368068838E+02 -0.78602592019E+02  0.96964730551E+02  0.00000000000E+00 0.  1.
</event>
<event>
 5    1  0.4419198E-005  0.4701502E+03  0.7818608E-02  0.1017377E+00
         21   -1    0    0  501  502  0.00000000000E+00  0.00000000000E+00  0.66096026296E+03  0.66096026296E+03  0.00000000000E+00 0.  1.
          4   -1    0    0  502    0 -0.00000000000E+00 -0.00000000000E+00 -0.66462958311E+03  0.66462958311E+03  0.00000000000E+00 0.  1.
        -13    1    1    2    0    0  0.43149047968E+03 -0.42507832478E+02 -0.51816262939E+02  0.43666450067E+03  0.10566000000E+00 0.  1.
         13    1    1    2    0    0  0.56370857666E+02  0.34051142314E+01 -0.28909561148E+03  0.29455992962E+03  0.10566000000E+00 0. -1.
          4    1    1    2  501    0 -0.48786133735E+03  0.39102718247E+02  0.33724255428E+03  0.59436541578E+03  0.00000000000E+00 0.  1.
</event>
<event>
 5    1  0.4419198E-005  0.5484638E+03  0.7818608E-02  0.9377638E-01
         21   -1    0    0  501  502  0.00000000000E+00  0.00000000000E+00  0.44130323583E+03  0.44130323583E+03  0.00000000000E+00 0. -1.
         -4   -1    0    0    0  501 -0.00000000000E+00 -0.00000000000E+00 -0.14840215352E+04  0.14840215352E+04  0.00000000000E+00 0. -1.
        -13    1    1    2    0    0 -0.47591125556E+03  0.78872968452E+00 -0.51157207258E+03  0.69871177310E+03  0.10566000000E+00 0.  1.
         13    1    1    2    0    0  0.64288264628E+03  0.61586729736E+02 -0.71981034196E+03  0.96706667905E+03  0.10566000000E+00 0. -1.
         -4    1    1    2    0  502 -0.16697139072E+03 -0.62375459421E+02  0.18866411520E+03  0.25954631884E+03  0.00000000000E+00 0. -1.
</event>
<event>
 5    1  0.4419198E-005  0.1813177E+03  0.7818608E-02  0.1073758E+00
         21   -1    0    0  501  502  0.00000000000E+00  0.00000000000E+00  0.10828402841E+03  0.10828402841E+03  0.00000000000E+00 0.  1.
         -4   -1    0    0    0  501 -0.00000000000E+00 -0.00000000000E+00 -0.10468646926E+04  0.10468646926E+04  0.00000000000E+00 0. -1.
        -13    1    1    2    0    0 -0.11594791620E+03  0.11703510182E+03 -0.15822767687E+02  0.16550379292E+03  0.10566000000E+00 0.  1.
         13    1    1    2    0    0  0.13710367279E+03 -0.12167468136E+03 -0.94260765222E+03  0.96026628721E+03  0.10566000000E+00 0. -1.
         -4    1    1    2    0  502 -0.21155756586E+02  0.46395795439E+01  0.19849755745E+02  0.29378640850E+02  0.00000000000E+00 0. -1.
</event>
<event>
 5    1  0.4419198E-005  0.1092558E+03  0.7818608E-02  0.1150088E+00
          4   -1    0    0  502    0 -0.00000000000E+00  0.00000000000E+00  0.19523608937E+03  0.19523608937E+03  0.00000000000E+00 0.  1.
         21   -1    0    0  501  502  0.00000000000E+00 -0.00000000000E+00 -0.54719692267E+03  0.54719692267E+03  0.00000000000E+00 0. -1.
        -13    1    1    2    0    0  0.10599893023E+03 -0.28621110801E+02  0.17223828072E+03  0.20425713623E+03  0.10566000000E+00 0.  1.
         13    1    1    2    0    0 -0.97286460337E+02  0.69393433033E+01 -0.39371055643E+03  0.40561166558E+03  0.10566000000E+00 0. -1.
          4    1    1    2  501    0 -0.87124698921E+01  0.21681767498E+02 -0.13048855759E+03  0.13256421023E+03  0.00000000000E+00 0.  1.
</event>
<event>
 5    1  0.4419198E-005  0.2092926E+03  0.7818608E-02  0.1053946E+00
          4   -1    0    0  502    0 -0.00000000000E+00  0.00000000000E+00  0.15582445385E+04  0.15582445385E+04  0.00000000000E+00 0.  1.
         21   -1    0    0  501  502  0.00000000000E+00 -0.00000000000E+00 -0.45292027034E+03  0.45292027034E+03  0.00000000000E+00 0.  1.
        -13    1    1    2    0    0  0.18443893081E+03 -0.27528548910E+02  0.62434921294E+03  0.65160378381E+03  0.10566000000E+00 0.  1.
         13    1    1    2    0    0 -0.23894561051E+03 -0.88427251237E+02  0.89270701655E+03  0.92835349523E+03  0.10566000000E+00 0. -1.
          4    1    1    2  501    0  0.54506679694E+02  0.11595580015E+03 -0.41173196137E+03  0.43120752977E+03  0.00000000000E+00 0.  1.
</event>
<event>
 5    1  0.4419198E-005  0.1366220E+03  0.7818608E-02  0.1115110E+00
          4   -1    0    0  502    0 -0.00000000000E+00  0.00000000000E+00  0.57349244849E+03  0.57349244849E+03  0.00000000000E+00 0.  1.
         21   -1    0    0  501  502  0.00000000000E+00 -0.00000000000E+00 -0.13790087816E+03  0.13790087816E+03  0.00000000000E+00 0. -1.
        -13    1    1    2    0    0  0.90559011016E+02 -0.10235731450E+03  0.50610691161E+03  0.52423484380E+03  0.10566000000E+00 0.  1.
         13    1    1    2    0    0 -0.71510671744E+02  0.11828221056E+03 -0.32887753062E+02  0.14207770048E+03  0.10566000000E+00 0. -1.
          4    1    1    2  501    0 -0.19048339272E+02 -0.15924896063E+02 -0.37627588223E+02  0.45080782370E+02  0.00000000000E+00 0.  1.
</event>
<event>
 5    1  0.4419198E-005  0.4362385E+03  0.7818608E-02  0.9689106E-01
         21   -1    0    0  501  502  0.00000000000E+00  0.00000000000E+00  0.21695331607E+03  0.21695331607E+03  0.00000000000E+00 0. -1.
         -4   -1    0    0    0  501 -0.00000000000E+00 -0.00000000000E+00 -0.25055882715E+04  0.25055882715E+04  0.00000000000E+00 0. -1.
        -13    1    1    2    0    0 -0.34839079557E+03 -0.64419605433E+02 -0.86585221904E+03  0.93553519890E+03  0.10566000000E+00 0.  1.
         13    1    1    2    0    0 -0.34991295900E+03 -0.33339386213E+02 -0.30483823651E+03  0.46527084064E+03  0.10566000000E+00 0. -1.
         -4    1    1    2    0  502  0.69830375457E+03  0.97758991645E+02 -0.11179444999E+04  0.13217355480E+04  0.00000000000E+00 0. -1.
</event>
<event>
 5    1  0.4419198E-005  0.4345731E+03  0.7818608E-02  0.9707465E-01
         -4   -1    0    0    0  501 -0.00000000000E+00  0.00000000000E+00  0.65886946648E+03  0.65886946648E+03  0.00000000000E+00 0. -1.
         21   -1    0    0  501  502  0.00000000000E+00 -0.00000000000E+00 -0.87671141999E+03  0.87671141999E+03  0.00000000000E+00 0. -1.
        -13    1    1    2    0    0 -0.19453509864E+03 -0.27417861136E+03  0.20171615978E+03  0.39205514384E+03  0.10566000000E+00 0.  1.
         13    1    1    2    0    0  0.10621917785E+03  0.63945622199E+03 -0.11180456043E+03  0.65778951381E+03  0.10566000000E+00 0. -1.
         -4    1    1    2    0  502  0.88315920790E+02 -0.36527761063E+03 -0.30775355286E+03  0.48573622882E+03  0.00000000000E+00 0. -1.
</event>
<event>
 5    1  0.4419198E-005  0.5363304E+03  0.7818608E-02  0.9401711E-01
         21   -1    0    0  501  502  0.00000000000E+00  0.00000000000E+00  0.44898837599E+03  0.44898837599E+03  0.00000000000E+00 0. -1.
          4   -1    0    0  502    0 -0.00000000000E+00 -0.00000000000E+00 -0.14565986061E+04  0.14565986061E+04  0.00000000000E+00 0.  1.
        -13    1    1    2    0    0  0.28141576918E+03 -0.70215276978E+03 -0.46575065916E+03  0.88833385330E+03  0.10566000000E+00 0.  1.
         13    1    1    2    0    0 -0.14776920450E+03  0.42726921585E+03 -0.54940928449E+03  0.71150916625E+03  0.10566000000E+00 0. -1.
          4    1    1    2  501    0 -0.13364656469E+03  0.27488355393E+03  0.75497135037E+01  0.30574396257E+03  0.00000000000E+00 0.  1.
</event>
<event>
 5    1  0.4419198E-005  0.9601255E+02  0.7818608E-02  0.1205814E+00
         21   -1    0    0  501  502  0.00000000000E+00  0.00000000000E+00  0.20235738139E+03  0.20235738139E+03  0.00000000000E+00 0.  1.
          4   -1    0    0  502    0 -0.00000000000E+00 -0.00000000000E+00 -0.29664500915E+03  0.29664500915E+03  0.00000000000E+00 0.  1.
        -13    1    1    2    0    0  0.93095920163E+02 -0.97343476027E+02 -0.20855049864E+03  0.24826583398E+03  0.10566000000E+00 0.  1.
         13    1    1    2    0    0 -0.20229103610E+02  0.38083885314E+02 -0.47206638420E+02  0.63938070259E+02  0.10566000000E+00 0. -1.
          4    1    1    2  501    0 -0.72866816553E+02  0.59259590714E+02  0.16146950930E+03  0.18679848629E+03  0.00000000000E+00 0.  1.
</event>
<event>
 5    1  0.4419198E-005  0.2874062E+03  0.7818608E-02  0.1084336E+00
         21   -1    0    0  501  502  0.00000000000E+00  0.00000000000E+00  0.46883690938E+03  0.46883690938E+03  0.00000000000E+00 0.  1.
          4   -1    0    0  502    0 -0.00000000000E+00 -0.00000000000E+00 -0.21704185409E+03  0.21704185409E+03  0.00000000000E+00 0.  1.
        -13    1    1    2    0    0 -0.26379453120E+03  0.60280777780E+02  0.10308840820E+03  0.28956615467E+03  0.10566000000E+00 0.  1.
         13    1    1    2    0    0 -0.33724388241E+02 -0.22886045732E+01 -0.29350199212E+02  0.44766253260E+02  0.10566000000E+00 0. -1.
          4    1    1    2  501    0  0.29751891945E+03 -0.57992173207E+02  0.17805684630E+03  0.35154635554E+03  0.00000000000E+00 0.  1.
</event>
<event>
 5    1  0.4419198E-005  0.4918551E+03  0.7818608E-02  0.9755761E-01
         21   -1    0    0  501  502  0.00000000000E+00  0.00000000000E+00  0.71114555988E+03  0.71114555988E+03  0.00000000000E+00 0. -1.
         -4   -1    0    0    0  501 -0.00000000000E+00 -0.00000000000E+00 -0.85291163330E+03  0.85291163330E+03  0.00000000000E+00 0. -1.
        -13    1    1    2    0    0  0.15542765184E+02  0.19556613084E+03 -0.40989202093E+03  0.45442179643E+03  0.10566000000E+00 0.  1.
         13    1    1    2    0    0  0.38684143206E+03  0.15576431758E+03 -0.13728029464E+03  0.43903838859E+03  0.10566000000E+00 0. -1.
         -4    1    1    2    0  502 -0.40238419724E+03 -0.35133044843E+03  0.40540624215E+03  0.67059700817E+03  0.00000000000E+00 0. -1.
</event>
<event>
 5    1  0.4419198E-005  0.2574989E+03  0.7818608E-02  0.1028595E+00
         -4   -1    0    0    0  501 -0.00000000000E+00  0.00000000000E+00  0.40408562088E+03  0.40408562088E+03  0.00000000000E+00 0. -1.
         21   -1    0    0  501  502  0.00000000000E+00 -0.00000000000E+00 -0.10429559617E+04  0.10429559617E+04  0.00000000000E+00 0. -1.
        -13    1    1    2    0    0  0.21575609481E+03  0.10931903402E+03 -0.64631804781E+02  0.25035699511E+03  0.10566000000E+00 0.  1.
         13    1    1    2    0    0 -0.26606044300E+03  0.14728998583E+03  0.21028240186E+03  0.36973125233E+03  0.10566000000E+00 0. -1.
         -4    1    1    2    0  502  0.50304348185E+02 -0.25660901985E+03 -0.78452093793E+03  0.82695333518E+03  0.00000000000E+00 0. -1.
</event>
<event>
 5    1  0.4419198E-005  0.2023947E+02  0.7818608E-02  0.1506552E+00
          4   -1    0    0  502    0 -0.00000000000E+00  0.00000000000E+00  0.30734802626E+02  0.30734802626E+02  0.00000000000E+00 0.  1.
         21   -1    0    0  501  502  0.00000000000E+00 -0.00000000000E+00 -0.84795249821E+02  0.84795249821E+02  0.00000000000E+00 0.  1.
        -13    1    1    2    0    0  0.16511307396E+02 -0.18199393723E+02  0.10332048401E+02  0.26657148985E+02  0.10566000000E+00 0.  1.
         13    1    1    2    0    0 -0.17491773434E+02  0.46253210388E+01  0.45037143535E+01  0.18645383868E+02  0.10566000000E+00 0. -1.
          4    1    1    2  501    0  0.98046603781E+00  0.13574072684E+02 -0.68896209949E+02  0.70227519593E+02  0.00000000000E+00 0.  1.
</event>
<event>
 5    1  0.4419198E-005  0.3140316E+03  0.7818608E-02  0.1012457E+00
         -4   -1    0    0    0  501 -0.00000000000E+00  0.00000000000E+00  0.10550708606E+04  0.10550708606E+04  0.00000000000E+00 0. -1.
         21   -1    0    0  501  502  0.00000000000E+00 -0.00000000000E+00 -0.37398669591E+03  0.37398669591E+03  0.00000000000E+00 0. -1.
        -13    1    1    2    0    0 -0.46403894543E+02 -0.21672811642E+03  0.88142865391E+02  0.23852373835E+03  0.10566000000E+00 0.  1.
         13    1    1    2    0    0  0.25149445400E+03  0.42649690295E+03  0.71755235134E+03  0.87179725665E+03  0.10566000000E+00 0. -1.
         -4    1    1    2    0  502 -0.20509055946E+03 -0.20976878654E+03 -0.12461105201E+03  0.31873656155E+03  0.00000000000E+00 0. -1.
</event>
<event>
 5    1  0.4419198E-005  0.5014127E+03  0.7818608E-02  0.9947160E-01
         21   -1    0    0  501  502  0.00000000000E+00  0.00000000000E+00  0.16469928934E+03  0.16469928934E+03  0.00000000000E+00 0.  1.
          4   -1    0    0  502    0 -0.00000000000E+00 -0.00000000000E+00 -0.20418091793E+04  0.20418091793E+04  0.00000000000E+00 0.  1.
        -13    1    1    2    0    0 -0.50378610183E+03 -0.16491143233E+03 -0.64237961918E+03  0.83285521143E+03  0.10566000000E+00 0.  1.
         13    1    1    2    0    0  0.83974044246E+02 -0.48537483720E+02 -0.43386396057E+03  0.44457336276E+03  0.10566000000E+00 0. -1.
          4    1    1    2  501    0  0.41981205758E+03  0.21344891605E+03 -0.80086631025E+03  0.92907989449E+03  0.00000000000E+00 0.  1.
</event>
<event>
 5    1  0.4419198E-005  0.3549817E+02  0.7818608E-02  0.1365518E+00
         21   -1    0    0  501  502  0.00000000000E+00  0.00000000000E+00  0.49775042396E+02  0.49775042396E+02  0.00000000000E+00 0. -1.
          4   -1    0    0  502    0 -0.00000000000E+00 -0.00000000000E+00 -0.23390001431E+03  0.23390001431E+03  0.00000000000E+00 0.  1.
        -13    1    1    2    0    0  0.10587411261E+02  0.33489526243E+02 -0.21201253775E+03  0.21490223119E+03  0.10566000000E+00 0.  1.
         13    1    1    2    0    0 -0.26389961529E+02 -0.37877772721E+02  0.17560033263E+02  0.49391514130E+02  0.10566000000E+00 0. -1.
          4    1    1    2  501    0  0.15802550269E+02  0.43882464776E+01  0.10327532567E+02  0.19381311387E+02  0.00000000000E+00 0.  1.
</event>
<event>
 5    1  0.4419198E-005  0.4829601E+03  0.7818608E-02  0.9817760E-01
         21   -1    0    0  501  502  0.00000000000E+00  0.00000000000E+00  0.30194015810E+03  0.30194015810E+03  0.00000000000E+00 0. -1.
         -4   -1    0    0    0  501 -0.00000000000E+00 -0.00000000000E+00 -0.11590709415E+04  0.11590709415E+04  0.00000000000E+00 0. -1.
        -13    1    1    2    0    0  0.36238200058E+02 -0.16363409071E+03 -0.57074390922E+02  0.17705033197E+03  0.10566000000E+00 0.  1.
         13    1    1    2    0    0  0.45704386806E+03  0.39225549018E+02 -0.55275717194E+03  0.71830929502E+03  0.10566000000E+00 0. -1.
         -4    1    1    2    0  502 -0.49328206812E+03  0.12440854170E+03 -0.24729922052E+03  0.56565147259E+03  0.00000000000E+00 0. -1.
</event>
<event>
 5    1  0.4419198E-005  0.5560822E+03  0.7818608E-02  0.9362853E-01
         21   -1    0    0  501  502  0.00000000000E+00  0.00000000000E+00  0.35719730549E+03  0.35719730549E+03  0.00000000000E+00 0.  1.
         -4   -1    0    0    0  501 -0.00000000000E+00 -0.00000000000E+00 -0.17255817894E+04  0.17255817894E+04  0.00000000000E+00 0. -1.
        -13    1    1    2    0    0  0.26140359127E+03 -0.37525169339E+03 -0.30486789588E+03  0.54962725189E+03  0.10566000000E+00 0.  1.
         13    1    1    2    0    0 -0.17050645562E+03  0.70789493389E+03 -0.54107683735E+03  0.90716693278E+03  0.10566000000E+00 0. -1.
         -4    1    1    2    0  502 -0.90897135654E+02 -0.33264324050E+03 -0.52243975064E+03  0.62598491018E+03  0.00000000000E+00 0. -1.
</event>
<event>
 5    1  0.4419198E-005  0.1427245E+03  0.7818608E-02  0.1108517E+00
         21   -1    0    0  501  502  0.00000000000E+00  0.00000000000E+00  0.13432582247E+03  0.13432582247E+03  0.00000000000E+00 0. -1.
         -4   -1    0    0    0  501 -0.00000000000E+00 -0.00000000000E+00 -0.48708084853E+03  0.48708084853E+03  0.00000000000E+00 0. -1.
        -13    1    1    2    0    0 -0.10608344691E+03 -0.99256143548E+02 -0.22564273584E+02  0.14701917340E+03  0.10566000000E+00 0.  1.
         13    1    1    2    0    0  0.12169823710E+03  0.74528872549E+02 -0.38591507862E+03  0.41145531085E+03  0.10566000000E+00 0. -1.
         -4    1    1    2    0  502 -0.15614790187E+02  0.24727271000E+02  0.55724326148E+02  0.62932186743E+02  0.00000000000E+00 0. -1.
</event>
<event>
 5    1  0.4419198E-005  0.8815301E+03  0.7818608E-02  0.8894655E-01
          4   -1    0    0  502    0 -0.00000000000E+00  0.00000000000E+00  0.18344361158E+04  0.18344361158E+04  0.00000000000E+00 0.  1.
         21   -1    0    0  501  502  0.00000000000E+00 -0.00000000000E+00 -0.71520756406E+03  0.71520756406E+03  0.00000000000E+00 0. -1.
        -13    1    1    2    0    0  0.67220217866E+03  0.57168966055E+03  0.68907813588E+03  0.11196041825E+04  0.10566000000E+00 0.  1.
         13    1    1    2    0    0 -0.88845663012E+03 -0.25927107963E+03  0.48704051580E+03  0.10458418387E+04  0.10566000000E+00 0. -1.
          4    1    1    2  501    0  0.21625445146E+03 -0.31241858092E+03 -0.56890099907E+02  0.38419765870E+03  0.00000000000E+00 0.  1.
</event>
<event>
 5    1  0.4419198E-005  0.3540575E+03  0.7818608E-02  0.1039097E+00
          4   -1    0    0  502    0 -0.00000000000E+00  0.00000000000E+00  0.36183155002E+03  0.36183155002E+03  0.00000000000E+00 0.  1.
         21   -1    0    0  501  502  0.00000000000E+00 -0.00000000000E+00 -0.57760617475E+03  0.57760617475E+03  0.00000000000E+00 0.  1.
        -13    1    1    2    0    0 -0.23190687077E+03 -0.28916985696E+03 -0.35825925538E+03  0.51550917365E+03  0.10566000000E+00 0.  1.
         13    1    1    2    0    0  0.93459985304E+01  0.66773448845E+02  0.77374743691E+02  0.10262993367E+03  0.10566000000E+00 0. -1.
          4    1    1    2  501    0  0.22256087224E+03  0.22239640812E+03  0.65109886954E+02  0.32129861745E+03  0.00000000000E+00 0.  1.
</event>
<event>
 5    1  0.4419198E-005  0.6025645E+02  0.7818608E-02  0.1254881E+00
          4   -1    0    0  502    0 -0.00000000000E+00  0.00000000000E+00  0.33318238526E+02  0.33318238526E+02  0.00000000000E+00 0.  1.
         21   -1    0    0  501  502  0.00000000000E+00 -0.00000000000E+00 -0.51456619840E+03  0.51456619840E+03  0.00000000000E+00 0.  1.
        -13    1    1    2    0    0 -0.43488077285E+01 -0.91237331956E+02 -0.41588907716E+03  0.42580147784E+03  0.10566000000E+00 0.  1.
         13    1    1    2    0    0  0.25459099079E+02  0.50887240176E+02 -0.43184535837E+02  0.71432431277E+02  0.10566000000E+00 0. -1.
          4    1    1    2  501    0 -0.21110291351E+02  0.40350091780E+02 -0.22174346884E+02  0.50650527809E+02  0.00000000000E+00 0.  1.
</event>
<event>
 5    1  0.4419198E-005  0.3996746E+03  0.7818608E-02  0.9837568E-01
         21   -1    0    0  501  502  0.00000000000E+00  0.00000000000E+00  0.34229806823E+03  0.34229806823E+03  0.00000000000E+00 0.  1.
          4   -1    0    0  502    0 -0.00000000000E+00 -0.00000000000E+00 -0.13402017328E+04  0.13402017328E+04  0.00000000000E+00 0.  1.
        -13    1    1    2    0    0 -0.57777926946E+02 -0.59810231314E+03 -0.81857771021E+03  0.10154477557E+04  0.10566000000E+00 0.  1.
         13    1    1    2    0    0  0.12589513577E+03  0.24616512175E+03 -0.12887641899E+03  0.30505080710E+03  0.10566000000E+00 0. -1.
          4    1    1    2  501    0 -0.68117208824E+02  0.35193719139E+03 -0.50449535352E+02  0.36200123817E+03  0.00000000000E+00 0.  1.
</event>
<event>
 5    1  0.4419198E-005  0.1157738E+03  0.7818608E-02  0.1140809E+00
         21   -1    0    0  501  502  0.00000000000E+00  0.00000000000E+00  0.88191405275E+02  0.88191405275E+02  0.00000000000E+00 0. -1.
          4   -1    0    0  502    0 -0.00000000000E+00 -0.00000000000E+00 -0.37730220182E+03  0.37730220182E+03  0.00000000000E+00 0.  1.
        -13    1    1    2    0    0  0.11718165674E+03 -0.11080061161E+01 -0.30202587192E+03  0.32396358873E+03  0.10566000000E+00 0.  1.
         13    1    1    2    0    0 -0.10959185901E+03 -0.91051076087E+01 -0.14869584251E+02  0.11097024036E+03  0.10566000000E+00 0. -1.
          4    1    1    2  501    0 -0.75897977292E+01  0.10213113725E+02  0.27784659622E+02  0.30559778007E+02  0.00000000000E+00 0.  1.
</event>
<event>
 5    1  0.4419198E-005  0.1683934E+03  0.7818608E-02  0.1099509E+00
          4   -1    0    0  502    0 -0.00000000000E+00  0.00000000000E+00  0.45138587198E+03  0.45138587198E+03  0.00000000000E+00 0.  1.
         21   -1    0    0  501  502  0.00000000000E+00 -0.00000000000E+00 -0.66214145572E+03  0.66214145572E+03  0.00000000000E+00 0. -1.
        -13    1    1    2    0    0  0.94008112439E+02 -0.51280792394E+02  0.36535799415E+03  0.38072788173E+03  0.10566000000E+00 0.  1.
         13    1    1    2    0    0 -0.26213239569E+03  0.60797086454E+02 -0.25761712380E+03  0.37252687450E+03  0.10566000000E+00 0. -1.
          4    1    1    2  501    0  0.16812428325E+03 -0.95162940597E+01 -0.31849645410E+03  0.36027257145E+03  0.00000000000E+00 0.  1.
</event>
<event>
 5    1  0.4419198E-005  0.4090103E+03  0.7818608E-02  0.9703378E-01
         21   -1    0    0  501  502  0.00000000000E+00  0.00000000000E+00  0.19316252429E+03  0.19316252429E+03  0.00000000000E+00 0. -1.
         -4   -1    0    0    0  501 -0.00000000000E+00 -0.00000000000E+00 -0.28360730759E+04  0.28360730759E+04  0.00000000000E+00 0. -1.
        -13    1    1    2    0    0 -0.32980276656E+03 -0.11615584002E+03 -0.12251315417E+04  0.12740523339E+04  0.10566000000E+00 0.  1.
         13    1    1    2    0    0  0.46877209199E+03  0.21512985530E+03 -0.14848357058E+04  0.15718667925E+04  0.10566000000E+00 0. -1.
         -4    1    1    2    0  502 -0.13896932543E+03 -0.98974015278E+02  0.67056695864E+02  0.18331647381E+03  0.00000000000E+00 0. -1.
</event>
<event>
 5    1  0.4419198E-005  0.5511182E+03  0.7818608E-02  0.9372458E-01
         -4   -1    0    0    0  501 -0.00000000000E+00  0.00000000000E+00  0.75626842827E+03  0.75626842827E+03  0.00000000000E+00 0. -1.
         21   -1    0    0  501  502  0.00000000000E+00 -0.00000000000E+00 -0.10292744846E+04  0.10292744846E+04  0.00000000000E+00 0. -1.
        -13    1    1    2    0    0 -0.54339479265E+03  0.27824611440E+03 -0.50748657703E+03  0.79387747032E+03  0.10566000000E+00 0.  1.
         13    1    1    2    0    0  0.51216849275E+03 -0.17429308448E+03  0.47998135471E+03  0.72324045538E+03  0.10566000000E+00 0. -1.
         -4    1    1    2    0  502  0.31226299902E+02 -0.10395302992E+03 -0.24550083404E+03  0.26842498720E+03  0.00000000000E+00 0. -1.
</event>
<event>
 5    1  0.4419198E-005  0.4962071E+03  0.7818608E-02  0.9764215E-01
          4   -1    0    0  502    0 -0.00000000000E+00  0.00000000000E+00  0.73763331294E+03  0.73763331294E+03  0.00000000000E+00 0.  1.
         21   -1    0    0  501  502  0.00000000000E+00 -0.00000000000E+00 -0.50404039857E+03  0.50404039857E+03  0.00000000000E+00 0.  1.
        -13    1    1    2    0    0  0.42363379233E+03  0.10556696042E+03  0.51395494019E+02  0.43960377740E+03  0.10566000000E+00 0.  1.
         13    1    1    2    0    0  0.98985753535E+02  0.15698581088E+03  0.10189379244E+03  0.21171934329E+03  0.10566000000E+00 0. -1.
          4    1    1    2  501    0 -0.52261954586E+03 -0.26255277130E+03  0.80303627911E+02  0.59035059083E+03  0.00000000000E+00 0.  1.
</event>
<event>
 5    1  0.4419198E-005  0.4431580E+03  0.7818608E-02  0.9624553E-01
         21   -1    0    0  501  502  0.00000000000E+00  0.00000000000E+00  0.14543713183E+04  0.14543713183E+04  0.00000000000E+00 0.  1.
          4   -1    0    0  502    0 -0.00000000000E+00 -0.00000000000E+00 -0.46164901115E+03  0.46164901115E+03  0.00000000000E+00 0.  1.
        -13    1    1    2    0    0 -0.16368369581E+03  0.46918904056E+03  0.17872878443E+03  0.52808588089E+03  0.10566000000E+00 0.  1.
         13    1    1    2    0    0 -0.29059606450E+03 -0.34756869051E+03  0.60451124200E+01  0.45308566726E+03  0.10566000000E+00 0. -1.
          4    1    1    2  501    0  0.45427976031E+03 -0.12162035005E+03  0.80794841030E+03  0.93484878129E+03  0.00000000000E+00 0.  1.
</event>
<event>
 5    1  0.4419198E-005  0.1901719E+03  0.7818608E-02  0.1067091E+00
         21   -1    0    0  501  502  0.00000000000E+00  0.00000000000E+00  0.16667358110E+03  0.16667358110E+03  0.00000000000E+00 0.  1.
          4   -1    0    0  502    0 -0.00000000000E+00 -0.00000000000E+00 -0.81159146022E+03  0.81159146022E+03  0.00000000000E+00 0.  1.
        -13    1    1    2    0    0 -0.20579245672E+03 -0.19038555108E+02 -0.59518941313E+03  0.63005035552E+03  0.10566000000E+00 0.  1.
         13    1    1    2    0    0  0.15974259123E+03 -0.10045896343E+02 -0.15931991089E+03  0.22583502974E+03  0.10566000000E+00 0. -1.
          4    1    1    2  501    0  0.46049865492E+02  0.29084451451E+02  0.10959144489E+03  0.12237965607E+03  0.00000000000E+00 0.  1.
</event>
<event>
 5    1  0.4419198E-005  0.1330397E+03  0.7818608E-02  0.1119157E+00
          4   -1    0    0  502    0 -0.00000000000E+00  0.00000000000E+00  0.10986570074E+03  0.10986570074E+03  0.00000000000E+00 0.  1.
         21   -1    0    0  501  502  0.00000000000E+00 -0.00000000000E+00 -0.21178993300E+03  0.21178993300E+03  0.00000000000E+00 0. -1.
        -13    1    1    2    0    0  0.76559096514E+02  0.98752699816E+02 -0.15682573749E+02  0.12593389243E+03  0.10566000000E+00 0.  1.
         13    1    1    2    0    0 -0.86962233447E+02 -0.11527178343E+03 -0.46931091422E+02  0.15183067084E+03  0.10566000000E+00 0. -1.
          4    1    1    2  501    0  0.10403136933E+02  0.16519083612E+02 -0.39310567091E+02  0.43891070464E+02  0.00000000000E+00 0.  1.
</event>
<event>
 5    1  0.4419198E-005  0.3781470E+02  0.7818608E-02  0.1394015E+00
         21   -1    0    0  501  502  0.00000000000E+00  0.00000000000E+00  0.15505459602E+03  0.15505459602E+03  0.00000000000E+00 0. -1.
         -4   -1    0    0    0  501 -0.00000000000E+00 -0.00000000000E+00 -0.17741441271E+02  0.17741441271E+02  0.00000000000E+00 0. -1.
        -13    1    1    2    0    0 -0.74874425435E+01 -0.16341337712E+02  0.29482789096E+02  0.34530379827E+02  0.10566000000E+00 0.  1.
         13    1    1    2    0    0  0.42152428138E+02  0.28361984729E+01  0.29435104275E+02  0.51490851104E+02  0.10566000000E+00 0. -1.
         -4    1    1    2    0  502 -0.34664985595E+02  0.13505139240E+02  0.78395261375E+02  0.86774806356E+02  0.00000000000E+00 0. -1.
</event>
<event>
 5    1  0.4419198E-005  0.2406792E+03  0.7818608E-02  0.1035339E+00
          4   -1    0    0  502    0 -0.00000000000E+00  0.00000000000E+00  0.26419319087E+04  0.26419319087E+04  0.00000000000E+00 0.  1.
         21   -1    0    0  501  502  0.00000000000E+00 -0.00000000000E+00 -0.25134776710E+03  0.25134776710E+03  0.00000000000E+00 0.  1.
        -13    1    1    2    0    0 -0.22794188647E+03 -0.57682560925E+02  0.10796207021E+04  0.11049278949E+04  0.10566000000E+00 0.  1.
         13    1    1    2    0    0  0.25148556571E+03 -0.68484499978E+02  0.15204752144E+04  0.15426535597E+04  0.10566000000E+00 0. -1.
          4    1    1    2  501    0 -0.23543679240E+02  0.12616706090E+03 -0.20951177487E+03  0.24569822120E+03  0.00000000000E+00 0.  1.
</event>
<event>
 5    1  0.4419198E-005  0.2518321E+03  0.7818608E-02  0.1029448E+00
         21   -1    0    0  501  502  0.00000000000E+00  0.00000000000E+00  0.33080088628E+03  0.33080088628E+03  0.00000000000E+00 0. -1.
         -4   -1    0    0    0  501 -0.00000000000E+00 -0.00000000000E+00 -0.23782524552E+04  0.23782524552E+04  0.00000000000E+00 0. -1.
        -13    1    1    2    0    0 -0.20570434998E+03  0.10585428732E+03 -0.97998970792E+03  0.10069256420E+04  0.10566000000E+00 0.  1.
         13    1    1    2    0    0  0.25798797831E+03 -0.91060444004E+02 -0.13688286144E+04  0.13959017115E+04  0.10566000000E+00 0. -1.
         -4    1    1    2    0  502 -0.52283628336E+02 -0.14793843316E+02  0.30136675345E+03  0.30622598792E+03  0.00000000000E+00 0. -1.
</event>
<event>
 5    1  0.4419198E-005  0.4803107E+03  0.7818608E-02  0.9608894E-01
          4   -1    0    0  502    0 -0.00000000000E+00  0.00000000000E+00  0.47366414394E+03  0.47366414394E+03  0.00000000000E+00 0.  1.
         21   -1    0    0  501  502  0.00000000000E+00 -0.00000000000E+00 -0.13706849833E+04  0.13706849833E+04  0.00000000000E+00 0.  1.
        -13    1    1    2    0    0  0.38357374907E+03  0.22468352103E+03 -0.17913574248E+03  0.47927145857E+03  0.10566000000E+00 0.  1.
         13    1    1    2    0    0  0.14765436097E+03 -0.31959130926E+03  0.11699020577E+03  0.37098131311E+03  0.10566000000E+00 0. -1.
          4    1    1    2  501    0 -0.53122811004E+03  0.94907788226E+02 -0.83487530270E+03  0.99409635560E+03  0.00000000000E+00 0.  1.
</event>
<event>
 5    1  0.4419198E-005  0.2265975E+03  0.7818608E-02  0.1075637E+00
         -4   -1    0    0    0  501 -0.00000000000E+00  0.00000000000E+00  0.14746286745E+03  0.14746286745E+03  0.00000000000E+00 0. -1.
         21   -1    0    0  501  502  0.00000000000E+00 -0.00000000000E+00 -0.72664765036E+03  0.72664765036E+03  0.00000000000E+00 0. -1.
        -13    1    1    2    0    0  0.17147130155E+02  0.86386311790E+02 -0.85340893693E+02  0.12263644743E+03  0.10566000000E+00 0.  1.
         13    1    1    2    0    0  0.26709963595E+02 -0.29150847671E+03 -0.10746981594E+03  0.31183390876E+03  0.10566000000E+00 0. -1.
         -4    1    1    2    0  502 -0.43857093750E+02  0.20512216492E+03 -0.38637407327E+03  0.43964016162E+03  0.00000000000E+00 0. -1.
</event>
<event>
 5    1  0.4419198E-005  0.2799635E+03  0.7818608E-02  0.1015937E+00
          4   -1    0    0  502    0 -0.00000000000E+00  0.00000000000E+00  0.12223513801E+04  0.12223513801E+04  0.00000000000E+00 0.  1.
         21   -1    0    0  501  502  0.00000000000E+00 -0.00000000000E+00 -0.59441182497E+03  0.59441182497E+03  0.00000000000E+00 0.  1.
        -13    1    1    2    0    0  0.61510424735E+02 -0.31180679725E+03  0.39867090655E+03  0.50984852070E+03  0.10566000000E+00 0.  1.
         13    1    1    2    0    0 -0.65746374596E+02  0.25625982319E+03  0.74376235016E+03  0.78941378721E+03  0.10566000000E+00 0. -1.
          4    1    1    2  501    0  0.42359498611E+01  0.55546974062E+02 -0.51449370158E+03  0.51750089717E+03  0.00000000000E+00 0.  1.
</event>
<event>
 5    1  0.4419198E-005  0.3871823E+03  0.7818608E-02  0.9921235E-01
         21   -1    0    0  501  502  0.00000000000E+00  0.00000000000E+00  0.37035807763E+03  0.37035807763E+03  0.00000000000E+00 0. -1.
          4   -1    0    0  502    0 -0.00000000000E+00 -0.00000000000E+00 -0.10776242379E+04  0.10776242379E+04  0.00000000000E+00 0.  1.
        -13    1    1    2    0    0 -0.91186221823E+02  0.38382077531E+03  0.10495114129E+03  0.40822551100E+03  0.10566000000E+00 0.  1.
         13    1    1    2    0    0  0.22959958405E+03  0.15649656622E+01 -0.20772505951E+03  0.30962578966E+03  0.10566000000E+00 0. -1.
          4    1    1    2  501    0 -0.13841336222E+03 -0.38538574097E+03 -0.60449224208E+03  0.73013101490E+03  0.00000000000E+00 0.  1.
</event>
<event>
 5    1  0.4419198E-005  0.4992008E+03  0.7818608E-02  0.9655976E-01
          4   -1    0    0  502    0 -0.00000000000E+00  0.00000000000E+00  0.35374099776E+04  0.35374099776E+04  0.00000000000E+00 0.  1.
         21   -1    0    0  501  502  0.00000000000E+00 -0.00000000000E+00 -0.13595612979E+03  0.13595612979E+03  0.00000000000E+00 0.  1.
        -13    1    1    2    0    0 -0.46171241876E+03 -0.42966894556E+03  0.10500708565E+04  0.12249255387E+04  0.10566000000E+00 0.  1.
         13    1    1    2    0    0  0.23819813571E+03  0.11733121381E+03  0.13513371901E+04  0.13771772500E+04  0.10566000000E+00 0. -1.
          4    1    1    2  501    0  0.22351428305E+03  0.31233773176E+03  0.10000458012E+04  0.10712633187E+04  0.00000000000E+00 0.  1.
</event>
<event>
 5    1  0.4419198E-005  0.1605839E+03  0.7818608E-02  0.1091118E+00
         -4   -1    0    0    0  501 -0.00000000000E+00  0.00000000000E+00  0.48229516302E+03  0.48229516302E+03  0.00000000000E+00 0. -1.
         21   -1    0    0  501  502  0.00000000000E+00 -0.00000000000E+00 -0.29085058345E+03  0.29085058345E+03  0.00000000000E+00 0. -1.
        -13    1    1    2    0    0 -0.20452328373E+03  0.71969801197E+02 -0.12817392728E+03  0.25186899903E+03  0.10566000000E+00 0.  1.
         13    1    1    2    0    0  0.14244313841E+03 -0.64157322377E+02  0.39413912707E+03  0.42397154662E+03  0.10566000000E+00 0. -1.
         -4    1    1    2    0  502  0.62080145319E+02 -0.78124788200E+01 -0.74520620220E+02  0.97305200818E+02  0.00000000000E+00 0. -1.
</event>
<event>
 5    1  0.4419198E-005  0.2519189E+03  0.7818608E-02  0.1029403E+00
         21   -1    0    0  501  502  0.00000000000E+00  0.00000000000E+00  0.19481458344E+03  0.19481458344E+03  0.00000000000E+00 0.  1.
         -4   -1    0    0    0  501 -0.00000000000E+00 -0.00000000000E+00 -0.73001206479E+03  0.73001206479E+03  0.00000000000E+00 0. -1.
        -13    1    1    2    0    0  0.16225938812E+03  0.19210050570E+03 -0.10389771006E+03  0.27207620007E+03  0.10566000000E+00 0.  1.
         13    1    1    2    0    0 -0.15268165073E+03 -0.20068717431E+03 -0.51216074671E+03  0.57087272665E+03  0.10566000000E+00 0. -1.
         -4    1    1    2    0  502 -0.95777373922E+01  0.85866686012E+01  0.80860975424E+02  0.81877721498E+02  0.00000000000E+00 0. -1.
</event>
<event>
 5    1  0.4419198E-005  0.1118951E+03  0.7818608E-02  0.1146247E+00
         21   -1    0    0  501  502  0.00000000000E+00  0.00000000000E+00  0.63517505991E+02  0.63517505991E+02  0.00000000000E+00 0.  1.
          4   -1    0    0  502    0 -0.00000000000E+00 -0.00000000000E+00 -0.74818708027E+03  0.74818708027E+03  0.00000000000E+00 0.  1.
        -13    1    1    2    0    0  0.38781448828E+01 -0.11469860036E+03 -0.54159399876E+03  0.55361979696E+03  0.10566000000E+00 0.  1.
         13    1    1    2    0    0 -0.92655150970E+01  0.10497015328E+03 -0.18598165002E+03  0.21376100710E+03  0.10566000000E+00 0. -1.
          4    1    1    2  501    0  0.53873702141E+01  0.97284470759E+01  0.42906074492E+02  0.44323782202E+02  0.00000000000E+00 0.  1.
</event>
<event>
 5    1  0.4419198E-005  0.1771441E+03  0.7818608E-02  0.1087609E+00
         -4   -1    0    0    0  501 -0.00000000000E+00  0.00000000000E+00  0.25146300915E+04  0.25146300915E+04  0.00000000000E+00 0. -1.
         21   -1    0    0  501  502  0.00000000000E+00 -0.00000000000E+00 -0.26150534466E+02  0.26150534466E+02  0.00000000000E+00 0. -1.
        -13    1    1    2    0    0 -0.11597199176E+03  0.62639549318E+02  0.74052965792E+03  0.75216846613E+03  0.10566000000E+00 0.  1.
         13    1    1    2    0    0  0.15350998247E+03  0.11824303479E+03  0.94941455977E+03  0.96898645370E+03  0.10566000000E+00 0. -1.
         -4    1    1    2    0  502 -0.37537990709E+02 -0.18088258410E+03  0.79853533935E+03  0.81962570614E+03  0.00000000000E+00 0. -1.
</event>
<event>
 5    1  0.4419198E-005  0.4850530E+03  0.7818608E-02  0.9597743E-01
          4   -1    0    0  502    0 -0.00000000000E+00  0.00000000000E+00  0.65299509025E+03  0.65299509025E+03  0.00000000000E+00 0.  1.
         21   -1    0    0  501  502  0.00000000000E+00 -0.00000000000E+00 -0.77604137286E+03  0.77604137286E+03  0.00000000000E+00 0.  1.
        -13    1    1    2    0    0  0.67018651651E+03 -0.12137069291E+03 -0.42316860645E+02  0.68240130412E+03  0.10566000000E+00 0.  1.
         13    1    1    2    0    0 -0.34705838228E+03 -0.77697526248E+02 -0.90500869217E+02  0.36698343940E+03  0.10566000000E+00 0. -1.
          4    1    1    2  501    0 -0.32312813422E+03  0.19906821916E+03  0.97714472495E+01  0.37965171959E+03  0.00000000000E+00 0.  1.
</event>
<event>
 5    1  0.4419198E-005  0.2615695E+03  0.7818608E-02  0.1050760E+00
         21   -1    0    0  501  502  0.00000000000E+00  0.00000000000E+00  0.22810559554E+03  0.22810559554E+03  0.00000000000E+00 0. -1.
         -4   -1    0    0    0  501 -0.00000000000E+00 -0.00000000000E+00 -0.14043194008E+04  0.14043194008E+04  0.00000000000E+00 0. -1.
        -13    1    1    2    0    0  0.65662191612E+02  0.97823378434E+02 -0.13181180059E+03  0.17679168169E+03  0.10566000000E+00 0.  1.
         13    1    1    2    0    0  0.62820725386E+02 -0.32117439326E+03 -0.11359751253E+04  0.11821755076E+04  0.10566000000E+00 0. -1.
         -4    1    1    2    0  502 -0.12848291700E+03  0.22335101483E+03  0.91573120637E+02  0.27345780700E+03  0.00000000000E+00 0. -1.
</event>
<event>
 5    1  0.4419198E-005  0.1159930E+03  0.7818608E-02  0.1140509E+00
         21   -1    0    0  501  502  0.00000000000E+00  0.00000000000E+00  0.31653503392E+03  0.31653503392E+03  0.00000000000E+00 0. -1.
          4   -1    0    0  502    0 -0.00000000000E+00 -0.00000000000E+00 -0.10378895644E+03  0.10378895644E+03  0.00000000000E+00 0.  1.
        -13    1    1    2    0    0  0.73879653789E+02  0.70209953827E+02  0.24546514398E+02  0.10483407554E+03  0.10566000000E+00 0.  1.
         13    1    1    2    0    0 -0.13440277573E+03 -0.45127267979E+02  0.30917555218E+02  0.14510852085E+03  0.10566000000E+00 0. -1.
          4    1    1    2  501    0  0.60523121937E+02 -0.25082685848E+02  0.15728200786E+03  0.17038139398E+03  0.00000000000E+00 0.  1.
</event>
<event>
 5    1  0.4419198E-005  0.2297416E+03  0.7818608E-02  0.1041461E+00
         21   -1    0    0  501  502  0.00000000000E+00  0.00000000000E+00  0.36128652382E+02  0.36128652382E+02  0.00000000000E+00 0. -1.
          4   -1    0    0  502    0 -0.00000000000E+00 -0.00000000000E+00 -0.23822353008E+04  0.23822353008E+04  0.00000000000E+00 0.  1.
        -13    1    1    2    0    0 -0.64370867363E+02  0.21649049328E+03 -0.11153790005E+04  0.11380167258E+04  0.10566000000E+00 0.  1.
         13    1    1    2    0    0  0.93329046138E+02 -0.21498262963E+03 -0.12291635445E+04  0.12513076649E+04  0.10566000000E+00 0. -1.
          4    1    1    2  501    0 -0.28958178776E+02 -0.15078636459E+01 -0.15641034018E+01  0.29039562501E+02  0.00000000000E+00 0.  1.
</event>
<event>
 5    1  0.4419198E-005  0.1472115E+03  0.7818608E-02  0.1103895E+00
          4   -1    0    0  502    0 -0.00000000000E+00  0.00000000000E+00  0.49627537174E+03  0.49627537174E+03  0.00000000000E+00 0.  1.
         21   -1    0    0  501  502  0.00000000000E+00 -0.00000000000E+00 -0.74292550064E+02  0.74292550064E+02  0.00000000000E+00 0. -1.
        -13    1    1    2    0    0 -0.38366231857E+02  0.14565885972E+03  0.37469678330E+03  0.40383927712E+03  0.10566000000E+00 0.  1.
         13    1    1    2    0    0  0.33992566703E+02 -0.13236198904E+03  0.58637883553E+02  0.14870643324E+03  0.10566000000E+00 0. -1.
          4    1    1    2  501    0  0.43736651542E+01 -0.13296870678E+02 -0.11351845177E+02  0.18022211452E+02  0.00000000000E+00 0.  1.
</event>
<event>
 5    1  0.4419198E-005  0.4179705E+03  0.7818608E-02  0.9678534E-01
         -4   -1    0    0    0  501 -0.00000000000E+00  0.00000000000E+00  0.17610403083E+04  0.17610403083E+04  0.00000000000E+00 0. -1.
         21   -1    0    0  501  502  0.00000000000E+00 -0.00000000000E+00 -0.30306313811E+03  0.30306313811E+03  0.00000000000E+00 0. -1.
        -13    1    1    2    0    0  0.35884101971E+03  0.21806203187E+02  0.52399358022E+03  0.63546177792E+03  0.10566000000E+00 0.  1.
         13    1    1    2    0    0 -0.42015842719E+03 -0.32110264568E+03  0.98588311284E+03  0.11187517760E+04  0.10566000000E+00 0. -1.
         -4    1    1    2    0  502  0.61317407480E+02  0.29929644250E+03 -0.51899522901E+02  0.30988989243E+03  0.00000000000E+00 0. -1.
</event>
<event>
 5    1  0.4419198E-005  0.4428272E+03  0.7818608E-02  0.9631292E-01
         -4   -1    0    0    0  501 -0.00000000000E+00  0.00000000000E+00  0.12472139653E+04  0.12472139653E+04  0.00000000000E+00 0. -1.
         21   -1    0    0  501  502  0.00000000000E+00 -0.00000000000E+00 -0.55771710799E+03  0.55771710799E+03  0.00000000000E+00 0. -1.
        -13    1    1    2    0    0  0.40750745755E+03 -0.78335461185E+02  0.65279687865E+03  0.77352604893E+03  0.10566000000E+00 0.  1.
         13    1    1    2    0    0 -0.34217017462E+03 -0.38487671685E+03  0.17447798232E+03  0.54373991306E+03  0.10566000000E+00 0. -1.
         -4    1    1    2    0  502 -0.65337282931E+02  0.46321217804E+03 -0.13777800370E+03  0.48766511125E+03  0.00000000000E+00 0. -1.
</event>
<event>
 5    1  0.4419198E-005  0.4800844E+03  0.7818608E-02  0.9852398E-01
         21   -1    0    0  501  502  0.00000000000E+00  0.00000000000E+00  0.27300821375E+03  0.27300821375E+03  0.00000000000E+00 0. -1.
         -4   -1    0    0    0  501 -0.00000000000E+00 -0.00000000000E+00 -0.12896187738E+04  0.12896187738E+04  0.00000000000E+00 0. -1.
        -13    1    1    2    0    0 -0.13076318433E+03  0.76951487148E+02 -0.35600609088E+03  0.38698952138E+03  0.10566000000E+00 0.  1.
         13    1    1    2    0    0 -0.35508927698E+03  0.18862108895E+03 -0.38685862836E+03  0.55796587649E+03  0.10566000000E+00 0. -1.
         -4    1    1    2    0  502  0.48585246131E+03 -0.26557257610E+03 -0.27374584081E+03  0.61767158968E+03  0.00000000000E+00 0. -1.
</event>
<event>
 5    1  0.4419198E-005  0.6511201E+03  0.7818608E-02  0.9197071E-01
         21   -1    0    0  501  502  0.00000000000E+00  0.00000000000E+00  0.21943499971E+03  0.21943499971E+03  0.00000000000E+00 0. -1.
         -4   -1    0    0    0  501 -0.00000000000E+00 -0.00000000000E+00 -0.40934041924E+04  0.40934041924E+04  0.00000000000E+00 0. -1.
        -13    1    1    2    0    0 -0.14256092846E+03  0.67456411078E+03 -0.15170643037E+04  0.16663866510E+04  0.10566000000E+00 0.  1.
         13    1    1    2    0    0  0.12190444231E+03 -0.61876616433E+03 -0.24533602420E+04  0.25331223317E+04  0.10566000000E+00 0. -1.
         -4    1    1    2    0  502  0.20656486150E+02 -0.55797946453E+02  0.96455352991E+02  0.11333020943E+03  0.00000000000E+00 0. -1.
</event>
<event>
 5    1  0.4419198E-005  0.3738542E+03  0.7818608E-02  0.1002949E+00
         21   -1    0    0  501  502  0.00000000000E+00  0.00000000000E+00  0.15376326977E+03  0.15376326977E+03  0.00000000000E+00 0. -1.
         -4   -1    0    0    0  501 -0.00000000000E+00 -0.00000000000E+00 -0.25382722372E+04  0.25382722372E+04  0.00000000000E+00 0. -1.
        -13    1    1    2    0    0  0.16807268073E+03  0.60250999700E+02 -0.70995005680E+03  0.73205717214E+03  0.10566000000E+00 0.  1.
         13    1    1    2    0    0  0.32682489228E+03 -0.12768286607E+03 -0.20167378563E+03  0.40470946551E+03  0.10566000000E+00 0. -1.
         -4    1    1    2    0  502 -0.49489757302E+03  0.67431866370E+02 -0.14728851250E+04  0.15552688693E+04  0.00000000000E+00 0. -1.
</event>
<event>
 5    1  0.4419198E-005  0.3562802E+03  0.7818608E-02  0.9937594E-01
         21   -1    0    0  501  502  0.00000000000E+00  0.00000000000E+00  0.11784364713E+04  0.11784364713E+04  0.00000000000E+00 0. -1.
          4   -1    0    0  502    0 -0.00000000000E+00 -0.00000000000E+00 -0.52362788011E+03  0.52362788011E+03  0.00000000000E+00 0.  1.
        -13    1    1    2    0    0  0.22975766014E+03  0.15622292092E+03  0.44980806523E+03  0.52869791954E+03  0.10566000000E+00 0.  1.
         13    1    1    2    0    0  0.29183543078E+03  0.27727567899E+03  0.28096282116E+03  0.49090715910E+03  0.10566000000E+00 0. -1.
          4    1    1    2  501    0 -0.52159309093E+03 -0.43349859991E+03 -0.75962295252E+02  0.68245927272E+03  0.00000000000E+00 0.  1.
</event>
<event>
 5    1  0.4419198E-005  0.4962610E+03  0.7818608E-02  0.9551989E-01
         -4   -1    0    0    0  501 -0.00000000000E+00  0.00000000000E+00  0.14465895968E+04  0.14465895968E+04  0.00000000000E+00 0. -1.
         21   -1    0    0  501  502  0.00000000000E+00 -0.00000000000E+00 -0.41175225937E+03  0.41175225937E+03  0.00000000000E+00 0. -1.
        -13    1    1    2    0    0  0.97157963293E+02 -0.37887369327E+03  0.54488262745E+03  0.67073246092E+03  0.10566000000E+00 0.  1.
         13    1    1    2    0    0 -0.38767243925E+03 -0.14707022441E+03  0.40710217386E+03  0.58107810335E+03  0.10566000000E+00 0. -1.
         -4    1    1    2    0  502  0.29051447596E+03  0.52594391768E+03  0.82852536094E+02  0.60653129187E+03  0.00000000000E+00 0. -1.
</event>
<event>
 5    1  0.4419198E-005  0.9783513E+02  0.7818608E-02  0.1212318E+00
         21   -1    0    0  501  502  0.00000000000E+00  0.00000000000E+00  0.16326568222E+03  0.16326568222E+03  0.00000000000E+00 0. -1.
         -4   -1    0    0    0  501 -0.00000000000E+00 -0.00000000000E+00 -0.10850483330E+03  0.10850483330E+03  0.00000000000E+00 0. -1.
        -13    1    1    2    0    0  0.79048339261E+01  0.34326525420E+02  0.33495956808E+02  0.48608507829E+02  0.10566000000E+00 0.  1.
         13    1    1    2    0    0  0.74760738310E+02 -0.69855730012E+02  0.66925381332E+02  0.12226204987E+03  0.10566000000E+00 0. -1.
         -4    1    1    2    0  502 -0.82665572236E+02  0.35529204592E+02 -0.45660489216E+02  0.10089995782E+03  0.00000000000E+00 0. -1.
</event>
<event>
 5    1  0.4419198E-005  0.4751963E+03  0.7818608E-02  0.1043570E+00
         21   -1    0    0  501  502  0.00000000000E+00  0.00000000000E+00  0.54294414686E+03  0.54294414686E+03  0.00000000000E+00 0.  1.
          4   -1    0    0  502    0 -0.00000000000E+00 -0.00000000000E+00 -0.59168658180E+03  0.59168658180E+03  0.00000000000E+00 0.  1.
        -13    1    1    2    0    0  0.34078274957E+03  0.30881528997E+03 -0.97677448432E+02  0.47014961535E+03  0.10566000000E+00 0.  1.
         13    1    1    2    0    0  0.15912502602E+02  0.18447277599E+02 -0.14202440735E+03  0.14409876209E+03  0.10566000000E+00 0. -1.
          4    1    1    2  501    0 -0.35669525217E+03 -0.32726256756E+03  0.19095942084E+03  0.52038235122E+03  0.00000000000E+00 0.  1.
</event>
<event>
 5    1  0.4419198E-005  0.2087515E+03  0.7818608E-02  0.1054296E+00
         -4   -1    0    0    0  501 -0.00000000000E+00  0.00000000000E+00  0.15518402895E+03  0.15518402895E+03  0.00000000000E+00 0. -1.
         21   -1    0    0  501  502  0.00000000000E+00 -0.00000000000E+00 -0.12563327151E+04  0.12563327151E+04  0.00000000000E+00 0.  1.
        -13    1    1    2    0    0 -0.17918558210E+03 -0.60357298447E+02 -0.54432908603E+03  0.57623314845E+03  0.10566000000E+00 0.  1.
         13    1    1    2    0    0  0.19948321625E+03  0.70518542619E+02  0.58520741881E+02  0.21952472939E+03  0.10566000000E+00 0. -1.
         -4    1    1    2    0  502 -0.20297634152E+02 -0.10161244173E+02 -0.61534034194E+03  0.61575886616E+03  0.00000000000E+00 0. -1.
</event>
<event>
 5    1  0.4419198E-005  0.1976348E+03  0.7818608E-02  0.1071520E+00
         -4   -1    0    0    0  501 -0.00000000000E+00  0.00000000000E+00  0.65948221312E+03  0.65948221312E+03  0.00000000000E+00 0. -1.
         21   -1    0    0  501  502  0.00000000000E+00 -0.00000000000E+00 -0.81831847189E+03  0.81831847189E+03  0.00000000000E+00 0. -1.
        -13    1    1    2    0    0  0.14619641790E+03  0.29928057337E+02  0.35003640352E+03  0.38051882500E+03  0.10566000000E+00 0.  1.
         13    1    1    2    0    0 -0.25944212362E+03 -0.18584919475E+03  0.19061709999E+03  0.37173246922E+03  0.10566000000E+00 0. -1.
         -4    1    1    2    0  502  0.11324570572E+03  0.15592113741E+03 -0.69948976227E+03  0.72554939079E+03  0.00000000000E+00 0. -1.
</event>
<event>
 5    1  0.4419198E-005  0.6523242E+03  0.7818608E-02  0.9195165E-01
         21   -1    0    0  501  502  0.00000000000E+00  0.00000000000E+00  0.78130302780E+03  0.78130302780E+03  0.00000000000E+00 0. -1.
         -4   -1    0    0    0  501 -0.00000000000E+00 -0.00000000000E+00 -0.14476515218E+04  0.14476515218E+04  0.00000000000E+00 0. -1.
        -13    1    1    2    0    0  0.25605449797E+03 -0.78826292634E+03 -0.32985653278E+03  0.89203570016E+03  0.10566000000E+00 0.  1.
         13    1    1    2    0    0 -0.38876861951E+03  0.45103947863E+03 -0.63271864535E+03  0.86885588341E+03  0.10566000000E+00 0. -1.
         -4    1    1    2    0  502  0.13271412154E+03  0.33722344770E+03  0.29622668416E+03  0.46806296601E+03  0.00000000000E+00 0. -1.
</event>
<event>
 5    1  0.4419198E-005  0.5383353E+03  0.7818608E-02  0.9397687E-01
          4   -1    0    0  502    0 -0.00000000000E+00  0.00000000000E+00  0.20304633610E+04  0.20304633610E+04  0.00000000000E+00 0.  1.
         21   -1    0    0  501  502  0.00000000000E+00 -0.00000000000E+00 -0.25074615656E+03  0.25074615656E+03  0.00000000000E+00 0.  1.
        -13    1    1    2    0    0  0.30548807849E+03  0.44594945008E+03  0.51185685655E+03  0.74444028027E+03  0.10566000000E+00 0.  1.
         13    1    1    2    0    0 -0.33345650650E+03 -0.42186344854E+03  0.13464963800E+04  0.14499015565E+04  0.10566000000E+00 0. -1.
          4    1    1    2  501    0  0.27968428012E+02 -0.24086001543E+02 -0.78636032074E+02  0.86867680849E+02  0.00000000000E+00 0.  1.
</event>
<event>
 5    1  0.4419198E-005  0.1694952E+03  0.7818608E-02  0.1100123E+00
          4   -1    0    0  502    0 -0.00000000000E+00  0.00000000000E+00  0.16884360711E+03  0.16884360711E+03  0.00000000000E+00 0.  1.
         21   -1    0    0  501  502  0.00000000000E+00 -0.00000000000E+00 -0.12149267094E+04  0.12149267094E+04  0.00000000000E+00 0. -1.
        -13    1    1    2    0    0 -0.55325698540E+01  0.18329648079E+03 -0.19171468785E+03  0.26529745928E+03  0.10566000000E+00 0.  1.
         13    1    1    2    0    0  0.99453763480E+02 -0.38882160395E+02  0.10142734163E+03  0.14727657744E+03  0.10566000000E+00 0. -1.
          4    1    1    2  501    0 -0.93921193626E+02 -0.14441432040E+03 -0.95579575606E+03  0.97119627978E+03  0.00000000000E+00 0.  1.
</event>
<event>
 5    1  0.4419198E-005  0.4510671E+03  0.7818608E-02  0.9592199E-01
         21   -1    0    0  501  502  0.00000000000E+00  0.00000000000E+00  0.88126083493E+03  0.88126083493E+03  0.00000000000E+00 0. -1.
          4   -1    0    0  502    0 -0.00000000000E+00 -0.00000000000E+00 -0.78121624194E+03  0.78121624194E+03  0.00000000000E+00 0.  1.
        -13    1    1    2    0    0 -0.35764144530E+03  0.24070007780E+03 -0.42082935216E+03  0.60244608527E+03  0.10566000000E+00 0.  1.
         13    1    1    2    0    0  0.31506159668E+03 -0.43832726663E+03  0.43434497863E+02  0.54155440091E+03  0.10566000000E+00 0. -1.
          4    1    1    2  501    0  0.42579848614E+02  0.19762718883E+03  0.47743944729E+03  0.51847659070E+03  0.00000000000E+00 0.  1.
</event>
<event>
 5    1  0.4419198E-005  0.4910986E+03  0.7818608E-02  0.1001884E+00
         -4   -1    0    0    0  501 -0.00000000000E+00  0.00000000000E+00  0.33468923364E+03  0.33468923364E+03  0.00000000000E+00 0. -1.
         21   -1    0    0  501  502  0.00000000000E+00 -0.00000000000E+00 -0.94740741692E+03  0.94740741692E+03  0.00000000000E+00 0. -1.
        -13    1    1    2    0    0  0.81855422844E+01  0.81140956135E+02  0.36018946044E+02  0.89152865928E+02  0.10566000000E+00 0.  1.
         13    1    1    2    0    0 -0.16682109869E+03 -0.49652424463E+03 -0.49986917904E+03  0.72404061474E+03  0.10566000000E+00 0. -1.
         -4    1    1    2    0  502  0.15863555641E+03  0.41538328850E+03 -0.14886795028E+03  0.46890316989E+03  0.00000000000E+00 0. -1.
</event>
<event>
 5    1  0.4419198E-005  0.4972221E+03  0.7818608E-02  0.9747923E-01
          4   -1    0    0  502    0 -0.00000000000E+00  0.00000000000E+00  0.10527466089E+04  0.10527466089E+04  0.00000000000E+00 0.  1.
         21   -1    0    0  501  502  0.00000000000E+00 -0.00000000000E+00 -0.44227317152E+03  0.44227317152E+03  0.00000000000E+00 0.  1.
        -13    1    1    2    0    0  0.29637607510E+03  0.40773067882E+03  0.66885787611E+02  0.50848481206E+03  0.10566000000E+00 0.  1.
         13    1    1    2    0    0  0.13670949057E+03 -0.13919045275E+03  0.41861939950E+03  0.46185027850E+03  0.10566000000E+00 0. -1.
          4    1    1    2  501    0 -0.43308556567E+03 -0.26854022607E+03  0.12496825028E+03  0.52468468987E+03  0.00000000000E+00 0.  1.
</event>
<event>
 5    1  0.4419198E-005  0.5322369E+02  0.7818608E-02  0.1279192E+00
         -4   -1    0    0    0  501 -0.00000000000E+00  0.00000000000E+00  0.28058019794E+03  0.28058019794E+03  0.00000000000E+00 0. -1.
         21   -1    0    0  501  502  0.00000000000E+00 -0.00000000000E+00 -0.92530424039E+02  0.92530424039E+02  0.00000000000E+00 0. -1.
        -13    1    1    2    0    0 -0.12703757792E+01  0.48499967588E+02  0.61564286104E+02  0.78383883536E+02  0.10566000000E+00 0.  1.
         13    1    1    2    0    0  0.44873394213E+02 -0.42096404976E+02  0.19986981016E+03  0.20912599312E+03  0.10566000000E+00 0. -1.
         -4    1    1    2    0  502 -0.43603018434E+02 -0.64035626113E+01 -0.73384322366E+02  0.85600745322E+02  0.00000000000E+00 0. -1.
</event>
<event>
 5    1  0.4419198E-005  0.1081943E+03  0.7818608E-02  0.1151666E+00
         21   -1    0    0  501  502  0.00000000000E+00  0.00000000000E+00  0.10292430030E+03  0.10292430030E+03  0.00000000000E+00 0.  1.
         -4   -1    0    0    0  501 -0.00000000000E+00 -0.00000000000E+00 -0.21421327173E+03  0.21421327173E+03  0.00000000000E+00 0. -1.
        -13    1    1    2    0    0 -0.83196711482E+02 -0.69217326780E+02  0.71267126024E+01  0.10845981894E+03  0.10566000000E+00 0.  1.
         13    1    1    2    0    0  0.75739118664E+02  0.77439080716E+02 -0.14434752859E+03  0.18047006813E+03  0.10566000000E+00 0. -1.
         -4    1    1    2    0  502  0.74575928179E+01 -0.82217539363E+01  0.25931844559E+02  0.28207684958E+02  0.00000000000E+00 0. -1.
</event>
<event>
 5    1  0.4419198E-005  0.4591389E+03  0.7818608E-02  0.9640647E-01
         -4   -1    0    0    0  501 -0.00000000000E+00  0.00000000000E+00  0.19221225024E+04  0.19221225024E+04  0.00000000000E+00 0. -1.
         21   -1    0    0  501  502  0.00000000000E+00 -0.00000000000E+00 -0.26295675473E+03  0.26295675473E+03  0.00000000000E+00 0. -1.
        -13    1    1    2    0    0  0.35001210138E+03 -0.85060376084E+02  0.53901170799E+03  0.64828803105E+03  0.10566000000E+00 0.  1.
         13    1    1    2    0    0 -0.28395194653E+03  0.51529153030E+03  0.81513031587E+03  0.10052818073E+04  0.10566000000E+00 0. -1.
         -4    1    1    2    0  502 -0.66060154854E+02 -0.43023115421E+03  0.30502372377E+03  0.53150941871E+03  0.00000000000E+00 0. -1.
</event>
<event>
 5    1  0.4419198E-005  0.4174534E+02  0.7818608E-02  0.1340288E+00
         21   -1    0    0  501  502  0.00000000000E+00  0.00000000000E+00  0.72051999429E+02  0.72051999429E+02  0.00000000000E+00 0.  1.
         -4   -1    0    0    0  501 -0.00000000000E+00 -0.00000000000E+00 -0.81767912654E+02  0.81767912654E+02  0.00000000000E+00 0. -1.
        -13    1    1    2    0    0 -0.32193430954E+02 -0.11822697221E+02  0.30109396621E+02  0.45637485635E+02  0.10566000000E+00 0.  1.
         13    1    1    2    0    0  0.54309451904E+02 -0.19648468841E+02 -0.39035968250E+02  0.69709374371E+02  0.10566000000E+00 0. -1.
         -4    1    1    2    0  502 -0.22116020950E+02  0.31471166062E+02 -0.78934159621E+00  0.38473052077E+02  0.00000000000E+00 0. -1.
</event>
<event>
 5    1  0.4419198E-005  0.1176361E+03  0.7818608E-02  0.1138281E+00
         21   -1    0    0  501  502  0.00000000000E+00  0.00000000000E+00  0.23234997148E+03  0.23234997148E+03  0.00000000000E+00 0. -1.
         -4   -1    0    0    0  501 -0.00000000000E+00 -0.00000000000E+00 -0.55019292103E+03  0.55019292103E+03  0.00000000000E+00 0. -1.
        -13    1    1    2    0    0  0.82208189304E+02 -0.31032904310E+02  0.48547991916E+02  0.10038997072E+03  0.10566000000E+00 0.  1.
         13    1    1    2    0    0 -0.10886593912E+03  0.51506845677E+02 -0.51545922730E+03  0.52934201989E+03  0.10566000000E+00 0. -1.
         -4    1    1    2    0  502  0.26657749819E+02 -0.20473941367E+02  0.14906828583E+03  0.15281090190E+03  0.00000000000E+00 0. -1.
</event>
<event>
 5    1  0.4419198E-005  0.2520114E+03  0.7818608E-02  0.1080311E+00
         21   -1    0    0  501  502  0.00000000000E+00  0.00000000000E+00  0.95706087744E+02  0.95706087744E+02  0.00000000000E+00 0. -1.
         -4   -1    0    0    0  501 -0.00000000000E+00 -0.00000000000E+00 -0.26421549625E+04  0.26421549625E+04  0.00000000000E+00 0. -1.
        -13    1    1    2    0    0 -0.53994357513E+02 -0.15286724925E+02 -0.30255205203E+01  0.56198216526E+02  0.10566000000E+00 0.  1.
         13    1    1    2    0    0  0.24272724915E+03  0.85942813406E+02 -0.19093944172E+03  0.32056288966E+03  0.10566000000E+00 0. -1.
         -4    1    1    2    0  502 -0.18873289163E+03 -0.70656088481E+02 -0.23524839125E+04  0.23610999440E+04  0.00000000000E+00 0. -1.
</event>
<event>
 5    1  0.4419198E-005  0.5024041E+03  0.7818608E-02  0.9689447E-01
         -4   -1    0    0    0  501 -0.00000000000E+00  0.00000000000E+00  0.53297905558E+03  0.53297905558E+03  0.00000000000E+00 0. -1.
         21   -1    0    0  501  502  0.00000000000E+00 -0.00000000000E+00 -0.78420738004E+03  0.78420738004E+03  0.00000000000E+00 0. -1.
        -13    1    1    2    0    0 -0.23161368476E+03 -0.49174350133E+01 -0.13490452412E+03  0.26808267741E+03  0.10566000000E+00 0.  1.
         13    1    1    2    0    0  0.59681627820E+03 -0.59808792844E+02 -0.25684187563E+03  0.65248334987E+03  0.10566000000E+00 0. -1.
         -4    1    1    2    0  502 -0.36520259344E+03  0.64726227857E+02  0.14051807529E+03  0.39662040834E+03  0.00000000000E+00 0. -1.
</event>
<event>
 5    1  0.4419198E-005  0.4098010E+03  0.7818608E-02  0.9779030E-01
         21   -1    0    0  501  502  0.00000000000E+00  0.00000000000E+00  0.40904150959E+03  0.40904150959E+03  0.00000000000E+00 0.  1.
          4   -1    0    0  502    0 -0.00000000000E+00 -0.00000000000E+00 -0.12290764811E+04  0.12290764811E+04  0.00000000000E+00 0.  1.
        -13    1    1    2    0    0 -0.10294511472E+03  0.32771785310E+03  0.14072270687E+02  0.34379460126E+03  0.10566000000E+00 0.  1.
         13    1    1    2    0    0 -0.11869436154E+03  0.28976391475E+03 -0.39855438894E+03  0.50685016510E+03  0.10566000000E+00 0. -1.
          4    1    1    2  501    0  0.22163947626E+03 -0.61748176786E+03 -0.43555285329E+03  0.78747322436E+03  0.00000000000E+00 0.  1.
</event>
<event>
 5    1  0.4419198E-005  0.1043610E+03  0.7818608E-02  0.1157535E+00
         21   -1    0    0  501  502  0.00000000000E+00  0.00000000000E+00  0.11578103523E+03  0.11578103523E+03  0.00000000000E+00 0.  1.
          4   -1    0    0  502    0 -0.00000000000E+00 -0.00000000000E+00 -0.26384698817E+04  0.26384698817E+04  0.00000000000E+00 0.  1.
        -13    1    1    2    0    0 -0.72228916674E+02  0.19987227880E+02  0.97708732334E+02  0.12314021772E+03  0.10566000000E+00 0.  1.
         13    1    1    2    0    0  0.77535412049E+02 -0.72387388765E+02 -0.55523120578E+03  0.56527283431E+03  0.10566000000E+00 0. -1.
          4    1    1    2  501    0 -0.53064953744E+01  0.52400160886E+02 -0.20651663730E+04  0.20658378649E+04  0.00000000000E+00 0.  1.
</event>
<event>
 5    1  0.4419198E-005  0.3428259E+03  0.7818608E-02  0.1046970E+00
         21   -1    0    0  501  502  0.00000000000E+00  0.00000000000E+00  0.78065092505E+03  0.78065092505E+03  0.00000000000E+00 0.  1.
          4   -1    0    0  502    0 -0.00000000000E+00 -0.00000000000E+00 -0.28192542640E+03  0.28192542640E+03  0.00000000000E+00 0.  1.
        -13    1    1    2    0    0  0.13860781582E+03  0.30216792522E+03  0.45544829026E+03  0.56387120684E+03  0.10566000000E+00 0.  1.
         13    1    1    2    0    0  0.57445438139E+02  0.11511244521E+02 -0.88406523118E+02  0.10605758628E+03  0.10566000000E+00 0. -1.
          4    1    1    2  501    0 -0.19605325396E+03 -0.31367916974E+03  0.13168373151E+03  0.39264755833E+03  0.00000000000E+00 0.  1.
</event>
<event>
 5    1  0.4419198E-005  0.5621965E+03  0.7818608E-02  0.9806959E-01
          4   -1    0    0  502    0 -0.00000000000E+00  0.00000000000E+00  0.41414722755E+03  0.41414722755E+03  0.00000000000E+00 0.  1.
         21   -1    0    0  501  502  0.00000000000E+00 -0.00000000000E+00 -0.95813845257E+03  0.95813845257E+03  0.00000000000E+00 0.  1.
        -13    1    1    2    0    0 -0.50454426791E+03 -0.13051822771E+03 -0.10191210948E+03  0.53102355434E+03  0.10566000000E+00 0.  1.
         13    1    1    2    0    0 -0.86228404405E+02  0.68674000899E+02 -0.18674210691E+02  0.11180426394E+03  0.10566000000E+00 0. -1.
          4    1    1    2  501    0  0.59077267231E+03  0.61844226807E+02 -0.42340490485E+03  0.72945786183E+03  0.00000000000E+00 0.  1.
</event>
<event>
 5    1  0.4419198E-005  0.2854517E+03  0.7818608E-02  0.1013498E+00
         -4   -1    0    0    0  501 -0.00000000000E+00  0.00000000000E+00  0.19046157543E+04  0.19046157543E+04  0.00000000000E+00 0. -1.
         21   -1    0    0  501  502  0.00000000000E+00 -0.00000000000E+00 -0.58844384285E+03  0.58844384285E+03  0.00000000000E+00 0. -1.
        -13    1    1    2    0    0  0.97863614208E+02  0.27180020583E+03  0.21695528147E+03  0.36127862405E+03  0.10566000000E+00 0.  1.
         13    1    1    2    0    0 -0.21488134536E+03 -0.19484539143E+03  0.15926536640E+04  0.16188528111E+04  0.10566000000E+00 0. -1.
         -4    1    1    2    0  502  0.11701773115E+03 -0.76954814394E+02 -0.49343703404E+03  0.51292816205E+03  0.00000000000E+00 0. -1.
</event>
<event>
 5    1  0.4419198E-005  0.3776684E+03  0.7818608E-02  0.9931668E-01
         21   -1    0    0  501  502  0.00000000000E+00  0.00000000000E+00  0.50757922061E+03  0.50757922061E+03  0.00000000000E+00 0. -1.
         -4   -1    0    0    0  501 -0.00000000000E+00 -0.00000000000E+00 -0.11029604936E+04  0.11029604936E+04  0.00000000000E+00 0. -1.
        -13    1    1    2    0    0  0.21322530431E+03  0.10786604728E+03 -0.54949076837E+03  0.59919965808E+03  0.10566000000E+00 0.  1.
         13    1    1    2    0    0  0.26158684883E+03  0.20979157349E+03  0.19885127262E+03  0.38984871883E+03  0.10566000000E+00 0. -1.
         -4    1    1    2    0  502 -0.47481215314E+03 -0.31765762077E+03 -0.24474177723E+03  0.62149133729E+03  0.00000000000E+00 0. -1.
</event>
<event>
 5    1  0.4419198E-005  0.1752200E+03  0.7818608E-02  0.1094260E+00
         -4   -1    0    0    0  501 -0.00000000000E+00  0.00000000000E+00  0.29015564112E+03  0.29015564112E+03  0.00000000000E+00 0. -1.
         21   -1    0    0  501  502  0.00000000000E+00 -0.00000000000E+00 -0.16269401863E+04  0.16269401863E+04  0.00000000000E+00 0. -1.
        -13    1    1    2    0    0  0.55333603561E+02  0.98974467572E+02  0.25571443928E+03  0.27972779364E+03  0.10566000000E+00 0.  1.
         13    1    1    2    0    0  0.15487707578E+03 -0.36669754333E+02 -0.75958900975E+03  0.77608443766E+03  0.10566000000E+00 0. -1.
         -4    1    1    2    0  502 -0.21021067934E+03 -0.62304713239E+02 -0.83290997470E+03  0.86128359613E+03  0.00000000000E+00 0. -1.
</event>
<event>
 5    1  0.4419198E-005  0.4273527E+03  0.7818608E-02  0.9869120E-01
         21   -1    0    0  501  502  0.00000000000E+00  0.00000000000E+00  0.11263209764E+04  0.11263209764E+04  0.00000000000E+00 0.  1.
          4   -1    0    0  502    0 -0.00000000000E+00 -0.00000000000E+00 -0.35799356181E+03  0.35799356181E+03  0.00000000000E+00 0.  1.
        -13    1    1    2    0    0 -0.47296200793E+03 -0.13935302209E+03 -0.42602322508E+01  0.49308263654E+03  0.10566000000E+00 0.  1.
         13    1    1    2    0    0  0.59688120229E+02  0.19435144335E+03  0.27688254774E+03  0.34350998768E+03  0.10566000000E+00 0. -1.
          4    1    1    2  501    0  0.41327388770E+03 -0.54998421258E+02  0.49570509913E+03  0.64772191402E+03  0.00000000000E+00 0.  1.
</event>
<event>
 5    1  0.4419198E-005  0.1741334E+03  0.7818608E-02  0.1079478E+00
         21   -1    0    0  501  502  0.00000000000E+00  0.00000000000E+00  0.39142339395E+03  0.39142339395E+03  0.00000000000E+00 0.  1.
          4   -1    0    0  502    0 -0.00000000000E+00 -0.00000000000E+00 -0.86979197002E+03  0.86979197002E+03  0.00000000000E+00 0.  1.
        -13    1    1    2    0    0 -0.89478076509E+02  0.15141262885E+03 -0.68683708163E+03  0.70899738943E+03  0.10566000000E+00 0.  1.
         13    1    1    2    0    0  0.95314136016E+02 -0.13834044506E+03 -0.13063609148E+03  0.21281133153E+03  0.10566000000E+00 0. -1.
          4    1    1    2  501    0 -0.58360595072E+01 -0.13072183790E+02  0.33910459705E+03  0.33940664301E+03  0.00000000000E+00 0.  1.
</event>
<event>
 5    1  0.4419198E-005  0.1671232E+03  0.7818608E-02  0.1085352E+00
         21   -1    0    0  501  502  0.00000000000E+00  0.00000000000E+00  0.98254924516E+02  0.98254924516E+02  0.00000000000E+00 0.  1.
          4   -1    0    0  502    0 -0.00000000000E+00 -0.00000000000E+00 -0.11353596955E+04  0.11353596955E+04  0.00000000000E+00 0.  1.
        -13    1    1    2    0    0 -0.24583085039E+02  0.16931259864E+03 -0.69222948601E+03  0.71305873292E+03  0.10566000000E+00 0.  1.
         13    1    1    2    0    0  0.29270088052E+02 -0.15877922647E+03 -0.41718252744E+03  0.44733528050E+03  0.10566000000E+00 0. -1.
          4    1    1    2  501    0 -0.46870030126E+01 -0.10533372171E+02  0.72307242436E+02  0.73220606630E+02  0.00000000000E+00 0.  1.
</event>
<event>
 5    1  0.4419198E-005  0.5019782E+03  0.7818608E-02  0.9762965E-01
         -4   -1    0    0    0  501 -0.00000000000E+00  0.00000000000E+00  0.58251306904E+03  0.58251306904E+03  0.00000000000E+00 0. -1.
         21   -1    0    0  501  502  0.00000000000E+00 -0.00000000000E+00 -0.63785206252E+03  0.63785206252E+03  0.00000000000E+00 0. -1.
        -13    1    1    2    0    0 -0.53872791502E+02 -0.17178217594E+03 -0.85083818715E+02  0.19912473731E+03  0.10566000000E+00 0.  1.
         13    1    1    2    0    0  0.50059020359E+03 -0.79935208108E+02  0.38695755334E+02  0.50840688633E+03  0.10566000000E+00 0. -1.
         -4    1    1    2    0  502 -0.44671741209E+03  0.25171738405E+03 -0.89509300969E+01  0.51283350792E+03  0.00000000000E+00 0. -1.
</event>
<event>
 5    1  0.4419198E-005  0.4515598E+03  0.7818608E-02  0.9884086E-01
          4   -1    0    0  502    0 -0.00000000000E+00  0.00000000000E+00  0.20512858879E+04  0.20512858879E+04  0.00000000000E+00 0.  1.
         21   -1    0    0  501  502  0.00000000000E+00 -0.00000000000E+00 -0.16920151675E+03  0.16920151675E+03  0.00000000000E+00 0.  1.
        -13    1    1    2    0    0  0.27191574960E+03  0.21943811450E+03  0.10309399413E+04  0.10885441813E+04  0.10566000000E+00 0.  1.
         13    1    1    2    0    0  0.65618390068E+02  0.15016965370E+03  0.48455713382E+03  0.51151962338E+03  0.10566000000E+00 0. -1.
          4    1    1    2  501    0 -0.33753413966E+03 -0.36960776820E+03  0.36658729606E+03  0.62042359996E+03  0.00000000000E+00 0.  1.
</event>
<event>
 5    1  0.4419198E-005  0.6248190E+02  0.7818608E-02  0.1250555E+00
          4   -1    0    0  502    0 -0.00000000000E+00  0.00000000000E+00  0.24314473611E+03  0.24314473611E+03  0.00000000000E+00 0.  1.
         21   -1    0    0  501  502  0.00000000000E+00 -0.00000000000E+00 -0.24808322789E+03  0.24808322789E+03  0.00000000000E+00 0.  1.
        -13    1    1    2    0    0  0.77706715266E+02  0.51921831961E+02  0.21794028219E+03  0.23713327054E+03  0.10566000000E+00 0.  1.
         13    1    1    2    0    0 -0.58714252697E+02  0.72239003167E+01 -0.94747335484E+02  0.11169877775E+03  0.10566000000E+00 0. -1.
          4    1    1    2  501    0 -0.18992462569E+02 -0.59145732278E+02 -0.12813143849E+03  0.14239591571E+03  0.00000000000E+00 0.  1.
</event>
<event>
 5    1  0.4419198E-005  0.2816949E+02  0.7818608E-02  0.1420238E+00
          4   -1    0    0  502    0 -0.00000000000E+00  0.00000000000E+00  0.71565921456E+02  0.71565921456E+02  0.00000000000E+00 0.  1.
         21   -1    0    0  501  502  0.00000000000E+00 -0.00000000000E+00 -0.24283340489E+02  0.24283340489E+02  0.00000000000E+00 0.  1.
        -13    1    1    2    0    0 -0.49418678964E+01 -0.39201156140E+02  0.10503755666E+02  0.40883893505E+02  0.10566000000E+00 0.  1.
         13    1    1    2    0    0  0.84535421825E+00  0.24751472313E+02  0.28709921518E+02  0.37915969762E+02  0.10566000000E+00 0. -1.
          4    1    1    2  501    0  0.40965136782E+01  0.14449683827E+02  0.80689037832E+01  0.17049398678E+02  0.00000000000E+00 0.  1.
</event>
<event>
 5    1  0.4419198E-005  0.3398141E+03  0.7818608E-02  0.1007415E+00
         21   -1    0    0  501  502  0.00000000000E+00  0.00000000000E+00  0.15917276498E+03  0.15917276498E+03  0.00000000000E+00 0. -1.
          4   -1    0    0  502    0 -0.00000000000E+00 -0.00000000000E+00 -0.27853319854E+04  0.27853319854E+04  0.00000000000E+00 0.  1.
        -13    1    1    2    0    0 -0.42192486555E+03  0.16506686121E+03 -0.22369632373E+04  0.22823830084E+04  0.10566000000E+00 0.  1.
         13    1    1    2    0    0  0.19349821199E+03  0.69787624877E+02 -0.12039443382E+03  0.23834156475E+03  0.10566000000E+00 0. -1.
          4    1    1    2  501    0  0.22842665356E+03 -0.23485448609E+03 -0.26880154927E+03  0.42378017719E+03  0.00000000000E+00 0.  1.
</event>
<event>
 5    1  0.4419198E-005  0.1162044E+03  0.7818608E-02  0.1140220E+00
         -4   -1    0    0    0  501 -0.00000000000E+00  0.00000000000E+00  0.47670218347E+03  0.47670218347E+03  0.00000000000E+00 0. -1.
         21   -1    0    0  501  502  0.00000000000E+00 -0.00000000000E+00 -0.27993911450E+03  0.27993911450E+03  0.00000000000E+00 0. -1.
        -13    1    1    2    0    0 -0.38634188003E+02 -0.98590059294E+02 -0.11133472762E+01  0.10589547195E+03  0.10566000000E+00 0.  1.
         13    1    1    2    0    0  0.43211657218E+02  0.10956752753E+03  0.41597254250E+03  0.43232563848E+03  0.10566000000E+00 0. -1.
         -4    1    1    2    0  502 -0.45774692158E+01 -0.10977468236E+02 -0.21809612626E+03  0.21842018754E+03  0.00000000000E+00 0. -1.
</event>
<event>
 5    1  0.4419198E-005  0.3968692E+03  0.7818608E-02  0.9890337E-01
          4   -1    0    0  502    0 -0.00000000000E+00  0.00000000000E+00  0.42907528673E+03  0.42907528673E+03  0.00000000000E+00 0.  1.
         21   -1    0    0  501  502  0.00000000000E+00 -0.00000000000E+00 -0.94580005500E+03  0.94580005500E+03  0.00000000000E+00 0.  1.
        -13    1    1    2    0    0 -0.23166439148E+03 -0.29768226877E+03 -0.49764345685E+03  0.62444546978E+03  0.10566000000E+00 0.  1.
         13    1    1    2    0    0 -0.22682310725E+03  0.66560507664E+02 -0.16707446046E+02  0.23697715730E+03  0.10566000000E+00 0. -1.
          4    1    1    2  501    0  0.45848749873E+03  0.23112176111E+03 -0.23738653668E+01  0.51345271465E+03  0.00000000000E+00 0.  1.
</event>
<event>
 5    1  0.4419198E-005  0.4495352E+03  0.7818608E-02  0.9600065E-01
          4   -1    0    0  502    0 -0.00000000000E+00  0.00000000000E+00  0.38410140934E+03  0.38410140934E+03  0.00000000000E+00 0.  1.
         21   -1    0    0  501  502  0.00000000000E+00 -0.00000000000E+00 -0.16107833051E+04  0.16107833051E+04  0.00000000000E+00 0.  1.
        -13    1    1    2    0    0 -0.18140515023E+03 -0.17096333375E+03  0.81204866015E+02  0.26216508434E+03  0.10566000000E+00 0.  1.
         13    1    1    2    0    0 -0.36593050105E+03  0.26665960708E+03 -0.20345592573E+03  0.49639379783E+03  0.10566000000E+00 0. -1.
          4    1    1    2  501    0  0.54733565128E+03 -0.95696273333E+02 -0.11044308360E+04  0.12363258322E+04  0.00000000000E+00 0.  1.
</event>
<event>
 5    1  0.4419198E-005  0.3839685E+03  0.7818608E-02  0.9959188E-01
         -4   -1    0    0    0  501 -0.00000000000E+00  0.00000000000E+00  0.98049957705E+03  0.98049957705E+03  0.00000000000E+00 0. -1.
         21   -1    0    0  501  502  0.00000000000E+00 -0.00000000000E+00 -0.47576783134E+03  0.47576783134E+03  0.00000000000E+00 0.  1.
        -13    1    1    2    0    0  0.19325242440E+03  0.75735894971E+02 -0.13012043480E+03  0.24497706840E+03  0.10566000000E+00 0.  1.
         13    1    1    2    0    0  0.27254931538E+02 -0.39801101048E+03  0.70927080477E+03  0.81376942767E+03  0.10566000000E+00 0. -1.
         -4    1    1    2    0  502 -0.22050735594E+03  0.32227511551E+03 -0.74418624250E+02  0.39752091232E+03  0.00000000000E+00 0. -1.
</event>
<event>
 5    1  0.4419198E-005  0.3393152E+03  0.7818608E-02  0.9922835E-01
         21   -1    0    0  501  502  0.00000000000E+00  0.00000000000E+00  0.87790325198E+03  0.87790325198E+03  0.00000000000E+00 0.  1.
         -4   -1    0    0    0  501 -0.00000000000E+00 -0.00000000000E+00 -0.34209296205E+03  0.34209296205E+03  0.00000000000E+00 0. -1.
        -13    1    1    2    0    0  0.15626121176E+03  0.24514388510E+03  0.68159358127E+03  0.74100129007E+03  0.10566000000E+00 0.  1.
         13    1    1    2    0    0 -0.13799227845E+03 -0.31825316833E+03 -0.18597364863E+03  0.39359008780E+03  0.10566000000E+00 0. -1.
         -4    1    1    2    0  502 -0.18268933309E+02  0.73109283234E+02  0.40190357297E+02  0.85404836157E+02  0.00000000000E+00 0. -1.
</event>
<event>
 5    1  0.4419198E-005  0.1734966E+03  0.7818608E-02  0.1079999E+00
         -4   -1    0    0    0  501 -0.00000000000E+00  0.00000000000E+00  0.94832681335E+02  0.94832681335E+02  0.00000000000E+00 0. -1.
         21   -1    0    0  501  502  0.00000000000E+00 -0.00000000000E+00 -0.55188621069E+03  0.55188621069E+03  0.00000000000E+00 0.  1.
        -13    1    1    2    0    0  0.16913788680E+03  0.32737171779E+02 -0.24426428381E+02  0.17400002510E+03  0.10566000000E+00 0.  1.
         13    1    1    2    0    0 -0.17708277264E+03 -0.24843124123E+02 -0.39798579214E+03  0.43631203409E+03  0.10566000000E+00 0. -1.
         -4    1    1    2    0  502  0.79448858451E+01 -0.78940476553E+01 -0.34641308831E+02  0.36406832834E+02  0.00000000000E+00 0. -1.
</event>
<event>
 5    1  0.4419198E-005  0.2021170E+03  0.7818608E-02  0.1087046E+00
         21   -1    0    0  501  502  0.00000000000E+00  0.00000000000E+00  0.18617446372E+03  0.18617446372E+03  0.00000000000E+00 0. -1.
          4   -1    0    0  502    0 -0.00000000000E+00 -0.00000000000E+00 -0.68430431066E+03  0.68430431066E+03  0.00000000000E+00 0.  1.
        -13    1    1    2    0    0 -0.20302582194E+03 -0.13553021343E+03 -0.30195898280E+03  0.38828747286E+03  0.10566000000E+00 0.  1.
         13    1    1    2    0    0  0.49187636567E+02  0.75528610247E+02  0.10520987820E+03  0.13853925145E+03  0.10566000000E+00 0. -1.
          4    1    1    2  501    0  0.15383818537E+03  0.60001603188E+02 -0.30138074233E+03  0.34365205006E+03  0.00000000000E+00 0.  1.
</event>
<event>
 5    1  0.4419198E-005  0.4762528E+03  0.7818608E-02  0.9713989E-01
         -4   -1    0    0    0  501 -0.00000000000E+00  0.00000000000E+00  0.42244023248E+03  0.42244023248E+03  0.00000000000E+00 0. -1.
         21   -1    0    0  501  502  0.00000000000E+00 -0.00000000000E+00 -0.12586791299E+04  0.12586791299E+04  0.00000000000E+00 0. -1.
        -13    1    1    2    0    0  0.19828809392E+03 -0.15174921868E+03  0.12216261191E+03  0.27797429463E+03  0.10566000000E+00 0.  1.
         13    1    1    2    0    0  0.33761144892E+03 -0.49695418859E+01 -0.56413014276E+02  0.34232824325E+03  0.10566000000E+00 0. -1.
         -4    1    1    2    0  502 -0.53589954284E+03  0.15671876057E+03 -0.90198849501E+03  0.10608168245E+04  0.00000000000E+00 0. -1.
</event>
<event>
 5    1  0.4419198E-005  0.5757258E+03  0.7818608E-02  0.9325852E-01
          4   -1    0    0  502    0 -0.00000000000E+00  0.00000000000E+00  0.73351141016E+03  0.73351141016E+03  0.00000000000E+00 0.  1.
         21   -1    0    0  501  502  0.00000000000E+00 -0.00000000000E+00 -0.63079714868E+03  0.63079714868E+03  0.00000000000E+00 0. -1.
        -13    1    1    2    0    0  0.44876702981E+03  0.35412963595E+03  0.23991342406E+03  0.61996621546E+03  0.10566000000E+00 0.  1.
         13    1    1    2    0    0 -0.45718218230E+03 -0.35964131294E+03  0.24624827107E+02  0.58220599023E+03  0.10566000000E+00 0. -1.
          4    1    1    2  501    0  0.84151524942E+01  0.55116769898E+01 -0.16182398968E+03  0.16213635315E+03  0.00000000000E+00 0.  1.
</event>
<event>
 5    1  0.4419198E-005  0.4060804E+03  0.7818608E-02  0.9842980E-01
         21   -1    0    0  501  502  0.00000000000E+00  0.00000000000E+00  0.42693724110E+03  0.42693724110E+03  0.00000000000E+00 0.  1.
          4   -1    0    0  502    0 -0.00000000000E+00 -0.00000000000E+00 -0.13166396240E+04  0.13166396240E+04  0.00000000000E+00 0.  1.
        -13    1    1    2    0    0 -0.54067739024E+02  0.61048809918E+03 -0.37838763222E+03  0.72027512176E+03  0.10566000000E+00 0.  1.
         13    1    1    2    0    0  0.35218145962E+02 -0.25641635460E+03 -0.60374020528E+03  0.65688043916E+03  0.10566000000E+00 0. -1.
          4    1    1    2  501    0  0.18849593062E+02 -0.35407174458E+03  0.92425454636E+02  0.36642130415E+03  0.00000000000E+00 0.  1.
</event>
<event>
 5    1  0.4419198E-005  0.3553159E+03  0.7818608E-02  0.9887753E-01
         21   -1    0    0  501  502  0.00000000000E+00  0.00000000000E+00  0.57347979627E+03  0.57347979627E+03  0.00000000000E+00 0. -1.
         -4   -1    0    0    0  501 -0.00000000000E+00 -0.00000000000E+00 -0.10936000522E+04  0.10936000522E+04  0.00000000000E+00 0. -1.
        -13    1    1    2    0    0  0.36516034477E+03 -0.40818481580E+02 -0.52532272543E+03  0.64107113712E+03  0.10566000000E+00 0.  1.
         13    1    1    2    0    0  0.24136932125E+03  0.17939706198E+03  0.21471476940E+03  0.36951982145E+03  0.10566000000E+00 0. -1.
         -4    1    1    2    0  502 -0.60652966602E+03 -0.13857858040E+03 -0.20951229984E+03  0.65648888984E+03  0.00000000000E+00 0. -1.
</event>
<event>
 5    1  0.4419198E-005  0.1348316E+03  0.7818608E-02  0.1117116E+00
          4   -1    0    0  502    0 -0.00000000000E+00  0.00000000000E+00  0.20929504657E+03  0.20929504657E+03  0.00000000000E+00 0.  1.
         21   -1    0    0  501  502  0.00000000000E+00 -0.00000000000E+00 -0.18322482037E+03  0.18322482037E+03  0.00000000000E+00 0. -1.
        -13    1    1    2    0    0 -0.73169031481E+01  0.14102707597E+03  0.13476084784E+03  0.19519905354E+03  0.10566000000E+00 0.  1.
         13    1    1    2    0    0 -0.30825459815E+02 -0.11134038514E+03 -0.85411237431E+02  0.14367317418E+03  0.10566000000E+00 0. -1.
          4    1    1    2  501    0  0.38142362963E+02 -0.29686690827E+02 -0.23279384208E+02  0.53647639218E+02  0.00000000000E+00 0.  1.
</event>
<event>
 5    1  0.4419198E-005  0.4459607E+02  0.7818608E-02  0.1315505E+00
         21   -1    0    0  501  502  0.00000000000E+00  0.00000000000E+00  0.13541211476E+03  0.13541211476E+03  0.00000000000E+00 0. -1.
         -4   -1    0    0    0  501 -0.00000000000E+00 -0.00000000000E+00 -0.83041088475E+02  0.83041088475E+02  0.00000000000E+00 0. -1.
        -13    1    1    2    0    0  0.42536057252E+02 -0.23719051202E+02 -0.60208766001E+01  0.49073125798E+02  0.10566000000E+00 0.  1.
         13    1    1    2    0    0 -0.31285014171E+02  0.30090045298E+02 -0.46548022799E+02  0.63646622284E+02  0.10566000000E+00 0. -1.
         -4    1    1    2    0  502 -0.11251043081E+02 -0.63709940958E+01  0.10493992568E+03  0.10573345515E+03  0.00000000000E+00 0. -1.
</event>
<event>
 5    1  0.4419198E-005  0.1788303E+02  0.7818608E-02  0.1551037E+00
         -4   -1    0    0    0  501 -0.00000000000E+00  0.00000000000E+00  0.17152443917E+02  0.17152443917E+02  0.00000000000E+00 0. -1.
         21   -1    0    0  501  502  0.00000000000E+00 -0.00000000000E+00 -0.94891388155E+02  0.94891388155E+02  0.00000000000E+00 0.  1.
        -13    1    1    2    0    0  0.11574809663E+02 -0.10635496314E+02 -0.51626149851E+02  0.53966290526E+02  0.10566000000E+00 0.  1.
         13    1    1    2    0    0 -0.11557693944E+02 -0.88054482260E+01  0.96006534432E+01  0.17415507984E+02  0.10566000000E+00 0. -1.
         -4    1    1    2    0  502 -0.17115719235E-01  0.19440944540E+02 -0.35713447830E+02  0.40662033563E+02  0.00000000000E+00 0. -1.
</event>
<event>
 5    1  0.4419198E-005  0.6199983E+02  0.7818608E-02  0.1249426E+00
         21   -1    0    0  501  502  0.00000000000E+00  0.00000000000E+00  0.27992361101E+03  0.27992361101E+03  0.00000000000E+00 0.  1.
         -4   -1    0    0    0  501 -0.00000000000E+00 -0.00000000000E+00 -0.22392156818E+03  0.22392156818E+03  0.00000000000E+00 0. -1.
        -13    1    1    2    0    0  0.45334801436E+02 -0.71886042274E+02  0.24173345561E+03  0.25623801830E+03  0.10566000000E+00 0.  1.
         13    1    1    2    0    0 -0.19871649410E+02  0.58329277589E+02 -0.20423960130E+03  0.21333310333E+03  0.10566000000E+00 0. -1.
         -4    1    1    2    0  502 -0.25463152026E+02  0.13556764685E+02  0.18508188515E+02  0.34274057565E+02  0.00000000000E+00 0. -1.
</event>
<event>
 5    1  0.4419198E-005  0.3553540E+03  0.7818608E-02  0.9867667E-01
          4   -1    0    0  502    0 -0.00000000000E+00  0.00000000000E+00  0.15525546132E+04  0.15525546132E+04  0.00000000000E+00 0.  1.
         21   -1    0    0  501  502  0.00000000000E+00 -0.00000000000E+00 -0.19582259926E+03  0.19582259926E+03  0.00000000000E+00 0.  1.
        -13    1    1    2    0    0  0.23393356519E+03 -0.35390516064E+03  0.98359877659E+03  0.10711864171E+04  0.10566000000E+00 0.  1.
         13    1    1    2    0    0 -0.20685218194E+03  0.20219457103E+03  0.42542829619E+03  0.51445088793E+03  0.10566000000E+00 0. -1.
          4    1    1    2  501    0 -0.27081383245E+02  0.15171058961E+03 -0.52295058793E+02  0.16273990750E+03  0.00000000000E+00 0.  1.
</event>
<event>
 5    1  0.4419198E-005  0.1534408E+03  0.7818608E-02  0.1097767E+00
         21   -1    0    0  501  502  0.00000000000E+00  0.00000000000E+00  0.86895839717E+02  0.86895839717E+02  0.00000000000E+00 0. -1.
         -4   -1    0    0    0  501 -0.00000000000E+00 -0.00000000000E+00 -0.70574652053E+03  0.70574652053E+03  0.00000000000E+00 0. -1.
        -13    1    1    2    0    0 -0.12808242520E+03 -0.81784634233E+02 -0.57697359977E+03  0.59665097003E+03  0.10566000000E+00 0.  1.
         13    1    1    2    0    0  0.13514671231E+03  0.88925373054E+02 -0.62198163904E+02  0.17332333535E+03  0.10566000000E+00 0. -1.
         -4    1    1    2    0  502 -0.70642871039E+01 -0.71407388205E+01  0.20321082856E+02  0.22668054871E+02  0.00000000000E+00 0. -1.
</event>
<event>
 5    1  0.4419198E-005  0.4798623E+02  0.7818608E-02  0.1306001E+00
         21   -1    0    0  501  502  0.00000000000E+00  0.00000000000E+00  0.16299030375E+02  0.16299030375E+02  0.00000000000E+00 0.  1.
          4   -1    0    0  502    0 -0.00000000000E+00 -0.00000000000E+00 -0.34713381571E+03  0.34713381571E+03  0.00000000000E+00 0.  1.
        -13    1    1    2    0    0 -0.23757204162E+02  0.17160758767E+02 -0.15358847572E+03  0.15635960933E+03  0.10566000000E+00 0.  1.
         13    1    1    2    0    0 -0.38907379739E+02 -0.18100451147E+02 -0.89367569304E+02  0.99136189846E+02  0.10566000000E+00 0. -1.
          4    1    1    2  501    0  0.62664583901E+02  0.93969237979E+00 -0.87878740305E+02  0.10793704691E+03  0.00000000000E+00 0.  1.
</event>
<event>
 5    1  0.4419198E-005  0.4814952E+03  0.7818608E-02  0.9590162E-01
          4   -1    0    0  502    0 -0.00000000000E+00  0.00000000000E+00  0.42184949440E+04  0.42184949440E+04  0.00000000000E+00 0.  1.
         21   -1    0    0  501  502  0.00000000000E+00 -0.00000000000E+00 -0.12627779003E+03  0.12627779003E+03  0.00000000000E+00 0.  1.
        -13    1    1    2    0    0 -0.24152751403E+03 -0.34720662051E+03  0.17987653781E+04  0.18478216565E+04  0.10566000000E+00 0.  1.
         13    1    1    2    0    0  0.31126553269E+03 -0.20651338665E+03  0.13506117165E+04  0.14013158212E+04  0.10566000000E+00 0. -1.
          4    1    1    2  501    0 -0.69738018655E+02  0.55372000716E+03  0.94284005926E+03  0.10956352563E+04  0.00000000000E+00 0.  1.
</event>
<event>
 5    1  0.4419198E-005  0.4214124E+03  0.7818608E-02  0.9767243E-01
          4   -1    0    0  502    0 -0.00000000000E+00  0.00000000000E+00  0.27248311969E+03  0.27248311969E+03  0.00000000000E+00 0.  1.
         21   -1    0    0  501  502  0.00000000000E+00 -0.00000000000E+00 -0.17821339288E+04  0.17821339288E+04  0.00000000000E+00 0.  1.
        -13    1    1    2    0    0  0.41246089800E+03 -0.43481853515E+03 -0.49223037223E+03  0.77555264257E+03  0.10566000000E+00 0.  1.
         13    1    1    2    0    0 -0.29080576724E+03  0.73061805104E+02 -0.15848634525E+03  0.33915181618E+03  0.10566000000E+00 0. -1.
          4    1    1    2  501    0 -0.12165513076E+03  0.36175673005E+03 -0.85893409165E+03  0.93991258975E+03  0.00000000000E+00 0.  1.
</event>
<event>
 5    1  0.4419198E-005  0.4651468E+02  0.7818608E-02  0.1306668E+00
         21   -1    0    0  501  502  0.00000000000E+00  0.00000000000E+00  0.23814420977E+03  0.23814420977E+03  0.00000000000E+00 0.  1.
         -4   -1    0    0    0  501 -0.00000000000E+00 -0.00000000000E+00 -0.62820499441E+02  0.62820499441E+02  0.00000000000E+00 0. -1.
        -13    1    1    2    0    0  0.64149967306E+02  0.37141201626E+02  0.16351504966E+03  0.17953236419E+03  0.10566000000E+00 0.  1.
         13    1    1    2    0    0 -0.21618868158E+02 -0.39896175960E+02 -0.35605088225E+02  0.57678538367E+02  0.10566000000E+00 0. -1.
         -4    1    1    2    0  502 -0.42531099148E+02  0.27549743343E+01  0.47413748894E+02  0.63753806651E+02  0.00000000000E+00 0. -1.
</event>
<event>
 5    1  0.4419198E-005  0.3813614E+03  0.7818608E-02  0.9784473E-01
         21   -1    0    0  501  502  0.00000000000E+00  0.00000000000E+00  0.24453116566E+03  0.24453116566E+03  0.00000000000E+00 0. -1.
          4   -1    0    0  502    0 -0.00000000000E+00 -0.00000000000E+00 -0.10841193054E+04  0.10841193054E+04  0.00000000000E+00 0.  1.
        -13    1    1    2    0    0  0.33020447416E+03 -0.18797185282E+03 -0.27651164328E+03  0.46992245343E+03  0.10566000000E+00 0.  1.
         13    1    1    2    0    0 -0.33991501030E+03  0.17480064786E+03 -0.65878007845E+03  0.76163553203E+03  0.10566000000E+00 0. -1.
          4    1    1    2  501    0  0.97105361438E+01  0.13171204952E+02  0.95703581998E+02  0.97092485596E+02  0.00000000000E+00 0.  1.
</event>
<event>
 5    1  0.4419198E-005  0.1187703E+03  0.7818608E-02  0.1137288E+00
         21   -1    0    0  501  502  0.00000000000E+00  0.00000000000E+00  0.32126364537E+02  0.32126364537E+02  0.00000000000E+00 0.  1.
          4   -1    0    0  502    0 -0.00000000000E+00 -0.00000000000E+00 -0.14406033577E+04  0.14406033577E+04  0.00000000000E+00 0.  1.
        -13    1    1    2    0    0 -0.40363702206E+02  0.11242934603E+03 -0.67960777612E+03  0.69002632329E+03  0.10566000000E+00 0.  1.
         13    1    1    2    0    0 -0.77576113300E+02 -0.12644986544E+03 -0.53641580535E+03  0.55655147939E+03  0.10566000000E+00 0. -1.
          4    1    1    2  501    0  0.11793981551E+03  0.14020519417E+02 -0.19245341172E+03  0.22615191958E+03  0.00000000000E+00 0.  1.
</event>
<event>
 5    1  0.4419198E-005  0.7585933E+02  0.7818608E-02  0.1212143E+00
          4   -1    0    0  502    0 -0.00000000000E+00  0.00000000000E+00  0.19174807121E+03  0.19174807121E+03  0.00000000000E+00 0.  1.
         21   -1    0    0  501  502  0.00000000000E+00 -0.00000000000E+00 -0.51892325900E+03  0.51892325900E+03  0.00000000000E+00 0.  1.
        -13    1    1    2    0    0  0.36300311634E+02  0.64566158983E+02  0.16330083168E+03  0.17931445648E+03  0.10566000000E+00 0.  1.
         13    1    1    2    0    0 -0.44092411076E+02 -0.11057841651E+03 -0.17021418635E+03  0.20771280006E+03  0.10566000000E+00 0. -1.
          4    1    1    2  501    0  0.77920994421E+01  0.46012257529E+02 -0.32026183313E+03  0.32364407367E+03  0.00000000000E+00 0.  1.
</event>
<event>
 5    1  0.4419198E-005  0.5970720E+03  0.7818608E-02  0.9287372E-01
          4   -1    0    0  502    0 -0.00000000000E+00  0.00000000000E+00  0.80815797938E+03  0.80815797938E+03  0.00000000000E+00 0.  1.
         21   -1    0    0  501  502  0.00000000000E+00 -0.00000000000E+00 -0.10072674654E+04  0.10072674654E+04  0.00000000000E+00 0. -1.
        -13    1    1    2    0    0 -0.63130473111E+03 -0.17311999173E+03 -0.23159126856E+03  0.69437073807E+03  0.10566000000E+00 0.  1.
         13    1    1    2    0    0  0.55740201654E+03 -0.30011063704E+03 -0.50031845643E+02  0.63503275447E+03  0.10566000000E+00 0. -1.
          4    1    1    2  501    0  0.73902714562E+02  0.47323062878E+03  0.82513628170E+02  0.48602195225E+03  0.00000000000E+00 0.  1.
</event>
<event>
 5    1  0.4419198E-005  0.2069285E+03  0.7818608E-02  0.1082150E+00
          4   -1    0    0  502    0 -0.00000000000E+00  0.00000000000E+00  0.83925275886E+02  0.83925275886E+02  0.00000000000E+00 0.  1.
         21   -1    0    0  501  502  0.00000000000E+00 -0.00000000000E+00 -0.81889722164E+03  0.81889722164E+03  0.00000000000E+00 0.  1.
        -13    1    1    2    0    0 -0.24525001138E+03  0.54399228108E+02 -0.42357238066E+03  0.49246361989E+03  0.10566000000E+00 0.  1.
         13    1    1    2    0    0  0.84971828414E+02 -0.45256608507E+02 -0.17485051747E+03  0.19960232178E+03  0.10566000000E+00 0. -1.
          4    1    1    2  501    0  0.16027818296E+03 -0.91426196011E+01 -0.13654904763E+03  0.21075655585E+03  0.00000000000E+00 0.  1.
</event>
<event>
 5    1  0.4419198E-005  0.3579064E+03  0.7818608E-02  0.9885744E-01
          4   -1    0    0  502    0 -0.00000000000E+00  0.00000000000E+00  0.12994605395E+04  0.12994605395E+04  0.00000000000E+00 0.  1.
         21   -1    0    0  501  502  0.00000000000E+00 -0.00000000000E+00 -0.35608704541E+03  0.35608704541E+03  0.00000000000E+00 0.  1.
        -13    1    1    2    0    0  0.32750271270E+03 -0.94545306565E+02 -0.54065024084E+02  0.34513747959E+03  0.10566000000E+00 0.  1.
         13    1    1    2    0    0  0.15708804655E+03  0.28714014298E+03  0.41760305679E+03  0.53058311346E+03  0.10566000000E+00 0. -1.
          4    1    1    2  501    0 -0.48459075926E+03 -0.19259483641E+03  0.57983546142E+03  0.77982699190E+03  0.00000000000E+00 0.  1.
</event>
<event>
 5    1  0.4419198E-005  0.2633612E+03  0.7818608E-02  0.1042170E+00
         21   -1    0    0  501  502  0.00000000000E+00  0.00000000000E+00  0.33204955738E+03  0.33204955738E+03  0.00000000000E+00 0.  1.
          4   -1    0    0  502    0 -0.00000000000E+00 -0.00000000000E+00 -0.11028534216E+04  0.11028534216E+04  0.00000000000E+00 0.  1.
        -13    1    1    2    0    0 -0.57053481981E+01 -0.25754536719E+03  0.20951106848E+03  0.33204979467E+03  0.10566000000E+00 0.  1.
         13    1    1    2    0    0 -0.13150392913E+03 -0.70652918779E+02 -0.27468770452E+03  0.31263151551E+03  0.10566000000E+00 0. -1.
          4    1    1    2  501    0  0.13720927733E+03  0.32819828597E+03 -0.70562722815E+03  0.79022166878E+03  0.00000000000E+00 0.  1.
</event>
<event>
 5    1  0.4419198E-005  0.4348387E+03  0.7818608E-02  0.9714618E-01
          4   -1    0    0  502    0 -0.00000000000E+00  0.00000000000E+00  0.26170204679E+04  0.26170204679E+04  0.00000000000E+00 0.  1.
         21   -1    0    0  501  502  0.00000000000E+00 -0.00000000000E+00 -0.15763331858E+03  0.15763331858E+03  0.00000000000E+00 0. -1.
        -13    1    1    2    0    0  0.92004510106E+02  0.24536039616E+03  0.97459916860E+03  0.10092126161E+04  0.10566000000E+00 0.  1.
         13    1    1    2    0    0 -0.55976860929E+02  0.32250646957E+03  0.86098025952E+03  0.92110306172E+03  0.10566000000E+00 0. -1.
          4    1    1    2  501    0 -0.36027649177E+02 -0.56786686573E+03  0.62380772122E+03  0.84433810867E+03  0.00000000000E+00 0.  1.
</event>
<event>
 5    1  0.4419198E-005  0.3312579E+02  0.7818608E-02  0.1381437E+00
          4   -1    0    0  502    0 -0.00000000000E+00  0.00000000000E+00  0.15942123536E+02  0.15942123536E+02  0.00000000000E+00 0.  1.
         21   -1    0    0  501  502  0.00000000000E+00 -0.00000000000E+00 -0.17954926758E+03  0.17954926758E+03  0.00000000000E+00 0.  1.
        -13    1    1    2    0    0 -0.70188094425E+00  0.48464831334E+02 -0.97147731268E+02  0.10856806790E+03  0.10566000000E+00 0.  1.
         13    1    1    2    0    0 -0.12029284561E+02 -0.24587586012E+02 -0.43700783708E+02  0.51565712772E+02  0.10566000000E+00 0. -1.
          4    1    1    2  501    0  0.12731165505E+02 -0.23877245322E+02 -0.22758629070E+02  0.35357610445E+02  0.00000000000E+00 0.  1.
</event>
<event>
 5    1  0.4419198E-005  0.8277086E+03  0.7818608E-02  0.8955878E-01
         21   -1    0    0  501  502  0.00000000000E+00  0.00000000000E+00  0.37687447040E+03  0.37687447040E+03  0.00000000000E+00 0.  1.
         -4   -1    0    0    0  501 -0.00000000000E+00 -0.00000000000E+00 -0.28008955236E+04  0.28008955236E+04  0.00000000000E+00 0. -1.
        -13    1    1    2    0    0 -0.72343514770E+03  0.25826657073E+03 -0.66722159960E+03  0.10174697581E+04  0.10566000000E+00 0.  1.
         13    1    1    2    0    0  0.87368454731E+03 -0.58566855565E+02 -0.16871768703E+04  0.19008736328E+04  0.10566000000E+00 0. -1.
         -4    1    1    2    0  502 -0.15024939960E+03 -0.19969971516E+03 -0.69622583252E+02  0.25942660314E+03  0.00000000000E+00 0. -1.
</event>
<event>
 5    1  0.4419198E-005  0.4659301E+03  0.7818608E-02  0.9706509E-01
         21   -1    0    0  501  502  0.00000000000E+00  0.00000000000E+00  0.26405315761E+03  0.26405315761E+03  0.00000000000E+00 0.  1.
          4   -1    0    0  502    0 -0.00000000000E+00 -0.00000000000E+00 -0.16052087544E+04  0.16052087544E+04  0.00000000000E+00 0.  1.
        -13    1    1    2    0    0 -0.29373127098E+03  0.32421852879E+03 -0.80457118992E+03  0.91582232162E+03  0.10566000000E+00 0.  1.
         13    1    1    2    0    0  0.21165508262E+03  0.17350234666E+03 -0.26308260153E+03  0.37962271361E+03  0.10566000000E+00 0. -1.
          4    1    1    2  501    0  0.82076188363E+02 -0.49772087545E+03 -0.27350180532E+03  0.57381687677E+03  0.00000000000E+00 0.  1.
</event>
<event>
 5    1  0.4419198E-005  0.3298827E+03  0.7818608E-02  0.9956819E-01
         -4   -1    0    0    0  501 -0.00000000000E+00  0.00000000000E+00  0.50327843696E+03  0.50327843696E+03  0.00000000000E+00 0. -1.
         21   -1    0    0  501  502  0.00000000000E+00 -0.00000000000E+00 -0.25015844552E+03  0.25015844552E+03  0.00000000000E+00 0.  1.
        -13    1    1    2    0    0 -0.14531033814E+03 -0.28467289324E+03  0.36488417633E+02  0.32169110386E+03  0.10566000000E+00 0.  1.
         13    1    1    2    0    0  0.14000222478E+03  0.30589245016E+03  0.22867927685E+03  0.40677393824E+03  0.10566000000E+00 0. -1.
         -4    1    1    2    0  502  0.53081133582E+01 -0.21219556920E+02 -0.12047703040E+02  0.24971840378E+02  0.00000000000E+00 0. -1.
</event>
<event>
 5    1  0.4419198E-005  0.6855439E+02  0.7818608E-02  0.1230572E+00
         -4   -1    0    0    0  501 -0.00000000000E+00  0.00000000000E+00  0.33620641588E+03  0.33620641588E+03  0.00000000000E+00 0. -1.
         21   -1    0    0  501  502  0.00000000000E+00 -0.00000000000E+00 -0.46634050057E+02  0.46634050057E+02  0.00000000000E+00 0.  1.
        -13    1    1    2    0    0  0.17323334615E+02  0.69747919511E+02  0.98016633509E+02  0.12154070021E+03  0.10566000000E+00 0.  1.
         13    1    1    2    0    0  0.19014680412E+02 -0.67420653815E+02  0.20935933655E+03  0.22076785454E+03  0.10566000000E+00 0. -1.
         -4    1    1    2    0  502 -0.36338015027E+02 -0.23272656964E+01 -0.17803604232E+02  0.40531911198E+02  0.00000000000E+00 0. -1.
</event>
<event>
 5    1  0.4419198E-005  0.2615664E+03  0.7818608E-02  0.1024567E+00
          4   -1    0    0  502    0 -0.00000000000E+00  0.00000000000E+00  0.12397821748E+04  0.12397821748E+04  0.00000000000E+00 0.  1.
         21   -1    0    0  501  502  0.00000000000E+00 -0.00000000000E+00 -0.77173760391E+02  0.77173760391E+02  0.00000000000E+00 0. -1.
        -13    1    1    2    0    0  0.15796957771E+03  0.20260893192E+03  0.68527447084E+03  0.73185099462E+03  0.10566000000E+00 0.  1.
         13    1    1    2    0    0 -0.12550281891E+03 -0.24106181355E+03  0.45512820116E+03  0.53009758173E+03  0.10566000000E+00 0. -1.
          4    1    1    2  501    0 -0.32466758805E+02  0.38452881629E+02  0.22205742446E+02  0.55007358875E+02  0.00000000000E+00 0.  1.
</event>
<event>
 5    1  0.4419198E-005  0.4372783E+03  0.7818608E-02  0.9806400E-01
         21   -1    0    0  501  502  0.00000000000E+00  0.00000000000E+00  0.12309765721E+04  0.12309765721E+04  0.00000000000E+00 0. -1.
         -4   -1    0    0    0  501 -0.00000000000E+00 -0.00000000000E+00 -0.76983784133E+03  0.76983784133E+03  0.00000000000E+00 0. -1.
        -13    1    1    2    0    0  0.13930746084E+03 -0.18889829129E+03 -0.53168959501E+03  0.58119099245E+03  0.10566000000E+00 0.  1.
         13    1    1    2    0    0  0.14404220104E+03 -0.22325573354E+03 -0.43203632406E+02  0.26917994586E+03  0.10566000000E+00 0. -1.
         -4    1    1    2    0  502 -0.28334966188E+03  0.41215402482E+03  0.10360319582E+04  0.11504434751E+04  0.00000000000E+00 0. -1.
</event>
<event>
 5    1  0.1270549E-004  0.4949976E+03  0.7818608E-02  0.1028843E+00
          4   -1    0    0  502    0 -0.00000000000E+00  0.00000000000E+00  0.18103395407E+04  0.18103395407E+04  0.00000000000E+00 0.  1.
         21   -1    0    0  501  502  0.00000000000E+00 -0.00000000000E+00 -0.15430654900E+03  0.15430654900E+03  0.00000000000E+00 0.  1.
        -13    1    1    2    0    0  0.15827958284E+03  0.45444116490E+03  0.59748386754E+03  0.76717415352E+03  0.10566000000E+00 0.  1.
         13    1    1    2    0    0  0.76704008219E+01  0.32906022873E+02  0.14461207663E+03  0.14850691991E+03  0.10566000000E+00 0. -1.
          4    1    1    2  501    0 -0.16594998366E+03 -0.48734718777E+03  0.91393704755E+03  0.10489650163E+04  0.00000000000E+00 0.  1.
</event>
<event>
 5    1  0.4419198E-005  0.4695523E+03  0.7818608E-02  0.9950022E-01
          4   -1    0    0  502    0 -0.00000000000E+00  0.00000000000E+00  0.12993226126E+04  0.12993226126E+04  0.00000000000E+00 0.  1.
         21   -1    0    0  501  502  0.00000000000E+00 -0.00000000000E+00 -0.24433075368E+03  0.24433075368E+03  0.00000000000E+00 0.  1.
        -13    1    1    2    0    0  0.45866802139E+03 -0.82722173901E+02  0.22492664712E+03  0.51750489819E+03  0.10566000000E+00 0.  1.
         13    1    1    2    0    0 -0.15373152448E+02 -0.11597709303E+03  0.17839476844E+03  0.21333477095E+03  0.10566000000E+00 0. -1.
          4    1    1    2  501    0 -0.44329486894E+03  0.19869926693E+03  0.65167044334E+03  0.81281369712E+03  0.00000000000E+00 0.  1.
</event>
<event>
 5    1  0.4419198E-005  0.1772790E+03  0.7818608E-02  0.1083136E+00
          4   -1    0    0  502    0 -0.00000000000E+00  0.00000000000E+00  0.17374139213E+04  0.17374139213E+04  0.00000000000E+00 0.  1.
         21   -1    0    0  501  502  0.00000000000E+00 -0.00000000000E+00 -0.77365163829E+02  0.77365163829E+02  0.00000000000E+00 0.  1.
        -13    1    1    2    0    0 -0.90953299234E+02  0.14430177800E+03  0.17851487328E+03  0.24690702081E+03  0.10566000000E+00 0.  1.
         13    1    1    2    0    0 -0.14305698491E+03 -0.41438437677E+02  0.14766867580E+03  0.20973434155E+03  0.10566000000E+00 0. -1.
          4    1    1    2  501    0  0.23401028414E+03 -0.10286334033E+03  0.13338652084E+04  0.13581377228E+04  0.00000000000E+00 0.  1.
</event>
<event>
 5    1  0.4419198E-005  0.1373607E+03  0.7818608E-02  0.1114293E+00
         21   -1    0    0  501  502  0.00000000000E+00  0.00000000000E+00  0.41014893795E+02  0.41014893795E+02  0.00000000000E+00 0.  1.
         -4   -1    0    0    0  501 -0.00000000000E+00 -0.00000000000E+00 -0.56624771501E+03  0.56624771501E+03  0.00000000000E+00 0. -1.
        -13    1    1    2    0    0 -0.13463377674E+03  0.15318391003E+02 -0.29288725551E+03  0.32271328226E+03  0.10566000000E+00 0.  1.
         13    1    1    2    0    0  0.13684332864E+03 -0.30929501932E+02 -0.22880120816E+03  0.26838914788E+03  0.10566000000E+00 0. -1.
         -4    1    1    2    0  502 -0.22095519021E+01  0.15611110928E+02 -0.35443575499E+01  0.16160178665E+02  0.00000000000E+00 0. -1.
</event>
<event>
 5    1  0.4419198E-005  0.1837470E+03  0.7818608E-02  0.1071888E+00
          4   -1    0    0  502    0 -0.00000000000E+00  0.00000000000E+00  0.51167372251E+03  0.51167372251E+03  0.00000000000E+00 0.  1.
         21   -1    0    0  501  502  0.00000000000E+00 -0.00000000000E+00 -0.63930695308E+03  0.63930695308E+03  0.00000000000E+00 0.  1.
        -13    1    1    2    0    0  0.13770201756E+02 -0.19150839769E+03  0.30189616811E+03  0.35777980983E+03  0.10566000000E+00 0.  1.
         13    1    1    2    0    0  0.42929450991E+01  0.17212858686E+03  0.14069887119E+03  0.22235751237E+03  0.10566000000E+00 0. -1.
          4    1    1    2  501    0 -0.18063146855E+02  0.19379810831E+02 -0.57022826986E+03  0.57084335338E+03  0.00000000000E+00 0.  1.
</event>
<event>
 5    1  0.4493351E-005  0.1324888E+03  0.7818608E-02  0.1119792E+00
          4   -1    0    0  502    0 -0.00000000000E+00  0.00000000000E+00  0.90532738169E+03  0.90532738169E+03  0.00000000000E+00 0.  1.
         21   -1    0    0  501  502  0.00000000000E+00 -0.00000000000E+00 -0.41613922755E+03  0.41613922755E+03  0.00000000000E+00 0.  1.
        -13    1    1    2    0    0  0.57487426553E+02 -0.14245280778E+03  0.60570086099E+03  0.62487690854E+03  0.10566000000E+00 0.  1.
         13    1    1    2    0    0 -0.13087436490E+03  0.32926343959E+02  0.26257794088E+03  0.29522775905E+03  0.10566000000E+00 0. -1.
          4    1    1    2  501    0  0.73386938345E+02  0.10952646382E+03 -0.37909064773E+03  0.40136194164E+03  0.00000000000E+00 0.  1.
</event>
<event>
 5    1  0.4419198E-005  0.4258986E+02  0.7818608E-02  0.1325299E+00
         21   -1    0    0  501  502  0.00000000000E+00  0.00000000000E+00  0.22989502306E+02  0.22989502306E+02  0.00000000000E+00 0. -1.
         -4   -1    0    0    0  501 -0.00000000000E+00 -0.00000000000E+00 -0.22354948148E+03  0.22354948148E+03  0.00000000000E+00 0. -1.
        -13    1    1    2    0    0  0.32753189568E+02 -0.45901148771E+02 -0.86337610318E+02  0.10312071084E+03  0.10566000000E+00 0.  1.
         13    1    1    2    0    0 -0.18084358506E+02  0.33211695398E+02 -0.11777720952E+03  0.12369940574E+03  0.10566000000E+00 0. -1.
         -4    1    1    2    0  502 -0.14668831062E+02  0.12689453374E+02  0.35548406649E+01  0.19718867204E+02  0.00000000000E+00 0. -1.
</event>
<event>
 5    1  0.4419198E-005  0.2459868E+03  0.7818608E-02  0.1032494E+00
         21   -1    0    0  501  502  0.00000000000E+00  0.00000000000E+00  0.18357172406E+03  0.18357172406E+03  0.00000000000E+00 0. -1.
         -4   -1    0    0    0  501 -0.00000000000E+00 -0.00000000000E+00 -0.76389842829E+03  0.76389842829E+03  0.00000000000E+00 0. -1.
        -13    1    1    2    0    0 -0.65576093693E+02  0.21101337783E+03 -0.11618236065E+03  0.24965019883E+03  0.10566000000E+00 0.  1.
         13    1    1    2    0    0  0.88542639002E+02 -0.24103983984E+03 -0.54836106509E+03  0.60550794560E+03  0.10566000000E+00 0. -1.
         -4    1    1    2    0  502 -0.22966545308E+02  0.30026462016E+02  0.84216721505E+02  0.92312007917E+02  0.00000000000E+00 0. -1.
</event>
<event>
 5    1  0.4419198E-005  0.8082317E+03  0.7818608E-02  0.8979243E-01
         21   -1    0    0  501  502  0.00000000000E+00  0.00000000000E+00  0.61622979922E+03  0.61622979922E+03  0.00000000000E+00 0. -1.
         -4   -1    0    0    0  501 -0.00000000000E+00 -0.00000000000E+00 -0.19585596098E+04  0.19585596098E+04  0.00000000000E+00 0. -1.
        -13    1    1    2    0    0  0.69527909683E+03  0.39532319329E+03 -0.94365825662E+03  0.12370062110E+04  0.10566000000E+00 0.  1.
         13    1    1    2    0    0 -0.84744592030E+03 -0.12730695311E+03 -0.52467955689E+03  0.10048185392E+04  0.10566000000E+00 0. -1.
         -4    1    1    2    0  502  0.15216682347E+03 -0.26801624018E+03  0.12600800297E+03  0.33296465875E+03  0.00000000000E+00 0. -1.
</event>
<event>
 5    1  0.4419198E-005  0.4414305E+03  0.7818608E-02  0.9616504E-01
          4   -1    0    0  502    0 -0.00000000000E+00  0.00000000000E+00  0.11674070623E+04  0.11674070623E+04  0.00000000000E+00 0.  1.
         21   -1    0    0  501  502  0.00000000000E+00 -0.00000000000E+00 -0.94644664348E+03  0.94644664348E+03  0.00000000000E+00 0.  1.
        -13    1    1    2    0    0 -0.16437101497E+03 -0.49933327184E+03  0.11267509608E+03  0.53763113318E+03  0.10566000000E+00 0.  1.
         13    1    1    2    0    0 -0.20642956314E+03  0.40216408713E+03  0.72246750306E+03  0.85223730360E+03  0.10566000000E+00 0. -1.
          4    1    1    2  501    0  0.37080057811E+03  0.97169184704E+02 -0.61418218029E+03  0.72398526902E+03  0.00000000000E+00 0.  1.
</event>
<event>
 5    1  0.4419198E-005  0.5495943E+02  0.7818608E-02  0.1272816E+00
         21   -1    0    0  501  502  0.00000000000E+00  0.00000000000E+00  0.29568557235E+02  0.29568557235E+02  0.00000000000E+00 0.  1.
         -4   -1    0    0    0  501 -0.00000000000E+00 -0.00000000000E+00 -0.16659199916E+03  0.16659199916E+03  0.00000000000E+00 0. -1.
        -13    1    1    2    0    0 -0.44653630276E+02 -0.18620898564E+02 -0.31862700858E+02  0.57930367081E+02  0.10566000000E+00 0.  1.
         13    1    1    2    0    0  0.62718015243E+02 -0.12473885282E+01 -0.77009986688E+02  0.99326001772E+02  0.10566000000E+00 0. -1.
         -4    1    1    2    0  502 -0.18064384967E+02  0.19868287092E+02 -0.28150754381E+02  0.38904187543E+02  0.00000000000E+00 0. -1.
</event>
<event>
 5    1  0.4419198E-005  0.1143381E+03  0.7818608E-02  0.1224627E+00
         21   -1    0    0  501  502  0.00000000000E+00  0.00000000000E+00  0.45220406647E+02  0.45220406647E+02  0.00000000000E+00 0.  1.
          4   -1    0    0  502    0 -0.00000000000E+00 -0.00000000000E+00 -0.40976251559E+03  0.40976251559E+03  0.00000000000E+00 0.  1.
        -13    1    1    2    0    0  0.94398723089E+02 -0.71457534049E+02 -0.25324569740E+03  0.27955445357E+03  0.10566000000E+00 0.  1.
         13    1    1    2    0    0 -0.14502336547E+02 -0.85114816410E+01 -0.35631786264E+02  0.39400487833E+02  0.10566000000E+00 0. -1.
          4    1    1    2  501    0 -0.79896386542E+02  0.79969015690E+02 -0.75664625284E+02  0.13602798084E+03  0.00000000000E+00 0.  1.
</event>
<event>
 5    1  0.4419198E-005  0.6809425E+02  0.7818608E-02  0.1231818E+00
         21   -1    0    0  501  502  0.00000000000E+00  0.00000000000E+00  0.70365295832E+03  0.70365295832E+03  0.00000000000E+00 0. -1.
         -4   -1    0    0    0  501 -0.00000000000E+00 -0.00000000000E+00 -0.57185945652E+02  0.57185945652E+02  0.00000000000E+00 0. -1.
        -13    1    1    2    0    0 -0.41320909276E+02  0.28480535751E+02  0.26047302545E+02  0.56542299157E+02  0.10566000000E+00 0.  1.
         13    1    1    2    0    0  0.76780936389E+02 -0.44920797894E+02  0.65642328765E+01  0.89198041422E+02  0.10566000000E+00 0. -1.
         -4    1    1    2    0  502 -0.35460027114E+02  0.16440262143E+02  0.61385547724E+03  0.61509856339E+03  0.00000000000E+00 0. -1.
</event>
<event>
 5    1  0.4419198E-005  0.2914007E+03  0.7818608E-02  0.1055766E+00
         21   -1    0    0  501  502  0.00000000000E+00  0.00000000000E+00  0.34208264437E+03  0.34208264437E+03  0.00000000000E+00 0.  1.
          4   -1    0    0  502    0 -0.00000000000E+00 -0.00000000000E+00 -0.94736744696E+03  0.94736744696E+03  0.00000000000E+00 0.  1.
        -13    1    1    2    0    0  0.24980014052E+03 -0.15387088413E+03  0.23631981127E+03  0.37672725353E+03  0.10566000000E+00 0.  1.
         13    1    1    2    0    0  0.17307321853E+02  0.71426556168E+02 -0.16345523917E+03  0.17921752897E+03  0.10566000000E+00 0. -1.
          4    1    1    2  501    0 -0.26710746237E+03  0.82444327966E+02 -0.67814937469E+03  0.73350530882E+03  0.00000000000E+00 0.  1.
</event>
<event>
 5    1  0.4419198E-005  0.4978508E+03  0.7818608E-02  0.9944917E-01
          4   -1    0    0  502    0 -0.00000000000E+00  0.00000000000E+00  0.29000372349E+04  0.29000372349E+04  0.00000000000E+00 0.  1.
         21   -1    0    0  501  502  0.00000000000E+00 -0.00000000000E+00 -0.10485312162E+03  0.10485312162E+03  0.00000000000E+00 0.  1.
        -13    1    1    2    0    0  0.41418229649E+03  0.30682199818E+03  0.12802213741E+04  0.13800918416E+04  0.10566000000E+00 0.  1.
         13    1    1    2    0    0 -0.85804360195E+02  0.51022554698E+02  0.30833408736E+03  0.32409197754E+03  0.10566000000E+00 0. -1.
          4    1    1    2  501    0 -0.32837793630E+03 -0.35784455288E+03  0.12066286518E+04  0.13007065374E+04  0.00000000000E+00 0.  1.
</event>
<event>
 5    1  0.4419198E-005  0.4699606E+03  0.7818608E-02  0.9607166E-01
         21   -1    0    0  501  502  0.00000000000E+00  0.00000000000E+00  0.23643803937E+04  0.23643803937E+04  0.00000000000E+00 0.  1.
         -4   -1    0    0    0  501 -0.00000000000E+00 -0.00000000000E+00 -0.22612675545E+03  0.22612675545E+03  0.00000000000E+00 0. -1.
        -13    1    1    2    0    0  0.33699206353E+03 -0.17154589556E+03  0.60343466161E+03  0.71212712851E+03  0.10566000000E+00 0.  1.
         13    1    1    2    0    0 -0.14605242379E+03 -0.41471183506E+03  0.84939537575E+03  0.95644640840E+03  0.10566000000E+00 0. -1.
         -4    1    1    2    0  502 -0.19093963974E+03  0.58625773062E+03  0.68542360089E+03  0.92193361225E+03  0.00000000000E+00 0. -1.
</event>
<event>
 5    1  0.4419198E-005  0.5045340E+03  0.7818608E-02  0.9637010E-01
         21   -1    0    0  501  502  0.00000000000E+00  0.00000000000E+00  0.37232517470E+03  0.37232517470E+03  0.00000000000E+00 0.  1.
          4   -1    0    0  502    0 -0.00000000000E+00 -0.00000000000E+00 -0.27159144805E+04  0.27159144805E+04  0.00000000000E+00 0.  1.
        -13    1    1    2    0    0 -0.10140817200E+03  0.34062206237E+03 -0.86118173621E+03  0.93163351199E+03  0.10566000000E+00 0.  1.
         13    1    1    2    0    0  0.71632368951E+03 -0.42357596684E+02 -0.12377254259E+04  0.14306914536E+04  0.10566000000E+00 0. -1.
          4    1    1    2  501    0 -0.61491551751E+03 -0.29826446568E+03 -0.24468214362E+03  0.72591468960E+03  0.00000000000E+00 0.  1.
</event>
<event>
 5    1  0.4419198E-005  0.4655284E+02  0.7818608E-02  0.1338814E+00
          4   -1    0    0  502    0 -0.00000000000E+00  0.00000000000E+00  0.15587392573E+03  0.15587392573E+03  0.00000000000E+00 0.  1.
         21   -1    0    0  501  502  0.00000000000E+00 -0.00000000000E+00 -0.24582097567E+03  0.24582097567E+03  0.00000000000E+00 0. -1.
        -13    1    1    2    0    0  0.26448920928E+02  0.22293010755E+02  0.13448373503E+03  0.13886111731E+03  0.10566000000E+00 0.  1.
         13    1    1    2    0    0  0.25268014022E+02 -0.58299643679E+02 -0.16249243895E+03  0.17447385153E+03  0.10566000000E+00 0. -1.
          4    1    1    2  501    0 -0.51716934951E+02  0.36006632924E+02 -0.61938346017E+02  0.88359932563E+02  0.00000000000E+00 0.  1.
</event>
<event>
 5    1  0.4419198E-005  0.3450475E+03  0.7818608E-02  0.9902752E-01
         -4   -1    0    0    0  501 -0.00000000000E+00  0.00000000000E+00  0.69025952524E+03  0.69025952524E+03  0.00000000000E+00 0. -1.
         21   -1    0    0  501  502  0.00000000000E+00 -0.00000000000E+00 -0.22069512051E+03  0.22069512051E+03  0.00000000000E+00 0.  1.
        -13    1    1    2    0    0  0.18988341613E+03  0.24466097077E+03  0.15160696806E+03  0.34481790306E+03  0.10566000000E+00 0.  1.
         13    1    1    2    0    0 -0.20591939560E+03 -0.32496106934E+03  0.24233946185E+03  0.45467672033E+03  0.10566000000E+00 0. -1.
         -4    1    1    2    0  502  0.16035979473E+02  0.80300098571E+02  0.75617974831E+02  0.11146002237E+03  0.00000000000E+00 0. -1.
</event>
<event>
 5    1  0.4419198E-005  0.4998749E+03  0.7818608E-02  0.9714840E-01
         21   -1    0    0  501  502  0.00000000000E+00  0.00000000000E+00  0.51109723238E+03  0.51109723238E+03  0.00000000000E+00 0. -1.
         -4   -1    0    0    0  501 -0.00000000000E+00 -0.00000000000E+00 -0.96126316776E+03  0.96126316776E+03  0.00000000000E+00 0. -1.
        -13    1    1    2    0    0 -0.20944711106E+03  0.49870538476E+02 -0.38637835522E+03  0.44231595889E+03  0.10566000000E+00 0.  1.
         13    1    1    2    0    0 -0.81611213425E+02  0.44577520468E+03 -0.35133126066E+02  0.45454402534E+03  0.10566000000E+00 0. -1.
         -4    1    1    2    0  502  0.29105832448E+03 -0.49564574316E+03 -0.28654454087E+02  0.57550041590E+03  0.00000000000E+00 0. -1.
</event>
<event>
 5    1  0.4419198E-005  0.1421143E+03  0.7818608E-02  0.1109160E+00
         21   -1    0    0  501  502  0.00000000000E+00  0.00000000000E+00  0.75533121161E+02  0.75533121161E+02  0.00000000000E+00 0.  1.
         -4   -1    0    0    0  501 -0.00000000000E+00 -0.00000000000E+00 -0.78820030168E+03  0.78820030168E+03  0.00000000000E+00 0. -1.
        -13    1    1    2    0    0 -0.39477546078E+02 -0.17007257772E+03 -0.47409357369E+03  0.50522063113E+03  0.10566000000E+00 0.  1.
         13    1    1    2    0    0  0.25948159948E+02  0.11387594450E+03 -0.26894969435E+03  0.29321491605E+03  0.10566000000E+00 0. -1.
         -4    1    1    2    0  502  0.13529386129E+02  0.56196633217E+02  0.30376087516E+02  0.65297875668E+02  0.00000000000E+00 0. -1.
</event>
<event>
 5    1  0.4419198E-005  0.1148442E+03  0.7818608E-02  0.1142091E+00
         -4   -1    0    0    0  501 -0.00000000000E+00  0.00000000000E+00  0.27658739308E+03  0.27658739308E+03  0.00000000000E+00 0. -1.
         21   -1    0    0  501  502  0.00000000000E+00 -0.00000000000E+00 -0.37996491069E+03  0.37996491069E+03  0.00000000000E+00 0. -1.
        -13    1    1    2    0    0 -0.75985852790E+02  0.99581026286E+02 -0.10238541423E+03  0.16178076162E+03  0.10566000000E+00 0.  1.
         13    1    1    2    0    0  0.11597012890E+03 -0.17146637666E+02  0.22345798236E+03  0.25234214675E+03  0.10566000000E+00 0. -1.
         -4    1    1    2    0  502 -0.39984276111E+02 -0.82434388619E+02 -0.22445008574E+03  0.24242939540E+03  0.00000000000E+00 0. -1.
</event>
<event>
 5    1  0.4419198E-005  0.1242865E+03  0.7818608E-02  0.1129654E+00
         21   -1    0    0  501  502  0.00000000000E+00  0.00000000000E+00  0.20998100626E+03  0.20998100626E+03  0.00000000000E+00 0.  1.
         -4   -1    0    0    0  501 -0.00000000000E+00 -0.00000000000E+00 -0.15614883783E+03  0.15614883783E+03  0.00000000000E+00 0. -1.
        -13    1    1    2    0    0  0.15479639690E+03  0.22444135905E+02  0.28476506963E+01  0.15644099210E+03  0.10566000000E+00 0.  1.
         13    1    1    2    0    0 -0.10798721018E+03  0.13034363607E+02 -0.26988334192E+02  0.11206923549E+03  0.10566000000E+00 0. -1.
         -4    1    1    2    0  502 -0.46809186723E+02 -0.35478499512E+02  0.77972851923E+02  0.97619616503E+02  0.00000000000E+00 0. -1.
</event>
<event>
 5    1  0.4419198E-005  0.4573609E+03  0.7818608E-02  0.9875368E-01
         21   -1    0    0  501  502  0.00000000000E+00  0.00000000000E+00  0.56214077076E+03  0.56214077076E+03  0.00000000000E+00 0. -1.
         -4   -1    0    0    0  501 -0.00000000000E+00 -0.00000000000E+00 -0.96987488906E+03  0.96987488906E+03  0.00000000000E+00 0. -1.
        -13    1    1    2    0    0  0.16211747717E+03  0.97478697372E+01 -0.53232629210E+03  0.55655043778E+03  0.10566000000E+00 0.  1.
         13    1    1    2    0    0  0.33397433623E+03 -0.13797295425E+03 -0.15334535201E+03  0.39254324795E+03  0.10566000000E+00 0. -1.
         -4    1    1    2    0  502 -0.49609181339E+03  0.12822508451E+03  0.27793752582E+03  0.58292197409E+03  0.00000000000E+00 0. -1.
</event>
<event>
 5    1  0.4419198E-005  0.4721078E+03  0.7818608E-02  0.9554109E-01
         21   -1    0    0  501  502  0.00000000000E+00  0.00000000000E+00  0.38377787516E+03  0.38377787516E+03  0.00000000000E+00 0.  1.
          4   -1    0    0  502    0 -0.00000000000E+00 -0.00000000000E+00 -0.18603326156E+04  0.18603326156E+04  0.00000000000E+00 0.  1.
        -13    1    1    2    0    0 -0.42106088793E+03  0.14410040635E+03 -0.54958745495E+03  0.70718001970E+03  0.10566000000E+00 0.  1.
         13    1    1    2    0    0 -0.51524028648E+01 -0.48308724413E+03 -0.86244403230E+03  0.98853910024E+03  0.10566000000E+00 0. -1.
          4    1    1    2  501    0  0.42621329079E+03  0.33898683778E+03 -0.64523253237E+02  0.54839137087E+03  0.00000000000E+00 0.  1.
</event>
<event>
 5    1  0.4419198E-005  0.6367791E+02  0.7818608E-02  0.1244361E+00
         21   -1    0    0  501  502  0.00000000000E+00  0.00000000000E+00  0.54860276760E+02  0.54860276760E+02  0.00000000000E+00 0.  1.
         -4   -1    0    0    0  501 -0.00000000000E+00 -0.00000000000E+00 -0.19742146345E+03  0.19742146345E+03  0.00000000000E+00 0. -1.
        -13    1    1    2    0    0 -0.45573621368E+02  0.59046933979E+02 -0.15733689811E+02  0.76230279654E+02  0.10566000000E+00 0.  1.
         13    1    1    2    0    0  0.42395252659E+02 -0.44483985626E+02 -0.14203426009E+03  0.15475763189E+03  0.10566000000E+00 0. -1.
         -4    1    1    2    0  502  0.31783687096E+01 -0.14562948354E+02  0.15206763203E+02  0.21293828672E+02  0.00000000000E+00 0. -1.
</event>
<event>
 5    1  0.4419198E-005  0.7582007E+02  0.7818608E-02  0.1212236E+00
         21   -1    0    0  501  502  0.00000000000E+00  0.00000000000E+00  0.86889877845E+02  0.86889877845E+02  0.00000000000E+00 0.  1.
         -4   -1    0    0    0  501 -0.00000000000E+00 -0.00000000000E+00 -0.16768010056E+03  0.16768010056E+03  0.00000000000E+00 0. -1.
        -13    1    1    2    0    0 -0.11060893447E+02  0.84692423536E+02  0.41617489954E+02  0.95011455111E+02  0.10566000000E+00 0.  1.
         13    1    1    2    0    0  0.26518537666E+01 -0.74387880845E+02 -0.12549053877E+03  0.14590570801E+03  0.10566000000E+00 0. -1.
         -4    1    1    2    0  502  0.84090396801E+01 -0.10304542691E+02  0.30828261010E+01  0.13652815284E+02  0.00000000000E+00 0. -1.
</event>
<event>
 5    1  0.4419198E-005  0.4987235E+03  0.7818608E-02  0.1004927E+00
         21   -1    0    0  501  502  0.00000000000E+00  0.00000000000E+00  0.76293208213E+02  0.76293208213E+02  0.00000000000E+00 0.  1.
          4   -1    0    0  502    0 -0.00000000000E+00 -0.00000000000E+00 -0.37558849497E+04  0.37558849497E+04  0.00000000000E+00 0.  1.
        -13    1    1    2    0    0 -0.86909392563E+02  0.46478833465E+03 -0.16931263193E+04  0.17579130192E+04  0.10566000000E+00 0.  1.
         13    1    1    2    0    0  0.37900149249E+02  0.59476812729E+02 -0.24085550574E+03  0.25096871991E+03  0.10566000000E+00 0. -1.
          4    1    1    2  501    0  0.49009243314E+02 -0.52426514737E+03 -0.17456099164E+04  0.18232964188E+04  0.00000000000E+00 0.  1.
</event>
<event>
 5    1  0.4419198E-005  0.1211904E+03  0.7818608E-02  0.1133595E+00
         21   -1    0    0  501  502  0.00000000000E+00  0.00000000000E+00  0.32496268839E+03  0.32496268839E+03  0.00000000000E+00 0. -1.
          4   -1    0    0  502    0 -0.00000000000E+00 -0.00000000000E+00 -0.66807173822E+02  0.66807173822E+02  0.00000000000E+00 0.  1.
        -13    1    1    2    0    0 -0.12510162035E+03  0.30511397427E+02  0.55770085109E+02  0.14032702642E+03  0.10566000000E+00 0.  1.
         13    1    1    2    0    0  0.10238334180E+03 -0.44191037116E+02  0.11527627444E+03  0.16038649274E+03  0.10566000000E+00 0. -1.
          4    1    1    2  501    0  0.22718278546E+02  0.13679639689E+02  0.87109155019E+02  0.91056343053E+02  0.00000000000E+00 0.  1.
</event>
<event>
 5    1  0.4419198E-005  0.4325617E+03  0.7818608E-02  0.9639461E-01
         -4   -1    0    0    0  501 -0.00000000000E+00  0.00000000000E+00  0.40659731103E+03  0.40659731103E+03  0.00000000000E+00 0. -1.
         21   -1    0    0  501  502  0.00000000000E+00 -0.00000000000E+00 -0.88347703120E+03  0.88347703120E+03  0.00000000000E+00 0.  1.
        -13    1    1    2    0    0  0.37550737393E+03  0.27381537168E+03 -0.40569565647E+03  0.61690325213E+03  0.10566000000E+00 0.  1.
         13    1    1    2    0    0 -0.35835867787E+03 -0.22538634826E+03  0.14767619346E+03  0.44836170361E+03  0.10566000000E+00 0. -1.
         -4    1    1    2    0  502 -0.17148696060E+02 -0.48429023423E+02 -0.21886025716E+03  0.22480938649E+03  0.00000000000E+00 0. -1.
</event>
<event>
 5    1  0.4419198E-005  0.4364569E+03  0.7818608E-02  0.9907384E-01
         21   -1    0    0  501  502  0.00000000000E+00  0.00000000000E+00  0.83254817744E+02  0.83254817744E+02  0.00000000000E+00 0. -1.
         -4   -1    0    0    0  501 -0.00000000000E+00 -0.00000000000E+00 -0.42383808800E+04  0.42383808800E+04  0.00000000000E+00 0. -1.
        -13    1    1    2    0    0  0.56289979125E+02 -0.15814891596E+03 -0.38407460346E+03  0.41915743290E+03  0.10566000000E+00 0.  1.
         13    1    1    2    0    0 -0.41088806865E+03  0.34875875763E+03 -0.27980351058E+04  0.28494669923E+04  0.10566000000E+00 0. -1.
         -4    1    1    2    0  502  0.35459808952E+03 -0.19060984167E+03 -0.97301635308E+03  0.10530112726E+04  0.00000000000E+00 0. -1.
</event>
<event>
 5    1  0.4419198E-005  0.4160891E+03  0.7818608E-02  0.9954031E-01
          4   -1    0    0  502    0 -0.00000000000E+00  0.00000000000E+00  0.20103718584E+04  0.20103718584E+04  0.00000000000E+00 0.  1.
         21   -1    0    0  501  502  0.00000000000E+00 -0.00000000000E+00 -0.19376900519E+03  0.19376900519E+03  0.00000000000E+00 0.  1.
        -13    1    1    2    0    0 -0.75238642708E+00 -0.43392236467E+03  0.11633072402E+04  0.12416009548E+04  0.10566000000E+00 0.  1.
         13    1    1    2    0    0  0.15914436003E+03  0.46911754519E+02  0.48356705101E+03  0.51123844146E+03  0.10566000000E+00 0. -1.
          4    1    1    2  501    0 -0.15839197361E+03  0.38701061015E+03  0.16972856201E+03  0.45130146735E+03  0.00000000000E+00 0.  1.
</event>
<event>
 5    1  0.4419198E-005  0.2382706E+03  0.7818608E-02  0.1044201E+00
          4   -1    0    0  502    0 -0.00000000000E+00  0.00000000000E+00  0.85105881813E+03  0.85105881813E+03  0.00000000000E+00 0.  1.
         21   -1    0    0  501  502  0.00000000000E+00 -0.00000000000E+00 -0.42711733150E+03  0.42711733150E+03  0.00000000000E+00 0.  1.
        -13    1    1    2    0    0 -0.33984602629E+03 -0.23761386610E+03  0.64976658481E+03  0.77081275083E+03  0.10566000000E+00 0.  1.
         13    1    1    2    0    0  0.16479446663E+03  0.93798307449E+02 -0.30701385174E+01  0.18964381252E+03  0.10566000000E+00 0. -1.
          4    1    1    2  501    0  0.17505155966E+03  0.14381555865E+03 -0.22275495965E+03  0.31771958627E+03  0.00000000000E+00 0.  1.
</event>
<event>
 5    1  0.4419198E-005  0.1111795E+03  0.7818608E-02  0.1147277E+00
         21   -1    0    0  501  502  0.00000000000E+00  0.00000000000E+00  0.22595255695E+02  0.22595255695E+02  0.00000000000E+00 0.  1.
         -4   -1    0    0    0  501 -0.00000000000E+00 -0.00000000000E+00 -0.77709223381E+03  0.77709223381E+03  0.00000000000E+00 0. -1.
        -13    1    1    2    0    0  0.46746646707E+02  0.10949152173E+03 -0.31682359659E+03  0.33845360809E+03  0.10566000000E+00 0.  1.
         13    1    1    2    0    0 -0.44510301707E+02 -0.96774593238E+02 -0.43525183130E+03  0.44809670459E+03  0.10566000000E+00 0. -1.
         -4    1    1    2    0  502 -0.22363449999E+01 -0.12716928496E+02 -0.24215502283E+01  0.13137176821E+02  0.00000000000E+00 0. -1.
</event>
<event>
 5    1  0.4419198E-005  0.3883189E+03  0.7818608E-02  0.9879252E-01
         21   -1    0    0  501  502  0.00000000000E+00  0.00000000000E+00  0.34592448100E+03  0.34592448100E+03  0.00000000000E+00 0.  1.
          4   -1    0    0  502    0 -0.00000000000E+00 -0.00000000000E+00 -0.14174531629E+04  0.14174531629E+04  0.00000000000E+00 0.  1.
        -13    1    1    2    0    0  0.54125795232E+03  0.12770673973E+03 -0.58709717743E+03  0.80867316589E+03  0.10566000000E+00 0.  1.
         13    1    1    2    0    0 -0.24963682586E+03  0.79243794151E+02 -0.53295682102E+03  0.59383592681E+03  0.10566000000E+00 0. -1.
          4    1    1    2  501    0 -0.29162112646E+03 -0.20695053388E+03  0.48525316581E+02  0.36086855116E+03  0.00000000000E+00 0.  1.
</event>
<event>
 5    1  0.4419198E-005  0.1157474E+03  0.7818608E-02  0.1140846E+00
         21   -1    0    0  501  502  0.00000000000E+00  0.00000000000E+00  0.57919502202E+02  0.57919502202E+02  0.00000000000E+00 0. -1.
          4   -1    0    0  502    0 -0.00000000000E+00 -0.00000000000E+00 -0.44100931318E+03  0.44100931318E+03  0.00000000000E+00 0.  1.
        -13    1    1    2    0    0  0.11563843112E+03 -0.51876652580E+02 -0.27837439435E+03  0.30586884187E+03  0.10566000000E+00 0.  1.
         13    1    1    2    0    0 -0.61533019052E+02  0.75727523707E+02 -0.40157826066E+02  0.10551602930E+03  0.10566000000E+00 0. -1.
          4    1    1    2  501    0 -0.54105412070E+02 -0.23850871127E+02 -0.64557590566E+02  0.87543944214E+02  0.00000000000E+00 0.  1.
</event>
<event>
 5    1  0.4419198E-005  0.5020404E+03  0.7818608E-02  0.9473511E-01
          4   -1    0    0  502    0 -0.00000000000E+00  0.00000000000E+00  0.49089574328E+03  0.49089574328E+03  0.00000000000E+00 0.  1.
         21   -1    0    0  501  502  0.00000000000E+00 -0.00000000000E+00 -0.16777871463E+04  0.16777871463E+04  0.00000000000E+00 0.  1.
        -13    1    1    2    0    0  0.19061188693E+03  0.62592309017E+03 -0.11973083677E+04  0.13644265992E+04  0.10566000000E+00 0.  1.
         13    1    1    2    0    0 -0.32990307257E+03 -0.35725138268E+03  0.82330655639E+02  0.49319665017E+03  0.10566000000E+00 0. -1.
          4    1    1    2  501    0  0.13929118564E+03 -0.26867170749E+03 -0.71913691006E+02  0.31105964020E+03  0.00000000000E+00 0.  1.
</event>
<event>
 5    1  0.4419198E-005  0.5808778E+03  0.7818608E-02  0.9316405E-01
         -4   -1    0    0    0  501 -0.00000000000E+00  0.00000000000E+00  0.50139257585E+03  0.50139257585E+03  0.00000000000E+00 0. -1.
         21   -1    0    0  501  502  0.00000000000E+00 -0.00000000000E+00 -0.13419209468E+04  0.13419209468E+04  0.00000000000E+00 0.  1.
        -13    1    1    2    0    0  0.10911852957E+03 -0.48038039937E+03 -0.92084698342E+02  0.50115046087E+03  0.10566000000E+00 0.  1.
         13    1    1    2    0    0 -0.21216706708E+03  0.77407818146E+03 -0.52707440794E+03  0.96021838039E+03  0.10566000000E+00 0. -1.
         -4    1    1    2    0  502  0.10304853751E+03 -0.29369778209E+03 -0.22136926464E+03  0.38194468135E+03  0.00000000000E+00 0. -1.
</event>
<event>
 5    1  0.4419198E-005  0.4434103E+03  0.7818608E-02  0.1003464E+00
         -4   -1    0    0    0  501 -0.00000000000E+00  0.00000000000E+00  0.12568871955E+04  0.12568871955E+04  0.00000000000E+00 0. -1.
         21   -1    0    0  501  502  0.00000000000E+00 -0.00000000000E+00 -0.24384167630E+03  0.24384167630E+03  0.00000000000E+00 0. -1.
        -13    1    1    2    0    0 -0.98783127589E+02  0.36280267597E+02  0.70765920484E+02  0.12681557783E+03  0.10566000000E+00 0.  1.
         13    1    1    2    0    0  0.46764082289E+03  0.40019420570E+02  0.14352979178E+03  0.49080577171E+03  0.10566000000E+00 0. -1.
         -4    1    1    2    0  502 -0.36885769530E+03 -0.76299688167E+02  0.79874980695E+03  0.88310752227E+03  0.00000000000E+00 0. -1.
</event>
<event>
 5    1  0.4419198E-005  0.4983249E+03  0.7818608E-02  0.1017817E+00
         21   -1    0    0  501  502  0.00000000000E+00  0.00000000000E+00  0.76073292742E+03  0.76073292742E+03  0.00000000000E+00 0.  1.
          4   -1    0    0  502    0 -0.00000000000E+00 -0.00000000000E+00 -0.36020726272E+03  0.36020726272E+03  0.00000000000E+00 0.  1.
        -13    1    1    2    0    0  0.43825989441E+03 -0.24312336631E+03  0.15711382365E+03  0.52522897011E+03  0.10566000000E+00 0.  1.
         13    1    1    2    0    0  0.16794694564E+02  0.43651013110E+02  0.17980402962E+02  0.50107671725E+02  0.10566000000E+00 0. -1.
          4    1    1    2  501    0 -0.45505458898E+03  0.19947235320E+03  0.22543143809E+03  0.54560354830E+03  0.00000000000E+00 0.  1.
</event>
<event>
 5    1  0.4419198E-005  0.4830352E+03  0.7818608E-02  0.9899996E-01
         21   -1    0    0  501  502  0.00000000000E+00  0.00000000000E+00  0.17067700065E+03  0.17067700065E+03  0.00000000000E+00 0.  1.
          4   -1    0    0  502    0 -0.00000000000E+00 -0.00000000000E+00 -0.21584385777E+04  0.21584385777E+04  0.00000000000E+00 0.  1.
        -13    1    1    2    0    0 -0.10758136619E+03  0.41957914442E+03 -0.51987874973E+03  0.67667890049E+03  0.10566000000E+00 0.  1.
         13    1    1    2    0    0 -0.50762092244E+02  0.11634309210E+03 -0.64738633393E+03  0.65971325711E+03  0.10566000000E+00 0. -1.
          4    1    1    2  501    0  0.15834345843E+03 -0.53592223652E+03 -0.82049649334E+03  0.99272342070E+03  0.00000000000E+00 0.  1.
</event>
<event>
 5    1  0.4419198E-005  0.4005676E+03  0.7818608E-02  0.1042748E+00
         21   -1    0    0  501  502  0.00000000000E+00  0.00000000000E+00  0.88402396591E+02  0.88402396591E+02  0.00000000000E+00 0. -1.
         -4   -1    0    0    0  501 -0.00000000000E+00 -0.00000000000E+00 -0.22203718064E+04  0.22203718064E+04  0.00000000000E+00 0. -1.
        -13    1    1    2    0    0 -0.40967326163E+02  0.77426613307E+01 -0.63625043212E+02  0.76068573703E+02  0.10566000000E+00 0.  1.
         13    1    1    2    0    0  0.39215848766E+03  0.15879424327E+03 -0.13655753139E+04  0.14296152770E+04  0.10566000000E+00 0. -1.
         -4    1    1    2    0  502 -0.35119116150E+03 -0.16653690460E+03 -0.70276905268E+03  0.80309035228E+03  0.00000000000E+00 0. -1.
</event>
<event>
 5    1  0.4419198E-005  0.3447966E+03  0.7818608E-02  0.1023661E+00
         -4   -1    0    0    0  501 -0.00000000000E+00  0.00000000000E+00  0.97682956455E+03  0.97682956455E+03  0.00000000000E+00 0. -1.
         21   -1    0    0  501  502  0.00000000000E+00 -0.00000000000E+00 -0.47483725592E+03  0.47483725592E+03  0.00000000000E+00 0. -1.
        -13    1    1    2    0    0 -0.93968924211E+02  0.70499296938E+02  0.46891805615E+03  0.48340920982E+03  0.10566000000E+00 0.  1.
         13    1    1    2    0    0  0.34695696342E+03  0.79892004766E+02 -0.34051866312E+03  0.49266097673E+03  0.10566000000E+00 0. -1.
         -4    1    1    2    0  502 -0.25298803921E+03 -0.15039130170E+03  0.37359291560E+03  0.47559663393E+03  0.00000000000E+00 0. -1.
</event>
<event>
 5    1  0.4419198E-005  0.3903067E+03  0.7818608E-02  0.9869535E-01
         21   -1    0    0  501  502  0.00000000000E+00  0.00000000000E+00  0.14794224463E+03  0.14794224463E+03  0.00000000000E+00 0. -1.
         -4   -1    0    0    0  501 -0.00000000000E+00 -0.00000000000E+00 -0.26631631934E+04  0.26631631934E+04  0.00000000000E+00 0. -1.
        -13    1    1    2    0    0  0.20170329216E+03 -0.17417637243E+03 -0.76876915721E+03  0.81365081885E+03  0.10566000000E+00 0.  1.
         13    1    1    2    0    0 -0.49531954634E+03 -0.58127826387E+02 -0.14044306165E+04  0.14903508530E+04  0.10566000000E+00 0. -1.
         -4    1    1    2    0  502  0.29361625418E+03  0.23230419881E+03 -0.34202117502E+03  0.50710376617E+03  0.00000000000E+00 0. -1.
</event>
<event>
 5    1  0.4419198E-005  0.7928292E+02  0.7818608E-02  0.1204282E+00
         21   -1    0    0  501  502  0.00000000000E+00  0.00000000000E+00  0.21535324990E+03  0.21535324990E+03  0.00000000000E+00 0.  1.
          4   -1    0    0  502    0 -0.00000000000E+00 -0.00000000000E+00 -0.14543936223E+03  0.14543936223E+03  0.00000000000E+00 0.  1.
        -13    1    1    2    0    0  0.49239508999E+02  0.49741500973E+02  0.31586532455E+02  0.76788452010E+02  0.10566000000E+00 0.  1.
         13    1    1    2    0    0 -0.67439485027E+02 -0.46451705120E+02 -0.10854599367E+03  0.13597091217E+03  0.10566000000E+00 0. -1.
          4    1    1    2  501    0  0.18199976027E+02 -0.32897958532E+01  0.14687334889E+03  0.14803324795E+03  0.00000000000E+00 0.  1.
</event>
<event>
 5    1  0.4419198E-005  0.5425619E+03  0.7818608E-02  0.9389265E-01
         21   -1    0    0  501  502  0.00000000000E+00  0.00000000000E+00  0.60998497298E+03  0.60998497298E+03  0.00000000000E+00 0. -1.
          4   -1    0    0  502    0 -0.00000000000E+00 -0.00000000000E+00 -0.14437589156E+04  0.14437589156E+04  0.00000000000E+00 0.  1.
        -13    1    1    2    0    0 -0.49389264248E+03 -0.25091932804E+03 -0.93341855251E+03  0.10854310926E+04  0.10566000000E+00 0.  1.
         13    1    1    2    0    0  0.58307130491E+03 -0.10827627399E+03  0.57502331172E+02  0.59582080139E+03  0.10566000000E+00 0. -1.
          4    1    1    2  501    0 -0.89178662424E+02  0.35919560203E+03  0.42142278730E+02  0.37249199455E+03  0.00000000000E+00 0.  1.
</event>
<event>
 5    1  0.4419198E-005  0.4523004E+03  0.7818608E-02  0.9971902E-01
         21   -1    0    0  501  502  0.00000000000E+00  0.00000000000E+00  0.47196695405E+03  0.47196695405E+03  0.00000000000E+00 0. -1.
         -4   -1    0    0    0  501 -0.00000000000E+00 -0.00000000000E+00 -0.68386478167E+03  0.68386478167E+03  0.00000000000E+00 0. -1.
        -13    1    1    2    0    0 -0.11231701081E+03 -0.47034153196E+02  0.65141258633E+02  0.13809676761E+03  0.10566000000E+00 0.  1.
         13    1    1    2    0    0  0.45843207388E+03 -0.14579383697E+03  0.76045733329E+02  0.48703056781E+03  0.10566000000E+00 0. -1.
         -4    1    1    2    0  502 -0.34611506307E+03  0.19282799017E+03 -0.35308481958E+03  0.53070440030E+03  0.00000000000E+00 0. -1.
</event>
<event>
 5    1  0.4419198E-005  0.4842977E+03  0.7818608E-02  0.9912305E-01
         -4   -1    0    0    0  501 -0.00000000000E+00  0.00000000000E+00  0.78395826076E+03  0.78395826076E+03  0.00000000000E+00 0. -1.
         21   -1    0    0  501  502  0.00000000000E+00 -0.00000000000E+00 -0.63586026203E+03  0.63586026203E+03  0.00000000000E+00 0. -1.
        -13    1    1    2    0    0  0.10633899430E+03 -0.57460140486E+02  0.37967891355E+03  0.39845418559E+03  0.10566000000E+00 0.  1.
         13    1    1    2    0    0  0.42221568706E+02 -0.43830905668E+03  0.30206855383E+02  0.44137280763E+03  0.10566000000E+00 0. -1.
         -4    1    1    2    0  502 -0.14856056301E+03  0.49576919717E+03 -0.26178777021E+03  0.57999152957E+03  0.00000000000E+00 0. -1.
</event>
<event>
 5    1  0.4419198E-005  0.7618313E+02  0.7818608E-02  0.1211380E+00
         21   -1    0    0  501  502  0.00000000000E+00  0.00000000000E+00  0.39820374242E+03  0.39820374242E+03  0.00000000000E+00 0.  1.
         -4   -1    0    0    0  501 -0.00000000000E+00 -0.00000000000E+00 -0.38608373574E+02  0.38608373574E+02  0.00000000000E+00 0. -1.
        -13    1    1    2    0    0  0.29142470386E+02  0.62576859801E+02  0.28910011421E+03  0.29722724331E+03  0.10566000000E+00 0.  1.
         13    1    1    2    0    0 -0.44989412388E+02 -0.63020653379E+02  0.11237098156E+02  0.78242785727E+02  0.10566000000E+00 0. -1.
         -4    1    1    2    0  502  0.15846942002E+02  0.44379357739E+00  0.59258156470E+02  0.61342086954E+02  0.00000000000E+00 0. -1.
</event>
<event>
 5    1  0.4419198E-005  0.4897433E+03  0.7818608E-02  0.9796790E-01
         21   -1    0    0  501  502  0.00000000000E+00  0.00000000000E+00  0.82266434085E+03  0.82266434085E+03  0.00000000000E+00 0.  1.
          4   -1    0    0  502    0 -0.00000000000E+00 -0.00000000000E+00 -0.62833068207E+03  0.62833068207E+03  0.00000000000E+00 0.  1.
        -13    1    1    2    0    0 -0.15577629086E+03  0.51747496722E+03  0.42259311064E+03  0.68602590535E+03  0.10566000000E+00 0.  1.
         13    1    1    2    0    0  0.14752983983E+03 -0.89665960875E+02 -0.28512487726E+03  0.33331853380E+03  0.10566000000E+00 0. -1.
          4    1    1    2  501    0  0.82464510291E+01 -0.42780900634E+03  0.56865425399E+02  0.43165058377E+03  0.00000000000E+00 0.  1.
</event>
<event>
 5    1  0.4419198E-005  0.5767159E+03  0.7818608E-02  0.9324028E-01
         21   -1    0    0  501  502  0.00000000000E+00  0.00000000000E+00  0.87900725247E+03  0.87900725247E+03  0.00000000000E+00 0.  1.
         -4   -1    0    0    0  501 -0.00000000000E+00 -0.00000000000E+00 -0.89849092892E+03  0.89849092892E+03  0.00000000000E+00 0. -1.
        -13    1    1    2    0    0 -0.34381691775E+03  0.38486290030E+03  0.31701442210E+03  0.60566300856E+03  0.10566000000E+00 0.  1.
         13    1    1    2    0    0  0.55010835923E+03 -0.24913491585E+03 -0.57113930776E+03  0.83119644683E+03  0.10566000000E+00 0. -1.
         -4    1    1    2    0  502 -0.20629144148E+03 -0.13572798444E+03  0.23464120921E+03  0.34063872600E+03  0.00000000000E+00 0. -1.
</event>
<event>
 5    1  0.4419198E-005  0.1592074E+03  0.7818608E-02  0.1092370E+00
         21   -1    0    0  501  502  0.00000000000E+00  0.00000000000E+00  0.49900582641E+03  0.49900582641E+03  0.00000000000E+00 0. -1.
          4   -1    0    0  502    0 -0.00000000000E+00 -0.00000000000E+00 -0.10610339281E+03  0.10610339281E+03  0.00000000000E+00 0.  1.
        -13    1    1    2    0    0 -0.40503539936E+02 -0.15414897151E+03 -0.50356526336E+01  0.15946100189E+03  0.10566000000E+00 0.  1.
         13    1    1    2    0    0  0.10591133748E+02  0.16051303756E+03  0.27161479299E+03  0.31567580566E+03  0.10566000000E+00 0. -1.
          4    1    1    2  501    0  0.29912406188E+02 -0.63640660539E+01  0.12632329324E+03  0.12997241167E+03  0.00000000000E+00 0.  1.
</event>
<event>
 5    1  0.4419198E-005  0.4074761E+03  0.7818608E-02  0.9957383E-01
          4   -1    0    0  502    0 -0.00000000000E+00  0.00000000000E+00  0.68782001225E+03  0.68782001225E+03  0.00000000000E+00 0.  1.
         21   -1    0    0  501  502  0.00000000000E+00 -0.00000000000E+00 -0.68923410486E+03  0.68923410486E+03  0.00000000000E+00 0.  1.
        -13    1    1    2    0    0  0.14533755495E+03  0.23027457942E+03  0.22371709847E+03  0.35241841342E+03  0.10566000000E+00 0.  1.
         13    1    1    2    0    0  0.77516277498E+02  0.15657436592E+03  0.29272711756E+03  0.34090098542E+03  0.10566000000E+00 0. -1.
          4    1    1    2  501    0 -0.22285383245E+03 -0.38684894534E+03 -0.51785830864E+03  0.68373471828E+03  0.00000000000E+00 0.  1.
</event>
<event>
 5    1  0.4419198E-005  0.5033735E+03  0.7818608E-02  0.9607029E-01
         21   -1    0    0  501  502  0.00000000000E+00  0.00000000000E+00  0.87024422886E+03  0.87024422886E+03  0.00000000000E+00 0. -1.
         -4   -1    0    0    0  501 -0.00000000000E+00 -0.00000000000E+00 -0.64672635444E+03  0.64672635444E+03  0.00000000000E+00 0. -1.
        -13    1    1    2    0    0  0.28563565235E+03  0.11489853597E+03 -0.21108179353E+03  0.37328934379E+03  0.10566000000E+00 0.  1.
         13    1    1    2    0    0 -0.43101124433E+03 -0.48592073816E+03  0.34410000120E+03  0.73504726277E+03  0.10566000000E+00 0. -1.
         -4    1    1    2    0  502  0.14537559198E+03  0.37102220220E+03  0.90499666753E+02  0.40863397674E+03  0.00000000000E+00 0. -1.
</event>
<event>
 5    1  0.4419198E-005  0.4418436E+03  0.7818608E-02  0.9759200E-01
         21   -1    0    0  501  502  0.00000000000E+00  0.00000000000E+00  0.54484980741E+03  0.54484980741E+03  0.00000000000E+00 0. -1.
          4   -1    0    0  502    0 -0.00000000000E+00 -0.00000000000E+00 -0.84465217607E+03  0.84465217607E+03  0.00000000000E+00 0.  1.
        -13    1    1    2    0    0  0.24549780425E+03  0.78144988392E+02 -0.34220562584E+03  0.42834625319E+03  0.10566000000E+00 0.  1.
         13    1    1    2    0    0  0.26643546392E+03 -0.23146894456E+02 -0.25249836210E+03  0.36780303042E+03  0.10566000000E+00 0. -1.
          4    1    1    2  501    0 -0.51193326817E+03 -0.54998093936E+02  0.29490161928E+03  0.59335269987E+03  0.00000000000E+00 0.  1.
</event>
<event>
 5    1  0.4419198E-005  0.2023101E+03  0.7818608E-02  0.1058564E+00
         21   -1    0    0  501  502  0.00000000000E+00  0.00000000000E+00  0.12524283915E+03  0.12524283915E+03  0.00000000000E+00 0.  1.
         -4   -1    0    0    0  501 -0.00000000000E+00 -0.00000000000E+00 -0.47694856139E+03  0.47694856139E+03  0.00000000000E+00 0. -1.
        -13    1    1    2    0    0  0.14366374983E+03 -0.15513740389E+03 -0.75625312490E+02  0.22455753417E+03  0.10566000000E+00 0.  1.
         13    1    1    2    0    0 -0.13955193876E+03  0.14132315448E+03 -0.29389865984E+03  0.35471595823E+03  0.10566000000E+00 0. -1.
         -4    1    1    2    0  502 -0.41118110649E+01  0.13814249413E+02  0.17818250092E+02  0.22917908138E+02  0.00000000000E+00 0. -1.
</event>
<event>
 5    1  0.4419198E-005  0.7765446E+03  0.7818608E-02  0.9018771E-01
         21   -1    0    0  501  502  0.00000000000E+00  0.00000000000E+00  0.14891004601E+04  0.14891004601E+04  0.00000000000E+00 0. -1.
          4   -1    0    0  502    0 -0.00000000000E+00 -0.00000000000E+00 -0.51956964040E+03  0.51956964040E+03  0.00000000000E+00 0.  1.
        -13    1    1    2    0    0 -0.74975006574E+03  0.36283181588E+03  0.32093766697E+03  0.89262146789E+03  0.10566000000E+00 0.  1.
         13    1    1    2    0    0  0.64487792508E+03 -0.32539916631E+03  0.36071097262E+03  0.80738130559E+03  0.10566000000E+00 0. -1.
          4    1    1    2  501    0  0.10487214067E+03 -0.37432649568E+02  0.28788218006E+03  0.30866732697E+03  0.00000000000E+00 0.  1.
</event>
<event>
 5    1  0.4419198E-005  0.3745285E+02  0.7818608E-02  0.1384950E+00
         21   -1    0    0  501  502  0.00000000000E+00  0.00000000000E+00  0.15855565996E+02  0.15855565996E+02  0.00000000000E+00 0. -1.
         -4   -1    0    0    0  501 -0.00000000000E+00 -0.00000000000E+00 -0.25336903454E+03  0.25336903454E+03  0.00000000000E+00 0. -1.
        -13    1    1    2    0    0 -0.21022710344E+02  0.48740337541E+01 -0.11122284504E+03  0.11329714462E+03  0.10566000000E+00 0.  1.
         13    1    1    2    0    0  0.53326389241E+02  0.93888810890E+00 -0.10197143025E+03  0.11507723081E+03  0.10566000000E+00 0. -1.
         -4    1    1    2    0  502 -0.32303678897E+02 -0.58129218630E+01 -0.24319193254E+02  0.40850225108E+02  0.00000000000E+00 0. -1.
</event>
<event>
 5    1  0.4419198E-005  0.4718537E+03  0.7818608E-02  0.9713843E-01
         21   -1    0    0  501  502  0.00000000000E+00  0.00000000000E+00  0.30566212674E+03  0.30566212674E+03  0.00000000000E+00 0. -1.
         -4   -1    0    0    0  501 -0.00000000000E+00 -0.00000000000E+00 -0.13510285790E+04  0.13510285790E+04  0.00000000000E+00 0. -1.
        -13    1    1    2    0    0 -0.24898595794E+03  0.63153711918E+02 -0.20256967375E+03  0.32713434926E+03  0.10566000000E+00 0.  1.
         13    1    1    2    0    0 -0.28461470641E+03  0.10399869137E+03 -0.68425089710E+03  0.74834521463E+03  0.10566000000E+00 0. -1.
         -4    1    1    2    0  502  0.53360066435E+03 -0.16715240329E+03 -0.15854588143E+03  0.58121114187E+03  0.00000000000E+00 0. -1.
</event>
<event>
 5    1  0.4419198E-005  0.4972512E+03  0.7818608E-02  0.9731247E-01
         -4   -1    0    0    0  501 -0.00000000000E+00  0.00000000000E+00  0.16724342690E+04  0.16724342690E+04  0.00000000000E+00 0. -1.
         21   -1    0    0  501  502  0.00000000000E+00 -0.00000000000E+00 -0.22597296634E+03  0.22597296634E+03  0.00000000000E+00 0. -1.
        -13    1    1    2    0    0 -0.14211247386E+03 -0.15000615014E+03  0.20403264817E+03  0.29039134455E+03  0.10566000000E+00 0.  1.
         13    1    1    2    0    0 -0.26907912212E+03  0.43673881855E+03  0.53729793933E+03  0.74285493629E+03  0.10566000000E+00 0. -1.
         -4    1    1    2    0  502  0.41119159598E+03 -0.28673266841E+03  0.70513071518E+03  0.86516095452E+03  0.00000000000E+00 0. -1.
</event>
<event>
 5    1  0.4419198E-005  0.7663640E+02  0.7818608E-02  0.1210319E+00
          4   -1    0    0  502    0 -0.00000000000E+00  0.00000000000E+00  0.35223296904E+02  0.35223296904E+02  0.00000000000E+00 0.  1.
         21   -1    0    0  501  502  0.00000000000E+00 -0.00000000000E+00 -0.57161382877E+03  0.57161382877E+03  0.00000000000E+00 0.  1.
        -13    1    1    2    0    0 -0.79172003841E+02 -0.23736317009E+02 -0.47954202331E+02  0.95557499039E+02  0.10566000000E+00 0.  1.
         13    1    1    2    0    0  0.67378822470E+02  0.11108589831E+02 -0.92550939371E+02  0.11501736403E+03  0.10566000000E+00 0. -1.
          4    1    1    2  501    0  0.11793181371E+02  0.12627727177E+02 -0.39588539016E+03  0.39626226260E+03  0.00000000000E+00 0.  1.
</event>
<event>
 5    1  0.4419198E-005  0.5003355E+03  0.7818608E-02  0.9930915E-01
         21   -1    0    0  501  502  0.00000000000E+00  0.00000000000E+00  0.16591920533E+04  0.16591920533E+04  0.00000000000E+00 0. -1.
         -4   -1    0    0    0  501 -0.00000000000E+00 -0.00000000000E+00 -0.20546951515E+03  0.20546951515E+03  0.00000000000E+00 0. -1.
        -13    1    1    2    0    0  0.89165288731E+02  0.51616080339E+02  0.83284851990E+01  0.10336364590E+03  0.10566000000E+00 0.  1.
         13    1    1    2    0    0 -0.17358988802E+03 -0.50800273451E+03  0.86640259436E+03  0.10192417251E+04  0.10566000000E+00 0. -1.
         -4    1    1    2    0  502  0.84424599293E+02  0.45638665417E+03  0.57899145863E+03  0.74205619749E+03  0.00000000000E+00 0. -1.
</event>
<event>
 5    1  0.4419198E-005  0.3674635E+03  0.7818608E-02  0.9939008E-01
         -4   -1    0    0    0  501 -0.00000000000E+00  0.00000000000E+00  0.14783785675E+04  0.14783785675E+04  0.00000000000E+00 0. -1.
         21   -1    0    0  501  502  0.00000000000E+00 -0.00000000000E+00 -0.29189898740E+03  0.29189898740E+03  0.00000000000E+00 0. -1.
        -13    1    1    2    0    0  0.13244448615E+03 -0.21576820122E+03  0.34362975445E+03  0.42682417677E+03  0.10566000000E+00 0.  1.
         13    1    1    2    0    0 -0.43482733377E+03  0.35765280547E+03  0.83779255526E+03  0.10093991858E+04  0.10566000000E+00 0. -1.
         -4    1    1    2    0  502  0.30238284762E+03 -0.14188460424E+03  0.50572704185E+01  0.33405419237E+03  0.00000000000E+00 0. -1.
</event>
<event>
 5    1  0.4419198E-005  0.5167173E+02  0.7818608E-02  0.1319009E+00
         21   -1    0    0  501  502  0.00000000000E+00  0.00000000000E+00  0.18994907074E+03  0.18994907074E+03  0.00000000000E+00 0. -1.
          4   -1    0    0  502    0 -0.00000000000E+00 -0.00000000000E+00 -0.11165166996E+03  0.11165166996E+03  0.00000000000E+00 0.  1.
        -13    1    1    2    0    0  0.69339918195E+02 -0.29026225446E+02 -0.87200511691E+02  0.11512813046E+03  0.10566000000E+00 0.  1.
         13    1    1    2    0    0 -0.21309491243E+02  0.16308445528E+02  0.10402839717E+03  0.10743359993E+03  0.10566000000E+00 0. -1.
          4    1    1    2  501    0 -0.48030426952E+02  0.12717779917E+02  0.61469515306E+02  0.79039010313E+02  0.00000000000E+00 0.  1.
</event>
<event>
 5    1  0.4419198E-005  0.4349953E+03  0.7818608E-02  0.1059591E+00
          4   -1    0    0  502    0 -0.00000000000E+00  0.00000000000E+00  0.59114070347E+03  0.59114070347E+03  0.00000000000E+00 0.  1.
         21   -1    0    0  501  502  0.00000000000E+00 -0.00000000000E+00 -0.39301666677E+03  0.39301666677E+03  0.00000000000E+00 0.  1.
        -13    1    1    2    0    0  0.42326366857E+03  0.14130180941E+03  0.27824924688E+03  0.52587164691E+03  0.10566000000E+00 0.  1.
         13    1    1    2    0    0 -0.11902366963E+02 -0.15760375439E+02  0.37206625628E+01  0.20097518933E+02  0.10566000000E+00 0. -1.
          4    1    1    2  501    0 -0.41136130160E+03 -0.12554143397E+03 -0.83845872740E+02  0.43818820440E+03  0.00000000000E+00 0.  1.
</event>
<event>
 5    1  0.4419198E-005  0.9650589E+02  0.7818608E-02  0.1170470E+00
         21   -1    0    0  501  502  0.00000000000E+00  0.00000000000E+00  0.10962197453E+04  0.10962197453E+04  0.00000000000E+00 0. -1.
         -4   -1    0    0    0  501 -0.00000000000E+00 -0.00000000000E+00 -0.16195635784E+03  0.16195635784E+03  0.00000000000E+00 0. -1.
        -13    1    1    2    0    0 -0.70143348894E+02  0.66135283827E+02  0.26222237962E+03  0.27938244880E+03  0.10566000000E+00 0.  1.
         13    1    1    2    0    0  0.81986151657E+02 -0.51109851127E+02 -0.13803802806E+03  0.16848873642E+03  0.10566000000E+00 0. -1.
         -4    1    1    2    0  502 -0.11842802763E+02 -0.15025432700E+02  0.81007903595E+03  0.81030491797E+03  0.00000000000E+00 0. -1.
</event>
<event>
 5    1  0.4419198E-005  0.3942210E+03  0.7818608E-02  0.9745885E-01
         21   -1    0    0  501  502  0.00000000000E+00  0.00000000000E+00  0.20192131218E+03  0.20192131218E+03  0.00000000000E+00 0.  1.
         -4   -1    0    0    0  501 -0.00000000000E+00 -0.00000000000E+00 -0.10027339753E+04  0.10027339753E+04  0.00000000000E+00 0. -1.
        -13    1    1    2    0    0  0.23341897265E+03 -0.33991444766E+03 -0.49704015262E+03  0.64581357449E+03  0.10566000000E+00 0.  1.
         13    1    1    2    0    0 -0.22098404665E+03  0.30189359018E+03 -0.33950023165E+03  0.50520699433E+03  0.10566000000E+00 0. -1.
         -4    1    1    2    0  502 -0.12434926002E+02  0.38020857475E+02  0.35727721149E+02  0.53634718665E+02  0.00000000000E+00 0. -1.
</event>
<event>
 5    1  0.4419198E-005  0.1867436E+03  0.7818608E-02  0.1069624E+00
         -4   -1    0    0    0  501 -0.00000000000E+00  0.00000000000E+00  0.26730747915E+03  0.26730747915E+03  0.00000000000E+00 0. -1.
         21   -1    0    0  501  502  0.00000000000E+00 -0.00000000000E+00 -0.27675288327E+03  0.27675288327E+03  0.00000000000E+00 0.  1.
        -13    1    1    2    0    0  0.17990082012E+03 -0.50547643269E+02 -0.57940665007E+02  0.19564381193E+03  0.10566000000E+00 0.  1.
         13    1    1    2    0    0 -0.18687643822E+03  0.16064978199E+02  0.15052178076E+03  0.24049470750E+03  0.10566000000E+00 0. -1.
         -4    1    1    2    0  502  0.69756180942E+01  0.34482665070E+02 -0.10202651987E+03  0.10792184299E+03  0.00000000000E+00 0. -1.
</event>
<event>
 5    1  0.4419198E-005  0.4053094E+03  0.7818608E-02  0.9893600E-01
         21   -1    0    0  501  502  0.00000000000E+00  0.00000000000E+00  0.24548511248E+03  0.24548511248E+03  0.00000000000E+00 0.  1.
          4   -1    0    0  502    0 -0.00000000000E+00 -0.00000000000E+00 -0.15988388641E+04  0.15988388641E+04  0.00000000000E+00 0.  1.
        -13    1    1    2    0    0  0.16402739085E+03 -0.16406495960E+03 -0.10381231354E+04  0.10637302061E+04  0.10566000000E+00 0.  1.
         13    1    1    2    0    0  0.12213325769E+03 -0.18239760961E+03 -0.23953372838E+03  0.32490281442E+03  0.10566000000E+00 0. -1.
          4    1    1    2  501    0 -0.28616064854E+03  0.34646256921E+03 -0.75696887857E+02  0.45569095609E+03  0.00000000000E+00 0.  1.
</event>
<event>
 5    1  0.4419198E-005  0.3225288E+02  0.7818608E-02  0.1398215E+00
         -4   -1    0    0    0  501 -0.00000000000E+00  0.00000000000E+00  0.11939754171E+02  0.11939754171E+02  0.00000000000E+00 0. -1.
         21   -1    0    0  501  502  0.00000000000E+00 -0.00000000000E+00 -0.30114047148E+03  0.30114047148E+03  0.00000000000E+00 0.  1.
        -13    1    1    2    0    0 -0.59969651358E+01  0.34740500626E+02 -0.17304463602E+03  0.17659932954E+03  0.10566000000E+00 0.  1.
         13    1    1    2    0    0 -0.25069211420E+02 -0.17777428904E+02 -0.28361533260E+02  0.41819733052E+02  0.10566000000E+00 0. -1.
         -4    1    1    2    0  502  0.31066176555E+02 -0.16963071722E+02 -0.87794548030E+02  0.94661163059E+02  0.00000000000E+00 0. -1.
</event>
<event>
 5    1  0.4419198E-005  0.3366335E+03  0.7818608E-02  0.9932376E-01
         21   -1    0    0  501  502  0.00000000000E+00  0.00000000000E+00  0.14561238523E+04  0.14561238523E+04  0.00000000000E+00 0.  1.
          4   -1    0    0  502    0 -0.00000000000E+00 -0.00000000000E+00 -0.24982295037E+03  0.24982295037E+03  0.00000000000E+00 0.  1.
        -13    1    1    2    0    0 -0.35406387967E+03  0.66466197223E+02  0.78804746036E+02  0.36876711543E+03  0.10566000000E+00 0.  1.
         13    1    1    2    0    0  0.30839160473E+03 -0.47778347383E+02  0.12935241494E+03  0.33781683019E+03  0.10566000000E+00 0. -1.
          4    1    1    2  501    0  0.45672274940E+02 -0.18687849840E+02  0.99814374100E+03  0.99936285709E+03  0.00000000000E+00 0.  1.
</event>
<event>
 5    1  0.4419198E-005  0.5295822E+03  0.7818608E-02  0.9451118E-01
          4   -1    0    0  502    0 -0.00000000000E+00  0.00000000000E+00  0.16599473557E+04  0.16599473557E+04  0.00000000000E+00 0.  1.
         21   -1    0    0  501  502  0.00000000000E+00 -0.00000000000E+00 -0.46593525447E+03  0.46593525447E+03  0.00000000000E+00 0. -1.
        -13    1    1    2    0    0 -0.67267640347E+01  0.43425286748E+03  0.43591884160E+03  0.61534222177E+03  0.10566000000E+00 0.  1.
         13    1    1    2    0    0  0.55926985335E+03 -0.84445003242E+02  0.62543397040E+03  0.84325642003E+03  0.10566000000E+00 0. -1.
          4    1    1    2  501    0 -0.55254308931E+03 -0.34980786424E+03  0.13265928924E+03  0.66728396837E+03  0.00000000000E+00 0.  1.
</event>
<event>
 5    1  0.4419198E-005  0.4266442E+03  0.7818608E-02  0.9655107E-01
         21   -1    0    0  501  502  0.00000000000E+00  0.00000000000E+00  0.19461692142E+03  0.19461692142E+03  0.00000000000E+00 0. -1.
          4   -1    0    0  502    0 -0.00000000000E+00 -0.00000000000E+00 -0.16391624511E+04  0.16391624511E+04  0.00000000000E+00 0.  1.
        -13    1    1    2    0    0 -0.22140596525E+03 -0.34145657108E+03 -0.98004668082E+03  0.10611808042E+04  0.10566000000E+00 0.  1.
         13    1    1    2    0    0  0.27289818715E+03  0.38505765805E+03 -0.50714702972E+03  0.69277769991E+03  0.10566000000E+00 0. -1.
          4    1    1    2  501    0 -0.51492221901E+02 -0.43601086970E+02  0.42648180881E+02  0.79820868410E+02  0.00000000000E+00 0.  1.
</event>
<event>
 5    1  0.4419198E-005  0.4530744E+03  0.7818608E-02  0.9740167E-01
         -4   -1    0    0    0  501 -0.00000000000E+00  0.00000000000E+00  0.28419852793E+03  0.28419852793E+03  0.00000000000E+00 0. -1.
         21   -1    0    0  501  502  0.00000000000E+00 -0.00000000000E+00 -0.12910451051E+04  0.12910451051E+04  0.00000000000E+00 0. -1.
        -13    1    1    2    0    0 -0.15287270686E+03 -0.21629589190E+03 -0.18222841527E+03  0.32149834191E+03  0.10566000000E+00 0.  1.
         13    1    1    2    0    0  0.51628149086E+03  0.20494827546E+03 -0.63505785372E+03  0.84371136187E+03  0.10566000000E+00 0. -1.
         -4    1    1    2    0  502 -0.36340878399E+03  0.11347616443E+02 -0.18956030813E+03  0.41003392920E+03  0.00000000000E+00 0. -1.
</event>
<event>
 5    1  0.4419198E-005  0.4110176E+03  0.7818608E-02  0.9793506E-01
          4   -1    0    0  502    0 -0.00000000000E+00  0.00000000000E+00  0.81192151038E+03  0.81192151038E+03  0.00000000000E+00 0.  1.
         21   -1    0    0  501  502  0.00000000000E+00 -0.00000000000E+00 -0.55036253579E+03  0.55036253579E+03  0.00000000000E+00 0.  1.
        -13    1    1    2    0    0 -0.38373710165E+03 -0.22572080352E+03  0.41306648639E+03  0.60731209248E+03  0.10566000000E+00 0.  1.
         13    1    1    2    0    0  0.23941349207E+03 -0.17295983024E+03  0.23472555971E+02  0.29628515844E+03  0.10566000000E+00 0. -1.
          4    1    1    2  501    0  0.14432360958E+03  0.39868063376E+03 -0.17498006778E+03  0.45868679525E+03  0.00000000000E+00 0.  1.
</event>
<event>
 5    1  0.4419198E-005  0.1790089E+03  0.7818608E-02  0.1075564E+00
         -4   -1    0    0    0  501 -0.00000000000E+00  0.00000000000E+00  0.11442448971E+03  0.11442448971E+03  0.00000000000E+00 0. -1.
         21   -1    0    0  501  502  0.00000000000E+00 -0.00000000000E+00 -0.50017525684E+03  0.50017525684E+03  0.00000000000E+00 0.  1.
        -13    1    1    2    0    0 -0.16983904899E+03  0.16717247012E+02 -0.58790111189E+02  0.18050223613E+03  0.10566000000E+00 0.  1.
         13    1    1    2    0    0  0.19911133930E+03  0.55895353831E+02 -0.22608426282E+03  0.30640450564E+03  0.10566000000E+00 0. -1.
         -4    1    1    2    0  502 -0.29272290310E+02 -0.72612600843E+02 -0.10087639312E+03  0.12769300478E+03  0.00000000000E+00 0. -1.
</event>
<event>
 5    1  0.4419198E-005  0.5222941E+03  0.7818608E-02  0.9448734E-01
         21   -1    0    0  501  502  0.00000000000E+00  0.00000000000E+00  0.28431273453E+04  0.28431273453E+04  0.00000000000E+00 0. -1.
         -4   -1    0    0    0  501 -0.00000000000E+00 -0.00000000000E+00 -0.28239204749E+03  0.28239204749E+03  0.00000000000E+00 0. -1.
        -13    1    1    2    0    0  0.30407619455E+03  0.44649968531E+03  0.39427260454E+03  0.66878636269E+03  0.10566000000E+00 0.  1.
         13    1    1    2    0    0  0.26746148849E+03 -0.49928211788E+03  0.86022481873E+03  0.10299538975E+04  0.10566000000E+00 0. -1.
         -4    1    1    2    0  502 -0.57153768304E+03  0.52782432572E+02  0.13062378746E+04  0.14267791326E+04  0.00000000000E+00 0. -1.
</event>
<event>
 5    1  0.4419198E-005  0.1063360E+03  0.7818608E-02  0.1198510E+00
          4   -1    0    0  502    0 -0.00000000000E+00  0.00000000000E+00  0.14317778936E+03  0.14317778936E+03  0.00000000000E+00 0.  1.
         21   -1    0    0  501  502  0.00000000000E+00 -0.00000000000E+00 -0.13340365034E+03  0.13340365034E+03  0.00000000000E+00 0.  1.
        -13    1    1    2    0    0  0.31385645095E+02 -0.10523514844E+03 -0.53329528651E+02  0.12208007608E+03  0.10566000000E+00 0.  1.
         13    1    1    2    0    0  0.29989415842E+02  0.22454346638E+02  0.22750073693E+02  0.43830808373E+02  0.10566000000E+00 0. -1.
          4    1    1    2  501    0 -0.61375060937E+02  0.82780801803E+02  0.40353593980E+02  0.11067055525E+03  0.00000000000E+00 0.  1.
</event>
<event>
 5    1  0.4419198E-005  0.4362822E+03  0.7818608E-02  0.9792701E-01
          4   -1    0    0  502    0 -0.00000000000E+00  0.00000000000E+00  0.33966270543E+04  0.33966270543E+04  0.00000000000E+00 0.  1.
         21   -1    0    0  501  502  0.00000000000E+00 -0.00000000000E+00 -0.12321637359E+03  0.12321637359E+03  0.00000000000E+00 0.  1.
        -13    1    1    2    0    0 -0.89332082367E+02  0.47474637524E+03  0.64669442193E+03  0.80720383316E+03  0.10566000000E+00 0.  1.
         13    1    1    2    0    0 -0.11649306644E+03 -0.21852638795E+03  0.47214588900E+03  0.53314741715E+03  0.10566000000E+00 0. -1.
          4    1    1    2  501    0  0.20582514880E+03 -0.25621998729E+03  0.21545703698E+04  0.21794921776E+04  0.00000000000E+00 0.  1.
</event>
<event>
 5    1  0.4419198E-005  0.2785469E+03  0.7818608E-02  0.1016576E+00
         -4   -1    0    0    0  501 -0.00000000000E+00  0.00000000000E+00  0.17259587367E+03  0.17259587367E+03  0.00000000000E+00 0. -1.
         21   -1    0    0  501  502  0.00000000000E+00 -0.00000000000E+00 -0.14964880945E+04  0.14964880945E+04  0.00000000000E+00 0. -1.
        -13    1    1    2    0    0 -0.19470016959E+03  0.18247289226E+03 -0.30240756849E+03  0.40330492322E+03  0.10566000000E+00 0.  1.
         13    1    1    2    0    0  0.30897517939E+03 -0.23217976744E+02 -0.10285774764E+03  0.32647276048E+03  0.10566000000E+00 0. -1.
         -4    1    1    2    0  502 -0.11427500980E+03 -0.15925491552E+03 -0.91862690467E+03  0.93930628443E+03  0.00000000000E+00 0. -1.
</event>
<event>
 5    1  0.4419198E-005  0.4224255E+03  0.7818608E-02  0.9748485E-01
         21   -1    0    0  501  502  0.00000000000E+00  0.00000000000E+00  0.42889408563E+03  0.42889408563E+03  0.00000000000E+00 0. -1.
         -4   -1    0    0    0  501 -0.00000000000E+00 -0.00000000000E+00 -0.13833641090E+04  0.13833641090E+04  0.00000000000E+00 0. -1.
        -13    1    1    2    0    0 -0.30757916360E+03  0.78954734498E+02 -0.65149249739E+03  0.72476291110E+03  0.10566000000E+00 0.  1.
         13    1    1    2    0    0  0.54882578893E+03 -0.34312500192E+03 -0.33408613011E+03  0.72839417010E+03  0.10566000000E+00 0. -1.
         -4    1    1    2    0  502 -0.24124662533E+03  0.26417026743E+03  0.31108604124E+02  0.35910111344E+03  0.00000000000E+00 0. -1.
</event>
<event>
 5    1  0.4419198E-005  0.4327563E+03  0.7818608E-02  0.9989471E-01
         -4   -1    0    0    0  501 -0.00000000000E+00  0.00000000000E+00  0.34673981388E+03  0.34673981388E+03  0.00000000000E+00 0. -1.
         21   -1    0    0  501  502  0.00000000000E+00 -0.00000000000E+00 -0.13787149874E+04  0.13787149874E+04  0.00000000000E+00 0. -1.
        -13    1    1    2    0    0 -0.12221136771E+03 -0.47760613830E+02  0.12663111924E+03  0.18235171005E+03  0.10566000000E+00 0.  1.
         13    1    1    2    0    0  0.44197627803E+03 -0.21924414031E+03 -0.27169928092E+03  0.56323310788E+03  0.10566000000E+00 0. -1.
         -4    1    1    2    0  502 -0.31976491031E+03  0.26700475414E+03 -0.88690701180E+03  0.97986998331E+03  0.00000000000E+00 0. -1.
</event>
<event>
 5    1  0.4419198E-005  0.4684963E+03  0.7818608E-02  0.9549830E-01
          4   -1    0    0  502    0 -0.00000000000E+00  0.00000000000E+00  0.99417357961E+03  0.99417357961E+03  0.00000000000E+00 0.  1.
         21   -1    0    0  501  502  0.00000000000E+00 -0.00000000000E+00 -0.11987333479E+04  0.11987333479E+04  0.00000000000E+00 0.  1.
        -13    1    1    2    0    0  0.49451286482E+03  0.91224151316E+02  0.86253813183E+03  0.99841717697E+03  0.10566000000E+00 0.  1.
         13    1    1    2    0    0 -0.25218191712E+03 -0.83008557594E+02 -0.36239639640E+03  0.44924080318E+03  0.10566000000E+00 0. -1.
          4    1    1    2  501    0 -0.24233094771E+03 -0.82155937228E+01 -0.70470150375E+03  0.74524894739E+03  0.00000000000E+00 0.  1.
</event>
<event>
 5    1  0.4419198E-005  0.4036832E+03  0.7818608E-02  0.9777504E-01
          4   -1    0    0  502    0 -0.00000000000E+00  0.00000000000E+00  0.34716080336E+03  0.34716080336E+03  0.00000000000E+00 0.  1.
         21   -1    0    0  501  502  0.00000000000E+00 -0.00000000000E+00 -0.14221915256E+04  0.14221915256E+04  0.00000000000E+00 0. -1.
        -13    1    1    2    0    0  0.31684083012E+03 -0.23142476263E+03  0.56927681940E+02  0.39646728052E+03  0.10566000000E+00 0.  1.
         13    1    1    2    0    0  0.10788376596E+03  0.31112941972E+03 -0.35773367739E+03  0.48622404083E+03  0.10566000000E+00 0. -1.
          4    1    1    2  501    0 -0.42472459607E+03 -0.79704657099E+02 -0.77422472683E+03  0.88666100766E+03  0.00000000000E+00 0.  1.
</event>
<event>
 5    1  0.4419198E-005  0.4672904E+03  0.7818608E-02  0.9588433E-01
         -4   -1    0    0    0  501 -0.00000000000E+00  0.00000000000E+00  0.20329156221E+04  0.20329156221E+04  0.00000000000E+00 0. -1.
         21   -1    0    0  501  502  0.00000000000E+00 -0.00000000000E+00 -0.30152280704E+03  0.30152280704E+03  0.00000000000E+00 0. -1.
        -13    1    1    2    0    0  0.19292008358E+03 -0.36311450709E+03  0.82597129007E+03  0.92265859725E+03  0.10566000000E+00 0.  1.
         13    1    1    2    0    0 -0.59830103567E+03  0.23137194366E+03  0.65789706522E+03  0.91887195255E+03  0.10566000000E+00 0. -1.
         -4    1    1    2    0  502  0.40538095209E+03  0.13174256343E+03  0.24752445977E+03  0.49290787934E+03  0.00000000000E+00 0. -1.
</event>
<event>
 5    1  0.4419198E-005  0.5028471E+03  0.7818608E-02  0.9471754E-01
         21   -1    0    0  501  502  0.00000000000E+00  0.00000000000E+00  0.53898606049E+03  0.53898606049E+03  0.00000000000E+00 0. -1.
         -4   -1    0    0    0  501 -0.00000000000E+00 -0.00000000000E+00 -0.11311861056E+04  0.11311861056E+04  0.00000000000E+00 0. -1.
        -13    1    1    2    0    0  0.18040979755E+03 -0.42696874514E+03 -0.13612337474E+03  0.48309376802E+03  0.10566000000E+00 0.  1.
         13    1    1    2    0    0 -0.26234923903E+03  0.52280007528E+03  0.12021159077E+03  0.59715816971E+03  0.10566000000E+00 0. -1.
         -4    1    1    2    0  502  0.81939441480E+02 -0.95831330140E+02 -0.57628826113E+03  0.58992022835E+03  0.00000000000E+00 0. -1.
</event>
<event>
 5    1  0.4419198E-005  0.1831016E+02  0.7818608E-02  0.1569516E+00
         -4   -1    0    0    0  501 -0.00000000000E+00  0.00000000000E+00  0.36838639254E+02  0.36838639254E+02  0.00000000000E+00 0. -1.
         21   -1    0    0  501  502  0.00000000000E+00 -0.00000000000E+00 -0.19827059600E+02  0.19827059600E+02  0.00000000000E+00 0. -1.
        -13    1    1    2    0    0 -0.10172628156E+02 -0.51852378623E+01  0.13612323451E+02  0.17767261158E+02  0.10566000000E+00 0.  1.
         13    1    1    2    0    0 -0.97529648510E+01 -0.94903224821E+01  0.38662694108E+01  0.14147287634E+02  0.10566000000E+00 0. -1.
         -4    1    1    2    0  502  0.19925593007E+02  0.14675560344E+02 -0.46701320732E+00  0.24751150063E+02  0.00000000000E+00 0. -1.
</event>
<event>
 5    1  0.4419198E-005  0.3925962E+03  0.7818608E-02  0.9933570E-01
         21   -1    0    0  501  502  0.00000000000E+00  0.00000000000E+00  0.96306296964E+03  0.96306296964E+03  0.00000000000E+00 0. -1.
         -4   -1    0    0    0  501 -0.00000000000E+00 -0.00000000000E+00 -0.39816868017E+03  0.39816868017E+03  0.00000000000E+00 0. -1.
        -13    1    1    2    0    0 -0.20071355131E+02 -0.21042671091E+03  0.63461127600E+02  0.22070248263E+03  0.10566000000E+00 0.  1.
         13    1    1    2    0    0 -0.55449846535E+02 -0.21537814816E+03 -0.21135683739E+03  0.30681290073E+03  0.10566000000E+00 0. -1.
         -4    1    1    2    0  502  0.75521201666E+02  0.42580485906E+03  0.71278999925E+03  0.83371626644E+03  0.00000000000E+00 0. -1.
</event>
<event>
 5    1  0.4419198E-005  0.1102894E+03  0.7818608E-02  0.1148569E+00
         21   -1    0    0  501  502  0.00000000000E+00  0.00000000000E+00  0.29141421265E+03  0.29141421265E+03  0.00000000000E+00 0.  1.
          4   -1    0    0  502    0 -0.00000000000E+00 -0.00000000000E+00 -0.19578545318E+03  0.19578545318E+03  0.00000000000E+00 0.  1.
        -13    1    1    2    0    0  0.11950243802E+02 -0.12298515007E+03 -0.14219972195E+03  0.18838505130E+03  0.10566000000E+00 0.  1.
         13    1    1    2    0    0 -0.30211386052E+01  0.78648818792E+02  0.27029838806E+02  0.83218912068E+02  0.10566000000E+00 0. -1.
          4    1    1    2  501    0 -0.89291051967E+01  0.44336331280E+02  0.21079864261E+03  0.21559570246E+03  0.00000000000E+00 0.  1.
</event>
<event>
 5    1  0.4419198E-005  0.2928547E+02  0.7818608E-02  0.1459515E+00
          4   -1    0    0  502    0 -0.00000000000E+00  0.00000000000E+00  0.11803214672E+03  0.11803214672E+03  0.00000000000E+00 0.  1.
         21   -1    0    0  501  502  0.00000000000E+00 -0.00000000000E+00 -0.14161588493E+02  0.14161588493E+02  0.00000000000E+00 0.  1.
        -13    1    1    2    0    0 -0.25719552080E+01 -0.19542332435E+02  0.74822855137E+02  0.77375632634E+02  0.10566000000E+00 0.  1.
         13    1    1    2    0    0  0.10138779941E+01 -0.13432176422E+02  0.88579014977E+01  0.16122186421E+02  0.10566000000E+00 0. -1.
          4    1    1    2  501    0  0.15580772140E+01  0.32974508857E+02  0.20189801594E+02  0.38695916159E+02  0.00000000000E+00 0.  1.
</event>
<event>
 5    1  0.4419198E-005  0.4901930E+03  0.7818608E-02  0.9509485E-01
         21   -1    0    0  501  502  0.00000000000E+00  0.00000000000E+00  0.10740143069E+04  0.10740143069E+04  0.00000000000E+00 0. -1.
         -4   -1    0    0    0  501 -0.00000000000E+00 -0.00000000000E+00 -0.20547452091E+04  0.20547452091E+04  0.00000000000E+00 0. -1.
        -13    1    1    2    0    0  0.22792392994E+03  0.44384738185E+03 -0.17339104704E+04  0.18042714171E+04  0.10566000000E+00 0.  1.
         13    1    1    2    0    0 -0.35676602476E+02  0.22785968043E+03 -0.73540159923E+02  0.24207647597E+03  0.10566000000E+00 0. -1.
         -4    1    1    2    0  502 -0.19224732746E+03 -0.67170706228E+03  0.82671972809E+03  0.10824116228E+04  0.00000000000E+00 0. -1.
</event>
<event>
 5    1  0.4419198E-005  0.4052237E+03  0.7818608E-02  0.9714080E-01
         21   -1    0    0  501  502  0.00000000000E+00  0.00000000000E+00  0.64060249929E+03  0.64060249929E+03  0.00000000000E+00 0.  1.
          4   -1    0    0  502    0 -0.00000000000E+00 -0.00000000000E+00 -0.15903388515E+04  0.15903388515E+04  0.00000000000E+00 0.  1.
        -13    1    1    2    0    0  0.12546388721E+03 -0.39092403722E+03 -0.10018602246E+04  0.10827218990E+04  0.10566000000E+00 0.  1.
         13    1    1    2    0    0 -0.13758342122E+03  0.37135311237E+03 -0.47622307858E+03  0.61937126475E+03  0.10566000000E+00 0. -1.
          4    1    1    2  501    0  0.12119534013E+02  0.19570924843E+02  0.52834695101E+03  0.52884818696E+03  0.00000000000E+00 0.  1.
</event>
<event>
 5    1  0.4419198E-005  0.1983120E+03  0.7818608E-02  0.1061299E+00
         21   -1    0    0  501  502  0.00000000000E+00  0.00000000000E+00  0.18562448032E+03  0.18562448032E+03  0.00000000000E+00 0. -1.
          4   -1    0    0  502    0 -0.00000000000E+00 -0.00000000000E+00 -0.31057072021E+03  0.31057072021E+03  0.00000000000E+00 0.  1.
        -13    1    1    2    0    0 -0.13653515768E+03  0.13658687776E+03 -0.16227894896E+03  0.25225442097E+03  0.10566000000E+00 0.  1.
         13    1    1    2    0    0  0.14172674092E+03 -0.15694524228E+03  0.13105766303E+02  0.21187272227E+03  0.10566000000E+00 0. -1.
          4    1    1    2  501    0 -0.51915832445E+01  0.20358364522E+02  0.24226942771E+02  0.32068057294E+02  0.00000000000E+00 0.  1.
</event>
<event>
 5    1  0.4419198E-005  0.2238608E+02  0.7818608E-02  0.1479140E+00
          4   -1    0    0  502    0 -0.00000000000E+00  0.00000000000E+00  0.15804736685E+02  0.15804736685E+02  0.00000000000E+00 0.  1.
         21   -1    0    0  501  502  0.00000000000E+00 -0.00000000000E+00 -0.54906120134E+03  0.54906120134E+03  0.00000000000E+00 0.  1.
        -13    1    1    2    0    0 -0.16812920829E+02  0.18947786439E+02  0.30448665465E+00  0.25333708648E+02  0.10566000000E+00 0.  1.
         13    1    1    2    0    0  0.36156992824E+01 -0.17404958132E+02 -0.24353488190E+02  0.30151441093E+02  0.10566000000E+00 0. -1.
          4    1    1    2  501    0  0.13197221546E+02 -0.15428283062E+01 -0.50920746312E+03  0.50938078828E+03  0.00000000000E+00 0.  1.
</event>
<event>
 5    1  0.4419198E-005  0.3843650E+02  0.7818608E-02  0.1347657E+00
         21   -1    0    0  501  502  0.00000000000E+00  0.00000000000E+00  0.52753741735E+03  0.52753741735E+03  0.00000000000E+00 0.  1.
          4   -1    0    0  502    0 -0.00000000000E+00 -0.00000000000E+00 -0.27956209396E+02  0.27956209396E+02  0.00000000000E+00 0.  1.
        -13    1    1    2    0    0  0.37485416065E+02  0.26931843406E+02  0.24347342702E+03  0.24781001077E+03  0.10566000000E+00 0.  1.
         13    1    1    2    0    0 -0.13516890471E+02 -0.35952868780E+02 -0.10523295644E+02  0.39825444339E+02  0.10566000000E+00 0. -1.
          4    1    1    2  501    0 -0.23968525594E+02  0.90210253746E+01  0.26663107658E+03  0.26785817164E+03  0.00000000000E+00 0.  1.
</event>
<event>
 5    1  0.4419198E-005  0.5212856E+03  0.7818608E-02  0.9432500E-01
         21   -1    0    0  501  502  0.00000000000E+00  0.00000000000E+00  0.37178583249E+03  0.37178583249E+03  0.00000000000E+00 0.  1.
          4   -1    0    0  502    0 -0.00000000000E+00 -0.00000000000E+00 -0.20443888497E+04  0.20443888497E+04  0.00000000000E+00 0.  1.
        -13    1    1    2    0    0  0.44522198979E+03  0.43140759356E+03 -0.23447932198E+03  0.66280894349E+03  0.10566000000E+00 0.  1.
         13    1    1    2    0    0 -0.19555590629E+02 -0.53072298704E+03 -0.10122011528E+04  0.11430662689E+04  0.10566000000E+00 0. -1.
          4    1    1    2  501    0 -0.42566639916E+03  0.99315393483E+02 -0.42592254242E+03  0.61029946985E+03  0.00000000000E+00 0.  1.
</event>
<event>
 5    1  0.4419198E-005  0.3817780E+03  0.7818608E-02  0.9819766E-01
         21   -1    0    0  501  502  0.00000000000E+00  0.00000000000E+00  0.27244245764E+04  0.27244245764E+04  0.00000000000E+00 0. -1.
         -4   -1    0    0    0  501 -0.00000000000E+00 -0.00000000000E+00 -0.22910522679E+03  0.22910522679E+03  0.00000000000E+00 0. -1.
        -13    1    1    2    0    0  0.32727182809E+03 -0.80317238055E+02  0.18287163198E+03  0.38340546832E+03  0.10566000000E+00 0.  1.
         13    1    1    2    0    0 -0.37738381293E+03  0.43697113764E+03  0.65127410954E+03  0.87035641798E+03  0.10566000000E+00 0. -1.
         -4    1    1    2    0  502  0.50111984845E+02 -0.35665389959E+03  0.16611736081E+04  0.16997679169E+04  0.00000000000E+00 0. -1.
</event>
<event>
 5    1  0.4419198E-005  0.1616804E+03  0.7818608E-02  0.1090131E+00
          4   -1    0    0  502    0 -0.00000000000E+00  0.00000000000E+00  0.86167956648E+03  0.86167956648E+03  0.00000000000E+00 0.  1.
         21   -1    0    0  501  502  0.00000000000E+00 -0.00000000000E+00 -0.31177000715E+03  0.31177000715E+03  0.00000000000E+00 0.  1.
        -13    1    1    2    0    0 -0.14426311040E+03  0.75746568589E+02  0.65177820399E+03  0.67183645781E+03  0.10566000000E+00 0.  1.
         13    1    1    2    0    0  0.18668250962E+03  0.37272373373E+02  0.13661683169E+03  0.23431551183E+03  0.10566000000E+00 0. -1.
          4    1    1    2  501    0 -0.42419399229E+02 -0.11301894196E+03 -0.23848547635E+03  0.26729760400E+03  0.00000000000E+00 0.  1.
</event>
<event>
 5    1  0.4419198E-005  0.7371350E+03  0.7818608E-02  0.9070782E-01
         -4   -1    0    0    0  501 -0.00000000000E+00  0.00000000000E+00  0.14485111342E+04  0.14485111342E+04  0.00000000000E+00 0. -1.
         21   -1    0    0  501  502  0.00000000000E+00 -0.00000000000E+00 -0.60324361844E+03  0.60324361844E+03  0.00000000000E+00 0.  1.
        -13    1    1    2    0    0  0.60674674731E+03  0.23857646519E+03  0.48938564831E+03  0.81520467923E+03  0.10566000000E+00 0.  1.
         13    1    1    2    0    0 -0.87760710914E+03 -0.24241762218E+03  0.31002333292E+03  0.96180820316E+03  0.10566000000E+00 0. -1.
         -4    1    1    2    0  502  0.27086036183E+03  0.38411569855E+01  0.45858534567E+02  0.27474187029E+03  0.00000000000E+00 0. -1.
</event>
<event>
 5    1  0.4419198E-005  0.2838748E+03  0.7818608E-02  0.1014193E+00
         21   -1    0    0  501  502  0.00000000000E+00  0.00000000000E+00  0.29125685133E+03  0.29125685133E+03  0.00000000000E+00 0. -1.
         -4   -1    0    0    0  501 -0.00000000000E+00 -0.00000000000E+00 -0.14796280567E+04  0.14796280567E+04  0.00000000000E+00 0. -1.
        -13    1    1    2    0    0 -0.19906847910E+03  0.11259854700E+03 -0.24913375198E+03  0.33819274046E+03  0.10566000000E+00 0.  1.
         13    1    1    2    0    0  0.22184415890E+03 -0.22008476101E+03 -0.11517858809E+04  0.11934248445E+04  0.10566000000E+00 0. -1.
         -4    1    1    2    0  502 -0.22775679806E+02  0.10748621402E+03  0.21254842758E+03  0.23926732301E+03  0.00000000000E+00 0. -1.
</event>
<event>
 5    1  0.4419198E-005  0.3921997E+03  0.7818608E-02  0.9751847E-01
          4   -1    0    0  502    0 -0.00000000000E+00  0.00000000000E+00  0.13068211946E+04  0.13068211946E+04  0.00000000000E+00 0.  1.
         21   -1    0    0  501  502  0.00000000000E+00 -0.00000000000E+00 -0.36149187266E+03  0.36149187266E+03  0.00000000000E+00 0.  1.
        -13    1    1    2    0    0 -0.32634194173E+03  0.53392679736E+03  0.16607112988E+03  0.64742298323E+03  0.10566000000E+00 0.  1.
         13    1    1    2    0    0  0.21780537190E+03 -0.23566624019E+03  0.26317057207E+03  0.41501387683E+03  0.10566000000E+00 0. -1.
          4    1    1    2  501    0  0.10853656983E+03 -0.29826055716E+03  0.51608761998E+03  0.60587620720E+03  0.00000000000E+00 0.  1.
</event>
<event>
 5    1  0.4419198E-005  0.4418026E+03  0.7818608E-02  0.1004164E+00
         21   -1    0    0  501  502  0.00000000000E+00  0.00000000000E+00  0.18206796119E+03  0.18206796119E+03  0.00000000000E+00 0.  1.
          4   -1    0    0  502    0 -0.00000000000E+00 -0.00000000000E+00 -0.20142310133E+04  0.20142310133E+04  0.00000000000E+00 0.  1.
        -13    1    1    2    0    0  0.18941372759E+02 -0.46113142173E+03 -0.23787699603E+03  0.51921714159E+03  0.10566000000E+00 0.  1.
         13    1    1    2    0    0 -0.74353476196E+02  0.72705897099E+02 -0.58580669391E+03  0.59496561303E+03  0.10566000000E+00 0. -1.
          4    1    1    2  501    0  0.55412103437E+02  0.38842552464E+03 -0.10084793621E+04  0.10821162198E+04  0.00000000000E+00 0.  1.
</event>
<event>
 5    1  0.4419198E-005  0.3905371E+03  0.7818608E-02  0.9756780E-01
         -4   -1    0    0    0  501 -0.00000000000E+00  0.00000000000E+00  0.38753088147E+03  0.38753088147E+03  0.00000000000E+00 0. -1.
         21   -1    0    0  501  502  0.00000000000E+00 -0.00000000000E+00 -0.13158520976E+04  0.13158520976E+04  0.00000000000E+00 0. -1.
        -13    1    1    2    0    0 -0.35573363467E+03  0.59353848039E+01 -0.35038318839E+03  0.49934961450E+03  0.10566000000E+00 0.  1.
         13    1    1    2    0    0  0.34186967407E+03  0.25019669164E+03  0.13638215103E+03  0.44505433470E+03  0.10566000000E+00 0. -1.
         -4    1    1    2    0  502  0.13863960596E+02 -0.25613207644E+03 -0.71432017873E+03  0.75897902983E+03  0.00000000000E+00 0. -1.
</event>
<event>
 5    1  0.4419198E-005  0.2381587E+02  0.7818608E-02  0.1474472E+00
         21   -1    0    0  501  502  0.00000000000E+00  0.00000000000E+00  0.24137699399E+02  0.24137699399E+02  0.00000000000E+00 0.  1.
          4   -1    0    0  502    0 -0.00000000000E+00 -0.00000000000E+00 -0.54543972674E+02  0.54543972674E+02  0.00000000000E+00 0.  1.
        -13    1    1    2    0    0  0.12427768371E+02 -0.24952492524E+02 -0.50319613013E+01  0.28326809005E+02  0.10566000000E+00 0.  1.
         13    1    1    2    0    0 -0.19743884718E+02  0.28089853693E+01 -0.14288045079E+02  0.24533054819E+02  0.10566000000E+00 0. -1.
          4    1    1    2  501    0  0.73161163471E+01  0.22143507155E+02 -0.11086266894E+02  0.25821808248E+02  0.00000000000E+00 0.  1.
</event>
<event>
 5    1  0.4419198E-005  0.4109766E+03  0.7818608E-02  0.1031192E+00
          4   -1    0    0  502    0 -0.00000000000E+00  0.00000000000E+00  0.20237701361E+04  0.20237701361E+04  0.00000000000E+00 0.  1.
         21   -1    0    0  501  502  0.00000000000E+00 -0.00000000000E+00 -0.98155199265E+02  0.98155199265E+02  0.00000000000E+00 0.  1.
        -13    1    1    2    0    0 -0.12420255504E+03  0.37770612732E+03  0.93674319962E+03  0.10176325597E+04  0.10566000000E+00 0.  1.
         13    1    1    2    0    0  0.40141953286E+02  0.37456091387E+02  0.21693382113E+03  0.22377361129E+03  0.10566000000E+00 0. -1.
          4    1    1    2  501    0  0.84060601756E+02 -0.41516221871E+03  0.77193791611E+03  0.88051916444E+03  0.00000000000E+00 0.  1.
</event>
<event>
 5    1  0.4419198E-005  0.4204932E+03  0.7818608E-02  0.9897134E-01
          4   -1    0    0  502    0 -0.00000000000E+00  0.00000000000E+00  0.25362449143E+04  0.25362449143E+04  0.00000000000E+00 0.  1.
         21   -1    0    0  501  502  0.00000000000E+00 -0.00000000000E+00 -0.15297179024E+03  0.15297179024E+03  0.00000000000E+00 0.  1.
        -13    1    1    2    0    0  0.42566483396E+03  0.18277314387E+03  0.30342687483E+03  0.55377292505E+03  0.10566000000E+00 0.  1.
         13    1    1    2    0    0 -0.19102681480E+03 -0.35339158709E+02  0.62702332634E+03  0.65642849044E+03  0.10566000000E+00 0. -1.
          4    1    1    2  501    0 -0.23463801916E+03 -0.14743398516E+03  0.14528229229E+04  0.14790152890E+04  0.00000000000E+00 0.  1.
</event>
<event>
 5    1  0.4419198E-005  0.3063794E+03  0.7818608E-02  0.1004706E+00
         21   -1    0    0  501  502  0.00000000000E+00  0.00000000000E+00  0.49889950057E+03  0.49889950057E+03  0.00000000000E+00 0. -1.
         -4   -1    0    0    0  501 -0.00000000000E+00 -0.00000000000E+00 -0.96885944906E+03  0.96885944906E+03  0.00000000000E+00 0. -1.
        -13    1    1    2    0    0 -0.30915138939E+03  0.17359106788E+02 -0.46152693908E+03  0.55577247756E+03  0.10566000000E+00 0.  1.
         13    1    1    2    0    0  0.30163006542E+03 -0.29414278137E+02 -0.41017701678E+03  0.50999126697E+03  0.10566000000E+00 0. -1.
         -4    1    1    2    0  502  0.75213239618E+01  0.12055171349E+02  0.40174400737E+03  0.40199520510E+03  0.00000000000E+00 0. -1.
</event>
<event>
 5    1  0.4419198E-005  0.4474969E+03  0.7818608E-02  0.9601128E-01
         -4   -1    0    0    0  501 -0.00000000000E+00  0.00000000000E+00  0.95925192251E+03  0.95925192251E+03  0.00000000000E+00 0. -1.
         21   -1    0    0  501  502  0.00000000000E+00 -0.00000000000E+00 -0.72219428853E+03  0.72219428853E+03  0.00000000000E+00 0. -1.
        -13    1    1    2    0    0 -0.40060027140E+02 -0.47797174104E+03  0.35956579312E+03  0.59945755626E+03  0.10566000000E+00 0.  1.
         13    1    1    2    0    0 -0.34913350388E+03  0.36410591132E+03  0.22081694431E+03  0.55066092312E+03  0.10566000000E+00 0. -1.
         -4    1    1    2    0  502  0.38919353102E+03  0.11386582972E+03 -0.34332510346E+03  0.53132773166E+03  0.00000000000E+00 0. -1.
</event>
<event>
 5    1  0.4419198E-005  0.8012423E+02  0.7818608E-02  0.1202417E+00
         -4   -1    0    0    0  501 -0.00000000000E+00  0.00000000000E+00  0.21157535005E+02  0.21157535005E+02  0.00000000000E+00 0. -1.
         21   -1    0    0  501  502  0.00000000000E+00 -0.00000000000E+00 -0.66219390147E+03  0.66219390147E+03  0.00000000000E+00 0.  1.
        -13    1    1    2    0    0  0.68777026248E+02  0.47345780929E+02 -0.33465768200E+03  0.34491691405E+03  0.10566000000E+00 0.  1.
         13    1    1    2    0    0 -0.74230968088E+02 -0.28817819893E+02 -0.85971861832E+02  0.11718308563E+03  0.10566000000E+00 0. -1.
         -4    1    1    2    0  502  0.54539418397E+01 -0.18527961036E+02 -0.22040682264E+03  0.22125143680E+03  0.00000000000E+00 0. -1.
</event>
<event>
 5    1  0.4419198E-005  0.4866555E+03  0.7818608E-02  0.9961759E-01
          4   -1    0    0  502    0 -0.00000000000E+00  0.00000000000E+00  0.19514897660E+03  0.19514897660E+03  0.00000000000E+00 0.  1.
         21   -1    0    0  501  502  0.00000000000E+00 -0.00000000000E+00 -0.18035701267E+04  0.18035701267E+04  0.00000000000E+00 0.  1.
        -13    1    1    2    0    0 -0.19499706155E+03 -0.48127682994E+03 -0.46611764728E+03  0.69779432021E+03  0.10566000000E+00 0.  1.
         13    1    1    2    0    0 -0.55172959613E+02  0.84699243677E+02 -0.47323815270E+03  0.48391360561E+03  0.10566000000E+00 0. -1.
          4    1    1    2  501    0  0.25017002116E+03  0.39657758626E+03 -0.66906535014E+03  0.81701117751E+03  0.00000000000E+00 0.  1.
</event>
<event>
 5    1  0.4419198E-005  0.3686642E+03  0.7818608E-02  0.9824182E-01
         -4   -1    0    0    0  501 -0.00000000000E+00  0.00000000000E+00  0.19104991836E+04  0.19104991836E+04  0.00000000000E+00 0. -1.
         21   -1    0    0  501  502  0.00000000000E+00 -0.00000000000E+00 -0.11213056515E+03  0.11213056515E+03  0.00000000000E+00 0.  1.
        -13    1    1    2    0    0  0.18106211075E+03 -0.32029208837E+03  0.56750680148E+03  0.67633903533E+03  0.10566000000E+00 0.  1.
         13    1    1    2    0    0 -0.14301818134E+03  0.34109859103E+03  0.12464830019E+04  0.13002008822E+04  0.10566000000E+00 0. -1.
         -4    1    1    2    0  502 -0.38043929410E+02 -0.20806502664E+02 -0.15621184935E+02  0.46089831166E+02  0.00000000000E+00 0. -1.
</event>
<event>
 5    1  0.4419198E-005  0.3730093E+03  0.7818608E-02  0.1032786E+00
         21   -1    0    0  501  502  0.00000000000E+00  0.00000000000E+00  0.96983493032E+03  0.96983493032E+03  0.00000000000E+00 0.  1.
          4   -1    0    0  502    0 -0.00000000000E+00 -0.00000000000E+00 -0.40726536297E+03  0.40726536297E+03  0.00000000000E+00 0.  1.
        -13    1    1    2    0    0 -0.16485203460E+03  0.34712614169E+03  0.80678975071E+03  0.89363441326E+03  0.10566000000E+00 0.  1.
         13    1    1    2    0    0  0.21885037493E+02 -0.66403529790E+02 -0.13139745286E+03  0.14884114155E+03  0.10566000000E+00 0. -1.
          4    1    1    2  501    0  0.14296699710E+03 -0.28072261190E+03 -0.11282273050E+03  0.33462473849E+03  0.00000000000E+00 0.  1.
</event>
<event>
 5    1  0.4419198E-005  0.5058726E+03  0.7818608E-02  0.9577129E-01
          4   -1    0    0  502    0 -0.00000000000E+00  0.00000000000E+00  0.26435339690E+04  0.26435339690E+04  0.00000000000E+00 0.  1.
         21   -1    0    0  501  502  0.00000000000E+00 -0.00000000000E+00 -0.20576116657E+03  0.20576116657E+03  0.00000000000E+00 0.  1.
        -13    1    1    2    0    0 -0.55183023842E+03 -0.17312119148E+03  0.78915113481E+03  0.97839004682E+03  0.10566000000E+00 0.  1.
         13    1    1    2    0    0  0.25547886483E+03 -0.22044867480E+03  0.10064923832E+04  0.10615526351E+04  0.10566000000E+00 0. -1.
          4    1    1    2  501    0  0.29635137359E+03  0.39356986628E+03  0.64212928445E+03  0.80935245364E+03  0.00000000000E+00 0.  1.
</event>
<event>
 5    1  0.4419198E-005  0.4888027E+03  0.7818608E-02  0.9930717E-01
          4   -1    0    0  502    0 -0.00000000000E+00  0.00000000000E+00  0.30618147105E+04  0.30618147105E+04  0.00000000000E+00 0.  1.
         21   -1    0    0  501  502  0.00000000000E+00 -0.00000000000E+00 -0.10716311940E+03  0.10716311940E+03  0.00000000000E+00 0.  1.
        -13    1    1    2    0    0  0.24039098352E+03  0.42472676796E+03  0.14801820291E+04  0.15585632816E+04  0.10566000000E+00 0.  1.
         13    1    1    2    0    0 -0.99200924706E+02  0.48827051060E+02  0.56158071078E+03  0.57236160796E+03  0.10566000000E+00 0. -1.
          4    1    1    2  501    0 -0.14119005882E+03 -0.47355381902E+03  0.91288885124E+03  0.10380529403E+04  0.00000000000E+00 0.  1.
</event>
<event>
 5    1  0.4419198E-005  0.2466694E+03  0.7818608E-02  0.1032133E+00
         -4   -1    0    0    0  501 -0.00000000000E+00  0.00000000000E+00  0.46023830041E+03  0.46023830041E+03  0.00000000000E+00 0. -1.
         21   -1    0    0  501  502  0.00000000000E+00 -0.00000000000E+00 -0.29642219672E+03  0.29642219672E+03  0.00000000000E+00 0.  1.
        -13    1    1    2    0    0 -0.15928669947E+03 -0.19630112513E+03  0.36057312876E+02  0.25535568396E+03  0.10566000000E+00 0.  1.
         13    1    1    2    0    0  0.16809849914E+03  0.17718852010E+03  0.26620228949E+03  0.36127073942E+03  0.10566000000E+00 0. -1.
         -4    1    1    2    0  502 -0.88117996693E+01  0.19112605032E+02 -0.13844349867E+03  0.14003407375E+03  0.00000000000E+00 0. -1.
</event>
<event>
 5    1  0.4419198E-005  0.2693259E+03  0.7818608E-02  0.1034136E+00
          4   -1    0    0  502    0 -0.00000000000E+00  0.00000000000E+00  0.63409451253E+03  0.63409451253E+03  0.00000000000E+00 0.  1.
         21   -1    0    0  501  502  0.00000000000E+00 -0.00000000000E+00 -0.76314588860E+03  0.76314588860E+03  0.00000000000E+00 0.  1.
        -13    1    1    2    0    0  0.19704318750E+03 -0.62075562435E+02 -0.37450148302E+03  0.42770406257E+03  0.10566000000E+00 0.  1.
         13    1    1    2    0    0  0.15598595202E+03 -0.29205309708E+03 -0.11785903436E+03  0.35145041170E+03  0.10566000000E+00 0. -1.
          4    1    1    2  501    0 -0.35302913952E+03  0.35412865951E+03  0.36330914130E+03  0.61808592687E+03  0.00000000000E+00 0.  1.
</event>
<event>
 5    1  0.4419198E-005  0.5276811E+02  0.7818608E-02  0.1280911E+00
         -4   -1    0    0    0  501 -0.00000000000E+00  0.00000000000E+00  0.28314152165E+02  0.28314152165E+02  0.00000000000E+00 0. -1.
         21   -1    0    0  501  502  0.00000000000E+00 -0.00000000000E+00 -0.29266009603E+03  0.29266009603E+03  0.00000000000E+00 0. -1.
        -13    1    1    2    0    0 -0.12939334689E+02 -0.61952349761E+02 -0.13104610028E+03  0.14552873114E+03  0.10566000000E+00 0.  1.
         13    1    1    2    0    0  0.56127973348E+01  0.50161207572E+02 -0.10111184715E+02  0.51477154733E+02  0.10566000000E+00 0. -1.
         -4    1    1    2    0  502  0.73265373540E+01  0.11791142189E+02 -0.12318865887E+03  0.12396836233E+03  0.00000000000E+00 0. -1.
</event>
<event>
 5    1  0.4419198E-005  0.4983377E+03  0.7818608E-02  0.9882330E-01
         21   -1    0    0  501  502  0.00000000000E+00  0.00000000000E+00  0.54382468018E+03  0.54382468018E+03  0.00000000000E+00 0.  1.
          4   -1    0    0  502    0 -0.00000000000E+00 -0.00000000000E+00 -0.75708425237E+03  0.75708425237E+03  0.00000000000E+00 0.  1.
        -13    1    1    2    0    0 -0.29652362726E+02  0.50233928977E+03 -0.65059485735E+02  0.50740198315E+03  0.10566000000E+00 0.  1.
         13    1    1    2    0    0 -0.12024360090E+03 -0.24165442654E+02 -0.25335016255E+03  0.28147612368E+03  0.10566000000E+00 0. -1.
          4    1    1    2  501    0  0.14989596363E+03 -0.47817384711E+03  0.10515007609E+03  0.51203082571E+03  0.00000000000E+00 0.  1.
</event>
<event>
 5    1  0.4419198E-005  0.1562827E+03  0.7818608E-02  0.1095076E+00
         21   -1    0    0  501  502  0.00000000000E+00  0.00000000000E+00  0.57039555050E+02  0.57039555050E+02  0.00000000000E+00 0. -1.
         -4   -1    0    0    0  501 -0.00000000000E+00 -0.00000000000E+00 -0.12759761877E+04  0.12759761877E+04  0.00000000000E+00 0. -1.
        -13    1    1    2    0    0 -0.13644631429E+03  0.54318392312E+02 -0.47694635555E+03  0.49904500966E+03  0.10566000000E+00 0.  1.
         13    1    1    2    0    0  0.15659124062E+03 -0.48021979597E+02 -0.77646298470E+03  0.79355006455E+03  0.10566000000E+00 0. -1.
         -4    1    1    2    0  502 -0.20144926333E+02 -0.62964127151E+01  0.34472707645E+02  0.40420668505E+02  0.00000000000E+00 0. -1.
</event>
<event>
 5    1  0.4419198E-005  0.2752006E+03  0.7818608E-02  0.1018102E+00
         -4   -1    0    0    0  501 -0.00000000000E+00  0.00000000000E+00  0.15464806409E+04  0.15464806409E+04  0.00000000000E+00 0. -1.
         21   -1    0    0  501  502  0.00000000000E+00 -0.00000000000E+00 -0.19997643428E+03  0.19997643428E+03  0.00000000000E+00 0. -1.
        -13    1    1    2    0    0 -0.22737661686E+03 -0.14454370526E+03  0.54077623302E+03  0.60417874341E+03  0.10566000000E+00 0.  1.
         13    1    1    2    0    0  0.24156939126E+03  0.13945507106E+03  0.95364202761E+03  0.99359781381E+03  0.10566000000E+00 0. -1.
         -4    1    1    2    0  502 -0.14192774394E+02  0.50886341939E+01 -0.14791405402E+03  0.14868051795E+03  0.00000000000E+00 0. -1.
</event>
<event>
 5    1  0.4419198E-005  0.2151901E+03  0.7818608E-02  0.1135467E+00
          4   -1    0    0  502    0 -0.00000000000E+00  0.00000000000E+00  0.34510885084E+03  0.34510885084E+03  0.00000000000E+00 0.  1.
         21   -1    0    0  501  502  0.00000000000E+00 -0.00000000000E+00 -0.19374271389E+03  0.19374271389E+03  0.00000000000E+00 0.  1.
        -13    1    1    2    0    0 -0.22698176744E+03 -0.16101957743E+02  0.14688363988E+03  0.27084093232E+03  0.10566000000E+00 0.  1.
         13    1    1    2    0    0  0.20017155095E+02  0.50276985543E+01 -0.49674188291E+02  0.53791266924E+02  0.10566000000E+00 0. -1.
          4    1    1    2  501    0  0.20696461234E+03  0.11074259189E+02  0.54156685358E+02  0.21421936548E+03  0.00000000000E+00 0.  1.
</event>
<event>
 5    1  0.4419198E-005  0.5145199E+03  0.7818608E-02  0.9516121E-01
         21   -1    0    0  501  502  0.00000000000E+00  0.00000000000E+00  0.31021254877E+03  0.31021254877E+03  0.00000000000E+00 0. -1.
          4   -1    0    0  502    0 -0.00000000000E+00 -0.00000000000E+00 -0.34185727056E+04  0.34185727056E+04  0.00000000000E+00 0.  1.
        -13    1    1    2    0    0 -0.97825235624E+02 -0.38543458144E+03 -0.12178265254E+04  0.12811054017E+04  0.10566000000E+00 0.  1.
         13    1    1    2    0    0  0.67996153046E+03  0.33932281070E+03 -0.16491175570E+04  0.18157853344E+04  0.10566000000E+00 0. -1.
          4    1    1    2  501    0 -0.58213629483E+03  0.46111770740E+02 -0.24141607449E+03  0.63189451825E+03  0.00000000000E+00 0.  1.
</event>
<event>
 5    1  0.4419198E-005  0.1048698E+03  0.7818608E-02  0.1156741E+00
          4   -1    0    0  502    0 -0.00000000000E+00  0.00000000000E+00  0.53473010351E+02  0.53473010351E+02  0.00000000000E+00 0.  1.
         21   -1    0    0  501  502  0.00000000000E+00 -0.00000000000E+00 -0.52111976679E+03  0.52111976679E+03  0.00000000000E+00 0.  1.
        -13    1    1    2    0    0 -0.34762653020E+02 -0.99437627441E+02 -0.47678464444E+02  0.11562668780E+03  0.10566000000E+00 0.  1.
         13    1    1    2    0    0  0.19813553095E+02  0.10287269751E+03 -0.12285926701E+03  0.16146138682E+03  0.10566000000E+00 0. -1.
          4    1    1    2  501    0  0.14949099925E+02 -0.34350700669E+01 -0.29710902499E+03  0.29750470253E+03  0.00000000000E+00 0.  1.
</event>
<event>
 5    1  0.4419198E-005  0.6578655E+03  0.7818608E-02  0.9186449E-01
          4   -1    0    0  502    0 -0.00000000000E+00  0.00000000000E+00  0.96008439830E+03  0.96008439830E+03  0.00000000000E+00 0.  1.
         21   -1    0    0  501  502  0.00000000000E+00 -0.00000000000E+00 -0.97513930531E+03  0.97513930531E+03  0.00000000000E+00 0.  1.
        -13    1    1    2    0    0 -0.55466137485E+03 -0.33559245791E+03  0.39529346802E+03  0.75929472248E+03  0.10566000000E+00 0.  1.
         13    1    1    2    0    0  0.43997650209E+03  0.55034247345E+03 -0.67975749920E+01  0.70462924908E+03  0.10566000000E+00 0. -1.
          4    1    1    2  501    0  0.11468487277E+03 -0.21475001553E+03 -0.40355080005E+03  0.47129973205E+03  0.00000000000E+00 0.  1.
</event>
<event>
 5    1  0.4550255E-005  0.4140388E+03  0.7818608E-02  0.1009562E+00
          4   -1    0    0  502    0 -0.00000000000E+00  0.00000000000E+00  0.60130591793E+03  0.60130591793E+03  0.00000000000E+00 0.  1.
         21   -1    0    0  501  502  0.00000000000E+00 -0.00000000000E+00 -0.61167564622E+03  0.61167564622E+03  0.00000000000E+00 0.  1.
        -13    1    1    2    0    0 -0.28964991031E+03  0.21119003334E+03  0.24762872360E+03  0.43568141645E+03  0.10566000000E+00 0.  1.
         13    1    1    2    0    0 -0.15336361570E+01  0.10610210045E+03  0.15021840375E+03  0.18391733944E+03  0.10566000000E+00 0. -1.
          4    1    1    2  501    0  0.29118354646E+03 -0.31729213379E+03 -0.40821685564E+03  0.59338280825E+03  0.00000000000E+00 0.  1.
</event>
<event>
 5    1  0.4419198E-005  0.4040313E+03  0.7818608E-02  0.9861279E-01
          4   -1    0    0  502    0 -0.00000000000E+00  0.00000000000E+00  0.85858826366E+03  0.85858826366E+03  0.00000000000E+00 0.  1.
         21   -1    0    0  501  502  0.00000000000E+00 -0.00000000000E+00 -0.17365283484E+04  0.17365283484E+04  0.00000000000E+00 0.  1.
        -13    1    1    2    0    0 -0.10431270821E+03 -0.18293094557E+03  0.42676005666E+02  0.21486303676E+03  0.10566000000E+00 0.  1.
         13    1    1    2    0    0 -0.18371860058E+03 -0.16513859773E+03  0.67664453259E+03  0.72032708911E+03  0.10566000000E+00 0. -1.
          4    1    1    2  501    0  0.28803130879E+03  0.34806954330E+03 -0.15972606230E+04  0.16599264862E+04  0.00000000000E+00 0.  1.
</event>
<event>
 5    1  0.4419198E-005  0.1906362E+03  0.7818608E-02  0.1066752E+00
         21   -1    0    0  501  502  0.00000000000E+00  0.00000000000E+00  0.93571366289E+02  0.93571366289E+02  0.00000000000E+00 0. -1.
         -4   -1    0    0    0  501 -0.00000000000E+00 -0.00000000000E+00 -0.57629545564E+03  0.57629545564E+03  0.00000000000E+00 0. -1.
        -13    1    1    2    0    0 -0.49604334695E+02  0.14641532860E+03 -0.10480739337E+03  0.18676894640E+03  0.10566000000E+00 0.  1.
         13    1    1    2    0    0  0.44215643255E+02 -0.21550551146E+03 -0.33751075706E+03  0.40287860563E+03  0.10566000000E+00 0. -1.
         -4    1    1    2    0  502  0.53886914399E+01  0.69090182856E+02 -0.40405938918E+02  0.80219269894E+02  0.00000000000E+00 0. -1.
</event>
<event>
 5    1  0.4419198E-005  0.5237840E+03  0.7818608E-02  0.9811461E-01
         21   -1    0    0  501  502  0.00000000000E+00  0.00000000000E+00  0.34375755938E+03  0.34375755938E+03  0.00000000000E+00 0.  1.
          4   -1    0    0  502    0 -0.00000000000E+00 -0.00000000000E+00 -0.10658968894E+04  0.10658968894E+04  0.00000000000E+00 0.  1.
        -13    1    1    2    0    0  0.36478855525E+03  0.44966549245E+03 -0.19842252975E+03  0.61207945287E+03  0.10566000000E+00 0.  1.
         13    1    1    2    0    0 -0.12141735617E+03 -0.57239124918E+02 -0.16587284539E+03  0.21338299792E+03  0.10566000000E+00 0. -1.
          4    1    1    2  501    0 -0.24337119908E+03 -0.39242636753E+03 -0.35784395490E+03  0.58419199801E+03  0.00000000000E+00 0.  1.
</event>
<event>
 5    1  0.4419198E-005  0.3489458E+03  0.7818608E-02  0.9889330E-01
         -4   -1    0    0    0  501 -0.00000000000E+00  0.00000000000E+00  0.14298019505E+03  0.14298019505E+03  0.00000000000E+00 0. -1.
         21   -1    0    0  501  502  0.00000000000E+00 -0.00000000000E+00 -0.10845516088E+04  0.10845516088E+04  0.00000000000E+00 0.  1.
        -13    1    1    2    0    0 -0.64253569669E+02 -0.36277948513E+03 -0.47797765799E+03  0.60348995746E+03  0.10566000000E+00 0.  1.
         13    1    1    2    0    0  0.86656978418E+02  0.32496954544E+03 -0.28723003597E+03  0.44228468445E+03  0.10566000000E+00 0. -1.
         -4    1    1    2    0  502 -0.22403408750E+02  0.37809939691E+02 -0.17636371980E+03  0.18175716196E+03  0.00000000000E+00 0. -1.
</event>
<event>
 5    1  0.4419198E-005  0.4029063E+03  0.7818608E-02  0.9750043E-01
         -4   -1    0    0    0  501 -0.00000000000E+00  0.00000000000E+00  0.20344265454E+04  0.20344265454E+04  0.00000000000E+00 0. -1.
         21   -1    0    0  501  502  0.00000000000E+00 -0.00000000000E+00 -0.22173616800E+03  0.22173616800E+03  0.00000000000E+00 0.  1.
        -13    1    1    2    0    0  0.31019087239E+02 -0.36268968828E+03  0.57268500351E+03  0.67858243285E+03  0.10566000000E+00 0.  1.
         13    1    1    2    0    0  0.36918444248E+03  0.35798271126E+03  0.96021682851E+03  0.10892498075E+04  0.10566000000E+00 0. -1.
         -4    1    1    2    0  502 -0.40020352972E+03  0.47069770179E+01  0.27978854539E+03  0.48833047311E+03  0.00000000000E+00 0. -1.
</event>
<event>
 5    1  0.4419198E-005  0.4952748E+03  0.7818608E-02  0.9547473E-01
         21   -1    0    0  501  502  0.00000000000E+00  0.00000000000E+00  0.17527173793E+03  0.17527173793E+03  0.00000000000E+00 0. -1.
         -4   -1    0    0    0  501 -0.00000000000E+00 -0.00000000000E+00 -0.40701623669E+04  0.40701623669E+04  0.00000000000E+00 0. -1.
        -13    1    1    2    0    0 -0.18031283428E+02 -0.39950779307E+03 -0.22162088517E+04  0.22520020625E+04  0.10566000000E+00 0.  1.
         13    1    1    2    0    0 -0.20137418129E+03 -0.22384655815E+03 -0.10074681911E+04  0.10514994103E+04  0.10566000000E+00 0. -1.
         -4    1    1    2    0  502  0.21940546472E+03  0.62335435122E+03 -0.67121358613E+03  0.94193263206E+03  0.00000000000E+00 0. -1.
</event>
<event>
 5    1  0.4419198E-005  0.4546004E+02  0.7818608E-02  0.1311465E+00
         -4   -1    0    0    0  501 -0.00000000000E+00  0.00000000000E+00  0.15224097202E+03  0.15224097202E+03  0.00000000000E+00 0. -1.
         21   -1    0    0  501  502  0.00000000000E+00 -0.00000000000E+00 -0.24725203666E+02  0.24725203666E+02  0.00000000000E+00 0. -1.
        -13    1    1    2    0    0  0.18809552325E+02 -0.31481756174E+02  0.38257648632E+02  0.52995840152E+02  0.10566000000E+00 0.  1.
         13    1    1    2    0    0 -0.16121181007E+02  0.54580244936E+02  0.81602725578E+02  0.99488248553E+02  0.10566000000E+00 0. -1.
         -4    1    1    2    0  502 -0.26883713175E+01 -0.23098488762E+02  0.76553941437E+01  0.24482086980E+02  0.00000000000E+00 0. -1.
</event>
<event>
 5    1  0.4419198E-005  0.9311736E+02  0.7818608E-02  0.1176474E+00
         21   -1    0    0  501  502  0.00000000000E+00  0.00000000000E+00  0.94877010958E+03  0.94877010958E+03  0.00000000000E+00 0. -1.
         -4   -1    0    0    0  501 -0.00000000000E+00 -0.00000000000E+00 -0.44941857332E+02  0.44941857332E+02  0.00000000000E+00 0. -1.
        -13    1    1    2    0    0 -0.90580163262E+02  0.76675200775E+02  0.57193640195E+03  0.58411909011E+03  0.10566000000E+00 0.  1.
         13    1    1    2    0    0  0.87157013901E+02 -0.27578412858E+02  0.19660527463E+02  0.93506478022E+02  0.10566000000E+00 0. -1.
         -4    1    1    2    0  502  0.34231493608E+01 -0.49096787917E+02  0.31223132283E+03  0.31608639878E+03  0.00000000000E+00 0. -1.
</event>
<event>
 5    1  0.4419198E-005  0.2523233E+03  0.7818608E-02  0.1029196E+00
          4   -1    0    0  502    0 -0.00000000000E+00  0.00000000000E+00  0.10264041939E+04  0.10264041939E+04  0.00000000000E+00 0.  1.
         21   -1    0    0  501  502  0.00000000000E+00 -0.00000000000E+00 -0.18640075877E+03  0.18640075877E+03  0.00000000000E+00 0. -1.
        -13    1    1    2    0    0  0.20763537162E+03 -0.14149025968E+03  0.89469534714E+03  0.92930711634E+03  0.10566000000E+00 0.  1.
         13    1    1    2    0    0 -0.21899969731E+03  0.14329642068E+03 -0.39871529772E+02  0.26473473828E+03  0.10566000000E+00 0. -1.
          4    1    1    2  501    0  0.11364325686E+02 -0.18061609960E+01 -0.14820382282E+02  0.18763098007E+02  0.00000000000E+00 0.  1.
</event>
<event>
 5    1  0.4419198E-005  0.5311210E+03  0.7818608E-02  0.9652545E-01
         -4   -1    0    0    0  501 -0.00000000000E+00  0.00000000000E+00  0.28949928064E+04  0.28949928064E+04  0.00000000000E+00 0. -1.
         21   -1    0    0  501  502  0.00000000000E+00 -0.00000000000E+00 -0.14833348319E+03  0.14833348319E+03  0.00000000000E+00 0. -1.
        -13    1    1    2    0    0  0.12543924631E+03  0.18455444171E+03  0.42686430313E+03  0.48167259723E+03  0.10566000000E+00 0.  1.
         13    1    1    2    0    0  0.53267372731E+02 -0.60691450299E+03  0.10835818272E+04  0.12431139185E+04  0.10566000000E+00 0. -1.
         -4    1    1    2    0  502 -0.17870661904E+03  0.42236006128E+03  0.12362131929E+04  0.13185397739E+04  0.00000000000E+00 0. -1.
</event>
<event>
 5    1  0.4419198E-005  0.5836378E+02  0.7818608E-02  0.1261043E+00
         21   -1    0    0  501  502  0.00000000000E+00  0.00000000000E+00  0.41961489655E+02  0.41961489655E+02  0.00000000000E+00 0. -1.
         -4   -1    0    0    0  501 -0.00000000000E+00 -0.00000000000E+00 -0.43203475625E+03  0.43203475625E+03  0.00000000000E+00 0. -1.
        -13    1    1    2    0    0  0.26025936433E+02  0.27051264652E+02 -0.45536193929E+02  0.59014205138E+02  0.10566000000E+00 0.  1.
         13    1    1    2    0    0 -0.54743530710E+02 -0.40711216515E+02 -0.36875300380E+03  0.37501072822E+03  0.10566000000E+00 0. -1.
         -4    1    1    2    0  502  0.28717594276E+02  0.13659951863E+02  0.24215931135E+02  0.39971312546E+02  0.00000000000E+00 0. -1.
</event>
<event>
 5    1  0.4419198E-005  0.7737546E+03  0.7818608E-02  0.9103999E-01
         -4   -1    0    0    0  501 -0.00000000000E+00  0.00000000000E+00  0.29178792141E+04  0.29178792141E+04  0.00000000000E+00 0. -1.
         21   -1    0    0  501  502  0.00000000000E+00 -0.00000000000E+00 -0.45736262255E+03  0.45736262255E+03  0.00000000000E+00 0. -1.
        -13    1    1    2    0    0  0.99050363132E+02  0.93304563331E+03  0.11123786989E+04  0.14552565098E+04  0.10566000000E+00 0.  1.
         13    1    1    2    0    0  0.38521031765E+03 -0.32956595528E+03  0.88016094216E+03  0.10157184664E+04  0.10566000000E+00 0. -1.
         -4    1    1    2    0  502 -0.48426068079E+03 -0.60347967803E+03  0.46797695042E+03  0.90426686043E+03  0.00000000000E+00 0. -1.
</event>
<event>
 5    1  0.4419198E-005  0.4495208E+03  0.7818608E-02  0.9922809E-01
         21   -1    0    0  501  502  0.00000000000E+00  0.00000000000E+00  0.42762406457E+03  0.42762406457E+03  0.00000000000E+00 0.  1.
          4   -1    0    0  502    0 -0.00000000000E+00 -0.00000000000E+00 -0.14692978455E+04  0.14692978455E+04  0.00000000000E+00 0.  1.
        -13    1    1    2    0    0 -0.41561668240E+03  0.30087685401E+03 -0.28516923298E+03  0.58701414853E+03  0.10566000000E+00 0.  1.
         13    1    1    2    0    0  0.15742960423E+02 -0.14509724259E+03 -0.85684605325E+03  0.86918710342E+03  0.10566000000E+00 0. -1.
          4    1    1    2  501    0  0.39987372198E+03 -0.15577961142E+03  0.10034150525E+03  0.44072065817E+03  0.00000000000E+00 0.  1.
</event>
<event>
 5    1  0.4419198E-005  0.4604442E+03  0.7818608E-02  0.9699447E-01
         -4   -1    0    0    0  501 -0.00000000000E+00  0.00000000000E+00  0.21026539365E+04  0.21026539365E+04  0.00000000000E+00 0. -1.
         21   -1    0    0  501  502  0.00000000000E+00 -0.00000000000E+00 -0.25227056420E+03  0.25227056420E+03  0.00000000000E+00 0. -1.
        -13    1    1    2    0    0 -0.22188608782E+03 -0.18771223381E+03  0.84297079087E+03  0.89166646462E+03  0.10566000000E+00 0.  1.
         13    1    1    2    0    0  0.61875115254E+03  0.11332318846E+03  0.77213170857E+03  0.99593298990E+03  0.10566000000E+00 0. -1.
         -4    1    1    2    0  502 -0.39686506472E+03  0.74389045357E+02  0.23528087288E+03  0.46732504621E+03  0.00000000000E+00 0. -1.
</event>
<event>
 5    1  0.4419198E-005  0.4475137E+03  0.7818608E-02  0.9838075E-01
         -4   -1    0    0    0  501 -0.00000000000E+00  0.00000000000E+00  0.31071886188E+03  0.31071886188E+03  0.00000000000E+00 0. -1.
         21   -1    0    0  501  502  0.00000000000E+00 -0.00000000000E+00 -0.18847749060E+04  0.18847749060E+04  0.00000000000E+00 0. -1.
        -13    1    1    2    0    0  0.14085391139E+02 -0.19611794757E+03  0.13441247964E+03  0.23817508990E+03  0.10566000000E+00 0.  1.
         13    1    1    2    0    0 -0.97954587122E+02 -0.31229044367E+03 -0.25405426662E+03  0.41432354977E+03  0.10566000000E+00 0. -1.
         -4    1    1    2    0  502  0.83869195983E+02  0.50840839123E+03 -0.14544142572E+04  0.15429951282E+04  0.00000000000E+00 0. -1.
</event>
<event>
 5    1  0.4419198E-005  0.4611868E+03  0.7818608E-02  0.9681978E-01
         21   -1    0    0  501  502  0.00000000000E+00  0.00000000000E+00  0.29217727207E+03  0.29217727207E+03  0.00000000000E+00 0.  1.
          4   -1    0    0  502    0 -0.00000000000E+00 -0.00000000000E+00 -0.21562593986E+04  0.21562593986E+04  0.00000000000E+00 0.  1.
        -13    1    1    2    0    0 -0.41214539148E+03 -0.49120597764E+03 -0.52946456715E+03  0.83155268938E+03  0.10566000000E+00 0.  1.
         13    1    1    2    0    0  0.28075437396E+03  0.12521781564E+03 -0.11425396025E+04  0.11831733915E+04  0.10566000000E+00 0. -1.
          4    1    1    2  501    0  0.13139101753E+03  0.36598816199E+03 -0.19207795688E+03  0.43371058982E+03  0.00000000000E+00 0.  1.
</event>
<event>
 5    1  0.4419198E-005  0.4947765E+03  0.7818608E-02  0.9883927E-01
         21   -1    0    0  501  502  0.00000000000E+00  0.00000000000E+00  0.68772849715E+03  0.68772849715E+03  0.00000000000E+00 0. -1.
         -4   -1    0    0    0  501 -0.00000000000E+00 -0.00000000000E+00 -0.91282437619E+03  0.91282437619E+03  0.00000000000E+00 0. -1.
        -13    1    1    2    0    0 -0.11217695073E+03 -0.54340098560E+02 -0.54022619913E+03  0.55441940080E+03  0.10566000000E+00 0.  1.
         13    1    1    2    0    0 -0.28185372983E+03  0.38808311887E+03  0.12283759058E+03  0.49511525628E+03  0.10566000000E+00 0. -1.
         -4    1    1    2    0  502  0.39403068056E+03 -0.33374302031E+03  0.19229272952E+03  0.55101821627E+03  0.00000000000E+00 0. -1.
</event>
<event>
 5    1  0.4419198E-005  0.2943563E+03  0.7818608E-02  0.1021390E+00
         21   -1    0    0  501  502  0.00000000000E+00  0.00000000000E+00  0.22585962420E+03  0.22585962420E+03  0.00000000000E+00 0.  1.
          4   -1    0    0  502    0 -0.00000000000E+00 -0.00000000000E+00 -0.16789981136E+04  0.16789981136E+04  0.00000000000E+00 0.  1.
        -13    1    1    2    0    0  0.29127650481E+03  0.33637636822E+03 -0.11707280302E+04  0.12524357051E+04  0.10566000000E+00 0.  1.
         13    1    1    2    0    0 -0.47437264715E+02 -0.19711490457E+03 -0.30984348243E+03  0.37028039977E+03  0.10566000000E+00 0. -1.
          4    1    1    2  501    0 -0.24383924009E+03 -0.13926146364E+03  0.27433023304E+02  0.28214163293E+03  0.00000000000E+00 0.  1.
</event>
<event>
 5    1  0.4419198E-005  0.4487070E+03  0.7818608E-02  0.9606025E-01
          4   -1    0    0  502    0 -0.00000000000E+00  0.00000000000E+00  0.21654820902E+04  0.21654820902E+04  0.00000000000E+00 0.  1.
         21   -1    0    0  501  502  0.00000000000E+00 -0.00000000000E+00 -0.24603177177E+03  0.24603177177E+03  0.00000000000E+00 0.  1.
        -13    1    1    2    0    0 -0.42047224382E+03 -0.16448870746E+02  0.50900667540E+03  0.66042053264E+03  0.10566000000E+00 0.  1.
         13    1    1    2    0    0  0.50014728081E+02 -0.43334879801E+03  0.77186873890E+03  0.88660815190E+03  0.10566000000E+00 0. -1.
          4    1    1    2  501    0  0.37045751574E+03  0.44979766876E+03  0.63857490412E+03  0.86448517741E+03  0.00000000000E+00 0.  1.
</event>
<event>
 5    1  0.4419198E-005  0.4243921E+03  0.7818608E-02  0.9948815E-01
         -4   -1    0    0    0  501 -0.00000000000E+00  0.00000000000E+00  0.24842377962E+04  0.24842377962E+04  0.00000000000E+00 0. -1.
         21   -1    0    0  501  502  0.00000000000E+00 -0.00000000000E+00 -0.13547671898E+03  0.13547671898E+03  0.00000000000E+00 0. -1.
        -13    1    1    2    0    0  0.92259233521E+01 -0.15882115769E+03  0.19405063746E+03  0.25092815477E+03  0.10566000000E+00 0.  1.
         13    1    1    2    0    0  0.39217865368E+03 -0.26510261674E+02  0.16573436629E+04  0.17033187953E+04  0.10566000000E+00 0. -1.
         -4    1    1    2    0  502 -0.40140457703E+03  0.18533141937E+03  0.49736677688E+03  0.66546756510E+03  0.00000000000E+00 0. -1.
</event>
<event>
 5    1  0.4419198E-005  0.3993351E+03  0.7818608E-02  0.9834012E-01
         -4   -1    0    0    0  501 -0.00000000000E+00  0.00000000000E+00  0.26696895728E+03  0.26696895728E+03  0.00000000000E+00 0. -1.
         21   -1    0    0  501  502  0.00000000000E+00 -0.00000000000E+00 -0.16812077649E+04  0.16812077649E+04  0.00000000000E+00 0. -1.
        -13    1    1    2    0    0  0.13424736123E+03 -0.24635304782E+03 -0.27290903695E+03  0.39139689802E+03  0.10566000000E+00 0.  1.
         13    1    1    2    0    0 -0.40133535128E+03 -0.87995749929E+02 -0.10382749533E+04  0.11166146184E+04  0.10566000000E+00 0. -1.
         -4    1    1    2    0  502  0.26708799006E+03  0.33434879774E+03 -0.10305481738E+03  0.44016520577E+03  0.00000000000E+00 0. -1.
</event>
<event>
 5    1  0.4419198E-005  0.3444634E+03  0.7818608E-02  0.9972017E-01
         21   -1    0    0  501  502  0.00000000000E+00  0.00000000000E+00  0.11100522713E+04  0.11100522713E+04  0.00000000000E+00 0. -1.
         -4   -1    0    0    0  501 -0.00000000000E+00 -0.00000000000E+00 -0.16035130795E+04  0.16035130795E+04  0.00000000000E+00 0. -1.
        -13    1    1    2    0    0  0.37678071937E+03  0.79751732376E+02 -0.13084952334E+04  0.13639955411E+04  0.10566000000E+00 0.  1.
         13    1    1    2    0    0  0.19382037034E+03 -0.20944791459E+03  0.69627475137E+03  0.75248475430E+03  0.10566000000E+00 0. -1.
         -4    1    1    2    0  502 -0.57060108971E+03  0.12969618222E+03  0.11875967379E+03  0.59708505540E+03  0.00000000000E+00 0. -1.
</event>
<event>
 5    1  0.4419198E-005  0.4824146E+03  0.7818608E-02  0.9671456E-01
         21   -1    0    0  501  502  0.00000000000E+00  0.00000000000E+00  0.29729025306E+03  0.29729025306E+03  0.00000000000E+00 0. -1.
         -4   -1    0    0    0  501 -0.00000000000E+00 -0.00000000000E+00 -0.14767582570E+04  0.14767582570E+04  0.00000000000E+00 0. -1.
        -13    1    1    2    0    0  0.23108916721E+03  0.15573088327E+03 -0.36438513827E+03  0.45872742600E+03  0.10566000000E+00 0.  1.
         13    1    1    2    0    0  0.16071190609E+03 -0.47113210795E+03 -0.56694186103E+03  0.75446462134E+03  0.10566000000E+00 0. -1.
         -4    1    1    2    0  502 -0.39180107330E+03  0.31540122468E+03 -0.24814100459E+03  0.56085646268E+03  0.00000000000E+00 0. -1.
</event>
<event>
 5    1  0.6049291E-005  0.4537691E+03  0.7818608E-02  0.1028508E+00
         -4   -1    0    0    0  501 -0.00000000000E+00  0.00000000000E+00  0.18040473423E+04  0.18040473423E+04  0.00000000000E+00 0. -1.
         21   -1    0    0  501  502  0.00000000000E+00 -0.00000000000E+00 -0.15342593034E+03  0.15342593034E+03  0.00000000000E+00 0. -1.
        -13    1    1    2    0    0 -0.95894152438E+01 -0.43268140737E+02  0.88070663128E+02  0.98592807828E+02  0.10566000000E+00 0.  1.
         13    1    1    2    0    0 -0.70698706289E+01 -0.44136101309E+03  0.38624497034E+03  0.58654472568E+03  0.10566000000E+00 0. -1.
         -4    1    1    2    0  502  0.16659285873E+02  0.48462915383E+03  0.11763057784E+04  0.12723357391E+04  0.00000000000E+00 0. -1.
</event>
<event>
 5    1  0.4419198E-005  0.6837451E+03  0.7818608E-02  0.9146897E-01
          4   -1    0    0  502    0 -0.00000000000E+00  0.00000000000E+00  0.29688134389E+04  0.29688134389E+04  0.00000000000E+00 0.  1.
         21   -1    0    0  501  502  0.00000000000E+00 -0.00000000000E+00 -0.25887895753E+03  0.25887895753E+03  0.00000000000E+00 0. -1.
        -13    1    1    2    0    0  0.61912418847E+03 -0.58376283846E+03  0.10587052593E+04  0.13582896045E+04  0.10566000000E+00 0.  1.
         13    1    1    2    0    0 -0.46117324952E+03  0.36814342105E+03  0.94294780256E+03  0.11123672568E+04  0.10566000000E+00 0. -1.
          4    1    1    2  501    0 -0.15795093894E+03  0.21561941741E+03  0.70828141945E+03  0.75703553510E+03  0.00000000000E+00 0.  1.
</event>
<event>
 5    1  0.4419198E-005  0.4075305E+03  0.7818608E-02  0.9735429E-01
         -4   -1    0    0    0  501 -0.00000000000E+00  0.00000000000E+00  0.17844507957E+04  0.17844507957E+04  0.00000000000E+00 0. -1.
         21   -1    0    0  501  502  0.00000000000E+00 -0.00000000000E+00 -0.54540100782E+03  0.54540100782E+03  0.00000000000E+00 0. -1.
        -13    1    1    2    0    0  0.23247807605E+03 -0.35902078562E+03  0.11542830220E+04  0.12309798075E+04  0.10566000000E+00 0.  1.
         13    1    1    2    0    0 -0.29039988630E+03 -0.23354209939E+03 -0.21714988174E+03  0.43130973610E+03  0.10566000000E+00 0. -1.
         -4    1    1    2    0  502  0.57921810243E+02  0.59256288501E+03  0.30191664760E+03  0.66756225993E+03  0.00000000000E+00 0. -1.
</event>
<event>
 5    1  0.4419198E-005  0.3840777E+03  0.7818608E-02  0.9893353E-01
          4   -1    0    0  502    0 -0.00000000000E+00  0.00000000000E+00  0.79017104799E+03  0.79017104799E+03  0.00000000000E+00 0.  1.
         21   -1    0    0  501  502  0.00000000000E+00 -0.00000000000E+00 -0.58775571452E+03  0.58775571452E+03  0.00000000000E+00 0.  1.
        -13    1    1    2    0    0  0.10692968992E+03  0.13535151280E+03  0.40467699693E+03  0.43990621002E+03  0.10566000000E+00 0.  1.
         13    1    1    2    0    0  0.18841704728E+03  0.17650701389E+03  0.21740113132E+03  0.33751884795E+03  0.10566000000E+00 0. -1.
          4    1    1    2  501    0 -0.29534673720E+03 -0.31185852669E+03 -0.41966279478E+03  0.60050170455E+03  0.00000000000E+00 0.  1.
</event>
<event>
 5    1  0.4419198E-005  0.5065683E+03  0.7818608E-02  0.9594372E-01
         21   -1    0    0  501  502  0.00000000000E+00  0.00000000000E+00  0.50103552998E+03  0.50103552998E+03  0.00000000000E+00 0. -1.
         -4   -1    0    0    0  501 -0.00000000000E+00 -0.00000000000E+00 -0.10781152478E+04  0.10781152478E+04  0.00000000000E+00 0. -1.
        -13    1    1    2    0    0  0.30039087706E+03  0.98089664518E+02 -0.38926972569E+03  0.50138527283E+03  0.10566000000E+00 0.  1.
         13    1    1    2    0    0 -0.58632477193E+03  0.20904227338E+03 -0.11443185558E+02  0.62258041079E+03  0.10566000000E+00 0. -1.
         -4    1    1    2    0  502  0.28593389487E+03 -0.30713193789E+03 -0.17636680661E+03  0.45518509420E+03  0.00000000000E+00 0. -1.
</event>
<event>
 5    1  0.4419198E-005  0.4920014E+03  0.7818608E-02  0.1005819E+00
          4   -1    0    0  502    0 -0.00000000000E+00  0.00000000000E+00  0.21821569322E+04  0.21821569322E+04  0.00000000000E+00 0.  1.
         21   -1    0    0  501  502  0.00000000000E+00 -0.00000000000E+00 -0.13010863944E+03  0.13010863944E+03  0.00000000000E+00 0.  1.
        -13    1    1    2    0    0  0.32034372867E+03 -0.33115869287E+03  0.90258773434E+03  0.10133858168E+04  0.10566000000E+00 0.  1.
         13    1    1    2    0    0  0.30525624217E+02 -0.64503574376E+02  0.90803778805E+02  0.11548966296E+03  0.10566000000E+00 0. -1.
          4    1    1    2  501    0 -0.35086935288E+03  0.39566226724E+03  0.10586567796E+04  0.11833900918E+04  0.00000000000E+00 0.  1.
</event>
<event>
 5    1  0.4419198E-005  0.4925488E+03  0.7818608E-02  0.9835192E-01
          4   -1    0    0  502    0 -0.00000000000E+00  0.00000000000E+00  0.37826912717E+03  0.37826912717E+03  0.00000000000E+00 0.  1.
         21   -1    0    0  501  502  0.00000000000E+00 -0.00000000000E+00 -0.86680060674E+03  0.86680060674E+03  0.00000000000E+00 0.  1.
        -13    1    1    2    0    0 -0.45846359991E+03 -0.16343646468E+02 -0.15499594219E+03  0.48423108170E+03  0.10566000000E+00 0.  1.
         13    1    1    2    0    0 -0.62957206746E+02  0.13495572332E+03 -0.65603894065E+02  0.16272842167E+03  0.10566000000E+00 0. -1.
          4    1    1    2  501    0  0.52142080666E+03 -0.11861207685E+03 -0.26793164332E+03  0.59811023054E+03  0.00000000000E+00 0.  1.
</event>
<event>
 5    1  0.4419198E-005  0.1602815E+03  0.7818608E-02  0.1091392E+00
         -4   -1    0    0    0  501 -0.00000000000E+00  0.00000000000E+00  0.62246162778E+03  0.62246162778E+03  0.00000000000E+00 0. -1.
         21   -1    0    0  501  502  0.00000000000E+00 -0.00000000000E+00 -0.57456638414E+02  0.57456638414E+02  0.00000000000E+00 0.  1.
        -13    1    1    2    0    0  0.68950252237E+02  0.12475904477E+03  0.21779772842E+03  0.26029755705E+03  0.10566000000E+00 0.  1.
         13    1    1    2    0    0 -0.11526971466E+03 -0.14264801810E+03  0.29660017438E+03  0.34872229466E+03  0.10566000000E+00 0. -1.
         -4    1    1    2    0  502  0.46319462422E+02  0.17888973336E+02  0.50607086566E+02  0.70898414487E+02  0.00000000000E+00 0. -1.
</event>
<event>
 5    1  0.4419198E-005  0.3105001E+03  0.7818608E-02  0.1003063E+00
         21   -1    0    0  501  502  0.00000000000E+00  0.00000000000E+00  0.12959448358E+03  0.12959448358E+03  0.00000000000E+00 0. -1.
         -4   -1    0    0    0  501 -0.00000000000E+00 -0.00000000000E+00 -0.26779408231E+04  0.26779408231E+04  0.00000000000E+00 0. -1.
        -13    1    1    2    0    0  0.26162818557E+03  0.16357234665E+03 -0.11889213989E+04  0.12283075039E+04  0.10566000000E+00 0.  1.
         13    1    1    2    0    0 -0.94372220165E+02 -0.35535158257E+03 -0.12487185628E+04  0.13017215229E+04  0.10566000000E+00 0. -1.
         -4    1    1    2    0  502 -0.16725596540E+03  0.19177923592E+03 -0.11070637790E+03  0.27750627993E+03  0.00000000000E+00 0. -1.
</event>
<event>
 5    1  0.4419198E-005  0.1865398E+03  0.7818608E-02  0.1069777E+00
         -4   -1    0    0    0  501 -0.00000000000E+00  0.00000000000E+00  0.21177834836E+03  0.21177834836E+03  0.00000000000E+00 0. -1.
         21   -1    0    0  501  502  0.00000000000E+00 -0.00000000000E+00 -0.21663498783E+03  0.21663498783E+03  0.00000000000E+00 0.  1.
        -13    1    1    2    0    0  0.64672864969E+02 -0.17113791737E+03  0.62978451392E+02  0.19348659574E+03  0.10566000000E+00 0.  1.
         13    1    1    2    0    0 -0.54758096255E+02  0.18523799156E+03 -0.32863180799E+02  0.19593764937E+03  0.10566000000E+00 0. -1.
         -4    1    1    2    0  502 -0.99147687134E+01 -0.14100074189E+02 -0.34971910057E+02  0.38989091088E+02  0.00000000000E+00 0. -1.
</event>
<event>
 5    1  0.4419198E-005  0.4925392E+03  0.7818608E-02  0.9621410E-01
          4   -1    0    0  502    0 -0.00000000000E+00  0.00000000000E+00  0.18249412262E+04  0.18249412262E+04  0.00000000000E+00 0.  1.
         21   -1    0    0  501  502  0.00000000000E+00 -0.00000000000E+00 -0.32348000694E+03  0.32348000694E+03  0.00000000000E+00 0.  1.
        -13    1    1    2    0    0 -0.42762155414E+02 -0.55295679747E+03  0.28917510191E+03  0.62546948170E+03  0.10566000000E+00 0.  1.
         13    1    1    2    0    0 -0.25514090191E+03  0.18010183731E+03  0.89991055056E+03  0.95256105410E+03  0.10566000000E+00 0. -1.
          4    1    1    2  501    0  0.29790305732E+03  0.37285496016E+03  0.31237556681E+03  0.57039069735E+03  0.00000000000E+00 0.  1.
</event>
<event>
 5    1  0.4419198E-005  0.3804259E+03  0.7818608E-02  0.1006018E+00
         21   -1    0    0  501  502  0.00000000000E+00  0.00000000000E+00  0.15742038299E+03  0.15742038299E+03  0.00000000000E+00 0.  1.
          4   -1    0    0  502    0 -0.00000000000E+00 -0.00000000000E+00 -0.21604670163E+04  0.21604670163E+04  0.00000000000E+00 0.  1.
        -13    1    1    2    0    0 -0.32437066336E+03 -0.24254555939E+03 -0.19287785480E+03  0.44860511997E+03  0.10566000000E+00 0.  1.
         13    1    1    2    0    0  0.14941214540E+03  0.34656496790E+02 -0.32389079502E+03  0.35837176259E+03  0.10566000000E+00 0. -1.
          4    1    1    2  501    0  0.17495851796E+03  0.20788906260E+03 -0.14862779834E+04  0.15109105167E+04  0.00000000000E+00 0.  1.
</event>
<event>
 5    1  0.4419198E-005  0.4520332E+03  0.7818608E-02  0.1023883E+00
          4   -1    0    0  502    0 -0.00000000000E+00  0.00000000000E+00  0.22145938945E+03  0.22145938945E+03  0.00000000000E+00 0.  1.
         21   -1    0    0  501  502  0.00000000000E+00 -0.00000000000E+00 -0.11315948911E+04  0.11315948911E+04  0.00000000000E+00 0.  1.
        -13    1    1    2    0    0  0.32684178599E+03 -0.34707346644E+03 -0.54171923963E+03  0.72162683565E+03  0.10566000000E+00 0.  1.
         13    1    1    2    0    0 -0.26958542343E+02  0.44201495103E+02  0.19291693451E+02  0.55251387085E+02  0.10566000000E+00 0. -1.
          4    1    1    2  501    0 -0.29988324365E+03  0.30287197134E+03 -0.38770795544E+03  0.57617605778E+03  0.00000000000E+00 0.  1.
</event>
<event>
 5    1  0.4419198E-005  0.2739837E+03  0.7818608E-02  0.1020850E+00
          4   -1    0    0  502    0 -0.00000000000E+00  0.00000000000E+00  0.16609116759E+04  0.16609116759E+04  0.00000000000E+00 0.  1.
         21   -1    0    0  501  502  0.00000000000E+00 -0.00000000000E+00 -0.29467465107E+03  0.29467465107E+03  0.00000000000E+00 0.  1.
        -13    1    1    2    0    0  0.26614201906E+03  0.32161298463E+03  0.89513842564E+03  0.98769392952E+03  0.10566000000E+00 0.  1.
         13    1    1    2    0    0 -0.24989794735E+03 -0.54269516803E+02  0.61342152970E+03  0.66459021119E+03  0.10566000000E+00 0. -1.
          4    1    1    2  501    0 -0.16244071716E+02 -0.26734346783E+03 -0.14232293049E+03  0.30330218627E+03  0.00000000000E+00 0.  1.
</event>
<event>
 5    1  0.4419198E-005  0.1618507E+03  0.7818608E-02  0.1089978E+00
         21   -1    0    0  501  502  0.00000000000E+00  0.00000000000E+00  0.41035552515E+03  0.41035552515E+03  0.00000000000E+00 0. -1.
         -4   -1    0    0    0  501 -0.00000000000E+00 -0.00000000000E+00 -0.59258091385E+03  0.59258091385E+03  0.00000000000E+00 0. -1.
        -13    1    1    2    0    0 -0.36453415458E+02 -0.15962753098E+03 -0.62412049738E+02  0.17522863711E+03  0.10566000000E+00 0.  1.
         13    1    1    2    0    0  0.25953134219E+02  0.15935467334E+03 -0.45992151217E+03  0.48743746842E+03  0.10566000000E+00 0. -1.
         -4    1    1    2    0  502  0.10500281239E+02  0.27285764363E+00  0.34010817322E+03  0.34027033348E+03  0.00000000000E+00 0. -1.
</event>
<event>
 5    1  0.4419198E-005  0.4894929E+03  0.7818608E-02  0.9745911E-01
          4   -1    0    0  502    0 -0.00000000000E+00  0.00000000000E+00  0.13746084048E+04  0.13746084048E+04  0.00000000000E+00 0.  1.
         21   -1    0    0  501  502  0.00000000000E+00 -0.00000000000E+00 -0.30875840218E+03  0.30875840218E+03  0.00000000000E+00 0.  1.
        -13    1    1    2    0    0  0.19776231037E+03 -0.39965290354E+03  0.26872679676E+03  0.52062124157E+03  0.10566000000E+00 0.  1.
         13    1    1    2    0    0  0.20557112859E+03  0.11842861038E+02  0.47357417741E+03  0.51640319029E+03  0.10566000000E+00 0. -1.
          4    1    1    2  501    0 -0.40333343896E+03  0.38781004250E+03  0.32354902841E+03  0.64634237508E+03  0.00000000000E+00 0.  1.
</event>
<event>
 5    1  0.4419198E-005  0.5750413E+02  0.7818608E-02  0.1274219E+00
         -4   -1    0    0    0  501 -0.00000000000E+00  0.00000000000E+00  0.49336831579E+02  0.49336831579E+02  0.00000000000E+00 0. -1.
         21   -1    0    0  501  502  0.00000000000E+00 -0.00000000000E+00 -0.61863406461E+03  0.61863406461E+03  0.00000000000E+00 0. -1.
        -13    1    1    2    0    0  0.46441124038E+02 -0.42961954175E+01 -0.49269876792E+02  0.67843696981E+02  0.10566000000E+00 0.  1.
         13    1    1    2    0    0 -0.96376324909E+02  0.29177360913E+02 -0.27409247840E+02  0.10435991771E+03  0.10566000000E+00 0. -1.
         -4    1    1    2    0  502  0.49935200871E+02 -0.24881165496E+02 -0.49261810840E+03  0.49576728150E+03  0.00000000000E+00 0. -1.
</event>
<event>
 5    1  0.4419198E-005  0.1126198E+03  0.7818608E-02  0.1208157E+00
          4   -1    0    0  502    0 -0.00000000000E+00  0.00000000000E+00  0.68936095064E+03  0.68936095064E+03  0.00000000000E+00 0.  1.
         21   -1    0    0  501  502  0.00000000000E+00 -0.00000000000E+00 -0.42271894561E+02  0.42271894561E+02  0.00000000000E+00 0.  1.
        -13    1    1    2    0    0 -0.12203373511E+03 -0.46826442605E+02  0.54414400820E+03  0.55962278461E+03  0.10566000000E+00 0.  1.
         13    1    1    2    0    0  0.15924591526E+02  0.19721403859E+02  0.34692998761E+02  0.42966751244E+02  0.10566000000E+00 0. -1.
          4    1    1    2  501    0  0.10610914358E+03  0.27105038747E+02  0.68252049114E+02  0.12904330934E+03  0.00000000000E+00 0.  1.
</event>
<event>
 5    1  0.4419198E-005  0.4191703E+03  0.7818608E-02  0.9675258E-01
         21   -1    0    0  501  502  0.00000000000E+00  0.00000000000E+00  0.97219772080E+03  0.97219772080E+03  0.00000000000E+00 0.  1.
         -4   -1    0    0    0  501 -0.00000000000E+00 -0.00000000000E+00 -0.44369757603E+03  0.44369757603E+03  0.00000000000E+00 0. -1.
        -13    1    1    2    0    0 -0.18813408752E+03  0.20921872194E+03  0.20740885672E+03  0.34955021600E+03  0.10566000000E+00 0.  1.
         13    1    1    2    0    0  0.23789410730E+03 -0.46898284333E+03 -0.13156970785E+03  0.54207851167E+03  0.10566000000E+00 0. -1.
         -4    1    1    2    0  502 -0.49760019780E+02  0.25976412139E+03  0.45266099590E+03  0.52426656916E+03  0.00000000000E+00 0. -1.
</event>
<event>
 5    1  0.4419198E-005  0.1976128E+03  0.7818608E-02  0.1061785E+00
         21   -1    0    0  501  502  0.00000000000E+00  0.00000000000E+00  0.54788259441E+03  0.54788259441E+03  0.00000000000E+00 0. -1.
          4   -1    0    0  502    0 -0.00000000000E+00 -0.00000000000E+00 -0.37920912696E+03  0.37920912696E+03  0.00000000000E+00 0.  1.
        -13    1    1    2    0    0  0.20437804420E+03 -0.38374179368E+00 -0.32683202422E+03  0.38547336540E+03  0.10566000000E+00 0.  1.
         13    1    1    2    0    0 -0.13243737730E+03 -0.32081809150E+02  0.26514854885E+03  0.29811518832E+03  0.10566000000E+00 0. -1.
          4    1    1    2  501    0 -0.71940666905E+02  0.32465550943E+02  0.23035694282E+03  0.24350316766E+03  0.00000000000E+00 0.  1.
</event>
<event>
 5    1  0.4419198E-005  0.5431184E+02  0.7818608E-02  0.1275164E+00
          4   -1    0    0  502    0 -0.00000000000E+00  0.00000000000E+00  0.32431876236E+03  0.32431876236E+03  0.00000000000E+00 0.  1.
         21   -1    0    0  501  502  0.00000000000E+00 -0.00000000000E+00 -0.32463706630E+02  0.32463706630E+02  0.00000000000E+00 0. -1.
        -13    1    1    2    0    0 -0.21350428978E+02 -0.50052914251E+02  0.28359162924E+03  0.28876523057E+03  0.10566000000E+00 0.  1.
         13    1    1    2    0    0  0.32482079971E+02  0.43941007917E+02  0.47979551160E+01  0.54853707562E+02  0.10566000000E+00 0. -1.
          4    1    1    2  501    0 -0.11131650993E+02  0.61119063343E+01  0.34654713674E+01  0.13163530859E+02  0.00000000000E+00 0.  1.
</event>
<event>
 5    1  0.4419198E-005  0.1189426E+03  0.7818608E-02  0.1150267E+00
         21   -1    0    0  501  502  0.00000000000E+00  0.00000000000E+00  0.25340436594E+03  0.25340436594E+03  0.00000000000E+00 0. -1.
         -4   -1    0    0    0  501 -0.00000000000E+00 -0.00000000000E+00 -0.14766817545E+03  0.14766817545E+03  0.00000000000E+00 0. -1.
        -13    1    1    2    0    0 -0.16573777037E+02 -0.82657354045E+02 -0.36900552526E+02  0.92024943378E+02  0.10566000000E+00 0.  1.
         13    1    1    2    0    0  0.10711662255E+03  0.12929333385E+03  0.61420989307E+02  0.17878279027E+03  0.10566000000E+00 0. -1.
         -4    1    1    2    0  502 -0.90542845515E+02 -0.46635979805E+02  0.81215753712E+02  0.13026480775E+03  0.00000000000E+00 0. -1.
</event>
<event>
 5    1  0.4419198E-005  0.3751246E+03  0.7818608E-02  0.9803770E-01
          4   -1    0    0  502    0 -0.00000000000E+00  0.00000000000E+00  0.30996220134E+04  0.30996220134E+04  0.00000000000E+00 0.  1.
         21   -1    0    0  501  502  0.00000000000E+00 -0.00000000000E+00 -0.21125363298E+03  0.21125363298E+03  0.00000000000E+00 0.  1.
        -13    1    1    2    0    0 -0.52781052600E+03  0.19888761794E+03  0.11670354925E+04  0.12961913778E+04  0.10566000000E+00 0.  1.
         13    1    1    2    0    0  0.25563931797E+03 -0.21429724151E+03  0.17095837066E+04  0.17418241099E+04  0.10566000000E+00 0. -1.
          4    1    1    2  501    0  0.27217120803E+03  0.15409623568E+02  0.11749181330E+02  0.27286015876E+03  0.00000000000E+00 0.  1.
</event>
<event>
 5    1  0.4419198E-005  0.3937530E+03  0.7818608E-02  0.9816976E-01
         21   -1    0    0  501  502  0.00000000000E+00  0.00000000000E+00  0.25355210214E+03  0.25355210214E+03  0.00000000000E+00 0.  1.
         -4   -1    0    0    0  501 -0.00000000000E+00 -0.00000000000E+00 -0.15220733702E+04  0.15220733702E+04  0.00000000000E+00 0. -1.
        -13    1    1    2    0    0  0.17328742288E+03 -0.25715466571E+03 -0.87316265439E+02  0.32215088763E+03  0.10566000000E+00 0.  1.
         13    1    1    2    0    0 -0.42502620731E+03 -0.73341712986E+02 -0.61750745831E+03  0.75322092111E+03  0.10566000000E+00 0. -1.
         -4    1    1    2    0  502  0.25173878443E+03  0.33049637870E+03 -0.56369754433E+03  0.70025366361E+03  0.00000000000E+00 0. -1.
</event>
<event>
 5    1  0.4419198E-005  0.6122836E+03  0.7818608E-02  0.9416849E-01
          4   -1    0    0  502    0 -0.00000000000E+00  0.00000000000E+00  0.16913071105E+04  0.16913071105E+04  0.00000000000E+00 0.  1.
         21   -1    0    0  501  502  0.00000000000E+00 -0.00000000000E+00 -0.61736472606E+03  0.61736472606E+03  0.00000000000E+00 0. -1.
        -13    1    1    2    0    0  0.58833988840E+03 -0.23948930505E+03  0.11767012244E+04  0.13372078126E+04  0.10566000000E+00 0.  1.
         13    1    1    2    0    0  0.27490515982E+02  0.33971355707E+03 -0.12655744462E+02  0.34105895144E+03  0.10566000000E+00 0. -1.
          4    1    1    2  501    0 -0.61583040438E+03 -0.10022425202E+03 -0.90103095456E+02  0.63040507252E+03  0.00000000000E+00 0.  1.
</event>
<event>
 5    1  0.4419198E-005  0.4515617E+03  0.7818608E-02  0.9590969E-01
          4   -1    0    0  502    0 -0.00000000000E+00  0.00000000000E+00  0.98189079422E+02  0.98189079422E+02  0.00000000000E+00 0.  1.
         21   -1    0    0  501  502  0.00000000000E+00 -0.00000000000E+00 -0.23981459210E+04  0.23981459210E+04  0.00000000000E+00 0. -1.
        -13    1    1    2    0    0  0.23596690486E+03  0.40712529127E+03 -0.99902597714E+03  0.11043026293E+04  0.10566000000E+00 0.  1.
         13    1    1    2    0    0 -0.24653394655E+03 -0.35544159711E+03 -0.10499444472E+04  0.11355620058E+04  0.10566000000E+00 0. -1.
          4    1    1    2  501    0  0.10567041692E+02 -0.51683694160E+02 -0.25098641725E+03  0.25647036526E+03  0.00000000000E+00 0.  1.
</event>
<event>
 5    1  0.4419198E-005  0.8613456E+03  0.7818608E-02  0.8917067E-01
         21   -1    0    0  501  502  0.00000000000E+00  0.00000000000E+00  0.41427771681E+03  0.41427771681E+03  0.00000000000E+00 0.  1.
          4   -1    0    0  502    0 -0.00000000000E+00 -0.00000000000E+00 -0.27579228826E+04  0.27579228826E+04  0.00000000000E+00 0.  1.
        -13    1    1    2    0    0  0.26614485842E+03 -0.82232798662E+03 -0.15664669773E+04  0.17890989926E+04  0.10566000000E+00 0.  1.
         13    1    1    2    0    0 -0.19756434644E+03  0.83540328893E+03 -0.89878566310E+03  0.12428781137E+04  0.10566000000E+00 0. -1.
          4    1    1    2  501    0 -0.68580511977E+02 -0.13075302313E+02  0.12160747457E+03  0.14022349313E+03  0.00000000000E+00 0.  1.
</event>
<event>
 5    1  0.4419198E-005  0.3522536E+03  0.7818608E-02  0.1044242E+00
         21   -1    0    0  501  502  0.00000000000E+00  0.00000000000E+00  0.11438123975E+04  0.11438123975E+04  0.00000000000E+00 0. -1.
         -4   -1    0    0    0  501 -0.00000000000E+00 -0.00000000000E+00 -0.50576172276E+03  0.50576172276E+03  0.00000000000E+00 0. -1.
        -13    1    1    2    0    0 -0.57194796508E+02  0.12815524762E+02 -0.28797294986E+03  0.29387737824E+03  0.10566000000E+00 0.  1.
         13    1    1    2    0    0  0.16015869363E+03 -0.34504239775E+03  0.15180829911E+02  0.38070399545E+03  0.10566000000E+00 0. -1.
         -4    1    1    2    0  502 -0.10296389712E+03  0.33222687299E+03  0.91084279471E+03  0.97499274660E+03  0.00000000000E+00 0. -1.
</event>
<event>
 5    1  0.4419198E-005  0.3383642E+03  0.7818608E-02  0.1025843E+00
          4   -1    0    0  502    0 -0.00000000000E+00  0.00000000000E+00  0.56948975020E+03  0.56948975020E+03  0.00000000000E+00 0.  1.
         21   -1    0    0  501  502  0.00000000000E+00 -0.00000000000E+00 -0.86407646875E+03  0.86407646875E+03  0.00000000000E+00 0.  1.
        -13    1    1    2    0    0 -0.37867787789E+03 -0.32227214714E+02  0.12858027214E+03  0.40120870643E+03  0.10566000000E+00 0.  1.
         13    1    1    2    0    0  0.52053778032E+02  0.10379514308E+03  0.25281055361E+03  0.27820175182E+03  0.10566000000E+00 0. -1.
          4    1    1    2  501    0  0.32662409986E+03 -0.71567928368E+02 -0.67597754431E+03  0.75415576069E+03  0.00000000000E+00 0.  1.
</event>
<event>
 5    1  0.4419198E-005  0.2668642E+03  0.7818608E-02  0.1022233E+00
         21   -1    0    0  501  502  0.00000000000E+00  0.00000000000E+00  0.27431561447E+03  0.27431561447E+03  0.00000000000E+00 0.  1.
          4   -1    0    0  502    0 -0.00000000000E+00 -0.00000000000E+00 -0.16673431173E+04  0.16673431173E+04  0.00000000000E+00 0.  1.
        -13    1    1    2    0    0  0.13517575770E+03  0.89041392844E+02 -0.93574616720E+03  0.94964296223E+03  0.10566000000E+00 0.  1.
         13    1    1    2    0    0 -0.18913557493E+03  0.18961416496E+03 -0.61251546544E+03  0.66850654733E+03  0.10566000000E+00 0. -1.
          4    1    1    2  501    0  0.53959817225E+02 -0.27865555780E+03  0.15523412985E+03  0.32350922218E+03  0.00000000000E+00 0.  1.
</event>
<event>
 5    1  0.4419198E-005  0.7590226E+02  0.7818608E-02  0.1212041E+00
          4   -1    0    0  502    0 -0.00000000000E+00  0.00000000000E+00  0.38497260735E+03  0.38497260735E+03  0.00000000000E+00 0.  1.
         21   -1    0    0  501  502  0.00000000000E+00 -0.00000000000E+00 -0.20356428568E+03  0.20356428568E+03  0.00000000000E+00 0.  1.
        -13    1    1    2    0    0  0.61645038839E+02  0.75826549447E+02  0.27025100624E+03  0.28737674567E+03  0.10566000000E+00 0.  1.
         13    1    1    2    0    0 -0.88535195961E+01 -0.58542496656E+02  0.93429967567E+02  0.11061093403E+03  0.10566000000E+00 0. -1.
          4    1    1    2  501    0 -0.52791519243E+02 -0.17284052791E+02 -0.18227265214E+03  0.19054921333E+03  0.00000000000E+00 0.  1.
</event>
<event>
 5    1  0.4419198E-005  0.4174921E+03  0.7818608E-02  0.1011532E+00
         21   -1    0    0  501  502  0.00000000000E+00  0.00000000000E+00  0.36383302536E+03  0.36383302536E+03  0.00000000000E+00 0.  1.
          4   -1    0    0  502    0 -0.00000000000E+00 -0.00000000000E+00 -0.11109748061E+04  0.11109748061E+04  0.00000000000E+00 0.  1.
        -13    1    1    2    0    0 -0.37968651033E+03 -0.18066896419E+03 -0.57576433359E+03  0.71295701115E+03  0.10566000000E+00 0.  1.
         13    1    1    2    0    0 -0.29864492681E+02  0.92455180995E+02 -0.30659898377E+03  0.32162524221E+03  0.10566000000E+00 0. -1.
          4    1    1    2  501    0  0.40955100301E+03  0.88213783192E+02  0.13522153665E+03  0.44022557807E+03  0.00000000000E+00 0.  1.
</event>
<event>
 5    1  0.4419198E-005  0.1015937E+03  0.7818608E-02  0.1161945E+00
         21   -1    0    0  501  502  0.00000000000E+00  0.00000000000E+00  0.77392136031E+02  0.77392136031E+02  0.00000000000E+00 0.  1.
         -4   -1    0    0    0  501 -0.00000000000E+00 -0.00000000000E+00 -0.50730388444E+03  0.50730388444E+03  0.00000000000E+00 0. -1.
        -13    1    1    2    0    0  0.63179879123E+02 -0.11603162616E+03 -0.11420116130E+03  0.17463376478E+03  0.10566000000E+00 0.  1.
         13    1    1    2    0    0 -0.62364017028E+02  0.72359290092E+02 -0.34466455363E+03  0.35765738238E+03  0.10566000000E+00 0. -1.
         -4    1    1    2    0  502 -0.81586209552E+00  0.43672336068E+02  0.28953966523E+02  0.52404873304E+02  0.00000000000E+00 0. -1.
</event>
<event>
 5    1  0.4419198E-005  0.2656134E+03  0.7818608E-02  0.1022605E+00
         21   -1    0    0  501  502  0.00000000000E+00  0.00000000000E+00  0.37523769276E+03  0.37523769276E+03  0.00000000000E+00 0.  1.
          4   -1    0    0  502    0 -0.00000000000E+00 -0.00000000000E+00 -0.11064577323E+04  0.11064577323E+04  0.00000000000E+00 0.  1.
        -13    1    1    2    0    0 -0.21894908585E+03 -0.30008585736E+03  0.19010582692E+03  0.41728942063E+03  0.10566000000E+00 0.  1.
         13    1    1    2    0    0  0.42535875792E+02  0.24703449328E+03 -0.20218980515E+03  0.32204979439E+03  0.10566000000E+00 0. -1.
          4    1    1    2  501    0  0.17641321006E+03  0.53051364082E+02 -0.71913606130E+03  0.74235621003E+03  0.00000000000E+00 0.  1.
</event>
<event>
 5    1  0.4419198E-005  0.1253994E+03  0.7818608E-02  0.1128268E+00
         -4   -1    0    0    0  501 -0.00000000000E+00  0.00000000000E+00  0.17239049499E+03  0.17239049499E+03  0.00000000000E+00 0. -1.
         21   -1    0    0  501  502  0.00000000000E+00 -0.00000000000E+00 -0.79706182751E+03  0.79706182751E+03  0.00000000000E+00 0.  1.
        -13    1    1    2    0    0 -0.89898961212E+02 -0.37254125454E+02 -0.57474009276E+03  0.58292013044E+03  0.10566000000E+00 0.  1.
         13    1    1    2    0    0  0.11758221377E+03 -0.50441327401E+02  0.13128443429E+03  0.18331807973E+03  0.10566000000E+00 0. -1.
         -4    1    1    2    0  502 -0.27683252559E+02  0.87695452855E+02 -0.18121567406E+03  0.20321411232E+03  0.00000000000E+00 0. -1.
</event>
<event>
 5    1  0.4419198E-005  0.5840668E+02  0.7818608E-02  0.1260900E+00
         21   -1    0    0  501  502  0.00000000000E+00  0.00000000000E+00  0.11137908272E+03  0.11137908272E+03  0.00000000000E+00 0.  1.
          4   -1    0    0  502    0 -0.00000000000E+00 -0.00000000000E+00 -0.36799985287E+03  0.36799985287E+03  0.00000000000E+00 0.  1.
        -13    1    1    2    0    0 -0.73712327630E+01 -0.58999424034E+02 -0.35475284497E+03  0.35970106934E+03  0.10566000000E+00 0.  1.
         13    1    1    2    0    0  0.12141647078E+02  0.38204677854E+02  0.35624519749E+02  0.53629605397E+02  0.10566000000E+00 0. -1.
          4    1    1    2  501    0 -0.47704143145E+01  0.20794746180E+02  0.62507555070E+02  0.66048260857E+02  0.00000000000E+00 0.  1.
</event>
<event>
 5    1  0.4419198E-005  0.5004788E+03  0.7818608E-02  0.9625610E-01
         21   -1    0    0  501  502  0.00000000000E+00  0.00000000000E+00  0.21402165058E+03  0.21402165058E+03  0.00000000000E+00 0. -1.
         -4   -1    0    0    0  501 -0.00000000000E+00 -0.00000000000E+00 -0.24181694682E+04  0.24181694682E+04  0.00000000000E+00 0. -1.
        -13    1    1    2    0    0  0.26707212085E+03  0.12119150745E+03 -0.98410843184E+03  0.10268808675E+04  0.10566000000E+00 0.  1.
         13    1    1    2    0    0 -0.62814696648E+03  0.33028588610E+02 -0.58681909588E+03  0.86024192040E+03  0.10566000000E+00 0. -1.
         -4    1    1    2    0  502  0.36107484564E+03 -0.15422009606E+03 -0.63322028994E+03  0.74506833094E+03  0.00000000000E+00 0. -1.
</event>
<event>
 5    1  0.4419198E-005  0.4231536E+03  0.7818608E-02  0.9744739E-01
         21   -1    0    0  501  502  0.00000000000E+00  0.00000000000E+00  0.69755268800E+03  0.69755268800E+03  0.00000000000E+00 0. -1.
         -4   -1    0    0    0  501 -0.00000000000E+00 -0.00000000000E+00 -0.68909980762E+03  0.68909980762E+03  0.00000000000E+00 0. -1.
        -13    1    1    2    0    0  0.48363197776E+01 -0.31998764952E+03  0.83740033328E+02  0.33079886665E+03  0.10566000000E+00 0.  1.
         13    1    1    2    0    0 -0.41867313469E+03  0.32882758335E+03 -0.27169389412E+03  0.59768918055E+03  0.10566000000E+00 0. -1.
         -4    1    1    2    0  502  0.41383681491E+03 -0.88399338342E+01  0.19640674117E+03  0.45816444841E+03  0.00000000000E+00 0. -1.
</event>
<event>
 5    1  0.4419198E-005  0.4159935E+03  0.7818608E-02  0.9803271E-01
         21   -1    0    0  501  502  0.00000000000E+00  0.00000000000E+00  0.10769193110E+04  0.10769193110E+04  0.00000000000E+00 0.  1.
          4   -1    0    0  502    0 -0.00000000000E+00 -0.00000000000E+00 -0.40390572358E+03  0.40390572358E+03  0.00000000000E+00 0.  1.
        -13    1    1    2    0    0  0.19848657509E+03 -0.46045011915E+03  0.76290510337E+03  0.91292685393E+03  0.10566000000E+00 0.  1.
         13    1    1    2    0    0  0.89523535829E+01  0.27539215755E+03 -0.90148855336E+02  0.28991000734E+03  0.10566000000E+00 0. -1.
          4    1    1    2  501    0 -0.20743892867E+03  0.18505796160E+03  0.25733938063E+00  0.27798817331E+03  0.00000000000E+00 0.  1.
</event>
<event>
 5    1  0.4419198E-005  0.6509128E+03  0.7818608E-02  0.9197399E-01
          4   -1    0    0  502    0 -0.00000000000E+00  0.00000000000E+00  0.40391805775E+04  0.40391805775E+04  0.00000000000E+00 0.  1.
         21   -1    0    0  501  502  0.00000000000E+00 -0.00000000000E+00 -0.25760526086E+03  0.25760526086E+03  0.00000000000E+00 0. -1.
        -13    1    1    2    0    0 -0.49118099029E+03  0.59812020548E+03  0.11207277454E+04  0.13619975169E+04  0.10566000000E+00 0.  1.
         13    1    1    2    0    0  0.59087584420E+03 -0.22772161895E+03  0.23707434990E+04  0.24538574018E+04  0.10566000000E+00 0. -1.
          4    1    1    2  501    0 -0.99694853911E+02 -0.37039858653E+03  0.29010407213E+03  0.48093091964E+03  0.00000000000E+00 0.  1.
</event>
<event>
 5    1  0.4419198E-005  0.1417637E+03  0.7818608E-02  0.1109531E+00
         21   -1    0    0  501  502  0.00000000000E+00  0.00000000000E+00  0.31301369347E+03  0.31301369347E+03  0.00000000000E+00 0.  1.
         -4   -1    0    0    0  501 -0.00000000000E+00 -0.00000000000E+00 -0.17374308123E+03  0.17374308123E+03  0.00000000000E+00 0. -1.
        -13    1    1    2    0    0 -0.11190232947E+03  0.12546477670E+03  0.99614496714E+02  0.19541392134E+03  0.10566000000E+00 0.  1.
         13    1    1    2    0    0  0.79104952661E+02 -0.10977091502E+03 -0.86140146855E+02  0.16039757911E+03  0.10566000000E+00 0. -1.
         -4    1    1    2    0  502  0.32797376807E+02 -0.15693861681E+02  0.12579626238E+03  0.13094527425E+03  0.00000000000E+00 0. -1.
</event>
<event>
 5    1  0.4419198E-005  0.4887657E+03  0.7818608E-02  0.9507231E-01
         -4   -1    0    0    0  501 -0.00000000000E+00  0.00000000000E+00  0.24304357941E+04  0.24304357941E+04  0.00000000000E+00 0. -1.
         21   -1    0    0  501  502  0.00000000000E+00 -0.00000000000E+00 -0.50325904901E+03  0.50325904901E+03  0.00000000000E+00 0. -1.
        -13    1    1    2    0    0  0.99085769481E+02  0.48251694441E+03  0.17604003000E+04  0.18280180029E+04  0.10566000000E+00 0.  1.
         13    1    1    2    0    0  0.41535951937E+03 -0.14905814153E+03  0.21467888775E+03  0.49074320769E+03  0.10566000000E+00 0. -1.
         -4    1    1    2    0  502 -0.51444528885E+03 -0.33345880287E+03 -0.47902442665E+02  0.61493363256E+03  0.00000000000E+00 0. -1.
</event>
<event>
 5    1  0.4419198E-005  0.3182770E+03  0.7818608E-02  0.1013641E+00
          4   -1    0    0  502    0 -0.00000000000E+00  0.00000000000E+00  0.21733792856E+04  0.21733792856E+04  0.00000000000E+00 0.  1.
         21   -1    0    0  501  502  0.00000000000E+00 -0.00000000000E+00 -0.24348289195E+03  0.24348289195E+03  0.00000000000E+00 0.  1.
        -13    1    1    2    0    0 -0.30266243357E+03  0.12845573817E+03 -0.84829966355E+02  0.33956083360E+03  0.10566000000E+00 0.  1.
         13    1    1    2    0    0  0.20947976942E+02 -0.20391862904E+03  0.10342132758E+04  0.10543333135E+04  0.10566000000E+00 0. -1.
          4    1    1    2  501    0  0.28171445663E+03  0.75462890865E+02  0.98051308423E+03  0.10229680305E+04  0.00000000000E+00 0.  1.
</event>
<event>
 5    1  0.4419198E-005  0.8734603E+02  0.7818608E-02  0.1187381E+00
         21   -1    0    0  501  502  0.00000000000E+00  0.00000000000E+00  0.30367471076E+03  0.30367471076E+03  0.00000000000E+00 0.  1.
          4   -1    0    0  502    0 -0.00000000000E+00 -0.00000000000E+00 -0.11280972533E+03  0.11280972533E+03  0.00000000000E+00 0.  1.
        -13    1    1    2    0    0 -0.89140767465E+02 -0.23795380913E+02 -0.84319603256E+02  0.12498841240E+03  0.10566000000E+00 0.  1.
         13    1    1    2    0    0  0.54967228121E+02  0.72114329077E+01  0.12801804276E+03  0.13950638469E+03  0.10566000000E+00 0. -1.
          4    1    1    2  501    0  0.34173539344E+02  0.16583948005E+02  0.14716654592E+03  0.15198963899E+03  0.00000000000E+00 0.  1.
</event>
<event>
 5    1  0.4419198E-005  0.4994274E+03  0.7818608E-02  0.9592191E-01
         21   -1    0    0  501  502  0.00000000000E+00  0.00000000000E+00  0.39993613759E+03  0.39993613759E+03  0.00000000000E+00 0. -1.
          4   -1    0    0  502    0 -0.00000000000E+00 -0.00000000000E+00 -0.13193354149E+04  0.13193354149E+04  0.00000000000E+00 0.  1.
        -13    1    1    2    0    0 -0.22487046368E+02 -0.45425169918E+03 -0.41443403878E+03  0.61530956203E+03  0.10566000000E+00 0.  1.
         13    1    1    2    0    0 -0.33071104561E+03 -0.32676615145E+02 -0.22925054109E+02  0.33311128191E+03  0.10566000000E+00 0. -1.
          4    1    1    2  501    0  0.35319809198E+03  0.48692831433E+03 -0.48204018446E+03  0.77085070857E+03  0.00000000000E+00 0.  1.
</event>
<event>
 5    1  0.4419198E-005  0.1641790E+03  0.7818608E-02  0.1087912E+00
         21   -1    0    0  501  502  0.00000000000E+00  0.00000000000E+00  0.79904676076E+02  0.79904676076E+02  0.00000000000E+00 0. -1.
          4   -1    0    0  502    0 -0.00000000000E+00 -0.00000000000E+00 -0.73866619801E+03  0.73866619801E+03  0.00000000000E+00 0.  1.
        -13    1    1    2    0    0  0.17621327699E+03  0.71243715497E+01 -0.54531617692E+03  0.57312443643E+03  0.10566000000E+00 0.  1.
         13    1    1    2    0    0 -0.13580551787E+03  0.36788143609E+02 -0.12064054882E+03  0.18533930877E+03  0.10566000000E+00 0. -1.
          4    1    1    2  501    0 -0.40407759126E+02 -0.43912515158E+02  0.71952038008E+01  0.60107128885E+02  0.00000000000E+00 0.  1.
</event>
<event>
 5    1  0.4419198E-005  0.3280006E+03  0.7818608E-02  0.9963746E-01
         -4   -1    0    0    0  501 -0.00000000000E+00  0.00000000000E+00  0.15352789801E+04  0.15352789801E+04  0.00000000000E+00 0. -1.
         21   -1    0    0  501  502  0.00000000000E+00 -0.00000000000E+00 -0.16831676688E+03  0.16831676688E+03  0.00000000000E+00 0. -1.
        -13    1    1    2    0    0 -0.32713867279E+03 -0.13135468130E+03  0.11352932109E+04  0.11887659355E+04  0.10566000000E+00 0.  1.
         13    1    1    2    0    0  0.19836594094E+03  0.20412481424E+03  0.23154431735E+03  0.36691793139E+03  0.10566000000E+00 0. -1.
         -4    1    1    2    0  502  0.12877273185E+03 -0.72770132935E+02  0.12468494108E+00  0.14791188005E+03  0.00000000000E+00 0. -1.
</event>
<event>
 5    1  0.4419198E-005  0.2745916E+02  0.7818608E-02  0.1426550E+00
         21   -1    0    0  501  502  0.00000000000E+00  0.00000000000E+00  0.73960961051E+02  0.73960961051E+02  0.00000000000E+00 0. -1.
          4   -1    0    0  502    0 -0.00000000000E+00 -0.00000000000E+00 -0.46633309928E+02  0.46633309928E+02  0.00000000000E+00 0.  1.
        -13    1    1    2    0    0  0.20943783666E+02 -0.19287303011E+02 -0.37355258908E+02  0.46968805220E+02  0.10566000000E+00 0.  1.
         13    1    1    2    0    0 -0.84123715029E+01  0.20008180462E+02  0.32500538206E+02  0.39081855476E+02  0.10566000000E+00 0. -1.
          4    1    1    2  501    0 -0.12531412164E+02 -0.72087745059E+00  0.32182371824E+02  0.34543610282E+02  0.00000000000E+00 0.  1.
</event>
<event>
 5    1  0.4419198E-005  0.1848716E+03  0.7818608E-02  0.1071033E+00
         21   -1    0    0  501  502  0.00000000000E+00  0.00000000000E+00  0.10918658418E+03  0.10918658418E+03  0.00000000000E+00 0.  1.
         -4   -1    0    0    0  501 -0.00000000000E+00 -0.00000000000E+00 -0.41282329179E+03  0.41282329179E+03  0.00000000000E+00 0. -1.
        -13    1    1    2    0    0  0.16637014879E+03  0.69272923416E+02 -0.16880903192E+03  0.24692967572E+03  0.10566000000E+00 0.  1.
         13    1    1    2    0    0 -0.17347363404E+03 -0.77997091521E+02 -0.15933009184E+03  0.24811839376E+03  0.10566000000E+00 0. -1.
         -4    1    1    2    0  502  0.71034852498E+01  0.87241681052E+01  0.24502416150E+02  0.26961806487E+02  0.00000000000E+00 0. -1.
</event>
<event>
 5    1  0.4419198E-005  0.4965750E+03  0.7818608E-02  0.1029963E+00
         21   -1    0    0  501  502  0.00000000000E+00  0.00000000000E+00  0.16926359226E+04  0.16926359226E+04  0.00000000000E+00 0.  1.
          4   -1    0    0  502    0 -0.00000000000E+00 -0.00000000000E+00 -0.22237155961E+03  0.22237155961E+03  0.00000000000E+00 0.  1.
        -13    1    1    2    0    0 -0.42785078707E+03 -0.22959264896E+03  0.74004674952E+03  0.88512049072E+03  0.10566000000E+00 0.  1.
         13    1    1    2    0    0 -0.30543921720E+02  0.10587012485E+02 -0.72804484360E+02  0.79658772865E+02  0.10566000000E+00 0. -1.
          4    1    1    2  501    0  0.45839470879E+03  0.21900563648E+03  0.80302209780E+03  0.95022821859E+03  0.00000000000E+00 0.  1.
</event>
<event>
 5    1  0.4419198E-005  0.3400992E+03  0.7818608E-02  0.9920063E-01
          4   -1    0    0  502    0 -0.00000000000E+00  0.00000000000E+00  0.15827300878E+04  0.15827300878E+04  0.00000000000E+00 0.  1.
         21   -1    0    0  501  502  0.00000000000E+00 -0.00000000000E+00 -0.29520133367E+03  0.29520133367E+03  0.00000000000E+00 0.  1.
        -13    1    1    2    0    0 -0.39079256801E+03 -0.20410966651E+03  0.99317889712E+03  0.10866388176E+04  0.10566000000E+00 0.  1.
         13    1    1    2    0    0  0.27633412415E+03 -0.32318268894E+02  0.41707993816E+03  0.50135885816E+03  0.10566000000E+00 0. -1.
          4    1    1    2  501    0  0.11445844387E+03  0.23642793541E+03 -0.12273008120E+03  0.28993374562E+03  0.00000000000E+00 0.  1.
</event>
<event>
 5    1  0.4419198E-005  0.3143474E+03  0.7818608E-02  0.1005125E+00
         21   -1    0    0  501  502  0.00000000000E+00  0.00000000000E+00  0.57459369386E+03  0.57459369386E+03  0.00000000000E+00 0. -1.
         -4   -1    0    0    0  501 -0.00000000000E+00 -0.00000000000E+00 -0.13902767716E+04  0.13902767716E+04  0.00000000000E+00 0. -1.
        -13    1    1    2    0    0 -0.23385746543E+03  0.15369324310E+03 -0.87703921153E+03  0.92060236630E+03  0.10566000000E+00 0.  1.
         13    1    1    2    0    0  0.19072239287E+03 -0.45063570470E+03 -0.30046228970E+03  0.57421700445E+03  0.10566000000E+00 0. -1.
         -4    1    1    2    0  502  0.43135072561E+02  0.29694246160E+03  0.36181842354E+03  0.47005109467E+03  0.00000000000E+00 0. -1.
</event>
<event>
 5    1  0.4419198E-005  0.2260520E+03  0.7818608E-02  0.1043608E+00
         21   -1    0    0  501  502  0.00000000000E+00  0.00000000000E+00  0.60255404581E+02  0.60255404581E+02  0.00000000000E+00 0.  1.
         -4   -1    0    0    0  501 -0.00000000000E+00 -0.00000000000E+00 -0.20762126400E+04  0.20762126400E+04  0.00000000000E+00 0. -1.
        -13    1    1    2    0    0 -0.27407153608E+03  0.49252681032E+02 -0.66629315138E+03  0.72214098916E+03  0.10566000000E+00 0.  1.
         13    1    1    2    0    0  0.16664308787E+03 -0.13765897913E+03 -0.11550291816E+04  0.11750797142E+04  0.10566000000E+00 0. -1.
         -4    1    1    2    0  502  0.10742844820E+03  0.88406298093E+02 -0.19463490246E+03  0.23924734122E+03  0.00000000000E+00 0. -1.
</event>
<event>
 5    1  0.4419198E-005  0.3719204E+03  0.7818608E-02  0.1007418E+00
         -4   -1    0    0    0  501 -0.00000000000E+00  0.00000000000E+00  0.11248165644E+04  0.11248165644E+04  0.00000000000E+00 0. -1.
         21   -1    0    0  501  502  0.00000000000E+00 -0.00000000000E+00 -0.36822913493E+03  0.36822913493E+03  0.00000000000E+00 0. -1.
        -13    1    1    2    0    0  0.15136945618E+03  0.41209431363E+02  0.34214729750E+03  0.37639834465E+03  0.10566000000E+00 0.  1.
         13    1    1    2    0    0 -0.95519118839E+02  0.35847423807E+03 -0.16865270890E+03  0.40751862388E+03  0.10566000000E+00 0. -1.
         -4    1    1    2    0  502 -0.55850337344E+02 -0.39968366943E+03  0.58309284090E+03  0.70912873084E+03  0.00000000000E+00 0. -1.
</event>
<event>
 5    1  0.4419198E-005  0.4359585E+03  0.7818608E-02  0.9630600E-01
         -4   -1    0    0    0  501 -0.00000000000E+00  0.00000000000E+00  0.93231502649E+03  0.93231502649E+03  0.00000000000E+00 0. -1.
         21   -1    0    0  501  502  0.00000000000E+00 -0.00000000000E+00 -0.54837763624E+03  0.54837763624E+03  0.00000000000E+00 0. -1.
        -13    1    1    2    0    0 -0.26340174845E+03  0.35655596201E+03  0.21718123512E+03  0.49363988412E+03  0.10566000000E+00 0.  1.
         13    1    1    2    0    0  0.26340399765E+03 -0.34203012985E+03  0.49596055397E+03  0.65752806630E+03  0.10566000000E+00 0. -1.
         -4    1    1    2    0  502 -0.22492007738E-02 -0.14525832160E+02 -0.32920439885E+03  0.32952471232E+03  0.00000000000E+00 0. -1.
</event>
<event>
 5    1  0.4419198E-005  0.4538024E+03  0.7818608E-02  0.9585416E-01
         21   -1    0    0  501  502  0.00000000000E+00  0.00000000000E+00  0.11044622274E+04  0.11044622274E+04  0.00000000000E+00 0.  1.
          4   -1    0    0  502    0 -0.00000000000E+00 -0.00000000000E+00 -0.54962937623E+03  0.54962937623E+03  0.00000000000E+00 0.  1.
        -13    1    1    2    0    0 -0.23034749999E+02 -0.52117099072E+03  0.63267480168E+03  0.82001659564E+03  0.10566000000E+00 0.  1.
         13    1    1    2    0    0 -0.23987285858E+03  0.38313077795E+03  0.13149037107E+03  0.47076311468E+03  0.10566000000E+00 0. -1.
          4    1    1    2  501    0  0.26290760858E+03  0.13804021277E+03 -0.20933232157E+03  0.36331189334E+03  0.00000000000E+00 0.  1.
</event>
<event>
 5    1  0.4419198E-005  0.8182498E+03  0.7818608E-02  0.8967140E-01
          4   -1    0    0  502    0 -0.00000000000E+00  0.00000000000E+00  0.30393056501E+04  0.30393056501E+04  0.00000000000E+00 0.  1.
         21   -1    0    0  501  502  0.00000000000E+00 -0.00000000000E+00 -0.33990712863E+03  0.33990712863E+03  0.00000000000E+00 0. -1.
        -13    1    1    2    0    0 -0.81668926242E+03 -0.36820198304E+03  0.16978744411E+04  0.19197217717E+04  0.10566000000E+00 0.  1.
         13    1    1    2    0    0  0.52882834179E+03  0.51456207869E+03  0.72308411810E+03  0.10330944782E+04  0.10566000000E+00 0. -1.
          4    1    1    2  501    0  0.28786092063E+03 -0.14636009565E+03  0.27843996219E+03  0.42639652880E+03  0.00000000000E+00 0.  1.
</event>
<event>
 5    1  0.4419198E-005  0.3351361E+02  0.7818608E-02  0.1378732E+00
         21   -1    0    0  501  502  0.00000000000E+00  0.00000000000E+00  0.82843074223E+02  0.82843074223E+02  0.00000000000E+00 0.  1.
          4   -1    0    0  502    0 -0.00000000000E+00 -0.00000000000E+00 -0.10204456919E+03  0.10204456919E+03  0.00000000000E+00 0.  1.
        -13    1    1    2    0    0 -0.28840051431E+02 -0.19462826072E+02 -0.91470565316E+02  0.97864322654E+02  0.10566000000E+00 0.  1.
         13    1    1    2    0    0  0.22195069789E+02  0.11009790684E+02  0.15455764535E+02  0.29201514262E+02  0.10566000000E+00 0. -1.
          4    1    1    2  501    0  0.66449816425E+01  0.84530353875E+01  0.56813305818E+02  0.57821806494E+02  0.00000000000E+00 0.  1.
</event>
<event>
 5    1  0.4419198E-005  0.4783551E+03  0.7818608E-02  0.9686129E-01
          4   -1    0    0  502    0 -0.00000000000E+00  0.00000000000E+00  0.10033383565E+04  0.10033383565E+04  0.00000000000E+00 0.  1.
         21   -1    0    0  501  502  0.00000000000E+00 -0.00000000000E+00 -0.44343022955E+03  0.44343022955E+03  0.00000000000E+00 0.  1.
        -13    1    1    2    0    0 -0.49326938681E+03 -0.51319503921E+02  0.10536494185E+03  0.50700114555E+03  0.10566000000E+00 0.  1.
         13    1    1    2    0    0  0.10167444996E+03 -0.25176405176E+03  0.59199281795E+01  0.27158403533E+03  0.10566000000E+00 0. -1.
          4    1    1    2  501    0  0.39159493686E+03  0.30308355569E+03  0.44862325691E+03  0.66818340517E+03  0.00000000000E+00 0.  1.
</event>
<event>
 5    1  0.4419198E-005  0.7076104E+02  0.7818608E-02  0.1224744E+00
         -4   -1    0    0    0  501 -0.00000000000E+00  0.00000000000E+00  0.29951978375E+03  0.29951978375E+03  0.00000000000E+00 0. -1.
         21   -1    0    0  501  502  0.00000000000E+00 -0.00000000000E+00 -0.60271349559E+02  0.60271349559E+02  0.00000000000E+00 0.  1.
        -13    1    1    2    0    0 -0.30913694563E+02 -0.54067840738E+02  0.47483303302E+02  0.78317706619E+02  0.10566000000E+00 0.  1.
         13    1    1    2    0    0  0.43950289498E+02  0.59643390586E+02  0.22950021248E+03  0.24116243629E+03  0.10566000000E+00 0. -1.
         -4    1    1    2    0  502 -0.13036594936E+02 -0.55755498485E+01 -0.37735081592E+02  0.40310990392E+02  0.00000000000E+00 0. -1.
</event>
<event>
 5    1  0.4419198E-005  0.3400792E+02  0.7818608E-02  0.1411125E+00
         -4   -1    0    0    0  501 -0.00000000000E+00  0.00000000000E+00  0.87331081026E+01  0.87331081026E+01  0.00000000000E+00 0. -1.
         21   -1    0    0  501  502  0.00000000000E+00 -0.00000000000E+00 -0.31543984234E+03  0.31543984234E+03  0.00000000000E+00 0. -1.
        -13    1    1    2    0    0 -0.12738964194E+02 -0.13528942814E+02 -0.25592373671E+02  0.31627428864E+02  0.10566000000E+00 0.  1.
         13    1    1    2    0    0 -0.30602225049E+02 -0.80645895720E+00 -0.16430678878E+03  0.16713431293E+03  0.10566000000E+00 0. -1.
         -4    1    1    2    0  502  0.43341189244E+02  0.14335401771E+02 -0.11680757178E+03  0.12541120865E+03  0.00000000000E+00 0. -1.
</event>
<event>
 5    1  0.4419198E-005  0.2417922E+03  0.7818608E-02  0.1034736E+00
         -4   -1    0    0    0  501 -0.00000000000E+00  0.00000000000E+00  0.15560404323E+04  0.15560404323E+04  0.00000000000E+00 0. -1.
         21   -1    0    0  501  502  0.00000000000E+00 -0.00000000000E+00 -0.51695711849E+02  0.51695711849E+02  0.00000000000E+00 0. -1.
        -13    1    1    2    0    0 -0.41447766072E+02  0.19638045988E+03  0.35019033627E+03  0.40362914305E+03  0.10566000000E+00 0.  1.
         13    1    1    2    0    0  0.63666591907E+02 -0.26414556864E+03  0.93038834915E+03  0.96925167410E+03  0.10566000000E+00 0. -1.
         -4    1    1    2    0  502 -0.22218825835E+02  0.67765108764E+02  0.22376603506E+03  0.23485532703E+03  0.00000000000E+00 0. -1.
</event>
<event>
 5    1  0.4419198E-005  0.3920216E+03  0.7818608E-02  0.9752374E-01
         -4   -1    0    0    0  501 -0.00000000000E+00  0.00000000000E+00  0.24958026772E+04  0.24958026772E+04  0.00000000000E+00 0. -1.
         21   -1    0    0  501  502  0.00000000000E+00 -0.00000000000E+00 -0.98943683724E+02  0.98943683724E+02  0.00000000000E+00 0.  1.
        -13    1    1    2    0    0 -0.18649774007E+03  0.34991417691E+03  0.18360398153E+04  0.18783672571E+04  0.10566000000E+00 0.  1.
         13    1    1    2    0    0  0.13210665242E+03 -0.35804049757E+03  0.53071280550E+03  0.65368284251E+03  0.10566000000E+00 0. -1.
         -4    1    1    2    0  502  0.54391087647E+02  0.81263206572E+01  0.30106372748E+02  0.62696261315E+02  0.00000000000E+00 0. -1.
</event>
<event>
 5    1  0.4419198E-005  0.4727204E+03  0.7818608E-02  0.9539855E-01
         21   -1    0    0  501  502  0.00000000000E+00  0.00000000000E+00  0.13996203020E+04  0.13996203020E+04  0.00000000000E+00 0. -1.
          4   -1    0    0  502    0 -0.00000000000E+00 -0.00000000000E+00 -0.25579744879E+03  0.25579744879E+03  0.00000000000E+00 0.  1.
        -13    1    1    2    0    0 -0.11049564376E+03  0.44134669851E+03  0.15017687690E+03  0.47911303582E+03  0.10566000000E+00 0.  1.
         13    1    1    2    0    0  0.54579197056E+02 -0.52080938230E+03  0.75685453479E+03  0.92035324710E+03  0.10566000000E+00 0. -1.
          4    1    1    2  501    0  0.55916446706E+02  0.79462683794E+02  0.23679144149E+03  0.25595146784E+03  0.00000000000E+00 0.  1.
</event>
<event>
 5    1  0.4419198E-005  0.7892785E+02  0.7818608E-02  0.1211225E+00
         -4   -1    0    0    0  501 -0.00000000000E+00  0.00000000000E+00  0.10926443432E+03  0.10926443432E+03  0.00000000000E+00 0. -1.
         21   -1    0    0  501  502  0.00000000000E+00 -0.00000000000E+00 -0.68622306830E+03  0.68622306830E+03  0.00000000000E+00 0. -1.
        -13    1    1    2    0    0  0.90924415293E+02  0.14076738947E+02 -0.19611413814E+03  0.21662449127E+03  0.10566000000E+00 0.  1.
         13    1    1    2    0    0 -0.29207585936E+02 -0.63276721878E+02  0.82984075759E+02  0.10836694423E+03  0.10566000000E+00 0. -1.
         -4    1    1    2    0  502 -0.61716829358E+02  0.49199982931E+02 -0.46382857160E+03  0.47049606712E+03  0.00000000000E+00 0. -1.
</event>
<event>
 5    1  0.4419198E-005  0.9223946E+02  0.7818608E-02  0.1178076E+00
         21   -1    0    0  501  502  0.00000000000E+00  0.00000000000E+00  0.13240775400E+02  0.13240775400E+02  0.00000000000E+00 0. -1.
          4   -1    0    0  502    0 -0.00000000000E+00 -0.00000000000E+00 -0.81590657705E+03  0.81590657705E+03  0.00000000000E+00 0.  1.
        -13    1    1    2    0    0 -0.64938706414E+02  0.74128346760E+02 -0.51190805485E+03  0.52130788903E+03  0.10566000000E+00 0.  1.
         13    1    1    2    0    0  0.49947994645E+02 -0.65345116848E+02 -0.21703152599E+03  0.23209368993E+03  0.10566000000E+00 0. -1.
          4    1    1    2  501    0  0.14990711769E+02 -0.87832299120E+01 -0.73726220808E+02  0.75745773491E+02  0.00000000000E+00 0.  1.
</event>
<event>
 5    1  0.4419198E-005  0.1254190E+03  0.7818608E-02  0.1128244E+00
          4   -1    0    0  502    0 -0.00000000000E+00  0.00000000000E+00  0.28938288552E+03  0.28938288552E+03  0.00000000000E+00 0.  1.
         21   -1    0    0  501  502  0.00000000000E+00 -0.00000000000E+00 -0.88718684916E+02  0.88718684916E+02  0.00000000000E+00 0.  1.
        -13    1    1    2    0    0  0.13917162389E+03 -0.10419658784E+02  0.75204134899E+02  0.15853385524E+03  0.10566000000E+00 0.  1.
         13    1    1    2    0    0 -0.11842140646E+03 -0.58391429729E+01  0.14459735214E+03  0.18699232741E+03  0.10566000000E+00 0. -1.
          4    1    1    2  501    0 -0.20750217431E+02  0.16258801757E+02 -0.19137286434E+02  0.32575387796E+02  0.00000000000E+00 0.  1.
</event>
<event>
 5    1  0.4419198E-005  0.4289563E+03  0.7818608E-02  0.1015587E+00
         21   -1    0    0  501  502  0.00000000000E+00  0.00000000000E+00  0.15637220460E+04  0.15637220460E+04  0.00000000000E+00 0.  1.
          4   -1    0    0  502    0 -0.00000000000E+00 -0.00000000000E+00 -0.18508417144E+03  0.18508417144E+03  0.00000000000E+00 0.  1.
        -13    1    1    2    0    0  0.22009025317E+03 -0.35667282975E+03  0.20916725335E+03  0.46840813193E+03  0.10566000000E+00 0.  1.
         13    1    1    2    0    0 -0.62627871931E+02 -0.47662472089E+02  0.10775136249E+03  0.13343286278E+03  0.10566000000E+00 0. -1.
          4    1    1    2  501    0 -0.15746238124E+03  0.40433530183E+03  0.10617192587E+04  0.11469652227E+04  0.00000000000E+00 0.  1.
</event>
<event>
 5    1  0.4419198E-005  0.4692709E+03  0.7818608E-02  0.9896115E-01
         -4   -1    0    0    0  501 -0.00000000000E+00  0.00000000000E+00  0.50078308288E+03  0.50078308288E+03  0.00000000000E+00 0. -1.
         21   -1    0    0  501  502  0.00000000000E+00 -0.00000000000E+00 -0.73212396992E+03  0.73212396992E+03  0.00000000000E+00 0. -1.
        -13    1    1    2    0    0 -0.74198908309E+02 -0.11900927745E+03  0.89638620032E+02  0.16644452372E+03  0.10566000000E+00 0.  1.
         13    1    1    2    0    0 -0.44172331369E+03 -0.22626591659E+02 -0.29334634683E+03  0.53073867286E+03  0.10566000000E+00 0. -1.
         -4    1    1    2    0  502  0.51592222200E+03  0.14163586910E+03 -0.27633160249E+02  0.53572385621E+03  0.00000000000E+00 0. -1.
</event>
<event>
 5    1  0.4419198E-005  0.2117640E+03  0.7818608E-02  0.1052357E+00
         21   -1    0    0  501  502  0.00000000000E+00  0.00000000000E+00  0.41201927498E+02  0.41201927498E+02  0.00000000000E+00 0.  1.
         -4   -1    0    0    0  501 -0.00000000000E+00 -0.00000000000E+00 -0.15985419571E+04  0.15985419571E+04  0.00000000000E+00 0. -1.
        -13    1    1    2    0    0 -0.84467475223E+01  0.18468514752E+03 -0.42950214116E+03  0.46760245046E+03  0.10566000000E+00 0.  1.
         13    1    1    2    0    0  0.77435992245E+02 -0.22396377331E+03 -0.90781523416E+03  0.93823484010E+03  0.10566000000E+00 0. -1.
         -4    1    1    2    0  502 -0.68989244723E+02  0.39278625791E+02 -0.22002265426E+03  0.23390659400E+03  0.00000000000E+00 0. -1.
</event>
<event>
 5    1  0.4419198E-005  0.2637598E+03  0.7818608E-02  0.1023499E+00
         21   -1    0    0  501  502  0.00000000000E+00  0.00000000000E+00  0.33343310545E+03  0.33343310545E+03  0.00000000000E+00 0.  1.
         -4   -1    0    0    0  501 -0.00000000000E+00 -0.00000000000E+00 -0.28832849316E+03  0.28832849316E+03  0.00000000000E+00 0. -1.
        -13    1    1    2    0    0  0.18279376698E+03 -0.19644825609E+03  0.76392394988E+02  0.27900051567E+03  0.10566000000E+00 0.  1.
         13    1    1    2    0    0 -0.18720167723E+03  0.18258685620E+03 -0.94382343984E+02  0.27801162931E+03  0.10566000000E+00 0. -1.
         -4    1    1    2    0  502  0.44079102445E+01  0.13861399888E+02  0.63094561292E+02  0.64749453621E+02  0.00000000000E+00 0. -1.
</event>
<event>
 5    1  0.4419198E-005  0.1089112E+03  0.7818608E-02  0.1150598E+00
         21   -1    0    0  501  502  0.00000000000E+00  0.00000000000E+00  0.43777094708E+03  0.43777094708E+03  0.00000000000E+00 0.  1.
         -4   -1    0    0    0  501 -0.00000000000E+00 -0.00000000000E+00 -0.68386673361E+02  0.68386673361E+02  0.00000000000E+00 0. -1.
        -13    1    1    2    0    0  0.19718116447E+02 -0.11079716135E+03  0.24529147402E+03  0.26987540361E+03  0.10566000000E+00 0.  1.
         13    1    1    2    0    0 -0.73930947609E+02  0.83274281078E+02  0.16325686106E+02  0.11254745708E+03  0.10566000000E+00 0. -1.
         -4    1    1    2    0  502  0.54212831162E+02  0.27522880270E+02  0.10776711359E+03  0.12373475976E+03  0.00000000000E+00 0. -1.
</event>
<event>
 5    1  0.4419198E-005  0.4959294E+03  0.7818608E-02  0.9895169E-01
         -4   -1    0    0    0  501 -0.00000000000E+00  0.00000000000E+00  0.77364218788E+03  0.77364218788E+03  0.00000000000E+00 0. -1.
         21   -1    0    0  501  502  0.00000000000E+00 -0.00000000000E+00 -0.42045028722E+03  0.42045028722E+03  0.00000000000E+00 0. -1.
        -13    1    1    2    0    0  0.15579312048E+02 -0.11817741881E+03  0.11483947645E+03  0.16551958735E+03  0.10566000000E+00 0.  1.
         13    1    1    2    0    0 -0.46186380795E+03 -0.13797485913E+03  0.16106554709E+03  0.50822963360E+03  0.10566000000E+00 0. -1.
         -4    1    1    2    0  502  0.44628449590E+03  0.25615227793E+03  0.77286877115E+02  0.52034325416E+03  0.00000000000E+00 0. -1.
</event>
<event>
 5    1  0.4419198E-005  0.7022075E+02  0.7818608E-02  0.1226149E+00
          4   -1    0    0  502    0 -0.00000000000E+00  0.00000000000E+00  0.21270699104E+03  0.21270699104E+03  0.00000000000E+00 0.  1.
         21   -1    0    0  501  502  0.00000000000E+00 -0.00000000000E+00 -0.51078638892E+02  0.51078638892E+02  0.00000000000E+00 0.  1.
        -13    1    1    2    0    0 -0.64495220531E+02  0.12408845574E+02  0.11100594854E+03  0.12898040431E+03  0.10566000000E+00 0.  1.
         13    1    1    2    0    0  0.79265632376E+02 -0.53974736728E+01  0.72456884192E+02  0.10752759845E+03  0.10566000000E+00 0. -1.
          4    1    1    2  501    0 -0.14770411845E+02 -0.70113719008E+01 -0.21834480582E+02  0.27277627174E+02  0.00000000000E+00 0.  1.
</event>
<event>
 5    1  0.4419198E-005  0.4879942E+03  0.7818608E-02  0.9959035E-01
         21   -1    0    0  501  502  0.00000000000E+00  0.00000000000E+00  0.45278448599E+03  0.45278448599E+03  0.00000000000E+00 0. -1.
         -4   -1    0    0    0  501 -0.00000000000E+00 -0.00000000000E+00 -0.93018147290E+03  0.93018147290E+03  0.00000000000E+00 0. -1.
        -13    1    1    2    0    0  0.32690459442E+02 -0.95733344540E+02 -0.33981375389E+03  0.35455174219E+03  0.10566000000E+00 0.  1.
         13    1    1    2    0    0 -0.38225274179E+03  0.38871357846E+03 -0.17025509577E+03  0.57114115023E+03  0.10566000000E+00 0. -1.
         -4    1    1    2    0  502  0.34956228234E+03 -0.29298023392E+03  0.32671862745E+02  0.45727306647E+03  0.00000000000E+00 0. -1.
</event>
<event>
 5    1  0.4419198E-005  0.1650702E+03  0.7818608E-02  0.1087131E+00
         -4   -1    0    0    0  501 -0.00000000000E+00  0.00000000000E+00  0.15006237083E+03  0.15006237083E+03  0.00000000000E+00 0. -1.
         21   -1    0    0  501  502  0.00000000000E+00 -0.00000000000E+00 -0.25289573190E+03  0.25289573190E+03  0.00000000000E+00 0.  1.
        -13    1    1    2    0    0 -0.26726073320E+02  0.14528966772E+03 -0.13630505110E+03  0.20100360360E+03  0.10566000000E+00 0.  1.
         13    1    1    2    0    0  0.35020479318E+02 -0.16853699010E+03  0.39358949765E+02  0.17657941300E+03  0.10566000000E+00 0. -1.
         -4    1    1    2    0  502 -0.82944059979E+01  0.23247322387E+02 -0.58872597358E+01  0.25375086132E+02  0.00000000000E+00 0. -1.
</event>
<event>
 5    1  0.4419198E-005  0.4901198E+03  0.7818608E-02  0.9831152E-01
         21   -1    0    0  501  502  0.00000000000E+00  0.00000000000E+00  0.12853791291E+03  0.12853791291E+03  0.00000000000E+00 0.  1.
          4   -1    0    0  502    0 -0.00000000000E+00 -0.00000000000E+00 -0.26727794824E+04  0.26727794824E+04  0.00000000000E+00 0.  1.
        -13    1    1    2    0    0 -0.51825576865E+03 -0.14996779917E+02 -0.85371238643E+03  0.99881869979E+03  0.10566000000E+00 0.  1.
         13    1    1    2    0    0  0.69076737691E+02  0.13677508841E+03 -0.54248651438E+03  0.56371149531E+03  0.10566000000E+00 0. -1.
          4    1    1    2  501    0  0.44917903096E+03 -0.12177830849E+03 -0.11480426687E+04  0.12387872002E+04  0.00000000000E+00 0.  1.
</event>
<event>
 5    1  0.4419198E-005  0.4506328E+03  0.7818608E-02  0.9736928E-01
         21   -1    0    0  501  502  0.00000000000E+00  0.00000000000E+00  0.28281374442E+03  0.28281374442E+03  0.00000000000E+00 0. -1.
         -4   -1    0    0    0  501 -0.00000000000E+00 -0.00000000000E+00 -0.21294551767E+04  0.21294551767E+04  0.00000000000E+00 0. -1.
        -13    1    1    2    0    0 -0.26952640086E+03  0.38234703221E+02 -0.10819490151E+04  0.11156702271E+04  0.10566000000E+00 0.  1.
         13    1    1    2    0    0  0.45513432765E+03 -0.25037425390E+03 -0.42317477769E+02  0.52117684457E+03  0.10566000000E+00 0. -1.
         -4    1    1    2    0  502 -0.18560792679E+03  0.21213955068E+03 -0.72237493944E+03  0.77542184944E+03  0.00000000000E+00 0. -1.
</event>
<event>
 5    1  0.4419198E-005  0.3761919E+03  0.7818608E-02  0.1009488E+00
         21   -1    0    0  501  502  0.00000000000E+00  0.00000000000E+00  0.25356883612E+03  0.25356883612E+03  0.00000000000E+00 0. -1.
         -4   -1    0    0    0  501 -0.00000000000E+00 -0.00000000000E+00 -0.13623838114E+04  0.13623838114E+04  0.00000000000E+00 0. -1.
        -13    1    1    2    0    0  0.11447597603E+03 -0.83693798853E+02 -0.13469215263E+02  0.14244589140E+03  0.10566000000E+00 0.  1.
         13    1    1    2    0    0  0.16567051486E+03 -0.20404288127E+03 -0.10344602443E+04  0.10673276091E+04  0.10566000000E+00 0. -1.
         -4    1    1    2    0  502 -0.28014649088E+03  0.28773668013E+03 -0.60885515676E+02  0.40617914701E+03  0.00000000000E+00 0. -1.
</event>
<event>
 5    1  0.4419198E-005  0.4756867E+03  0.7818608E-02  0.9532915E-01
         21   -1    0    0  501  502  0.00000000000E+00  0.00000000000E+00  0.23143264961E+03  0.23143264961E+03  0.00000000000E+00 0. -1.
         -4   -1    0    0    0  501 -0.00000000000E+00 -0.00000000000E+00 -0.20655310869E+04  0.20655310869E+04  0.00000000000E+00 0. -1.
        -13    1    1    2    0    0  0.27377412644E+02 -0.41413100096E+03 -0.72173421915E+03  0.83255888857E+03  0.10566000000E+00 0.  1.
         13    1    1    2    0    0 -0.26364600771E+03  0.58967558800E+03 -0.65049551285E+03  0.91671748094E+03  0.10566000000E+00 0. -1.
         -4    1    1    2    0  502  0.23626859507E+03 -0.17554458705E+03 -0.46186870530E+03  0.54768736702E+03  0.00000000000E+00 0. -1.
</event>
<event>
 5    1  0.4419198E-005  0.4692932E+03  0.7818608E-02  0.9765848E-01
         -4   -1    0    0    0  501 -0.00000000000E+00  0.00000000000E+00  0.39819140018E+04  0.39819140018E+04  0.00000000000E+00 0. -1.
         21   -1    0    0  501  502  0.00000000000E+00 -0.00000000000E+00 -0.89030207282E+02  0.89030207282E+02  0.00000000000E+00 0. -1.
        -13    1    1    2    0    0  0.21410325358E+03 -0.41850559973E+02  0.72200901763E+03  0.75424711154E+03  0.10566000000E+00 0.  1.
         13    1    1    2    0    0  0.14607326670E+03  0.40904379794E+03  0.18227111997E+04  0.18737476769E+04  0.10566000000E+00 0. -1.
         -4    1    1    2    0  502 -0.36017652028E+03 -0.36719323797E+03  0.13481635771E+04  0.14429494206E+04  0.00000000000E+00 0. -1.
</event>
<event>
 5    1  0.4419198E-005  0.4815686E+03  0.7818608E-02  0.9731632E-01
         -4   -1    0    0    0  501 -0.00000000000E+00  0.00000000000E+00  0.97386682807E+03  0.97386682807E+03  0.00000000000E+00 0. -1.
         21   -1    0    0  501  502  0.00000000000E+00 -0.00000000000E+00 -0.41085554525E+03  0.41085554525E+03  0.00000000000E+00 0. -1.
        -13    1    1    2    0    0 -0.20248151139E+03  0.10302330318E+03  0.18396480393E+03  0.29232793862E+03  0.10566000000E+00 0.  1.
         13    1    1    2    0    0 -0.22106368389E+03 -0.41814336354E+03  0.63135576002E+02  0.47717830727E+03  0.10566000000E+00 0. -1.
         -4    1    1    2    0  502  0.42354519527E+03  0.31512006036E+03  0.31591090289E+03  0.61521612742E+03  0.00000000000E+00 0. -1.
</event>
<event>
 5    1  0.4419198E-005  0.2670998E+03  0.7818608E-02  0.1021894E+00
         -4   -1    0    0    0  501 -0.00000000000E+00  0.00000000000E+00  0.11529560919E+03  0.11529560919E+03  0.00000000000E+00 0. -1.
         21   -1    0    0  501  502  0.00000000000E+00 -0.00000000000E+00 -0.83863505421E+03  0.83863505421E+03  0.00000000000E+00 0.  1.
        -13    1    1    2    0    0 -0.16056655334E+03  0.20503247885E+03 -0.45297572930E+03  0.52250067745E+03  0.10566000000E+00 0.  1.
         13    1    1    2    0    0  0.17296607439E+03 -0.20765401631E+03 -0.14744480087E+03  0.30785943846E+03  0.10566000000E+00 0. -1.
         -4    1    1    2    0  502 -0.12399521055E+02  0.26215374643E+01 -0.12291891484E+03  0.12357054749E+03  0.00000000000E+00 0. -1.
</event>
<event>
 5    1  0.4419198E-005  0.2989016E+03  0.7818608E-02  0.1007760E+00
          4   -1    0    0  502    0 -0.00000000000E+00  0.00000000000E+00  0.19154058924E+04  0.19154058924E+04  0.00000000000E+00 0.  1.
         21   -1    0    0  501  502  0.00000000000E+00 -0.00000000000E+00 -0.79496868650E+02  0.79496868650E+02  0.00000000000E+00 0. -1.
        -13    1    1    2    0    0  0.33637792329E+03 -0.75568546015E+01  0.54924182353E+03  0.64410698273E+03  0.10566000000E+00 0.  1.
         13    1    1    2    0    0 -0.28270825470E+03 -0.50265122551E+02  0.11987996087E+04  0.12327088273E+04  0.10566000000E+00 0. -1.
          4    1    1    2  501    0 -0.53669668587E+02  0.57821977152E+02  0.87867591475E+02  0.11808695101E+03  0.00000000000E+00 0.  1.
</event>
<event>
 5    1  0.4419198E-005  0.4575242E+03  0.7818608E-02  0.9576269E-01
         21   -1    0    0  501  502  0.00000000000E+00  0.00000000000E+00  0.19164119812E+03  0.19164119812E+03  0.00000000000E+00 0.  1.
          4   -1    0    0  502    0 -0.00000000000E+00 -0.00000000000E+00 -0.30063586589E+04  0.30063586589E+04  0.00000000000E+00 0.  1.
        -13    1    1    2    0    0 -0.52319553882E+03 -0.40021904360E+03 -0.11409683048E+04  0.13174663329E+04  0.10566000000E+00 0.  1.
         13    1    1    2    0    0  0.29342491499E+03  0.27115395051E+03 -0.15280167373E+04  0.15793852622E+04  0.10566000000E+00 0. -1.
          4    1    1    2  501    0  0.22977062383E+03  0.12906509309E+03 -0.14573241870E+03  0.30114826197E+03  0.00000000000E+00 0.  1.
</event>
<event>
 5    1  0.4419198E-005  0.2258501E+03  0.7818608E-02  0.1044795E+00
         -4   -1    0    0    0  501 -0.00000000000E+00  0.00000000000E+00  0.23292069045E+04  0.23292069045E+04  0.00000000000E+00 0. -1.
         21   -1    0    0  501  502  0.00000000000E+00 -0.00000000000E+00 -0.23586469204E+03  0.23586469204E+03  0.00000000000E+00 0. -1.
        -13    1    1    2    0    0  0.15837825677E+02  0.21813810239E+03  0.11096001174E+04  0.11309498221E+04  0.10566000000E+00 0.  1.
         13    1    1    2    0    0  0.19824511238E+03  0.95416886713E+02 -0.13130043094E+03  0.25621342896E+03  0.10566000000E+00 0. -1.
         -4    1    1    2    0  502 -0.21408293805E+03 -0.31355498910E+03  0.11150425260E+04  0.11779083455E+04  0.00000000000E+00 0. -1.
</event>
<event>
 5    1  0.4419198E-005  0.4371993E+03  0.7818608E-02  0.9944320E-01
         -4   -1    0    0    0  501 -0.00000000000E+00  0.00000000000E+00  0.13227133077E+04  0.13227133077E+04  0.00000000000E+00 0. -1.
         21   -1    0    0  501  502  0.00000000000E+00 -0.00000000000E+00 -0.30959958232E+03  0.30959958232E+03  0.00000000000E+00 0. -1.
        -13    1    1    2    0    0  0.12266389758E+03  0.82268818895E+02  0.48480674003E+03  0.50680585699E+03  0.10566000000E+00 0.  1.
         13    1    1    2    0    0  0.28778293892E+03 -0.31904991010E+03  0.19327631306E+02  0.43009932988E+03  0.10566000000E+00 0. -1.
         -4    1    1    2    0  502 -0.41044683650E+03  0.23678109120E+03  0.50897935400E+03  0.69540770310E+03  0.00000000000E+00 0. -1.
</event>
<event>
 5    1  0.4419198E-005  0.3799046E+03  0.7818608E-02  0.9904134E-01
         21   -1    0    0  501  502  0.00000000000E+00  0.00000000000E+00  0.14169194882E+04  0.14169194882E+04  0.00000000000E+00 0. -1.
         -4   -1    0    0    0  501 -0.00000000000E+00 -0.00000000000E+00 -0.38945268271E+03  0.38945268271E+03  0.00000000000E+00 0. -1.
        -13    1    1    2    0    0 -0.19426523750E+03 -0.16875443607E+03 -0.10767519187E+03  0.27894623192E+03  0.10566000000E+00 0.  1.
         13    1    1    2    0    0  0.33186034336E+03 -0.20006587883E+03  0.72515263464E+02  0.39422850984E+03  0.10566000000E+00 0. -1.
         -4    1    1    2    0  502 -0.13759510586E+03  0.36882031489E+03  0.10626267339E+04  0.11331974292E+04  0.00000000000E+00 0. -1.
</event>
<event>
 5    1  0.4419198E-005  0.5883356E+02  0.7818608E-02  0.1259489E+00
          4   -1    0    0  502    0 -0.00000000000E+00  0.00000000000E+00  0.14610612783E+03  0.14610612783E+03  0.00000000000E+00 0.  1.
         21   -1    0    0  501  502  0.00000000000E+00 -0.00000000000E+00 -0.11282297172E+03  0.11282297172E+03  0.00000000000E+00 0.  1.
        -13    1    1    2    0    0 -0.59642511340E+02 -0.80271846640E+00  0.10337164029E+03  0.11934647333E+03  0.10566000000E+00 0.  1.
         13    1    1    2    0    0  0.48634170685E+02  0.46329177071E+02 -0.63223605591E+02  0.92243756830E+02  0.10566000000E+00 0. -1.
          4    1    1    2  501    0  0.11008340656E+02 -0.45526458604E+02 -0.68648785897E+01  0.47338869390E+02  0.00000000000E+00 0.  1.
</event>
<event>
 5    1  0.4419198E-005  0.2950813E+03  0.7818608E-02  0.1032607E+00
         21   -1    0    0  501  502  0.00000000000E+00  0.00000000000E+00  0.22881420683E+03  0.22881420683E+03  0.00000000000E+00 0.  1.
          4   -1    0    0  502    0 -0.00000000000E+00 -0.00000000000E+00 -0.14838396366E+04  0.14838396366E+04  0.00000000000E+00 0.  1.
        -13    1    1    2    0    0  0.28119813523E+03 -0.11576178188E+03  0.80561709734E+02  0.31458445867E+03  0.10566000000E+00 0.  1.
         13    1    1    2    0    0 -0.48262505965E+02  0.13355498860E+03 -0.24895982528E+03  0.28661334622E+03  0.10566000000E+00 0. -1.
          4    1    1    2  501    0 -0.23293562926E+03 -0.17793206716E+02 -0.10866273142E+04  0.11114560385E+04  0.00000000000E+00 0.  1.
</event>
<event>
 5    1  0.4419198E-005  0.2963117E+03  0.7818608E-02  0.1008840E+00
          4   -1    0    0  502    0 -0.00000000000E+00  0.00000000000E+00  0.31504068456E+03  0.31504068456E+03  0.00000000000E+00 0.  1.
         21   -1    0    0  501  502  0.00000000000E+00 -0.00000000000E+00 -0.11416605070E+04  0.11416605070E+04  0.00000000000E+00 0.  1.
        -13    1    1    2    0    0  0.34095115696E+03  0.61046501221E+02 -0.78637958040E+03  0.85928296991E+03  0.10566000000E+00 0.  1.
         13    1    1    2    0    0 -0.27600464929E+03 -0.28939973411E+02 -0.25122589647E+03  0.37434015375E+03  0.10566000000E+00 0. -1.
          4    1    1    2  501    0 -0.64946507666E+02 -0.32106527810E+02  0.21098565445E+03  0.22307806788E+03  0.00000000000E+00 0.  1.
</event>
<event>
 5    1  0.4419198E-005  0.4960789E+03  0.7818608E-02  0.9706794E-01
         21   -1    0    0  501  502  0.00000000000E+00  0.00000000000E+00  0.51749994921E+03  0.51749994921E+03  0.00000000000E+00 0. -1.
         -4   -1    0    0    0  501 -0.00000000000E+00 -0.00000000000E+00 -0.75174565768E+03  0.75174565768E+03  0.00000000000E+00 0. -1.
        -13    1    1    2    0    0  0.14552175337E+03  0.17360530031E+03 -0.78110522635E+02  0.23961770784E+03  0.10566000000E+00 0.  1.
         13    1    1    2    0    0 -0.44524752999E+03  0.24080361752E+03 -0.84429867102E+02  0.51318628079E+03  0.10566000000E+00 0. -1.
         -4    1    1    2    0  502  0.29972577662E+03 -0.41440891782E+03 -0.71705318731E+02  0.51644161827E+03  0.00000000000E+00 0. -1.
</event>
<event>
 5    1  0.4419198E-005  0.6237374E+03  0.7818608E-02  0.9241619E-01
          4   -1    0    0  502    0 -0.00000000000E+00  0.00000000000E+00  0.20861855235E+04  0.20861855235E+04  0.00000000000E+00 0.  1.
         21   -1    0    0  501  502  0.00000000000E+00 -0.00000000000E+00 -0.74207837845E+03  0.74207837845E+03  0.00000000000E+00 0. -1.
        -13    1    1    2    0    0 -0.43173703991E+03  0.33296529135E+03  0.90909632708E+03  0.10600560834E+04  0.10566000000E+00 0.  1.
         13    1    1    2    0    0  0.44249178040E+03 -0.93686179406E+03  0.51828384028E+03  0.11585021136E+04  0.10566000000E+00 0. -1.
          4    1    1    2  501    0 -0.10754740489E+02  0.60389650271E+03 -0.83273022321E+02  0.60970570497E+03  0.00000000000E+00 0.  1.
</event>
<event>
 5    1  0.4419198E-005  0.3694131E+03  0.7818608E-02  0.1023752E+00
         21   -1    0    0  501  502  0.00000000000E+00  0.00000000000E+00  0.15278185064E+03  0.15278185064E+03  0.00000000000E+00 0. -1.
         -4   -1    0    0    0  501 -0.00000000000E+00 -0.00000000000E+00 -0.21685522426E+04  0.21685522426E+04  0.00000000000E+00 0. -1.
        -13    1    1    2    0    0  0.57537222969E+02 -0.75907003380E+02 -0.56381949470E+03  0.57180839357E+03  0.10566000000E+00 0.  1.
         13    1    1    2    0    0 -0.39231568927E+03  0.19499984677E+03 -0.12836493452E+04  0.13563525327E+04  0.10566000000E+00 0. -1.
         -4    1    1    2    0  502  0.33477846630E+03 -0.11909284339E+03 -0.16830155210E+03  0.39317316704E+03  0.00000000000E+00 0. -1.
</event>
<event>
 5    1  0.4419198E-005  0.3087069E+03  0.7818608E-02  0.1003775E+00
         21   -1    0    0  501  502  0.00000000000E+00  0.00000000000E+00  0.19813368453E+03  0.19813368453E+03  0.00000000000E+00 0. -1.
          4   -1    0    0  502    0 -0.00000000000E+00 -0.00000000000E+00 -0.13622900902E+04  0.13622900902E+04  0.00000000000E+00 0.  1.
        -13    1    1    2    0    0 -0.19418774355E+03 -0.15016449574E+03 -0.31036632164E+03  0.39570888327E+03  0.10566000000E+00 0.  1.
         13    1    1    2    0    0  0.40193546655E+03  0.34175757474E+02 -0.83342106457E+03  0.92591078604E+03  0.10566000000E+00 0. -1.
          4    1    1    2  501    0 -0.20774772300E+03  0.11598873826E+03 -0.20369019466E+02  0.23880410543E+03  0.00000000000E+00 0.  1.
</event>
<event>
 5    1  0.4419198E-005  0.9437526E+03  0.7818608E-02  0.9033256E-01
          4   -1    0    0  502    0 -0.00000000000E+00  0.00000000000E+00  0.46414701952E+04  0.46414701952E+04  0.00000000000E+00 0.  1.
         21   -1    0    0  501  502  0.00000000000E+00 -0.00000000000E+00 -0.31026212046E+03  0.31026212046E+03  0.00000000000E+00 0.  1.
        -13    1    1    2    0    0  0.81070051046E+03  0.26049163951E+03  0.17067529544E+04  0.19073795822E+04  0.10566000000E+00 0.  1.
         13    1    1    2    0    0  0.58477505010E+02  0.40391031400E+03  0.43319440585E+03  0.59516431746E+03  0.10566000000E+00 0. -1.
          4    1    1    2  501    0 -0.86917801547E+03 -0.66440195351E+03  0.21912607145E+04  0.24491884160E+04  0.00000000000E+00 0.  1.
</event>
<event>
 5    1  0.4419198E-005  0.4220563E+03  0.7818608E-02  0.1018981E+00
         21   -1    0    0  501  502  0.00000000000E+00  0.00000000000E+00  0.68954683826E+03  0.68954683826E+03  0.00000000000E+00 0.  1.
          4   -1    0    0  502    0 -0.00000000000E+00 -0.00000000000E+00 -0.41788313832E+03  0.41788313832E+03  0.00000000000E+00 0.  1.
        -13    1    1    2    0    0 -0.29922335218E+03 -0.36849724634E+03 -0.11095808844E+03  0.48747978789E+03  0.10566000000E+00 0.  1.
         13    1    1    2    0    0  0.64189343365E+02  0.37225772546E+02  0.23657491578E+02  0.77882719618E+02  0.10566000000E+00 0. -1.
          4    1    1    2  501    0  0.23503400881E+03  0.33127147379E+03  0.35896429680E+03  0.54206746907E+03  0.00000000000E+00 0.  1.
</event>
<event>
 5    1  0.4419198E-005  0.2727761E+03  0.7818608E-02  0.1019222E+00
         -4   -1    0    0    0  501 -0.00000000000E+00  0.00000000000E+00  0.64965076368E+03  0.64965076368E+03  0.00000000000E+00 0. -1.
         21   -1    0    0  501  502  0.00000000000E+00 -0.00000000000E+00 -0.67394895033E+03  0.67394895033E+03  0.00000000000E+00 0. -1.
        -13    1    1    2    0    0 -0.95983291581E+02  0.21558475213E+03  0.19330649118E+03  0.30505243535E+03  0.10566000000E+00 0.  1.
         13    1    1    2    0    0  0.11278584656E+03 -0.29271992161E+03  0.33580629666E+03  0.45953398104E+03  0.10566000000E+00 0. -1.
         -4    1    1    2    0  502 -0.16802554975E+02  0.77135169473E+02 -0.55341097450E+03  0.55901329762E+03  0.00000000000E+00 0. -1.
</event>
<event>
 5    1  0.4419198E-005  0.2402979E+03  0.7818608E-02  0.1035547E+00
          4   -1    0    0  502    0 -0.00000000000E+00  0.00000000000E+00  0.10416919349E+04  0.10416919349E+04  0.00000000000E+00 0.  1.
         21   -1    0    0  501  502  0.00000000000E+00 -0.00000000000E+00 -0.21396738897E+03  0.21396738897E+03  0.00000000000E+00 0.  1.
        -13    1    1    2    0    0  0.23768328859E+03 -0.11211074395E+02  0.87557151699E+02  0.25354545912E+03  0.10566000000E+00 0.  1.
         13    1    1    2    0    0 -0.24080072897E+03  0.12727827827E+01  0.85425786106E+03  0.88754893690E+03  0.10566000000E+00 0. -1.
          4    1    1    2  501    0  0.31174403746E+01  0.99382916127E+01 -0.11409046682E+03  0.11456492785E+03  0.00000000000E+00 0.  1.
</event>
<event>
 5    1  0.4419198E-005  0.3726957E+03  0.7818608E-02  0.1002666E+00
         21   -1    0    0  501  502  0.00000000000E+00  0.00000000000E+00  0.10616327605E+03  0.10616327605E+03  0.00000000000E+00 0. -1.
         -4   -1    0    0    0  501 -0.00000000000E+00 -0.00000000000E+00 -0.32237048943E+04  0.32237048943E+04  0.00000000000E+00 0. -1.
        -13    1    1    2    0    0  0.16149324907E+02  0.18116434206E+03 -0.46126163435E+03  0.49582620545E+03  0.10566000000E+00 0.  1.
         13    1    1    2    0    0  0.24718742043E+03 -0.41523347190E+03 -0.22263313234E+04  0.22781728709E+04  0.10566000000E+00 0. -1.
         -4    1    1    2    0  502 -0.26333674533E+03  0.23406912984E+03 -0.42994866044E+03  0.55586909395E+03  0.00000000000E+00 0. -1.
</event>
<event>
 5    1  0.4419198E-005  0.4986825E+03  0.7818608E-02  0.9499204E-01
          4   -1    0    0  502    0 -0.00000000000E+00  0.00000000000E+00  0.13905356094E+04  0.13905356094E+04  0.00000000000E+00 0.  1.
         21   -1    0    0  501  502  0.00000000000E+00 -0.00000000000E+00 -0.63038716913E+03  0.63038716913E+03  0.00000000000E+00 0.  1.
        -13    1    1    2    0    0  0.34142742208E+03 -0.26298232004E+03  0.26342403771E+03  0.50509862405E+03  0.10566000000E+00 0.  1.
         13    1    1    2    0    0  0.21318309266E+03  0.46947792037E+03  0.71804052883E+03  0.88399024933E+03  0.10566000000E+00 0. -1.
          4    1    1    2  501    0 -0.55461051475E+03 -0.20649560033E+03 -0.22131612623E+03  0.63183390519E+03  0.00000000000E+00 0.  1.
</event>
<event>
 5    1  0.4419198E-005  0.5068469E+03  0.7818608E-02  0.9710920E-01
          4   -1    0    0  502    0 -0.00000000000E+00  0.00000000000E+00  0.33863123555E+04  0.33863123555E+04  0.00000000000E+00 0.  1.
         21   -1    0    0  501  502  0.00000000000E+00 -0.00000000000E+00 -0.12876039781E+03  0.12876039781E+03  0.00000000000E+00 0.  1.
        -13    1    1    2    0    0  0.40435590419E+03 -0.42936723591E+03  0.13138675806E+04  0.14401763611E+04  0.10566000000E+00 0.  1.
         13    1    1    2    0    0 -0.20896850066E+03  0.12971883488E+02  0.10402841765E+04  0.10611443272E+04  0.10566000000E+00 0. -1.
          4    1    1    2  501    0 -0.19538740353E+03  0.41639535242E+03  0.90340020046E+03  0.10137520649E+04  0.00000000000E+00 0.  1.
</event>
<event>
 5    1  0.4419198E-005  0.1032456E+03  0.7818608E-02  0.1173975E+00
         21   -1    0    0  501  502  0.00000000000E+00  0.00000000000E+00  0.72564273011E+03  0.72564273011E+03  0.00000000000E+00 0. -1.
          4   -1    0    0  502    0 -0.00000000000E+00 -0.00000000000E+00 -0.85030700055E+02  0.85030700055E+02  0.00000000000E+00 0.  1.
        -13    1    1    2    0    0 -0.24388519965E+02 -0.79160202260E+02 -0.21707121282E+02  0.85629129426E+02  0.10566000000E+00 0.  1.
         13    1    1    2    0    0 -0.71964369966E+02  0.15596186383E+03  0.38923648831E+03  0.42545038313E+03  0.10566000000E+00 0. -1.
          4    1    1    2  501    0  0.96352889930E+02 -0.76801661572E+02  0.27308266303E+03  0.29959391760E+03  0.00000000000E+00 0.  1.
</event>
<event>
 5    1  0.4419198E-005  0.4969773E+03  0.7818608E-02  0.9652147E-01
         21   -1    0    0  501  502  0.00000000000E+00  0.00000000000E+00  0.21164705278E+03  0.21164705278E+03  0.00000000000E+00 0. -1.
         -4   -1    0    0    0  501 -0.00000000000E+00 -0.00000000000E+00 -0.28425944040E+04  0.28425944040E+04  0.00000000000E+00 0. -1.
        -13    1    1    2    0    0  0.27274693560E+03  0.22314537669E+01 -0.14640165247E+04  0.14892079325E+04  0.10566000000E+00 0.  1.
         13    1    1    2    0    0  0.65160219329E+02  0.46229481522E+03 -0.48040457475E+03  0.66988873477E+03  0.10566000000E+00 0. -1.
         -4    1    1    2    0  502 -0.33790715493E+03 -0.46452626899E+03 -0.68652625175E+03  0.89514478956E+03  0.00000000000E+00 0. -1.
</event>
<event>
 5    1  0.4419198E-005  0.3916185E+03  0.7818608E-02  0.9833500E-01
         21   -1    0    0  501  502  0.00000000000E+00  0.00000000000E+00  0.44502156928E+03  0.44502156928E+03  0.00000000000E+00 0. -1.
         -4   -1    0    0    0  501 -0.00000000000E+00 -0.00000000000E+00 -0.10056053186E+04  0.10056053186E+04  0.00000000000E+00 0. -1.
        -13    1    1    2    0    0  0.19255372181E+03  0.22741880485E+03 -0.81410300916E+02  0.30890758625E+03  0.10566000000E+00 0.  1.
         13    1    1    2    0    0  0.12818732145E+03 -0.45361951779E+03 -0.56919770818E+03  0.73904580269E+03  0.10566000000E+00 0. -1.
         -4    1    1    2    0  502 -0.32074104327E+03  0.22620071294E+03  0.90024259806E+02  0.40267349891E+03  0.00000000000E+00 0. -1.
</event>
<event>
 5    1  0.4419198E-005  0.2290670E+03  0.7818608E-02  0.1041850E+00
         21   -1    0    0  501  502  0.00000000000E+00  0.00000000000E+00  0.33274613956E+02  0.33274613956E+02  0.00000000000E+00 0.  1.
         -4   -1    0    0    0  501 -0.00000000000E+00 -0.00000000000E+00 -0.18652061225E+04  0.18652061225E+04  0.00000000000E+00 0. -1.
        -13    1    1    2    0    0  0.17692076408E+03 -0.13598140509E+03 -0.80510494717E+03  0.83545549637E+03  0.10566000000E+00 0.  1.
         13    1    1    2    0    0 -0.18149884686E+03  0.14814502462E+03 -0.10229890964E+04  0.10494739074E+04  0.10566000000E+00 0. -1.
         -4    1    1    2    0  502  0.45780827794E+01 -0.12163619528E+02 -0.38374650241E+01  0.13551332767E+02  0.00000000000E+00 0. -1.
</event>
<event>
 5    1  0.4419198E-005  0.2475745E+02  0.7818608E-02  0.1452742E+00
          4   -1    0    0  502    0 -0.00000000000E+00  0.00000000000E+00  0.70493959275E+02  0.70493959275E+02  0.00000000000E+00 0.  1.
         21   -1    0    0  501  502  0.00000000000E+00 -0.00000000000E+00 -0.19289607465E+02  0.19289607465E+02  0.00000000000E+00 0.  1.
        -13    1    1    2    0    0  0.20104687108E+02  0.26761757305E+02  0.36181853126E+02  0.49290239982E+02  0.10566000000E+00 0.  1.
         13    1    1    2    0    0 -0.11751661391E+02 -0.15119092982E+02  0.17512177881E+02  0.25949490481E+02  0.10566000000E+00 0. -1.
          4    1    1    2  501    0 -0.83530257172E+01 -0.11642664323E+02 -0.24896791971E+01  0.14543836278E+02  0.00000000000E+00 0.  1.
</event>
<event>
 5    1  0.4419198E-005  0.2022389E+03  0.7818608E-02  0.1058612E+00
          4   -1    0    0  502    0 -0.00000000000E+00  0.00000000000E+00  0.58582522929E+03  0.58582522929E+03  0.00000000000E+00 0.  1.
         21   -1    0    0  501  502  0.00000000000E+00 -0.00000000000E+00 -0.27417835196E+03  0.27417835196E+03  0.00000000000E+00 0.  1.
        -13    1    1    2    0    0  0.17383239591E+03  0.14164105581E+03  0.46797097341E+03  0.51891881222E+03  0.10566000000E+00 0.  1.
         13    1    1    2    0    0 -0.76153665123E+02 -0.12787121627E+03  0.84171307204E+01  0.14906806471E+03  0.10566000000E+00 0. -1.
          4    1    1    2  501    0 -0.97678730788E+02 -0.13769839542E+02 -0.16474122680E+03  0.19201670432E+03  0.00000000000E+00 0.  1.
</event>
<event>
 5    1  0.4419198E-005  0.3628179E+03  0.7818608E-02  0.9843038E-01
         21   -1    0    0  501  502  0.00000000000E+00  0.00000000000E+00  0.14704806523E+03  0.14704806523E+03  0.00000000000E+00 0.  1.
         -4   -1    0    0    0  501 -0.00000000000E+00 -0.00000000000E+00 -0.15830977522E+04  0.15830977522E+04  0.00000000000E+00 0. -1.
        -13    1    1    2    0    0  0.25301496995E+03  0.29338648332E+03 -0.47431363186E+03  0.61242602504E+03  0.10566000000E+00 0.  1.
         13    1    1    2    0    0 -0.22291654854E+03 -0.27262946022E+03 -0.10027402163E+04  0.10627824626E+04  0.10566000000E+00 0. -1.
         -4    1    1    2    0  502 -0.30098421415E+02 -0.20757023102E+02  0.41004161157E+02  0.54937329858E+02  0.00000000000E+00 0. -1.
</event>
<event>
 5    1  0.4419198E-005  0.4168470E+03  0.7818608E-02  0.9681613E-01
         -4   -1    0    0    0  501 -0.00000000000E+00  0.00000000000E+00  0.82931712598E+03  0.82931712598E+03  0.00000000000E+00 0. -1.
         21   -1    0    0  501  502  0.00000000000E+00 -0.00000000000E+00 -0.48319174469E+03  0.48319174469E+03  0.00000000000E+00 0. -1.
        -13    1    1    2    0    0 -0.51255485143E+01 -0.38240246162E+03  0.36628121201E+03  0.52954683582E+03  0.10566000000E+00 0.  1.
         13    1    1    2    0    0 -0.45949193322E+02  0.56175003468E+03 -0.11269933019E+03  0.57478307214E+03  0.10566000000E+00 0. -1.
         -4    1    1    2    0  502  0.51074741836E+02 -0.17934757306E+03  0.92543499469E+02  0.20817896270E+03  0.00000000000E+00 0. -1.
</event>
<event>
 5    1  0.4419198E-005  0.2324550E+03  0.7818608E-02  0.1039909E+00
          4   -1    0    0  502    0 -0.00000000000E+00  0.00000000000E+00  0.11633177788E+03  0.11633177788E+03  0.00000000000E+00 0.  1.
         21   -1    0    0  501  502  0.00000000000E+00 -0.00000000000E+00 -0.65189700185E+03  0.65189700185E+03  0.00000000000E+00 0. -1.
        -13    1    1    2    0    0  0.20756949310E+03  0.12236022555E+03 -0.87801778031E+02  0.25644937639E+03  0.10566000000E+00 0.  1.
         13    1    1    2    0    0 -0.18108279783E+03 -0.11357861447E+03 -0.34999562473E+03  0.41010733940E+03  0.10566000000E+00 0. -1.
          4    1    1    2  501    0 -0.26486695268E+02 -0.87816110795E+01 -0.97767821214E+02  0.10167206393E+03  0.00000000000E+00 0.  1.
</event>
<event>
 5    1  0.4419198E-005  0.5851594E+02  0.7818608E-02  0.1260538E+00
         21   -1    0    0  501  502  0.00000000000E+00  0.00000000000E+00  0.15819543269E+03  0.15819543269E+03  0.00000000000E+00 0. -1.
         -4   -1    0    0    0  501 -0.00000000000E+00 -0.00000000000E+00 -0.25263733906E+03  0.25263733906E+03  0.00000000000E+00 0. -1.
        -13    1    1    2    0    0  0.49307110958E+02  0.13682442408E+02 -0.17769313876E+02  0.54167888097E+02  0.10566000000E+00 0.  1.
         13    1    1    2    0    0 -0.54613390494E+02 -0.25694978015E+02 -0.21214178762E+03  0.22056065727E+03  0.10566000000E+00 0. -1.
         -4    1    1    2    0  502  0.53062795360E+01  0.12012535607E+02  0.13546919512E+03  0.13610422639E+03  0.00000000000E+00 0. -1.
</event>
<event>
 5    1  0.4419198E-005  0.3778490E+03  0.7818608E-02  0.9916469E-01
         21   -1    0    0  501  502  0.00000000000E+00  0.00000000000E+00  0.19689708024E+03  0.19689708024E+03  0.00000000000E+00 0. -1.
          4   -1    0    0  502    0 -0.00000000000E+00 -0.00000000000E+00 -0.16895093141E+04  0.16895093141E+04  0.00000000000E+00 0.  1.
        -13    1    1    2    0    0  0.39270206829E+03 -0.22293460713E+03 -0.98386764786E+03  0.10825480651E+04  0.10566000000E+00 0.  1.
         13    1    1    2    0    0 -0.23075008691E+02  0.24993492187E+03 -0.22526892397E+03  0.33726253938E+03  0.10566000000E+00 0. -1.
          4    1    1    2  501    0 -0.36962705960E+03 -0.27000314739E+02 -0.28347566205E+03  0.46659578991E+03  0.00000000000E+00 0.  1.
</event>
<event>
 5    1  0.4419198E-005  0.2119256E+02  0.7818608E-02  0.1524947E+00
         -4   -1    0    0    0  501 -0.00000000000E+00  0.00000000000E+00  0.26388839267E+02  0.26388839267E+02  0.00000000000E+00 0. -1.
         21   -1    0    0  501  502  0.00000000000E+00 -0.00000000000E+00 -0.37231264616E+02  0.37231264616E+02  0.00000000000E+00 0. -1.
        -13    1    1    2    0    0  0.12507476087E+02  0.52353596151E+01 -0.89674829797E+01  0.16256471431E+02  0.10566000000E+00 0.  1.
         13    1    1    2    0    0 -0.19690653884E+02 -0.21529098594E+02  0.16045234772E+01  0.29220020470E+02  0.10566000000E+00 0. -1.
         -4    1    1    2    0  502  0.71831777972E+01  0.16293738979E+02 -0.34794658464E+01  0.18143611982E+02  0.00000000000E+00 0. -1.
</event>
<event>
 5    1  0.4419198E-005  0.1798269E+03  0.7818608E-02  0.1074921E+00
         21   -1    0    0  501  502  0.00000000000E+00  0.00000000000E+00  0.26488031566E+03  0.26488031566E+03  0.00000000000E+00 0.  1.
         -4   -1    0    0    0  501 -0.00000000000E+00 -0.00000000000E+00 -0.16474043247E+03  0.16474043247E+03  0.00000000000E+00 0. -1.
        -13    1    1    2    0    0 -0.17343917990E+03  0.36973848270E+02  0.77559319319E+02  0.19355535063E+03  0.10566000000E+00 0.  1.
         13    1    1    2    0    0  0.17994463455E+03 -0.23471477893E+02 -0.27724907001E+02  0.18357468074E+03  0.10566000000E+00 0. -1.
         -4    1    1    2    0  502 -0.65054546559E+01 -0.13502370377E+02  0.50305470877E+02  0.52490716763E+02  0.00000000000E+00 0. -1.
</event>
<event>
 5    1  0.4419198E-005  0.9495302E+02  0.7818608E-02  0.1173187E+00
         -4   -1    0    0    0  501 -0.00000000000E+00  0.00000000000E+00  0.69625337733E+03  0.69625337733E+03  0.00000000000E+00 0. -1.
         21   -1    0    0  501  502  0.00000000000E+00 -0.00000000000E+00 -0.41895812473E+02  0.41895812473E+02  0.00000000000E+00 0.  1.
        -13    1    1    2    0    0 -0.54877948272E+02  0.68796373743E+02  0.97283932064E+02  0.13118195321E+03  0.10566000000E+00 0.  1.
         13    1    1    2    0    0  0.73238946409E+02 -0.63464636929E+02  0.57357937950E+03  0.58170870646E+03  0.10566000000E+00 0. -1.
         -4    1    1    2    0  502 -0.18360998137E+02 -0.53317368145E+01 -0.16505746711E+02  0.25258530134E+02  0.00000000000E+00 0. -1.
</event>
<event>
 5    1  0.4419198E-005  0.4678087E+03  0.7818608E-02  0.9551465E-01
         21   -1    0    0  501  502  0.00000000000E+00  0.00000000000E+00  0.48208392193E+03  0.48208392193E+03  0.00000000000E+00 0. -1.
         -4   -1    0    0    0  501 -0.00000000000E+00 -0.00000000000E+00 -0.24299329871E+04  0.24299329871E+04  0.00000000000E+00 0. -1.
        -13    1    1    2    0    0  0.38290121979E+03 -0.41414285895E+03 -0.16039405478E+04  0.17002214397E+04  0.10566000000E+00 0.  1.
         13    1    1    2    0    0 -0.39222984027E+03  0.83115669527E+02 -0.64812448716E+03  0.76211404930E+03  0.10566000000E+00 0. -1.
         -4    1    1    2    0  502  0.93286204816E+01  0.33102718943E+03  0.30421596979E+03  0.44968142009E+03  0.00000000000E+00 0. -1.
</event>
<event>
 5    1  0.4419198E-005  0.2103741E+03  0.7818608E-02  0.1053248E+00
         21   -1    0    0  501  502  0.00000000000E+00  0.00000000000E+00  0.68310778708E+02  0.68310778708E+02  0.00000000000E+00 0. -1.
          4   -1    0    0  502    0 -0.00000000000E+00 -0.00000000000E+00 -0.13851645309E+04  0.13851645309E+04  0.00000000000E+00 0.  1.
        -13    1    1    2    0    0 -0.15867493093E+03 -0.15143011581E+03 -0.49025791926E+03  0.53708626146E+03  0.10566000000E+00 0.  1.
         13    1    1    2    0    0  0.15498268477E+03  0.13537868064E+03 -0.85724287037E+03  0.88159648916E+03  0.10566000000E+00 0. -1.
          4    1    1    2  501    0  0.36922461686E+01  0.16051435178E+02  0.30647037469E+02  0.34792558955E+02  0.00000000000E+00 0.  1.
</event>
<event>
 5    1  0.4419198E-005  0.5914704E+03  0.7818608E-02  0.9297304E-01
         21   -1    0    0  501  502  0.00000000000E+00  0.00000000000E+00  0.42494740584E+03  0.42494740584E+03  0.00000000000E+00 0.  1.
          4   -1    0    0  502    0 -0.00000000000E+00 -0.00000000000E+00 -0.20975738019E+04  0.20975738019E+04  0.00000000000E+00 0.  1.
        -13    1    1    2    0    0  0.25348213198E+03  0.58575822811E+03 -0.75662739063E+03  0.98987419022E+03  0.10566000000E+00 0.  1.
         13    1    1    2    0    0  0.15122642384E+03 -0.59490044025E+03 -0.94493764587E+03  0.11268021702E+04  0.10566000000E+00 0. -1.
          4    1    1    2  501    0 -0.40470855582E+03  0.91422121378E+01  0.28938640401E+02  0.40584484733E+03  0.00000000000E+00 0.  1.
</event>
<event>
 5    1  0.4419198E-005  0.2545204E+02  0.7818608E-02  0.1445649E+00
         21   -1    0    0  501  502  0.00000000000E+00  0.00000000000E+00  0.11236266454E+03  0.11236266454E+03  0.00000000000E+00 0.  1.
         -4   -1    0    0    0  501 -0.00000000000E+00 -0.00000000000E+00 -0.12866820035E+02  0.12866820035E+02  0.00000000000E+00 0. -1.
        -13    1    1    2    0    0 -0.17782232008E+02 -0.16792629011E+00  0.37156109267E+02  0.41192518669E+02  0.10566000000E+00 0.  1.
         13    1    1    2    0    0  0.29334535999E+02 -0.70877478919E+01  0.13024104388E+02  0.32869280972E+02  0.10566000000E+00 0. -1.
         -4    1    1    2    0  502 -0.11552303991E+02  0.72556741820E+01  0.49315630849E+02  0.51167684932E+02  0.00000000000E+00 0. -1.
</event>
<event>
 5    1  0.4419198E-005  0.4738259E+03  0.7818608E-02  0.9537262E-01
         21   -1    0    0  501  502  0.00000000000E+00  0.00000000000E+00  0.30100125904E+03  0.30100125904E+03  0.00000000000E+00 0. -1.
         -4   -1    0    0    0  501 -0.00000000000E+00 -0.00000000000E+00 -0.24450029112E+04  0.24450029112E+04  0.00000000000E+00 0. -1.
        -13    1    1    2    0    0 -0.32515013917E+03  0.32804690558E+03 -0.12104407096E+04  0.12955709582E+04  0.10566000000E+00 0.  1.
         13    1    1    2    0    0  0.48696741656E+03 -0.27848115741E+03 -0.64062395236E+02  0.56461758870E+03  0.10566000000E+00 0. -1.
         -4    1    1    2    0  502 -0.16181727740E+03 -0.49565748175E+02 -0.86949854737E+03  0.88581562333E+03  0.00000000000E+00 0. -1.
</event>
<event>
 5    1  0.4419198E-005  0.1908738E+03  0.7818608E-02  0.1093661E+00
         21   -1    0    0  501  502  0.00000000000E+00  0.00000000000E+00  0.18804711679E+03  0.18804711679E+03  0.00000000000E+00 0.  1.
          4   -1    0    0  502    0 -0.00000000000E+00 -0.00000000000E+00 -0.98643053226E+03  0.98643053226E+03  0.00000000000E+00 0.  1.
        -13    1    1    2    0    0  0.21591422109E+02 -0.26772424865E+03 -0.85411388848E+03  0.89535077399E+03  0.10566000000E+00 0.  1.
         13    1    1    2    0    0  0.17130841500E+02  0.87510879304E+02  0.19188376411E+02  0.91213072969E+02  0.10566000000E+00 0. -1.
          4    1    1    2  501    0 -0.38722263610E+02  0.18021336935E+03  0.36542096603E+02  0.18791380208E+03  0.00000000000E+00 0.  1.
</event>
<event>
 5    1  0.4419198E-005  0.8257853E+02  0.7818608E-02  0.1197118E+00
          4   -1    0    0  502    0 -0.00000000000E+00  0.00000000000E+00  0.69974077858E+02  0.69974077858E+02  0.00000000000E+00 0.  1.
         21   -1    0    0  501  502  0.00000000000E+00 -0.00000000000E+00 -0.43202223996E+03  0.43202223996E+03  0.00000000000E+00 0.  1.
        -13    1    1    2    0    0  0.11268847347E+03  0.95462421356E+01 -0.18074009857E+02  0.11452730587E+03  0.10566000000E+00 0.  1.
         13    1    1    2    0    0 -0.60566219999E+02  0.88871488964E+01 -0.29102559449E+02  0.67780665023E+02  0.10566000000E+00 0. -1.
          4    1    1    2  501    0 -0.52122253474E+02 -0.18433391032E+02 -0.31487159280E+03  0.31968834693E+03  0.00000000000E+00 0.  1.
</event>
<event>
 5    1  0.4419198E-005  0.5893868E+02  0.7818608E-02  0.1259144E+00
         21   -1    0    0  501  502  0.00000000000E+00  0.00000000000E+00  0.85042669637E+02  0.85042669637E+02  0.00000000000E+00 0.  1.
         -4   -1    0    0    0  501 -0.00000000000E+00 -0.00000000000E+00 -0.25913986913E+03  0.25913986913E+03  0.00000000000E+00 0. -1.
        -13    1    1    2    0    0 -0.81778042852E+02 -0.28779508676E+02  0.15163473070E+02  0.88010513530E+02  0.10566000000E+00 0.  1.
         13    1    1    2    0    0  0.43600494618E+02  0.37071460449E+02 -0.20590209926E+03  0.21370770214E+03  0.10566000000E+00 0. -1.
         -4    1    1    2    0  502  0.38177548233E+02 -0.82919517723E+01  0.16641426699E+02  0.42464323095E+02  0.00000000000E+00 0. -1.
</event>
<event>
 5    1  0.4419198E-005  0.4991153E+03  0.7818608E-02  0.9479913E-01
         -4   -1    0    0    0  501 -0.00000000000E+00  0.00000000000E+00  0.21324755410E+04  0.21324755410E+04  0.00000000000E+00 0. -1.
         21   -1    0    0  501  502  0.00000000000E+00 -0.00000000000E+00 -0.25659437278E+03  0.25659437278E+03  0.00000000000E+00 0.  1.
        -13    1    1    2    0    0 -0.34471751828E+03  0.22035474487E+03  0.17535150612E+03  0.44512306485E+03  0.10566000000E+00 0.  1.
         13    1    1    2    0    0  0.43118738712E+03 -0.29950107309E+03  0.17421646418E+04  0.18195496986E+04  0.10566000000E+00 0. -1.
         -4    1    1    2    0  502 -0.86469868839E+02  0.79146328219E+02 -0.41634979613E+02  0.12439715035E+03  0.00000000000E+00 0. -1.
</event>
<event>
 5    1  0.4419198E-005  0.2734698E+03  0.7818608E-02  0.1020379E+00
          4   -1    0    0  502    0 -0.00000000000E+00  0.00000000000E+00  0.61673607591E+03  0.61673607591E+03  0.00000000000E+00 0.  1.
         21   -1    0    0  501  502  0.00000000000E+00 -0.00000000000E+00 -0.78549891657E+03  0.78549891657E+03  0.00000000000E+00 0.  1.
        -13    1    1    2    0    0  0.44015148956E+03  0.58861753768E+02  0.19877768881E+03  0.48652915694E+03  0.10566000000E+00 0.  1.
         13    1    1    2    0    0 -0.23707007048E+03  0.10918041498E+03  0.17381840803E+03  0.31358480746E+03  0.10566000000E+00 0. -1.
          4    1    1    2  501    0 -0.20308141908E+03 -0.16804216875E+03 -0.54135893750E+03  0.60212102808E+03  0.00000000000E+00 0.  1.
</event>
<event>
 5    1  0.4419198E-005  0.2060864E+02  0.7818608E-02  0.1521023E+00
          4   -1    0    0  502    0 -0.00000000000E+00  0.00000000000E+00  0.19495429462E+02  0.19495429462E+02  0.00000000000E+00 0.  1.
         21   -1    0    0  501  502  0.00000000000E+00 -0.00000000000E+00 -0.56275366855E+02  0.56275366855E+02  0.00000000000E+00 0. -1.
        -13    1    1    2    0    0 -0.11689843032E+02 -0.23749033340E+02 -0.27332238267E+01  0.26611100902E+02  0.10566000000E+00 0.  1.
         13    1    1    2    0    0 -0.56405064687E+01  0.14528946583E+02 -0.17961018968E+02  0.23780558624E+02  0.10566000000E+00 0. -1.
          4    1    1    2  501    0  0.17330349500E+02  0.92200867566E+01 -0.16085694598E+02  0.25379136792E+02  0.00000000000E+00 0.  1.
</event>
<event>
 5    1  0.4419198E-005  0.1855397E+03  0.7818608E-02  0.1105736E+00
          4   -1    0    0  502    0 -0.00000000000E+00  0.00000000000E+00  0.78947664679E+03  0.78947664679E+03  0.00000000000E+00 0.  1.
         21   -1    0    0  501  502  0.00000000000E+00 -0.00000000000E+00 -0.22187099758E+03  0.22187099758E+03  0.00000000000E+00 0.  1.
        -13    1    1    2    0    0 -0.96511590452E+02  0.16963841889E+03  0.65012476712E+03  0.67878855636E+03  0.10566000000E+00 0.  1.
         13    1    1    2    0    0 -0.47085660745E+02 -0.51771469918E+02 -0.12383798703E+03  0.14224346291E+03  0.10566000000E+00 0. -1.
          4    1    1    2  501    0  0.14359725120E+03 -0.11786694897E+03  0.41318869126E+02  0.19031562510E+03  0.00000000000E+00 0.  1.
</event>
<event>
 5    1  0.4419198E-005  0.4222990E+03  0.7818608E-02  0.9930546E-01
         21   -1    0    0  501  502  0.00000000000E+00  0.00000000000E+00  0.14615252440E+03  0.14615252440E+03  0.00000000000E+00 0.  1.
          4   -1    0    0  502    0 -0.00000000000E+00 -0.00000000000E+00 -0.25226373254E+04  0.25226373254E+04  0.00000000000E+00 0.  1.
        -13    1    1    2    0    0  0.25313483164E+03  0.25034373362E+03 -0.14893960259E+04  0.15313555306E+04  0.10566000000E+00 0.  1.
         13    1    1    2    0    0 -0.68438898416E+02  0.15731551670E+03 -0.55283655027E+03  0.57884394882E+03  0.10566000000E+00 0. -1.
          4    1    1    2  501    0 -0.18469593323E+03 -0.40765925032E+03 -0.33425222490E+03  0.55859037046E+03  0.00000000000E+00 0.  1.
</event>
<event>
 5    1  0.4419198E-005  0.4867094E+03  0.7818608E-02  0.9981149E-01
         21   -1    0    0  501  502  0.00000000000E+00  0.00000000000E+00  0.12217642550E+03  0.12217642550E+03  0.00000000000E+00 0.  1.
          4   -1    0    0  502    0 -0.00000000000E+00 -0.00000000000E+00 -0.24419554381E+04  0.24419554381E+04  0.00000000000E+00 0.  1.
        -13    1    1    2    0    0  0.18322824541E+03 -0.50909919694E+03 -0.12451352466E+04  0.13576142220E+04  0.10566000000E+00 0.  1.
         13    1    1    2    0    0 -0.86061449907E+01  0.94401844929E+02 -0.24517776721E+03  0.26286483743E+03  0.10566000000E+00 0. -1.
          4    1    1    2  501    0 -0.17462210042E+03  0.41469735201E+03 -0.82946599879E+03  0.94365280420E+03  0.00000000000E+00 0.  1.
</event>
<event>
 5    1  0.4419198E-005  0.1416371E+03  0.7818608E-02  0.1109665E+00
         -4   -1    0    0    0  501 -0.00000000000E+00  0.00000000000E+00  0.81629909272E+03  0.81629909272E+03  0.00000000000E+00 0. -1.
         21   -1    0    0  501  502  0.00000000000E+00 -0.00000000000E+00 -0.80255151248E+02  0.80255151248E+02  0.00000000000E+00 0. -1.
        -13    1    1    2    0    0 -0.13842506350E+03 -0.13107669336E+02  0.54527129540E+03  0.56272027327E+03  0.10566000000E+00 0.  1.
         13    1    1    2    0    0  0.14855622499E+03 -0.26240676339E+01  0.23938407043E+03  0.28174559810E+03  0.10566000000E+00 0. -1.
         -4    1    1    2    0  502 -0.10131161489E+02  0.15731736970E+02 -0.48611424356E+02  0.52088372591E+02  0.00000000000E+00 0. -1.
</event>
<event>
 5    1  0.4419198E-005  0.2768487E+03  0.7818608E-02  0.1017347E+00
         21   -1    0    0  501  502  0.00000000000E+00  0.00000000000E+00  0.46748054640E+03  0.46748054640E+03  0.00000000000E+00 0. -1.
         -4   -1    0    0    0  501 -0.00000000000E+00 -0.00000000000E+00 -0.88261552699E+03  0.88261552699E+03  0.00000000000E+00 0. -1.
        -13    1    1    2    0    0 -0.19728182413E+03  0.19135642826E+03 -0.36438256574E+03  0.45641216696E+03  0.10566000000E+00 0.  1.
         13    1    1    2    0    0  0.19228044593E+03 -0.20180979525E+03 -0.43098709336E+03  0.51327268498E+03  0.10566000000E+00 0. -1.
         -4    1    1    2    0  502  0.50013781981E+01  0.10453366987E+02  0.38023467850E+03  0.38041122145E+03  0.00000000000E+00 0. -1.
</event>
<event>
 5    1  0.4419198E-005  0.1341162E+03  0.7818608E-02  0.1117927E+00
         -4   -1    0    0    0  501 -0.00000000000E+00  0.00000000000E+00  0.31780057892E+02  0.31780057892E+02  0.00000000000E+00 0. -1.
         21   -1    0    0  501  502  0.00000000000E+00 -0.00000000000E+00 -0.66229194758E+03  0.66229194758E+03  0.00000000000E+00 0.  1.
        -13    1    1    2    0    0  0.10557959347E+03 -0.84602561396E+02 -0.36883295749E+03  0.39286436037E+03  0.10566000000E+00 0.  1.
         13    1    1    2    0    0 -0.97389401709E+02  0.91386990141E+02 -0.21320181114E+03  0.25157762415E+03  0.10566000000E+00 0. -1.
         -4    1    1    2    0  502 -0.81901917636E+01 -0.67844287453E+01 -0.48477121053E+02  0.49630020956E+02  0.00000000000E+00 0. -1.
</event>
<event>
 5    1  0.4419198E-005  0.5317282E+03  0.7818608E-02  0.9515010E-01
         -4   -1    0    0    0  501 -0.00000000000E+00  0.00000000000E+00  0.40318207707E+03  0.40318207707E+03  0.00000000000E+00 0. -1.
         21   -1    0    0  501  502  0.00000000000E+00 -0.00000000000E+00 -0.13870963448E+04  0.13870963448E+04  0.00000000000E+00 0. -1.
        -13    1    1    2    0    0 -0.18296270994E+03  0.31392382563E+03 -0.16358174340E+03  0.39847524322E+03  0.10566000000E+00 0.  1.
         13    1    1    2    0    0 -0.28711576697E+03 -0.52820161273E+03 -0.51562493986E+03  0.79202367207E+03  0.10566000000E+00 0. -1.
         -4    1    1    2    0  502  0.47007847691E+03  0.21427778711E+03 -0.30470758449E+03  0.59977950661E+03  0.00000000000E+00 0. -1.
</event>
<event>
 5    1  0.4419198E-005  0.4434753E+02  0.7818608E-02  0.1316687E+00
         21   -1    0    0  501  502  0.00000000000E+00  0.00000000000E+00  0.11045954822E+03  0.11045954822E+03  0.00000000000E+00 0. -1.
         -4   -1    0    0    0  501 -0.00000000000E+00 -0.00000000000E+00 -0.78336066651E+02  0.78336066651E+02  0.00000000000E+00 0. -1.
        -13    1    1    2    0    0 -0.37931534999E+02 -0.19230511476E+02 -0.28976352031E+02  0.51461189844E+02  0.10566000000E+00 0.  1.
         13    1    1    2    0    0  0.47970380968E+02  0.63915262062E+01 -0.21634508956E+02  0.53010114123E+02  0.10566000000E+00 0. -1.
         -4    1    1    2    0  502 -0.10038845969E+02  0.12838985270E+02  0.82734342560E+02  0.84324310907E+02  0.00000000000E+00 0. -1.
</event>
<event>
 5    1  0.4419198E-005  0.2076013E+03  0.7818608E-02  0.1055046E+00
         21   -1    0    0  501  502  0.00000000000E+00  0.00000000000E+00  0.25569728909E+03  0.25569728909E+03  0.00000000000E+00 0.  1.
         -4   -1    0    0    0  501 -0.00000000000E+00 -0.00000000000E+00 -0.51927143272E+03  0.51927143272E+03  0.00000000000E+00 0. -1.
        -13    1    1    2    0    0 -0.84266199270E+02  0.16349729520E+03  0.18374804345E+03  0.25999137008E+03  0.10566000000E+00 0.  1.
         13    1    1    2    0    0  0.88126505789E+02 -0.19079871163E+03 -0.43809942425E+03  0.48590281546E+03  0.10566000000E+00 0. -1.
         -4    1    1    2    0  502 -0.38603065192E+01  0.27301416422E+02 -0.92227628340E+01  0.29074536271E+02  0.00000000000E+00 0. -1.
</event>
<event>
 5    1  0.4419198E-005  0.4893405E+02  0.7818608E-02  0.1296191E+00
         21   -1    0    0  501  502  0.00000000000E+00  0.00000000000E+00  0.22566848652E+02  0.22566848652E+02  0.00000000000E+00 0. -1.
         -4   -1    0    0    0  501 -0.00000000000E+00 -0.00000000000E+00 -0.28880767758E+03  0.28880767758E+03  0.00000000000E+00 0. -1.
        -13    1    1    2    0    0  0.30789553242E+02 -0.33115801479E+02 -0.27914764370E+02  0.53140362535E+02  0.10566000000E+00 0.  1.
         13    1    1    2    0    0 -0.56102125007E+02 -0.18293720219E+01 -0.12780031967E+03  0.13958412483E+03  0.10566000000E+00 0. -1.
         -4    1    1    2    0  502  0.25312571765E+02  0.34945173501E+02 -0.11052574488E+03  0.11865003886E+03  0.00000000000E+00 0. -1.
</event>
<event>
 5    1  0.4419198E-005  0.2140033E+03  0.7818608E-02  0.1050938E+00
         21   -1    0    0  501  502  0.00000000000E+00  0.00000000000E+00  0.22623873712E+03  0.22623873712E+03  0.00000000000E+00 0. -1.
         -4   -1    0    0    0  501 -0.00000000000E+00 -0.00000000000E+00 -0.44430921060E+03  0.44430921060E+03  0.00000000000E+00 0. -1.
        -13    1    1    2    0    0 -0.93989134576E+02  0.16956576567E+03 -0.11858818641E+03  0.22726564946E+03  0.10566000000E+00 0.  1.
         13    1    1    2    0    0  0.36625020357E+02 -0.23971937944E+03 -0.19532426808E+03  0.31138136403E+03  0.10566000000E+00 0. -1.
         -4    1    1    2    0  502  0.57364114219E+02  0.70153613772E+02  0.95841981015E+02  0.13190093423E+03  0.00000000000E+00 0. -1.
</event>
<event>
 5    1  0.4419198E-005  0.3282034E+03  0.7818608E-02  0.1014482E+00
         21   -1    0    0  501  502  0.00000000000E+00  0.00000000000E+00  0.88836398899E+03  0.88836398899E+03  0.00000000000E+00 0. -1.
         -4   -1    0    0    0  501 -0.00000000000E+00 -0.00000000000E+00 -0.49861023419E+03  0.49861023419E+03  0.00000000000E+00 0. -1.
        -13    1    1    2    0    0  0.18198088107E+03 -0.27599168894E+01 -0.13430275529E+03  0.22618996321E+03  0.10566000000E+00 0.  1.
         13    1    1    2    0    0  0.82486084799E+02 -0.31101647509E+03  0.65522312142E+03  0.72996750063E+03  0.10566000000E+00 0. -1.
         -4    1    1    2    0  502 -0.26446696587E+03  0.31377639198E+03 -0.13116661133E+03  0.43081675934E+03  0.00000000000E+00 0. -1.
</event>
<event>
 5    1  0.4419198E-005  0.3117322E+02  0.7818608E-02  0.1395728E+00
         -4   -1    0    0    0  501 -0.00000000000E+00  0.00000000000E+00  0.28203929336E+02  0.28203929336E+02  0.00000000000E+00 0. -1.
         21   -1    0    0  501  502  0.00000000000E+00 -0.00000000000E+00 -0.22258088329E+03  0.22258088329E+03  0.00000000000E+00 0. -1.
        -13    1    1    2    0    0 -0.32942093175E+02 -0.79200358896E+01 -0.17846644909E+02  0.38293894680E+02  0.10566000000E+00 0.  1.
         13    1    1    2    0    0  0.24751866039E+02  0.18198076809E+02  0.44425786412E+01  0.31041464865E+02  0.10566000000E+00 0. -1.
         -4    1    1    2    0  502  0.81902271358E+01 -0.10278040919E+02 -0.18097288769E+03  0.18144945308E+03  0.00000000000E+00 0. -1.
</event>
<event>
 5    1  0.4419198E-005  0.3980041E+03  0.7818608E-02  0.1002313E+00
         -4   -1    0    0    0  501 -0.00000000000E+00  0.00000000000E+00  0.35892161240E+04  0.35892161240E+04  0.00000000000E+00 0. -1.
         21   -1    0    0  501  502  0.00000000000E+00 -0.00000000000E+00 -0.99232759058E+02  0.99232759058E+02  0.00000000000E+00 0. -1.
        -13    1    1    2    0    0  0.91421506941E+02  0.12027655019E+03  0.20836035595E+03  0.25736819841E+03  0.10566000000E+00 0.  1.
         13    1    1    2    0    0  0.37627832373E+03  0.26009032583E+02  0.62777977966E+03  0.73237238451E+03  0.10566000000E+00 0. -1.
         -4    1    1    2    0  502 -0.46769983067E+03 -0.14628558277E+03  0.26538432293E+04  0.26987083001E+04  0.00000000000E+00 0. -1.
</event>
<event>
 5    1  0.4419198E-005  0.2960289E+03  0.7818608E-02  0.1011314E+00
         21   -1    0    0  501  502  0.00000000000E+00  0.00000000000E+00  0.32027759258E+03  0.32027759258E+03  0.00000000000E+00 0.  1.
          4   -1    0    0  502    0 -0.00000000000E+00 -0.00000000000E+00 -0.24396396957E+04  0.24396396957E+04  0.00000000000E+00 0.  1.
        -13    1    1    2    0    0  0.39333086114E+03 -0.46683325801E+02 -0.76023810763E+03  0.85723420994E+03  0.10566000000E+00 0.  1.
         13    1    1    2    0    0 -0.15722489635E+03  0.22494821453E+03 -0.15344420238E+04  0.15587923861E+04  0.10566000000E+00 0. -1.
          4    1    1    2  501    0 -0.23610596479E+03 -0.17826488873E+03  0.17531802834E+03  0.34389069226E+03  0.00000000000E+00 0.  1.
</event>
<event>
 5    1  0.4419198E-005  0.1665807E+03  0.7818608E-02  0.1085819E+00
         -4   -1    0    0    0  501 -0.00000000000E+00  0.00000000000E+00  0.31032547100E+03  0.31032547100E+03  0.00000000000E+00 0. -1.
         21   -1    0    0  501  502  0.00000000000E+00 -0.00000000000E+00 -0.90718471945E+03  0.90718471945E+03  0.00000000000E+00 0.  1.
        -13    1    1    2    0    0 -0.11747089577E+03 -0.17115642695E+02 -0.14547712739E+03  0.18776571129E+03  0.10566000000E+00 0.  1.
         13    1    1    2    0    0  0.13485611731E+03  0.11494401664E+03  0.25824698799E+03  0.31319293943E+03  0.10566000000E+00 0. -1.
         -4    1    1    2    0  502 -0.17385221542E+02 -0.97828373947E+02 -0.70962910905E+03  0.71655153973E+03  0.00000000000E+00 0. -1.
</event>
<event>
 5    1  0.4419198E-005  0.1253348E+03  0.7818608E-02  0.1128348E+00
          4   -1    0    0  502    0 -0.00000000000E+00  0.00000000000E+00  0.72235231408E+03  0.72235231408E+03  0.00000000000E+00 0.  1.
         21   -1    0    0  501  502  0.00000000000E+00 -0.00000000000E+00 -0.26357269177E+03  0.26357269177E+03  0.00000000000E+00 0. -1.
        -13    1    1    2    0    0 -0.51524333935E+02  0.11349814877E+03  0.68543947247E+03  0.69668060712E+03  0.10566000000E+00 0.  1.
         13    1    1    2    0    0  0.69757540379E+02 -0.13248251582E+03 -0.16853285696E+03  0.22543528223E+03  0.10566000000E+00 0. -1.
          4    1    1    2  501    0 -0.18233206444E+02  0.18984367046E+02 -0.58126993201E+02  0.63809116495E+02  0.00000000000E+00 0.  1.
</event>
<event>
 5    1  0.4419198E-005  0.4910264E+03  0.7818608E-02  0.9906703E-01
         -4   -1    0    0    0  501 -0.00000000000E+00  0.00000000000E+00  0.16004320141E+04  0.16004320141E+04  0.00000000000E+00 0. -1.
         21   -1    0    0  501  502  0.00000000000E+00 -0.00000000000E+00 -0.19330669861E+03  0.19330669861E+03  0.00000000000E+00 0. -1.
        -13    1    1    2    0    0 -0.11274071630E+03 -0.35369177010E+02  0.20421148442E+03  0.23593174718E+03  0.10566000000E+00 0.  1.
         13    1    1    2    0    0  0.41330270625E+03  0.35195737746E+03  0.55323445603E+03  0.77508805760E+03  0.10566000000E+00 0. -1.
         -4    1    1    2    0  502 -0.30056198995E+03 -0.31658820045E+03  0.64967937502E+03  0.78271890790E+03  0.00000000000E+00 0. -1.
</event>
<event>
 5    1  0.4419198E-005  0.1122109E+03  0.7818608E-02  0.1168405E+00
         -4   -1    0    0    0  501 -0.00000000000E+00  0.00000000000E+00  0.39393919631E+03  0.39393919631E+03  0.00000000000E+00 0. -1.
         21   -1    0    0  501  502  0.00000000000E+00 -0.00000000000E+00 -0.14612135382E+03  0.14612135382E+03  0.00000000000E+00 0. -1.
        -13    1    1    2    0    0  0.48085658145E+02  0.11832821819E+03 -0.38681295666E+02  0.13345430505E+03  0.10566000000E+00 0.  1.
         13    1    1    2    0    0  0.40846786641E+02 -0.49900878717E+02  0.28724312483E+03  0.29439290345E+03  0.10566000000E+00 0. -1.
         -4    1    1    2    0  502 -0.88932444787E+02 -0.68427339468E+02 -0.74398668194E+00  0.11221334162E+03  0.00000000000E+00 0. -1.
</event>
<event>
 5    1  0.4419198E-005  0.1365226E+03  0.7818608E-02  0.1115221E+00
         21   -1    0    0  501  502  0.00000000000E+00  0.00000000000E+00  0.17048276850E+03  0.17048276850E+03  0.00000000000E+00 0. -1.
          4   -1    0    0  502    0 -0.00000000000E+00 -0.00000000000E+00 -0.14226321955E+03  0.14226321955E+03  0.00000000000E+00 0.  1.
        -13    1    1    2    0    0  0.49577856254E+02  0.12252089653E+03 -0.25542519470E+02  0.13461710657E+03  0.10566000000E+00 0.  1.
         13    1    1    2    0    0 -0.46911390586E+02 -0.13548611072E+03  0.23755301978E+02  0.14533234431E+03  0.10566000000E+00 0. -1.
          4    1    1    2  501    0 -0.26664656680E+01  0.12965214193E+02  0.30006766444E+02  0.32796537175E+02  0.00000000000E+00 0.  1.
</event>
<event>
 5    1  0.4419198E-005  0.9679065E+02  0.7818608E-02  0.1169977E+00
         21   -1    0    0  501  502  0.00000000000E+00  0.00000000000E+00  0.16556302776E+03  0.16556302776E+03  0.00000000000E+00 0.  1.
          4   -1    0    0  502    0 -0.00000000000E+00 -0.00000000000E+00 -0.43785073284E+03  0.43785073284E+03  0.00000000000E+00 0.  1.
        -13    1    1    2    0    0 -0.84490209415E+01 -0.93231829345E+02 -0.29483614096E+03  0.30934110806E+03  0.10566000000E+00 0.  1.
         13    1    1    2    0    0  0.19782395728E+01  0.10607089717E+03 -0.11460330087E+03  0.15616938366E+03  0.10566000000E+00 0. -1.
          4    1    1    2  501    0  0.64707813687E+01 -0.12839067822E+02  0.13715173675E+03  0.13790326888E+03  0.00000000000E+00 0.  1.
</event>
<event>
 5    1  0.4419198E-005  0.1447317E+03  0.7818608E-02  0.1106427E+00
         -4   -1    0    0    0  501 -0.00000000000E+00  0.00000000000E+00  0.85230524779E+03  0.85230524779E+03  0.00000000000E+00 0. -1.
         21   -1    0    0  501  502  0.00000000000E+00 -0.00000000000E+00 -0.68121415379E+03  0.68121415379E+03  0.00000000000E+00 0. -1.
        -13    1    1    2    0    0  0.18563906212E+03  0.10683285791E+03  0.40173111584E+03  0.45526148697E+03  0.10566000000E+00 0.  1.
         13    1    1    2    0    0 -0.64431598987E+02 -0.10853871881E+03  0.40858666053E+03  0.42763904728E+03  0.10566000000E+00 0. -1.
         -4    1    1    2    0  502 -0.12120746314E+03  0.17058609047E+01 -0.63922668237E+03  0.65061886733E+03  0.00000000000E+00 0. -1.
</event>
<event>
 5    1  0.4419198E-005  0.5350576E+02  0.7818608E-02  0.1278138E+00
         21   -1    0    0  501  502  0.00000000000E+00  0.00000000000E+00  0.11977875592E+03  0.11977875592E+03  0.00000000000E+00 0. -1.
          4   -1    0    0  502    0 -0.00000000000E+00 -0.00000000000E+00 -0.40303442520E+02  0.40303442520E+02  0.00000000000E+00 0.  1.
        -13    1    1    2    0    0  0.18662058315E+02  0.53388258270E+02 -0.20971879113E+00  0.56556464596E+02  0.10566000000E+00 0.  1.
         13    1    1    2    0    0 -0.10956502440E+02 -0.46872693446E+02  0.40027108622E+02  0.62604112687E+02  0.10566000000E+00 0. -1.
          4    1    1    2  501    0 -0.77055558752E+01 -0.65155648235E+01  0.39657923572E+02  0.40921621160E+02  0.00000000000E+00 0.  1.
</event>
<event>
 5    1  0.4419198E-005  0.3989556E+03  0.7818608E-02  0.9732067E-01
         21   -1    0    0  501  502  0.00000000000E+00  0.00000000000E+00  0.12137338897E+03  0.12137338897E+03  0.00000000000E+00 0. -1.
          4   -1    0    0  502    0 -0.00000000000E+00 -0.00000000000E+00 -0.15782880187E+04  0.15782880187E+04  0.00000000000E+00 0.  1.
        -13    1    1    2    0    0 -0.41550214694E+03  0.31373269834E+02 -0.93446454666E+03  0.10231570340E+04  0.10566000000E+00 0.  1.
         13    1    1    2    0    0  0.36981569454E+03 -0.56427488770E+02 -0.48413208194E+03  0.61182644054E+03  0.10566000000E+00 0. -1.
          4    1    1    2  501    0  0.45686452398E+02  0.25054218936E+02 -0.38318001125E+02  0.64677933095E+02  0.00000000000E+00 0.  1.
</event>
<event>
 5    1  0.4419198E-005  0.4890565E+03  0.7818608E-02  0.9655636E-01
         21   -1    0    0  501  502  0.00000000000E+00  0.00000000000E+00  0.34976488007E+03  0.34976488007E+03  0.00000000000E+00 0.  1.
          4   -1    0    0  502    0 -0.00000000000E+00 -0.00000000000E+00 -0.13522598203E+04  0.13522598203E+04  0.00000000000E+00 0.  1.
        -13    1    1    2    0    0  0.49094420488E+03 -0.29778318619E+03 -0.12038645670E+03  0.58668044829E+03  0.10566000000E+00 0.  1.
         13    1    1    2    0    0 -0.27382436158E+03  0.70418955937E+02 -0.15329907537E+03  0.32161969470E+03  0.10566000000E+00 0. -1.
          4    1    1    2  501    0 -0.21711984330E+03  0.22736423025E+03 -0.72880940813E+03  0.79372455734E+03  0.00000000000E+00 0.  1.
</event>
<event>
 5    1  0.4419198E-005  0.3389131E+03  0.7818608E-02  0.1013362E+00
          4   -1    0    0  502    0 -0.00000000000E+00  0.00000000000E+00  0.69703593048E+03  0.69703593048E+03  0.00000000000E+00 0.  1.
         21   -1    0    0  501  502  0.00000000000E+00 -0.00000000000E+00 -0.51663269925E+03  0.51663269925E+03  0.00000000000E+00 0.  1.
        -13    1    1    2    0    0  0.35525692473E+03  0.34693984382E+02  0.41378286807E+03  0.54646814014E+03  0.10566000000E+00 0.  1.
         13    1    1    2    0    0 -0.71395472141E+02  0.15570626477E+03  0.92730655017E+02  0.19478382858E+03  0.10566000000E+00 0. -1.
          4    1    1    2  501    0 -0.28386145258E+03 -0.19040024915E+03 -0.32611029186E+03  0.47241666101E+03  0.00000000000E+00 0.  1.
</event>
<event>
 5    1  0.4419198E-005  0.2755353E+03  0.7818608E-02  0.1017948E+00
         21   -1    0    0  501  502  0.00000000000E+00  0.00000000000E+00  0.10721751145E+04  0.10721751145E+04  0.00000000000E+00 0.  1.
         -4   -1    0    0    0  501 -0.00000000000E+00 -0.00000000000E+00 -0.77523673264E+03  0.77523673264E+03  0.00000000000E+00 0. -1.
        -13    1    1    2    0    0 -0.33770727249E+03 -0.10157475426E+02  0.36619331955E+03  0.49824385059E+03  0.10566000000E+00 0.  1.
         13    1    1    2    0    0  0.27175930143E+03  0.29065917779E+01 -0.68131632110E+03  0.73352130627E+03  0.10566000000E+00 0. -1.
         -4    1    1    2    0  502  0.65947971059E+02  0.72508836483E+01  0.61206138341E+03  0.61564669028E+03  0.00000000000E+00 0. -1.
</event>
<event>
 5    1  0.4419198E-005  0.4400250E+03  0.7818608E-02  0.1005966E+00
         -4   -1    0    0    0  501 -0.00000000000E+00  0.00000000000E+00  0.27872657567E+03  0.27872657567E+03  0.00000000000E+00 0. -1.
         21   -1    0    0  501  502  0.00000000000E+00 -0.00000000000E+00 -0.11895171170E+04  0.11895171170E+04  0.00000000000E+00 0. -1.
        -13    1    1    2    0    0 -0.12221333459E+02 -0.98526569735E+02  0.65834568012E+01  0.99499743732E+02  0.10566000000E+00 0.  1.
         13    1    1    2    0    0 -0.20887314218E+03  0.41061922764E+03 -0.86855347612E+03  0.98316900464E+03  0.10566000000E+00 0. -1.
         -4    1    1    2    0  502  0.22109447564E+03 -0.31209265791E+03 -0.48820521979E+02  0.38557494426E+03  0.00000000000E+00 0. -1.
</event>
<event>
 5    1  0.4419198E-005  0.4820511E+03  0.7818608E-02  0.9705743E-01
         21   -1    0    0  501  502  0.00000000000E+00  0.00000000000E+00  0.24477000748E+03  0.24477000748E+03  0.00000000000E+00 0.  1.
          4   -1    0    0  502    0 -0.00000000000E+00 -0.00000000000E+00 -0.21979424928E+04  0.21979424928E+04  0.00000000000E+00 0.  1.
        -13    1    1    2    0    0  0.27020541662E+03  0.25337505473E+03 -0.67368175160E+03  0.76880231473E+03  0.10566000000E+00 0.  1.
         13    1    1    2    0    0 -0.22583557455E+02  0.24675924244E+03 -0.10356609244E+04  0.10648914040E+04  0.10566000000E+00 0. -1.
          4    1    1    2  501    0 -0.24762185917E+03 -0.50013429717E+03 -0.24382980926E+03  0.60901878150E+03  0.00000000000E+00 0.  1.
</event>
<event>
 5    1  0.4419198E-005  0.1549722E+03  0.7818608E-02  0.1117344E+00
         21   -1    0    0  501  502  0.00000000000E+00  0.00000000000E+00  0.33447740790E+03  0.33447740790E+03  0.00000000000E+00 0. -1.
         -4   -1    0    0    0  501 -0.00000000000E+00 -0.00000000000E+00 -0.14541579698E+04  0.14541579698E+04  0.00000000000E+00 0. -1.
        -13    1    1    2    0    0 -0.10495150324E+03  0.17649722434E+03 -0.63922409778E+03  0.67139671326E+03  0.10566000000E+00 0.  1.
         13    1    1    2    0    0 -0.11068928671E+03  0.30563640098E+02  0.27865055292E+03  0.30138413378E+03  0.10566000000E+00 0. -1.
         -4    1    1    2    0  502  0.21564078996E+03 -0.20706086444E+03 -0.75910701709E+03  0.81585453071E+03  0.00000000000E+00 0. -1.
</event>
<event>
 5    1  0.4419198E-005  0.4797284E+03  0.7818608E-02  0.9941234E-01
          4   -1    0    0  502    0 -0.00000000000E+00  0.00000000000E+00  0.21705729653E+04  0.21705729653E+04  0.00000000000E+00 0.  1.
         21   -1    0    0  501  502  0.00000000000E+00 -0.00000000000E+00 -0.15299966851E+03  0.15299966851E+03  0.00000000000E+00 0.  1.
        -13    1    1    2    0    0  0.18857769249E+02 -0.43370763315E+03  0.61466509910E+03  0.75250988148E+03  0.10566000000E+00 0.  1.
         13    1    1    2    0    0  0.37524011656E+02 -0.10653007605E+03  0.53808572615E+03  0.54981175724E+03  0.10566000000E+00 0. -1.
          4    1    1    2  501    0 -0.56381780905E+02  0.54023770920E+03  0.86482247149E+03  0.10212509950E+04  0.00000000000E+00 0.  1.
</event>
<event>
 5    1  0.4419198E-005  0.6517313E+03  0.7818608E-02  0.9196103E-01
         -4   -1    0    0    0  501 -0.00000000000E+00  0.00000000000E+00  0.12152326869E+04  0.12152326869E+04  0.00000000000E+00 0. -1.
         21   -1    0    0  501  502  0.00000000000E+00 -0.00000000000E+00 -0.45188324568E+03  0.45188324568E+03  0.00000000000E+00 0.  1.
        -13    1    1    2    0    0 -0.63632554288E+03  0.10549163028E+03  0.47944028025E+03  0.80368008192E+03  0.10566000000E+00 0.  1.
         13    1    1    2    0    0  0.64921256336E+03 -0.11679712058E+03  0.38307389824E+03  0.76280019827E+03  0.10566000000E+00 0. -1.
         -4    1    1    2    0  502 -0.12887020474E+02  0.11305490304E+02 -0.99164737290E+02  0.10063565238E+03  0.00000000000E+00 0. -1.
</event>
<event>
 5    1  0.4419198E-005  0.1492658E+03  0.7818608E-02  0.1101838E+00
         21   -1    0    0  501  502  0.00000000000E+00  0.00000000000E+00  0.80219294674E+02  0.80219294674E+02  0.00000000000E+00 0.  1.
          4   -1    0    0  502    0 -0.00000000000E+00 -0.00000000000E+00 -0.47668351845E+03  0.47668351845E+03  0.00000000000E+00 0.  1.
        -13    1    1    2    0    0  0.80378515333E+01 -0.15387434064E+03 -0.24127413802E+03  0.28627808265E+03  0.10566000000E+00 0.  1.
         13    1    1    2    0    0  0.30142717610E+02  0.14314302920E+03 -0.17350364346E+03  0.22694059948E+03  0.10566000000E+00 0. -1.
          4    1    1    2  501    0 -0.38180569143E+02  0.10731311439E+02  0.18313557705E+02  0.43684130999E+02  0.00000000000E+00 0.  1.
</event>
<event>
 5    1  0.4419198E-005  0.3039423E+02  0.7818608E-02  0.1401771E+00
         21   -1    0    0  501  502  0.00000000000E+00  0.00000000000E+00  0.27424268417E+02  0.27424268417E+02  0.00000000000E+00 0. -1.
          4   -1    0    0  502    0 -0.00000000000E+00 -0.00000000000E+00 -0.80851269319E+02  0.80851269319E+02  0.00000000000E+00 0.  1.
        -13    1    1    2    0    0  0.16643209286E+02  0.25300393992E+02 -0.47998601033E+02  0.56753706634E+02  0.10566000000E+00 0.  1.
         13    1    1    2    0    0 -0.29095712802E+01 -0.33954103686E+02  0.92205812198E+00  0.34091173599E+02  0.10566000000E+00 0. -1.
          4    1    1    2  501    0 -0.13733638005E+02  0.86537096937E+01 -0.63504579910E+01  0.17430657504E+02  0.00000000000E+00 0.  1.
</event>
<event>
 5    1  0.4419198E-005  0.2421782E+03  0.7818608E-02  0.1034528E+00
         -4   -1    0    0    0  501 -0.00000000000E+00  0.00000000000E+00  0.23370118338E+04  0.23370118338E+04  0.00000000000E+00 0. -1.
         21   -1    0    0  501  502  0.00000000000E+00 -0.00000000000E+00 -0.10900304249E+03  0.10900304249E+03  0.00000000000E+00 0. -1.
        -13    1    1    2    0    0 -0.14882202336E+03  0.24013875338E+03  0.10952223274E+04  0.11310731953E+04  0.10566000000E+00 0.  1.
         13    1    1    2    0    0  0.68954658251E+02 -0.21080956806E+03  0.11912411470E+04  0.12117140340E+04  0.10566000000E+00 0. -1.
         -4    1    1    2    0  502  0.79867365110E+02 -0.29329185324E+02 -0.58454683069E+02  0.10322764695E+03  0.00000000000E+00 0. -1.
</event>
<event>
 5    1  0.4419198E-005  0.4946250E+03  0.7818608E-02  0.9895247E-01
         21   -1    0    0  501  502  0.00000000000E+00  0.00000000000E+00  0.15610555351E+03  0.15610555351E+03  0.00000000000E+00 0. -1.
         -4   -1    0    0    0  501 -0.00000000000E+00 -0.00000000000E+00 -0.21928871972E+04  0.21928871972E+04  0.00000000000E+00 0. -1.
        -13    1    1    2    0    0  0.11934040620E+03  0.13610303028E+02 -0.44555125087E+03  0.46145780004E+03  0.10566000000E+00 0.  1.
         13    1    1    2    0    0  0.21730884510E+03 -0.40990657252E+03 -0.98538210395E+03  0.10891393090E+04  0.10566000000E+00 0. -1.
         -4    1    1    2    0  502 -0.33664925129E+03  0.39629626949E+03 -0.60584828888E+03  0.79839564174E+03  0.00000000000E+00 0. -1.
</event>
<event>
 5    1  0.4419198E-005  0.3952369E+03  0.7818608E-02  0.9965592E-01
          4   -1    0    0  502    0 -0.00000000000E+00  0.00000000000E+00  0.57599426657E+03  0.57599426657E+03  0.00000000000E+00 0.  1.
         21   -1    0    0  501  502  0.00000000000E+00 -0.00000000000E+00 -0.63106925992E+03  0.63106925992E+03  0.00000000000E+00 0.  1.
        -13    1    1    2    0    0 -0.20731035020E+03 -0.35266724672E+03 -0.32509443516E+03  0.52253054566E+03  0.10566000000E+00 0.  1.
         13    1    1    2    0    0 -0.10640807533E+03  0.15295597513E+03 -0.51076107056E+02  0.19320193762E+03  0.10566000000E+00 0. -1.
          4    1    1    2  501    0  0.31371842553E+03  0.19971127159E+03  0.32109554887E+03  0.49133104321E+03  0.00000000000E+00 0.  1.
</event>
<event>
 5    1  0.4419198E-005  0.1670395E+03  0.7818608E-02  0.1085424E+00
         -4   -1    0    0    0  501 -0.00000000000E+00  0.00000000000E+00  0.28421437745E+03  0.28421437745E+03  0.00000000000E+00 0. -1.
         21   -1    0    0  501  502  0.00000000000E+00 -0.00000000000E+00 -0.14189579156E+03  0.14189579156E+03  0.00000000000E+00 0. -1.
        -13    1    1    2    0    0 -0.44758529979E+02 -0.15894426393E+03  0.14269121510E+02  0.16574143729E+03  0.10566000000E+00 0.  1.
         13    1    1    2    0    0  0.18681710903E+02  0.16770341935E+03  0.14953460480E+03  0.22546408224E+03  0.10566000000E+00 0. -1.
         -4    1    1    2    0  502  0.26076819076E+02 -0.87591554209E+01 -0.21485140416E+02  0.34904649483E+02  0.00000000000E+00 0. -1.
</event>
<event>
 5    1  0.4419198E-005  0.3586303E+03  0.7818608E-02  0.9856778E-01
          4   -1    0    0  502    0 -0.00000000000E+00  0.00000000000E+00  0.13286147078E+04  0.13286147078E+04  0.00000000000E+00 0.  1.
         21   -1    0    0  501  502  0.00000000000E+00 -0.00000000000E+00 -0.13291899381E+03  0.13291899381E+03  0.00000000000E+00 0. -1.
        -13    1    1    2    0    0 -0.27727150814E+03 -0.21131267127E+03  0.60478950918E+03  0.69807083871E+03  0.10566000000E+00 0.  1.
         13    1    1    2    0    0  0.26129118699E+03  0.26460240956E+03  0.60117019071E+03  0.70688975726E+03  0.10566000000E+00 0. -1.
          4    1    1    2  501    0  0.15980321150E+02 -0.53289738291E+02 -0.10263985942E+02  0.56573105612E+02  0.00000000000E+00 0.  1.
</event>
<event>
 5    1  0.4419198E-005  0.3655443E+03  0.7818608E-02  0.9992348E-01
          4   -1    0    0  502    0 -0.00000000000E+00  0.00000000000E+00  0.27168736417E+03  0.27168736417E+03  0.00000000000E+00 0.  1.
         21   -1    0    0  501  502  0.00000000000E+00 -0.00000000000E+00 -0.15913874402E+04  0.15913874402E+04  0.00000000000E+00 0.  1.
        -13    1    1    2    0    0 -0.51366615886E+03  0.94820077538E+02 -0.33466418244E+03  0.62035787739E+03  0.10566000000E+00 0.  1.
         13    1    1    2    0    0  0.20962587724E+03  0.50687584985E+02 -0.15457361759E+02  0.21622021385E+03  0.10566000000E+00 0. -1.
          4    1    1    2  501    0  0.30404028163E+03 -0.14550766252E+03 -0.96957853179E+03  0.10264967131E+04  0.00000000000E+00 0.  1.
</event>
<event>
 5    1  0.4419198E-005  0.4318733E+03  0.7818608E-02  0.9641267E-01
         21   -1    0    0  501  502  0.00000000000E+00  0.00000000000E+00  0.56240541256E+03  0.56240541256E+03  0.00000000000E+00 0. -1.
         -4   -1    0    0    0  501 -0.00000000000E+00 -0.00000000000E+00 -0.20505432566E+04  0.20505432566E+04  0.00000000000E+00 0. -1.
        -13    1    1    2    0    0  0.12142164788E+03  0.39533002423E+03 -0.14998639033E+04  0.15558344334E+04  0.10566000000E+00 0.  1.
         13    1    1    2    0    0  0.26300641156E+02 -0.70885150741E+03  0.30823215596E+02  0.71000863732E+03  0.10566000000E+00 0. -1.
         -4    1    1    2    0  502 -0.14772228904E+03  0.31352148318E+03 -0.19097156359E+02  0.34710559845E+03  0.00000000000E+00 0. -1.
</event>
<event>
 5    1  0.4419198E-005  0.6226189E+03  0.7818608E-02  0.9243490E-01
         21   -1    0    0  501  502  0.00000000000E+00  0.00000000000E+00  0.33162783591E+03  0.33162783591E+03  0.00000000000E+00 0. -1.
         -4   -1    0    0    0  501 -0.00000000000E+00 -0.00000000000E+00 -0.22422886207E+04  0.22422886207E+04  0.00000000000E+00 0. -1.
        -13    1    1    2    0    0  0.43415569793E+03 -0.35197849452E+03 -0.44265313373E+03  0.71296692673E+03  0.10566000000E+00 0.  1.
         13    1    1    2    0    0 -0.72689420364E+03  0.63788872794E+02 -0.10052711908E+04  0.12421812999E+04  0.10566000000E+00 0. -1.
         -4    1    1    2    0  502  0.29273850571E+03  0.28818962173E+03 -0.46273646031E+03  0.61876823003E+03  0.00000000000E+00 0. -1.
</event>
<event>
 5    1  0.4419198E-005  0.4120058E+03  0.7818608E-02  0.9777666E-01
         21   -1    0    0  501  502  0.00000000000E+00  0.00000000000E+00  0.45630388844E+03  0.45630388844E+03  0.00000000000E+00 0.  1.
          4   -1    0    0  502    0 -0.00000000000E+00 -0.00000000000E+00 -0.10160960265E+04  0.10160960265E+04  0.00000000000E+00 0.  1.
        -13    1    1    2    0    0  0.23832896167E+03 -0.46700340734E+02 -0.55273207482E+03  0.60373369419E+03  0.10566000000E+00 0.  1.
         13    1    1    2    0    0  0.81103359154E+02 -0.29876312531E+03 -0.19068668009E+03  0.36359122795E+03  0.10566000000E+00 0. -1.
          4    1    1    2  501    0 -0.31943232082E+03  0.34546346605E+03  0.18362661685E+03  0.50507499282E+03  0.00000000000E+00 0.  1.
</event>
<event>
 5    1  0.4419198E-005  0.2042812E+02  0.7818608E-02  0.1503987E+00
         21   -1    0    0  501  502  0.00000000000E+00  0.00000000000E+00  0.50985933786E+03  0.50985933786E+03  0.00000000000E+00 0.  1.
          4   -1    0    0  502    0 -0.00000000000E+00 -0.00000000000E+00 -0.10573243441E+02  0.10573243441E+02  0.00000000000E+00 0.  1.
        -13    1    1    2    0    0  0.13395851806E+02  0.15309856072E+02  0.31596310619E+01  0.20587252634E+02  0.10566000000E+00 0.  1.
         13    1    1    2    0    0 -0.24219531735E+02 -0.60300579162E+01  0.88031157331E+02  0.91501055410E+02  0.10566000000E+00 0. -1.
          4    1    1    2  501    0  0.10823679929E+02 -0.92797981555E+01  0.40809530602E+03  0.40834427326E+03  0.00000000000E+00 0.  1.
</event>
<event>
 5    1  0.4419198E-005  0.3143657E+02  0.7818608E-02  0.1414349E+00
         21   -1    0    0  501  502  0.00000000000E+00  0.00000000000E+00  0.18664620323E+03  0.18664620323E+03  0.00000000000E+00 0.  1.
          4   -1    0    0  502    0 -0.00000000000E+00 -0.00000000000E+00 -0.16570517436E+02  0.16570517436E+02  0.00000000000E+00 0.  1.
        -13    1    1    2    0    0 -0.45716771474E+02  0.13327319706E+02  0.39914409355E+02  0.62135431782E+02  0.10566000000E+00 0.  1.
         13    1    1    2    0    0  0.21081385621E+02 -0.73091303355E+01  0.95864783312E+02  0.98427211936E+02  0.10566000000E+00 0. -1.
          4    1    1    2  501    0  0.24635385853E+02 -0.60181893704E+01  0.34296493125E+02  0.42654076946E+02  0.00000000000E+00 0.  1.
</event>
<event>
 5    1  0.4419198E-005  0.3690972E+03  0.7818608E-02  0.1044080E+00
         21   -1    0    0  501  502  0.00000000000E+00  0.00000000000E+00  0.12880160097E+04  0.12880160097E+04  0.00000000000E+00 0. -1.
         -4   -1    0    0    0  501 -0.00000000000E+00 -0.00000000000E+00 -0.23629931182E+03  0.23629931182E+03  0.00000000000E+00 0. -1.
        -13    1    1    2    0    0 -0.10938333973E+02 -0.50014506836E+02 -0.34164018560E+02  0.61549081003E+02  0.10566000000E+00 0.  1.
         13    1    1    2    0    0 -0.27751710551E+03 -0.23259931538E+03  0.98077455165E+03  0.10454840590E+04  0.10566000000E+00 0. -1.
         -4    1    1    2    0  502  0.28845543948E+03  0.28261382222E+03  0.10510616475E+03  0.41728218144E+03  0.00000000000E+00 0. -1.
</event>
<event>
 5    1  0.4419198E-005  0.6208982E+03  0.7818608E-02  0.9358016E-01
         -4   -1    0    0    0  501 -0.00000000000E+00  0.00000000000E+00  0.21079872995E+04  0.21079872995E+04  0.00000000000E+00 0. -1.
         21   -1    0    0  501  502  0.00000000000E+00 -0.00000000000E+00 -0.64044639174E+03  0.64044639174E+03  0.00000000000E+00 0.  1.
        -13    1    1    2    0    0  0.38730140457E+03 -0.66215530279E+03  0.12474400845E+04  0.14644312202E+04  0.10566000000E+00 0.  1.
         13    1    1    2    0    0  0.29439463557E+03  0.17120519061E+03  0.28127247400E+03  0.44169405083E+03  0.10566000000E+00 0. -1.
         -4    1    1    2    0  502 -0.68169604015E+03  0.49095011218E+03 -0.61171650836E+02  0.84230842016E+03  0.00000000000E+00 0. -1.
</event>
<event>
 5    1  0.4419198E-005  0.4362871E+03  0.7818608E-02  0.9629747E-01
          4   -1    0    0  502    0 -0.00000000000E+00  0.00000000000E+00  0.25574511122E+04  0.25574511122E+04  0.00000000000E+00 0.  1.
         21   -1    0    0  501  502  0.00000000000E+00 -0.00000000000E+00 -0.19197482433E+03  0.19197482433E+03  0.00000000000E+00 0. -1.
        -13    1    1    2    0    0 -0.97077983929E+02  0.44187181190E+03  0.14214332907E+04  0.14916928116E+04  0.10566000000E+00 0.  1.
         13    1    1    2    0    0 -0.24249205685E+03 -0.41978747886E+03  0.47929280040E+03  0.68172246899E+03  0.10566000000E+00 0. -1.
          4    1    1    2  501    0  0.33957004077E+03 -0.22084333040E+02  0.46475019679E+03  0.57601065595E+03  0.00000000000E+00 0.  1.
</event>
<event>
 5    1  0.4419198E-005  0.4115001E+03  0.7818608E-02  0.9838374E-01
         -4   -1    0    0    0  501 -0.00000000000E+00  0.00000000000E+00  0.21620677477E+04  0.21620677477E+04  0.00000000000E+00 0. -1.
         21   -1    0    0  501  502  0.00000000000E+00 -0.00000000000E+00 -0.21852116143E+03  0.21852116143E+03  0.00000000000E+00 0. -1.
        -13    1    1    2    0    0 -0.25092428903E+03  0.29401222913E+02  0.83273450068E+03  0.87021502545E+03  0.10566000000E+00 0.  1.
         13    1    1    2    0    0  0.32717124567E+03 -0.31553817307E+03  0.11136662852E+03  0.46798279859E+03  0.10566000000E+00 0. -1.
         -4    1    1    2    0  502 -0.76246956646E+02  0.28613695016E+03  0.99944545709E+03  0.10423910851E+04  0.00000000000E+00 0. -1.
</event>
<event>
 5    1  0.4419198E-005  0.4994172E+03  0.7818608E-02  0.9479250E-01
         21   -1    0    0  501  502  0.00000000000E+00  0.00000000000E+00  0.65440902263E+03  0.65440902263E+03  0.00000000000E+00 0.  1.
          4   -1    0    0  502    0 -0.00000000000E+00 -0.00000000000E+00 -0.11609780955E+04  0.11609780955E+04  0.00000000000E+00 0.  1.
        -13    1    1    2    0    0  0.47503388329E+03 -0.44239213796E+03 -0.16438025298E+02  0.64933674919E+03  0.10566000000E+00 0.  1.
         13    1    1    2    0    0 -0.49033852494E+03  0.12931389342E+02 -0.54453955450E+03  0.73288636735E+03  0.10566000000E+00 0. -1.
          4    1    1    2  501    0  0.15304641643E+02  0.42946074861E+03  0.54408506925E+02  0.43316400160E+03  0.00000000000E+00 0.  1.
</event>
<event>
 5    1  0.4419198E-005  0.2492078E+03  0.7818608E-02  0.1030804E+00
         21   -1    0    0  501  502  0.00000000000E+00  0.00000000000E+00  0.81632465339E+02  0.81632465339E+02  0.00000000000E+00 0. -1.
          4   -1    0    0  502    0 -0.00000000000E+00 -0.00000000000E+00 -0.19698555043E+04  0.19698555043E+04  0.00000000000E+00 0.  1.
        -13    1    1    2    0    0 -0.10577419346E+03  0.25269736185E+03 -0.67647776855E+03  0.72983992710E+03  0.10566000000E+00 0.  1.
         13    1    1    2    0    0  0.19189860805E+03 -0.15628511117E+03 -0.11536834074E+04  0.11799303062E+04  0.10566000000E+00 0. -1.
          4    1    1    2  501    0 -0.86124414595E+02 -0.96412250671E+02 -0.58061863038E+02  0.14171773639E+03  0.00000000000E+00 0.  1.
</event>
<event>
 5    1  0.4419198E-005  0.6665173E+02  0.7818608E-02  0.1235797E+00
         -4   -1    0    0    0  501 -0.00000000000E+00  0.00000000000E+00  0.11613395663E+03  0.11613395663E+03  0.00000000000E+00 0. -1.
         21   -1    0    0  501  502  0.00000000000E+00 -0.00000000000E+00 -0.29622289045E+03  0.29622289045E+03  0.00000000000E+00 0.  1.
        -13    1    1    2    0    0 -0.71769122745E+02  0.16236998406E+02 -0.26189530321E+03  0.27203604192E+03  0.10566000000E+00 0.  1.
         13    1    1    2    0    0  0.62728568698E+02 -0.21795205081E+02  0.99537552027E+02  0.11965634009E+03  0.10566000000E+00 0. -1.
         -4    1    1    2    0  502  0.90405540469E+01  0.55582066754E+01 -0.17731182642E+02  0.20664465074E+02  0.00000000000E+00 0. -1.
</event>
<event>
 5    1  0.4419198E-005  0.4858387E+03  0.7818608E-02  0.9567026E-01
         21   -1    0    0  501  502  0.00000000000E+00  0.00000000000E+00  0.58058500877E+03  0.58058500877E+03  0.00000000000E+00 0.  1.
          4   -1    0    0  502    0 -0.00000000000E+00 -0.00000000000E+00 -0.95569335997E+03  0.95569335997E+03  0.00000000000E+00 0.  1.
        -13    1    1    2    0    0  0.51709994855E+03 -0.13275743518E+02 -0.33076448742E+03  0.61398188854E+03  0.10566000000E+00 0.  1.
         13    1    1    2    0    0 -0.13327445699E+03  0.37178849258E+03  0.28346556866E+01  0.39496431552E+03  0.10566000000E+00 0. -1.
          4    1    1    2  501    0 -0.38382549156E+03 -0.35851274906E+03 -0.47178519466E+02  0.52733216468E+03  0.00000000000E+00 0.  1.
</event>
<event>
 5    1  0.4419198E-005  0.4685836E+03  0.7818608E-02  0.9836860E-01
         21   -1    0    0  501  502  0.00000000000E+00  0.00000000000E+00  0.40904185417E+03  0.40904185417E+03  0.00000000000E+00 0.  1.
          4   -1    0    0  502    0 -0.00000000000E+00 -0.00000000000E+00 -0.90230759603E+03  0.90230759603E+03  0.00000000000E+00 0.  1.
        -13    1    1    2    0    0 -0.39689538223E+03 -0.32333500740E+03  0.71634758587E+02  0.51691684171E+03  0.10566000000E+00 0.  1.
         13    1    1    2    0    0  0.43617945072E+02  0.16635764872E+03 -0.17127552059E+03  0.24271940082E+03  0.10566000000E+00 0. -1.
          4    1    1    2  501    0  0.35327743715E+03  0.15697735868E+03 -0.39362497987E+03  0.55171320767E+03  0.00000000000E+00 0.  1.
</event>
<event>
 5    1  0.4419198E-005  0.4726115E+03  0.7818608E-02  0.1006960E+00
         21   -1    0    0  501  502  0.00000000000E+00  0.00000000000E+00  0.10215103521E+03  0.10215103521E+03  0.00000000000E+00 0. -1.
         -4   -1    0    0    0  501 -0.00000000000E+00 -0.00000000000E+00 -0.28202325286E+04  0.28202325286E+04  0.00000000000E+00 0. -1.
        -13    1    1    2    0    0  0.74514262008E+02  0.21635995238E+02 -0.30350837217E+03  0.31326958785E+03  0.10566000000E+00 0.  1.
         13    1    1    2    0    0  0.37658522020E+03 -0.22185869602E+03 -0.15818371393E+04  0.16411113476E+04  0.10566000000E+00 0. -1.
         -4    1    1    2    0  502 -0.45109948221E+03  0.20022270078E+03 -0.83273598199E+03  0.96800262834E+03  0.00000000000E+00 0. -1.
</event>
<event>
 5    1  0.4419198E-005  0.4988282E+03  0.7818608E-02  0.9754760E-01
         21   -1    0    0  501  502  0.00000000000E+00  0.00000000000E+00  0.18613286115E+03  0.18613286115E+03  0.00000000000E+00 0. -1.
         -4   -1    0    0    0  501 -0.00000000000E+00 -0.00000000000E+00 -0.25420611364E+04  0.25420611364E+04  0.00000000000E+00 0. -1.
        -13    1    1    2    0    0  0.13599422665E+03  0.13084532892E+03 -0.99553189151E+03  0.10132614115E+04  0.10566000000E+00 0.  1.
         13    1    1    2    0    0 -0.10593683338E+03 -0.54578735045E+03 -0.45462005566E+03  0.71818232417E+03  0.10566000000E+00 0. -1.
         -4    1    1    2    0  502 -0.30057393274E+02  0.41494202153E+03 -0.90577632805E+03  0.99675026189E+03  0.00000000000E+00 0. -1.
</event>
<event>
 5    1  0.4419198E-005  0.5181764E+03  0.7818608E-02  0.9438999E-01
         21   -1    0    0  501  502  0.00000000000E+00  0.00000000000E+00  0.38582816369E+03  0.38582816369E+03  0.00000000000E+00 0.  1.
         -4   -1    0    0    0  501 -0.00000000000E+00 -0.00000000000E+00 -0.24863688772E+04  0.24863688772E+04  0.00000000000E+00 0. -1.
        -13    1    1    2    0    0  0.26112148545E+03 -0.41965595926E+03 -0.14430659904E+04  0.15253638970E+04  0.10566000000E+00 0.  1.
         13    1    1    2    0    0 -0.26496198484E+03  0.66261739651E+03 -0.77270258361E+02  0.71780037027E+03  0.10566000000E+00 0. -1.
         -4    1    1    2    0  502  0.38404993816E+01 -0.24296143726E+03 -0.58020446471E+03  0.62903277363E+03  0.00000000000E+00 0. -1.
</event>
<event>
 5    1  0.4419198E-005  0.4787463E+03  0.7818608E-02  0.9566874E-01
         21   -1    0    0  501  502  0.00000000000E+00  0.00000000000E+00  0.88783048541E+03  0.88783048541E+03  0.00000000000E+00 0.  1.
          4   -1    0    0  502    0 -0.00000000000E+00 -0.00000000000E+00 -0.66501348717E+03  0.66501348717E+03  0.00000000000E+00 0.  1.
        -13    1    1    2    0    0  0.12736689341E+03 -0.16580608563E+03 -0.32585781820E+03  0.38716574282E+03  0.10566000000E+00 0.  1.
         13    1    1    2    0    0  0.12404112066E+03 -0.39392618577E+03  0.18637323975E+03  0.45309936560E+03  0.10566000000E+00 0. -1.
          4    1    1    2  501    0 -0.25140801407E+03  0.55973227140E+03  0.36230157669E+03  0.71257886416E+03  0.00000000000E+00 0.  1.
</event>
<event>
 5    1  0.4419198E-005  0.2474805E+03  0.7818608E-02  0.1031707E+00
         21   -1    0    0  501  502  0.00000000000E+00  0.00000000000E+00  0.49236411467E+03  0.49236411467E+03  0.00000000000E+00 0. -1.
         -4   -1    0    0    0  501 -0.00000000000E+00 -0.00000000000E+00 -0.55537444295E+03  0.55537444295E+03  0.00000000000E+00 0. -1.
        -13    1    1    2    0    0  0.19946692906E+03  0.19865594121E+03 -0.37161844798E+03  0.46620973907E+03  0.10566000000E+00 0.  1.
         13    1    1    2    0    0 -0.22088609261E+03  0.24471309917E+02  0.30480463222E+02  0.22431803476E+03  0.10566000000E+00 0. -1.
         -4    1    1    2    0  502  0.21419163551E+02 -0.22312725113E+03  0.27812765647E+03  0.35721078379E+03  0.00000000000E+00 0. -1.
</event>
<event>
 5    1  0.4419198E-005  0.1791223E+03  0.7818608E-02  0.1075475E+00
          4   -1    0    0  502    0 -0.00000000000E+00  0.00000000000E+00  0.30891108318E+03  0.30891108318E+03  0.00000000000E+00 0.  1.
         21   -1    0    0  501  502  0.00000000000E+00 -0.00000000000E+00 -0.86806986508E+03  0.86806986508E+03  0.00000000000E+00 0.  1.
        -13    1    1    2    0    0  0.17016894054E+03  0.35134778647E+02  0.23637156234E+03  0.29336572336E+03  0.10566000000E+00 0.  1.
         13    1    1    2    0    0 -0.25700152973E+03 -0.64485990542E+02 -0.41634760935E+03  0.49351147123E+03  0.10566000000E+00 0. -1.
          4    1    1    2  501    0  0.86832589189E+02  0.29351211895E+02 -0.37918273489E+03  0.39010375366E+03  0.00000000000E+00 0.  1.
</event>
<event>
 5    1  0.4419198E-005  0.3923558E+03  0.7818608E-02  0.9751385E-01
         21   -1    0    0  501  502  0.00000000000E+00  0.00000000000E+00  0.34860448265E+03  0.34860448265E+03  0.00000000000E+00 0.  1.
          4   -1    0    0  502    0 -0.00000000000E+00 -0.00000000000E+00 -0.21312356440E+04  0.21312356440E+04  0.00000000000E+00 0.  1.
        -13    1    1    2    0    0 -0.84607287938E+02 -0.37680362152E+03 -0.96351044310E+03  0.10380229995E+04  0.10566000000E+00 0.  1.
         13    1    1    2    0    0 -0.25913210349E+03  0.40819590873E+03 -0.95535376788E+03  0.10707353454E+04  0.10566000000E+00 0. -1.
          4    1    1    2  501    0  0.34373939143E+03 -0.31392287215E+02  0.13623304963E+03  0.37108178173E+03  0.00000000000E+00 0.  1.
</event>
<event>
 5    1  0.4419198E-005  0.2538858E+03  0.7818608E-02  0.1034871E+00
          4   -1    0    0  502    0 -0.00000000000E+00  0.00000000000E+00  0.17353318115E+04  0.17353318115E+04  0.00000000000E+00 0.  1.
         21   -1    0    0  501  502  0.00000000000E+00 -0.00000000000E+00 -0.28143803491E+03  0.28143803491E+03  0.00000000000E+00 0.  1.
        -13    1    1    2    0    0  0.22602488342E+03  0.55803149995E+02  0.92671411219E+03  0.95551048994E+03  0.10566000000E+00 0.  1.
         13    1    1    2    0    0 -0.10875502910E+03  0.17730002169E+03  0.71182947503E+03  0.74159568953E+03  0.10566000000E+00 0. -1.
          4    1    1    2  501    0 -0.11726985432E+03 -0.23310317169E+03 -0.18464981065E+03  0.31966366693E+03  0.00000000000E+00 0.  1.
</event>
<event>
 5    1  0.4419198E-005  0.4809829E+03  0.7818608E-02  0.9697785E-01
         21   -1    0    0  501  502  0.00000000000E+00  0.00000000000E+00  0.14954421352E+03  0.14954421352E+03  0.00000000000E+00 0.  1.
          4   -1    0    0  502    0 -0.00000000000E+00 -0.00000000000E+00 -0.27536668236E+04  0.27536668236E+04  0.00000000000E+00 0.  1.
        -13    1    1    2    0    0  0.34116977416E+03 -0.22226270674E+03 -0.75257349811E+03  0.85566606035E+03  0.10566000000E+00 0.  1.
         13    1    1    2    0    0  0.48500094650E+02 -0.25182422934E+03 -0.63915831797E+03  0.68868793242E+03  0.10566000000E+00 0. -1.
          4    1    1    2  501    0 -0.38966986881E+03  0.47408693608E+03 -0.12123907939E+04  0.13588570443E+04  0.00000000000E+00 0.  1.
</event>
<event>
 5    1  0.4419198E-005  0.4900621E+03  0.7818608E-02  0.1016189E+00
         21   -1    0    0  501  502  0.00000000000E+00  0.00000000000E+00  0.84520847174E+03  0.84520847174E+03  0.00000000000E+00 0.  1.
          4   -1    0    0  502    0 -0.00000000000E+00 -0.00000000000E+00 -0.32337570493E+03  0.32337570493E+03  0.00000000000E+00 0.  1.
        -13    1    1    2    0    0 -0.32595048255E+03  0.33142825717E+03  0.12664053532E+03  0.48179481429E+03  0.10566000000E+00 0.  1.
         13    1    1    2    0    0 -0.50688670983E+02  0.10579231639E+02  0.24317444789E+02  0.57206737306E+02  0.10566000000E+00 0. -1.
          4    1    1    2  501    0  0.37663915353E+03 -0.34200748881E+03  0.37087478671E+03  0.62958262507E+03  0.00000000000E+00 0.  1.
</event>
<event>
 5    1  0.4419198E-005  0.1104331E+04  0.7818608E-02  0.8682310E-01
         -4   -1    0    0    0  501 -0.00000000000E+00  0.00000000000E+00  0.12597190213E+04  0.12597190213E+04  0.00000000000E+00 0. -1.
         21   -1    0    0  501  502  0.00000000000E+00 -0.00000000000E+00 -0.16464974070E+04  0.16464974070E+04  0.00000000000E+00 0.  1.
        -13    1    1    2    0    0 -0.46817909340E+03  0.11478345070E+04  0.10097291802E+03  0.12437488735E+04  0.10566000000E+00 0.  1.
         13    1    1    2    0    0  0.76554483967E+03 -0.66932409120E+03 -0.22821101961E+03  0.10421774903E+04  0.10566000000E+00 0. -1.
         -4    1    1    2    0  502 -0.29736574627E+03 -0.47851041578E+03 -0.25954028413E+03  0.62029006453E+03  0.00000000000E+00 0. -1.
</event>
<event>
 5    1  0.4419198E-005  0.4977355E+03  0.7818608E-02  0.1003075E+00
          4   -1    0    0  502    0 -0.00000000000E+00  0.00000000000E+00  0.11880172680E+04  0.11880172680E+04  0.00000000000E+00 0.  1.
         21   -1    0    0  501  502  0.00000000000E+00 -0.00000000000E+00 -0.34613296845E+03  0.34613296845E+03  0.00000000000E+00 0.  1.
        -13    1    1    2    0    0  0.42634999527E+03  0.26839324932E+03  0.67772196993E+03  0.84446215690E+03  0.10566000000E+00 0.  1.
         13    1    1    2    0    0  0.28583885910E+02 -0.69716306385E+02 -0.10168630454E+03  0.12656033188E+03  0.10566000000E+00 0. -1.
          4    1    1    2  501    0 -0.45493388118E+03 -0.19867694293E+03  0.26584863414E+03  0.56312774765E+03  0.00000000000E+00 0.  1.
</event>
<event>
 5    1  0.4419198E-005  0.2930156E+03  0.7818608E-02  0.1010231E+00
         21   -1    0    0  501  502  0.00000000000E+00  0.00000000000E+00  0.13231638314E+03  0.13231638314E+03  0.00000000000E+00 0.  1.
         -4   -1    0    0    0  501 -0.00000000000E+00 -0.00000000000E+00 -0.14310218132E+04  0.14310218132E+04  0.00000000000E+00 0. -1.
        -13    1    1    2    0    0 -0.32855791318E+03 -0.10898170593E+03 -0.22350956636E+03  0.41204836119E+03  0.10566000000E+00 0.  1.
         13    1    1    2    0    0  0.26974429103E+03  0.83661704420E+02 -0.10411388230E+04  0.10787637940E+04  0.10566000000E+00 0. -1.
         -4    1    1    2    0  502  0.58813622154E+02  0.25320001511E+02 -0.34057040742E+02  0.72526041196E+02  0.00000000000E+00 0. -1.
</event>
<event>
 5    1  0.4419198E-005  0.7965043E+02  0.7818608E-02  0.1203464E+00
         21   -1    0    0  501  502  0.00000000000E+00  0.00000000000E+00  0.55979682602E+03  0.55979682602E+03  0.00000000000E+00 0.  1.
         -4   -1    0    0    0  501 -0.00000000000E+00 -0.00000000000E+00 -0.36064734029E+02  0.36064734029E+02  0.00000000000E+00 0. -1.
        -13    1    1    2    0    0  0.71376174545E+02 -0.31387979472E+02  0.26299750722E+03  0.27431271119E+03  0.10566000000E+00 0.  1.
         13    1    1    2    0    0 -0.78189368268E+02  0.17912075660E+02  0.23155224438E+02  0.83490091313E+02  0.10566000000E+00 0. -1.
         -4    1    1    2    0  502  0.68131937236E+01  0.13475903812E+02  0.23757936032E+03  0.23805875755E+03  0.00000000000E+00 0. -1.
</event>
<event>
 5    1  0.4419198E-005  0.4725976E+03  0.7818608E-02  0.9540143E-01
          4   -1    0    0  502    0 -0.00000000000E+00  0.00000000000E+00  0.17087569959E+04  0.17087569959E+04  0.00000000000E+00 0.  1.
         21   -1    0    0  501  502  0.00000000000E+00 -0.00000000000E+00 -0.88360233180E+03  0.88360233180E+03  0.00000000000E+00 0. -1.
        -13    1    1    2    0    0 -0.11205225906E+03 -0.53603431656E+03 -0.74218481889E+03  0.92234853165E+03  0.10566000000E+00 0.  1.
         13    1    1    2    0    0  0.29380780852E+02  0.46824327873E+03  0.13013644260E+04  0.13833525866E+04  0.10566000000E+00 0. -1.
          4    1    1    2  501    0  0.82671478212E+02  0.67791037830E+02  0.26597505693E+03  0.28665820942E+03  0.00000000000E+00 0.  1.
</event>
<event>
 5    1  0.4419198E-005  0.1952826E+02  0.7818608E-02  0.1516524E+00
          4   -1    0    0  502    0 -0.00000000000E+00  0.00000000000E+00  0.50469003985E+02  0.50469003985E+02  0.00000000000E+00 0.  1.
         21   -1    0    0  501  502  0.00000000000E+00 -0.00000000000E+00 -0.80786211737E+02  0.80786211737E+02  0.00000000000E+00 0. -1.
        -13    1    1    2    0    0 -0.19778690532E+02  0.29497898532E+00  0.45245813254E+02  0.49380951720E+02  0.10566000000E+00 0.  1.
         13    1    1    2    0    0  0.11131641101E+02  0.48318728601E+01 -0.68552852287E+02  0.69618712640E+02  0.10566000000E+00 0. -1.
          4    1    1    2  501    0  0.86470494314E+01 -0.51268518454E+01 -0.70101687184E+01  0.12255551362E+02  0.00000000000E+00 0.  1.
</event>
<event>
 5    1  0.4419198E-005  0.4134357E+03  0.7818608E-02  0.9737447E-01
         21   -1    0    0  501  502  0.00000000000E+00  0.00000000000E+00  0.24045277610E+03  0.24045277610E+03  0.00000000000E+00 0. -1.
         -4   -1    0    0    0  501 -0.00000000000E+00 -0.00000000000E+00 -0.22732413595E+04  0.22732413595E+04  0.00000000000E+00 0. -1.
        -13    1    1    2    0    0  0.13975579142E+03  0.32293471817E+03 -0.90901824117E+03  0.97474749930E+03  0.10566000000E+00 0.  1.
         13    1    1    2    0    0 -0.50533560636E+03 -0.36597478796E+03 -0.93815248090E+03  0.11266906004E+04  0.10566000000E+00 0. -1.
         -4    1    1    2    0  502  0.36557981493E+03  0.43040069783E+02 -0.18561786133E+03  0.41225603590E+03  0.00000000000E+00 0. -1.
</event>
<event>
 5    1  0.4419198E-005  0.2890450E+03  0.7818608E-02  0.1105565E+00
          4   -1    0    0  502    0 -0.00000000000E+00  0.00000000000E+00  0.33203809375E+03  0.33203809375E+03  0.00000000000E+00 0.  1.
         21   -1    0    0  501  502  0.00000000000E+00 -0.00000000000E+00 -0.50759216567E+03  0.50759216567E+03  0.00000000000E+00 0.  1.
        -13    1    1    2    0    0 -0.29154872202E+03  0.25208759218E+02 -0.36631362689E+03  0.46885160047E+03  0.10566000000E+00 0.  1.
         13    1    1    2    0    0  0.18574383133E+02  0.85927819753E+00  0.67715083976E+02  0.70221719074E+02  0.10566000000E+00 0. -1.
          4    1    1    2  501    0  0.27297433889E+03 -0.26068037416E+02  0.12304447099E+03  0.30055693988E+03  0.00000000000E+00 0.  1.
</event>
<event>
 5    1  0.4419198E-005  0.3591194E+03  0.7818608E-02  0.1003195E+00
         21   -1    0    0  501  502  0.00000000000E+00  0.00000000000E+00  0.31212129635E+03  0.31212129635E+03  0.00000000000E+00 0. -1.
         -4   -1    0    0    0  501 -0.00000000000E+00 -0.00000000000E+00 -0.12772788950E+04  0.12772788950E+04  0.00000000000E+00 0. -1.
        -13    1    1    2    0    0 -0.61534644004E+02  0.19012150865E+03 -0.31343069224E+03  0.37171428607E+03  0.10566000000E+00 0.  1.
         13    1    1    2    0    0  0.33049723435E+03 -0.18863108213E+03  0.12113896484E+03  0.39935543946E+03  0.10566000000E+00 0. -1.
         -4    1    1    2    0  502 -0.26896259034E+03 -0.14904265142E+01 -0.77286587128E+03  0.81833046586E+03  0.00000000000E+00 0. -1.
</event>
<event>
 5    1  0.4419198E-005  0.5670670E+03  0.7818608E-02  0.9341966E-01
          4   -1    0    0  502    0 -0.00000000000E+00  0.00000000000E+00  0.22145957721E+04  0.22145957721E+04  0.00000000000E+00 0.  1.
         21   -1    0    0  501  502  0.00000000000E+00 -0.00000000000E+00 -0.19978135763E+03  0.19978135763E+03  0.00000000000E+00 0. -1.
        -13    1    1    2    0    0  0.35740698952E+03 -0.46286157155E+03  0.14508689689E+04  0.15642894127E+04  0.10566000000E+00 0.  1.
         13    1    1    2    0    0 -0.26220780940E+03  0.46112951888E+03  0.41590013778E+03  0.67406698796E+03  0.10566000000E+00 0. -1.
          4    1    1    2  501    0 -0.95199180115E+02  0.17320526700E+01  0.14804530774E+03  0.17602072902E+03  0.00000000000E+00 0.  1.
</event>
<event>
 5    1  0.4419198E-005  0.2641523E+03  0.7818608E-02  0.1023309E+00
         -4   -1    0    0    0  501 -0.00000000000E+00  0.00000000000E+00  0.88667483804E+03  0.88667483804E+03  0.00000000000E+00 0. -1.
         21   -1    0    0  501  502  0.00000000000E+00 -0.00000000000E+00 -0.21254493551E+03  0.21254493551E+03  0.00000000000E+00 0.  1.
        -13    1    1    2    0    0 -0.18511102402E+03 -0.25571261275E+03  0.31543444106E+03  0.44626665717E+03  0.10566000000E+00 0.  1.
         13    1    1    2    0    0  0.14370003944E+03  0.19347505697E+03  0.46456117975E+03  0.52335399100E+03  0.10566000000E+00 0. -1.
         -4    1    1    2    0  502  0.41410984583E+02  0.62237555782E+02 -0.10586571828E+03  0.12959912538E+03  0.00000000000E+00 0. -1.
</event>
<event>
 5    1  0.4419198E-005  0.1471847E+03  0.7818608E-02  0.1103922E+00
         21   -1    0    0  501  502  0.00000000000E+00  0.00000000000E+00  0.34506052601E+03  0.34506052601E+03  0.00000000000E+00 0.  1.
         -4   -1    0    0    0  501 -0.00000000000E+00 -0.00000000000E+00 -0.17182789867E+03  0.17182789867E+03  0.00000000000E+00 0. -1.
        -13    1    1    2    0    0 -0.11990819243E+03 -0.77768404414E+02  0.10592488054E+03  0.17789320060E+03  0.10566000000E+00 0.  1.
         13    1    1    2    0    0  0.11385529585E+03  0.95579291440E+02 -0.94466037843E+02  0.17613140781E+03  0.10566000000E+00 0. -1.
         -4    1    1    2    0  502  0.60528965773E+01 -0.17810887026E+02  0.16177378464E+03  0.16286381627E+03  0.00000000000E+00 0. -1.
</event>
<event>
 5    1  0.4419198E-005  0.4990987E+03  0.7818608E-02  0.9915973E-01
         21   -1    0    0  501  502  0.00000000000E+00  0.00000000000E+00  0.12112268921E+04  0.12112268921E+04  0.00000000000E+00 0.  1.
          4   -1    0    0  502    0 -0.00000000000E+00 -0.00000000000E+00 -0.25672671061E+03  0.25672671061E+03  0.00000000000E+00 0.  1.
        -13    1    1    2    0    0 -0.41645966720E+03 -0.16054505628E+03  0.28926190665E+03  0.53187012636E+03  0.10566000000E+00 0.  1.
         13    1    1    2    0    0 -0.10908762593E+03  0.66329821539E+00  0.11770833574E+03  0.16048617872E+03  0.10566000000E+00 0. -1.
          4    1    1    2  501    0  0.52554729313E+03  0.15988175806E+03  0.54752993907E+03  0.77559729761E+03  0.00000000000E+00 0.  1.
</event>
<event>
 5    1  0.4419198E-005  0.1426984E+03  0.7818608E-02  0.1108544E+00
         21   -1    0    0  501  502  0.00000000000E+00  0.00000000000E+00  0.88155056593E+02  0.88155056593E+02  0.00000000000E+00 0. -1.
         -4   -1    0    0    0  501 -0.00000000000E+00 -0.00000000000E+00 -0.49127290167E+03  0.49127290167E+03  0.00000000000E+00 0. -1.
        -13    1    1    2    0    0  0.84074649208E+02  0.12213473655E+03 -0.23206135441E+03  0.27538686223E+03  0.10566000000E+00 0.  1.
         13    1    1    2    0    0 -0.75012206656E+02 -0.11533061429E+03 -0.21688039120E+03  0.25683671270E+03  0.10566000000E+00 0. -1.
         -4    1    1    2    0  502 -0.90624425528E+01 -0.68041222615E+01  0.45823900540E+02  0.47204383329E+02  0.00000000000E+00 0. -1.
</event>
<event>
 5    1  0.4419198E-005  0.1393605E+03  0.7818608E-02  0.1188701E+00
         21   -1    0    0  501  502  0.00000000000E+00  0.00000000000E+00  0.42281721902E+03  0.42281721902E+03  0.00000000000E+00 0. -1.
         -4   -1    0    0    0  501 -0.00000000000E+00 -0.00000000000E+00 -0.68350262644E+02  0.68350262644E+02  0.00000000000E+00 0. -1.
        -13    1    1    2    0    0 -0.20825978956E+02  0.11256331894E+01  0.76252485002E+02  0.79053406521E+02  0.10566000000E+00 0.  1.
         13    1    1    2    0    0  0.15032378105E+03  0.30500728358E+02  0.79327791629E+02  0.17268596720E+03  0.10566000000E+00 0. -1.
         -4    1    1    2    0  502 -0.12949780209E+03 -0.31626361547E+02  0.19888667974E+03  0.23942810794E+03  0.00000000000E+00 0. -1.
</event>
<event>
 5    1  0.4419198E-005  0.4231594E+03  0.7818608E-02  0.9818784E-01
          4   -1    0    0  502    0 -0.00000000000E+00  0.00000000000E+00  0.49361535820E+03  0.49361535820E+03  0.00000000000E+00 0.  1.
         21   -1    0    0  501  502  0.00000000000E+00 -0.00000000000E+00 -0.13259599563E+04  0.13259599563E+04  0.00000000000E+00 0. -1.
        -13    1    1    2    0    0 -0.95558265259E+02 -0.23235787334E+03  0.28943465313E+03  0.38326752140E+03  0.10566000000E+00 0.  1.
         13    1    1    2    0    0  0.45750804057E+03  0.13140569336E+02 -0.44660135313E+03  0.63948343335E+03  0.10566000000E+00 0. -1.
          4    1    1    2  501    0 -0.36194977531E+03  0.21921730400E+03 -0.67517789814E+03  0.79682435980E+03  0.00000000000E+00 0.  1.
</event>
<event>
 5    1  0.4419198E-005  0.7895654E+02  0.7818608E-02  0.1205012E+00
         -4   -1    0    0    0  501 -0.00000000000E+00  0.00000000000E+00  0.30709756477E+03  0.30709756477E+03  0.00000000000E+00 0. -1.
         21   -1    0    0  501  502  0.00000000000E+00 -0.00000000000E+00 -0.27469272946E+03  0.27469272946E+03  0.00000000000E+00 0. -1.
        -13    1    1    2    0    0  0.71484354796E+02  0.50547475675E+02 -0.10272154834E+03  0.13496958152E+03  0.10566000000E+00 0.  1.
         13    1    1    2    0    0 -0.78630287989E+02  0.12937043552E+02  0.27859683558E+03  0.28976938632E+03  0.10566000000E+00 0. -1.
         -4    1    1    2    0  502  0.71459331936E+01 -0.63484519227E+02 -0.14347045193E+03  0.15705132639E+03  0.00000000000E+00 0. -1.
</event>
<event>
 5    1  0.4419198E-005  0.4935483E+03  0.7818608E-02  0.9670876E-01
          4   -1    0    0  502    0 -0.00000000000E+00  0.00000000000E+00  0.28396877180E+03  0.28396877180E+03  0.00000000000E+00 0.  1.
         21   -1    0    0  501  502  0.00000000000E+00 -0.00000000000E+00 -0.15139906348E+04  0.15139906348E+04  0.00000000000E+00 0.  1.
        -13    1    1    2    0    0 -0.33454450132E+03 -0.26374251699E+03 -0.19665734379E+03  0.46920598958E+03  0.10566000000E+00 0.  1.
         13    1    1    2    0    0  0.84020488901E+02 -0.24684979767E+03 -0.40022742047E+03  0.47767799240E+03  0.10566000000E+00 0. -1.
          4    1    1    2  501    0  0.25052401242E+03  0.51059231466E+03 -0.63313709872E+03  0.85107542461E+03  0.00000000000E+00 0.  1.
</event>
<event>
 5    1  0.4419198E-005  0.1101288E+03  0.7818608E-02  0.1148804E+00
         21   -1    0    0  501  502  0.00000000000E+00  0.00000000000E+00  0.44777481217E+02  0.44777481217E+02  0.00000000000E+00 0. -1.
          4   -1    0    0  502    0 -0.00000000000E+00 -0.00000000000E+00 -0.48564711881E+03  0.48564711881E+03  0.00000000000E+00 0.  1.
        -13    1    1    2    0    0  0.17955196225E+02 -0.13658355469E+03 -0.27936027352E+03  0.31147974263E+03  0.10566000000E+00 0.  1.
         13    1    1    2    0    0 -0.32788155328E+02  0.73545028937E+02 -0.69127626952E+02  0.10612527683E+03  0.10566000000E+00 0. -1.
          4    1    1    2  501    0  0.14832959104E+02  0.63038525755E+02 -0.92381737128E+02  0.11281958057E+03  0.00000000000E+00 0.  1.
</event>
<event>
 5    1  0.4419198E-005  0.9851766E+02  0.7818608E-02  0.1167032E+00
         21   -1    0    0  501  502  0.00000000000E+00  0.00000000000E+00  0.47895296569E+02  0.47895296569E+02  0.00000000000E+00 0. -1.
          4   -1    0    0  502    0 -0.00000000000E+00 -0.00000000000E+00 -0.57664835503E+03  0.57664835503E+03  0.00000000000E+00 0.  1.
        -13    1    1    2    0    0 -0.88058095586E+02  0.59450424626E+02 -0.92915119165E+02  0.14114464822E+03  0.10566000000E+00 0.  1.
         13    1    1    2    0    0  0.59608802026E+02 -0.77501131810E+02 -0.43881454344E+03  0.44957518772E+03  0.10566000000E+00 0. -1.
          4    1    1    2  501    0  0.28449293560E+02  0.18050707184E+02  0.29766041474E+01  0.33823815665E+02  0.00000000000E+00 0.  1.
</event>
<event>
 5    1  0.4419198E-005  0.1341162E+03  0.7818608E-02  0.1117927E+00
         21   -1    0    0  501  502  0.00000000000E+00  0.00000000000E+00  0.17117188963E+03  0.17117188963E+03  0.00000000000E+00 0. -1.
          4   -1    0    0  502    0 -0.00000000000E+00 -0.00000000000E+00 -0.13567836414E+03  0.13567836414E+03  0.00000000000E+00 0.  1.
        -13    1    1    2    0    0 -0.10272718657E+03  0.10635367158E+03 -0.34233311537E+01  0.14790439033E+03  0.10566000000E+00 0.  1.
         13    1    1    2    0    0  0.78628463556E+02 -0.92236927217E+02  0.14908660677E+02  0.12211619610E+03  0.10566000000E+00 0. -1.
          4    1    1    2  501    0  0.24098723013E+02 -0.14116744364E+02  0.24008195972E+02  0.36829667337E+02  0.00000000000E+00 0.  1.
</event>
<event>
 5    1  0.4419198E-005  0.4001637E+03  0.7818608E-02  0.9863832E-01
         21   -1    0    0  501  502  0.00000000000E+00  0.00000000000E+00  0.31023926522E+03  0.31023926522E+03  0.00000000000E+00 0. -1.
         -4   -1    0    0    0  501 -0.00000000000E+00 -0.00000000000E+00 -0.18506869642E+04  0.18506869642E+04  0.00000000000E+00 0. -1.
        -13    1    1    2    0    0 -0.20656773202E+02  0.25123453644E+03 -0.93328449524E+03  0.96672925620E+03  0.10566000000E+00 0.  1.
         13    1    1    2    0    0  0.21268284912E+03 -0.54928740053E+03 -0.59821203177E+03  0.83952861108E+03  0.10566000000E+00 0. -1.
         -4    1    1    2    0  502 -0.19202607591E+03  0.29805286410E+03 -0.89511719574E+01  0.35466836214E+03  0.00000000000E+00 0. -1.
</event>
<event>
 5    1  0.4419198E-005  0.4445960E+03  0.7818608E-02  0.1021242E+00
          4   -1    0    0  502    0 -0.00000000000E+00  0.00000000000E+00  0.21445759804E+04  0.21445759804E+04  0.00000000000E+00 0.  1.
         21   -1    0    0  501  502  0.00000000000E+00 -0.00000000000E+00 -0.12185558230E+03  0.12185558230E+03  0.00000000000E+00 0.  1.
        -13    1    1    2    0    0  0.38673655740E+03  0.29225484488E+03  0.12734859208E+04  0.13626241084E+04  0.10566000000E+00 0.  1.
         13    1    1    2    0    0 -0.48808264142E+02 -0.33350908631E+02  0.20209069687E+03  0.21055923318E+03  0.10566000000E+00 0. -1.
          4    1    1    2  501    0 -0.33792829326E+03 -0.25890393624E+03  0.54714378046E+03  0.69324822112E+03  0.00000000000E+00 0.  1.
</event>
<event>
 5    1  0.4419198E-005  0.4433337E+03  0.7818608E-02  0.9611652E-01
         21   -1    0    0  501  502  0.00000000000E+00  0.00000000000E+00  0.20069550483E+03  0.20069550483E+03  0.00000000000E+00 0.  1.
         -4   -1    0    0    0  501 -0.00000000000E+00 -0.00000000000E+00 -0.18370567401E+04  0.18370567401E+04  0.00000000000E+00 0. -1.
        -13    1    1    2    0    0  0.33562384215E+03 -0.28160304213E+03 -0.28490775915E+03  0.52260508909E+03  0.10566000000E+00 0.  1.
         13    1    1    2    0    0 -0.35848908855E+03  0.26374588167E+03 -0.13941844174E+04  0.14634980415E+04  0.10566000000E+00 0. -1.
         -4    1    1    2    0  502  0.22865246400E+02  0.17857160460E+02  0.42730941243E+02  0.51649114341E+02  0.00000000000E+00 0. -1.
</event>
<event>
 5    1  0.4419198E-005  0.3645686E+03  0.7818608E-02  0.9954859E-01
          4   -1    0    0  502    0 -0.00000000000E+00  0.00000000000E+00  0.26154449434E+04  0.26154449434E+04  0.00000000000E+00 0.  1.
         21   -1    0    0  501  502  0.00000000000E+00 -0.00000000000E+00 -0.17626627604E+03  0.17626627604E+03  0.00000000000E+00 0.  1.
        -13    1    1    2    0    0  0.80401275477E+02  0.31773970395E+03  0.15769286138E+03  0.36371683252E+03  0.10566000000E+00 0.  1.
         13    1    1    2    0    0 -0.27803879110E+02  0.24441320967E+03  0.95859700911E+03  0.98965605631E+03  0.10566000000E+00 0. -1.
          4    1    1    2  501    0 -0.52597396367E+02 -0.56215291362E+03  0.13228887969E+04  0.14383383307E+04  0.00000000000E+00 0.  1.
</event>
<event>
 5    1  0.4419198E-005  0.6038801E+02  0.7818608E-02  0.1254462E+00
          4   -1    0    0  502    0 -0.00000000000E+00  0.00000000000E+00  0.54424951985E+02  0.54424951985E+02  0.00000000000E+00 0.  1.
         21   -1    0    0  501  502  0.00000000000E+00 -0.00000000000E+00 -0.92478726022E+02  0.92478726022E+02  0.00000000000E+00 0.  1.
        -13    1    1    2    0    0 -0.59983325575E+02  0.36600051085E+02 -0.17213145302E+02  0.72345467182E+02  0.10566000000E+00 0.  1.
         13    1    1    2    0    0  0.41705749024E+02 -0.31763619409E+02 -0.18061518284E+02  0.55448414101E+02  0.10566000000E+00 0. -1.
          4    1    1    2  501    0  0.18277576551E+02 -0.48364316768E+01 -0.27791104509E+01  0.19109796725E+02  0.00000000000E+00 0.  1.
</event>
<event>
 5    1  0.4419198E-005  0.2106476E+03  0.7818608E-02  0.1090790E+00
         -4   -1    0    0    0  501 -0.00000000000E+00  0.00000000000E+00  0.27101681647E+03  0.27101681647E+03  0.00000000000E+00 0. -1.
         21   -1    0    0  501  502  0.00000000000E+00 -0.00000000000E+00 -0.11974108575E+04  0.11974108575E+04  0.00000000000E+00 0. -1.
        -13    1    1    2    0    0 -0.64643425728E+02  0.31224461692E+02  0.34924288666E+02  0.79833931387E+02  0.10566000000E+00 0.  1.
         13    1    1    2    0    0  0.74464354756E+02  0.19670404163E+03 -0.11011191639E+04  0.11210266921E+04  0.10566000000E+00 0. -1.
         -4    1    1    2    0  502 -0.98209290274E+01 -0.22792850332E+03  0.13980083418E+03  0.26756705050E+03  0.00000000000E+00 0. -1.
</event>
<event>
 5    1  0.4419198E-005  0.4362020E+03  0.7818608E-02  0.9629968E-01
          4   -1    0    0  502    0 -0.00000000000E+00  0.00000000000E+00  0.25783755186E+03  0.25783755186E+03  0.00000000000E+00 0.  1.
         21   -1    0    0  501  502  0.00000000000E+00 -0.00000000000E+00 -0.12976973183E+04  0.12976973183E+04  0.00000000000E+00 0. -1.
        -13    1    1    2    0    0 -0.36755035633E+03  0.13390411955E+03 -0.21905760028E+03  0.44834118824E+03  0.10566000000E+00 0.  1.
         13    1    1    2    0    0  0.45147556976E+03 -0.21125833202E+03 -0.31721621327E+03  0.59083534937E+03  0.10566000000E+00 0. -1.
          4    1    1    2  501    0 -0.83925213431E+02  0.77354212475E+02 -0.50358595285E+03  0.51635833250E+03  0.00000000000E+00 0.  1.
</event>
<event>
 5    1  0.4419198E-005  0.2505188E+03  0.7818608E-02  0.1030124E+00
          4   -1    0    0  502    0 -0.00000000000E+00  0.00000000000E+00  0.15430893146E+04  0.15430893146E+04  0.00000000000E+00 0.  1.
         21   -1    0    0  501  502  0.00000000000E+00 -0.00000000000E+00 -0.98196255537E+02  0.98196255537E+02  0.00000000000E+00 0. -1.
        -13    1    1    2    0    0 -0.30788909237E+03 -0.76899301394E+00  0.43175551030E+03  0.53029153905E+03  0.10566000000E+00 0.  1.
         13    1    1    2    0    0  0.23457744540E+03 -0.12497735581E+02  0.10094258970E+04  0.10363992590E+04  0.10566000000E+00 0. -1.
          4    1    1    2  501    0  0.73311646973E+02  0.13266728595E+02  0.37116517668E+01  0.74594772125E+02  0.00000000000E+00 0.  1.
</event>
<event>
 5    1  0.4419198E-005  0.5000643E+03  0.7818608E-02  0.9871368E-01
         21   -1    0    0  501  502  0.00000000000E+00  0.00000000000E+00  0.31697681366E+03  0.31697681366E+03  0.00000000000E+00 0.  1.
          4   -1    0    0  502    0 -0.00000000000E+00 -0.00000000000E+00 -0.15655253948E+04  0.15655253948E+04  0.00000000000E+00 0.  1.
        -13    1    1    2    0    0 -0.55976758478E+03  0.11375593804E+02 -0.18817223241E+03  0.59065891454E+03  0.10566000000E+00 0.  1.
         13    1    1    2    0    0  0.12569898361E+03  0.77519439170E+01 -0.74346708777E+03  0.75405812036E+03  0.10566000000E+00 0. -1.
          4    1    1    2  501    0  0.43406860117E+03 -0.19127537720E+02 -0.31690926091E+03  0.53778517353E+03  0.00000000000E+00 0.  1.
</event>
<event>
 5    1  0.4419198E-005  0.3421969E+03  0.7818608E-02  0.9980973E-01
         21   -1    0    0  501  502  0.00000000000E+00  0.00000000000E+00  0.48979913418E+03  0.48979913418E+03  0.00000000000E+00 0. -1.
         -4   -1    0    0    0  501 -0.00000000000E+00 -0.00000000000E+00 -0.13651182098E+04  0.13651182098E+04  0.00000000000E+00 0. -1.
        -13    1    1    2    0    0 -0.25826446385E+03 -0.88180691015E+02 -0.76804072646E+03  0.81508461905E+03  0.10566000000E+00 0.  1.
         13    1    1    2    0    0  0.53952773982E+03  0.20641489499E+03 -0.32704567138E+03  0.66381938300E+03  0.10566000000E+00 0. -1.
         -4    1    1    2    0  502 -0.28126327597E+03 -0.11823420397E+03  0.21976732222E+03  0.37601334193E+03  0.00000000000E+00 0. -1.
</event>
<event>
 5    1  0.4419198E-005  0.2750487E+03  0.7818608E-02  0.1018171E+00
         21   -1    0    0  501  502  0.00000000000E+00  0.00000000000E+00  0.31450521965E+03  0.31450521965E+03  0.00000000000E+00 0.  1.
         -4   -1    0    0    0  501 -0.00000000000E+00 -0.00000000000E+00 -0.30029335569E+03  0.30029335569E+03  0.00000000000E+00 0. -1.
        -13    1    1    2    0    0  0.88211844241E+00 -0.27438766062E+03 -0.11069482524E+03  0.29587619358E+03  0.10566000000E+00 0.  1.
         13    1    1    2    0    0 -0.14507200106E+02  0.27633941288E+03  0.10782464885E+03  0.29698500978E+03  0.10566000000E+00 0. -1.
         -4    1    1    2    0  502  0.13625081663E+02 -0.19517522679E+01  0.17082040341E+02  0.21937371981E+02  0.00000000000E+00 0. -1.
</event>
<event>
 5    1  0.4419198E-005  0.2945294E+02  0.7818608E-02  0.1416563E+00
          4   -1    0    0  502    0 -0.00000000000E+00  0.00000000000E+00  0.15750905444E+03  0.15750905444E+03  0.00000000000E+00 0.  1.
         21   -1    0    0  501  502  0.00000000000E+00 -0.00000000000E+00 -0.20674852362E+02  0.20674852362E+02  0.00000000000E+00 0. -1.
        -13    1    1    2    0    0 -0.89726188762E-01  0.42491729556E+02  0.97761152237E+02  0.10659647828E+03  0.10566000000E+00 0.  1.
         13    1    1    2    0    0  0.15341051580E+02 -0.21196477000E+02  0.20642127179E+01  0.26247107249E+02  0.10566000000E+00 0. -1.
          4    1    1    2  501    0 -0.15251325391E+02 -0.21295252556E+02  0.37008837120E+02  0.45340321267E+02  0.00000000000E+00 0.  1.
</event>
<event>
 5    1  0.4419198E-005  0.5156953E+03  0.7818608E-02  0.1015616E+00
         21   -1    0    0  501  502  0.00000000000E+00  0.00000000000E+00  0.11462494282E+04  0.11462494282E+04  0.00000000000E+00 0. -1.
         -4   -1    0    0    0  501 -0.00000000000E+00 -0.00000000000E+00 -0.26332589386E+03  0.26332589386E+03  0.00000000000E+00 0. -1.
        -13    1    1    2    0    0  0.28942559655E+02 -0.34786695899E+02  0.67291628015E+02  0.81092295170E+02  0.10566000000E+00 0.  1.
         13    1    1    2    0    0  0.39392668183E+03 -0.29111845356E+03  0.24728099274E+03  0.54870400509E+03  0.10566000000E+00 0. -1.
         -4    1    1    2    0  502 -0.42286924149E+03  0.32590514946E+03  0.56835091356E+03  0.77977902177E+03  0.00000000000E+00 0. -1.
</event>
<event>
 5    1  0.4419198E-005  0.5620200E+03  0.7818608E-02  0.9351500E-01
         21   -1    0    0  501  502  0.00000000000E+00  0.00000000000E+00  0.19434531622E+03  0.19434531622E+03  0.00000000000E+00 0.  1.
         -4   -1    0    0    0  501 -0.00000000000E+00 -0.00000000000E+00 -0.43016416207E+04  0.43016416207E+04  0.00000000000E+00 0. -1.
        -13    1    1    2    0    0  0.62807230929E+03  0.86659706720E+02 -0.16933833017E+04  0.18081846554E+04  0.10566000000E+00 0.  1.
         13    1    1    2    0    0 -0.49326355741E+03  0.27511206641E+03 -0.21429553376E+04  0.22161347378E+04  0.10566000000E+00 0. -1.
         -4    1    1    2    0  502 -0.13480875187E+03 -0.36177177313E+03 -0.27095766519E+03  0.47166754366E+03  0.00000000000E+00 0. -1.
</event>
<event>
 5    1  0.4419198E-005  0.4649558E+03  0.7818608E-02  0.9563022E-01
         21   -1    0    0  501  502  0.00000000000E+00  0.00000000000E+00  0.31235797919E+03  0.31235797919E+03  0.00000000000E+00 0. -1.
         -4   -1    0    0    0  501 -0.00000000000E+00 -0.00000000000E+00 -0.25219996839E+04  0.25219996839E+04  0.00000000000E+00 0. -1.
        -13    1    1    2    0    0  0.39016450479E+03 -0.26012735059E+03 -0.13557531962E+04  0.14345596256E+04  0.10566000000E+00 0.  1.
         13    1    1    2    0    0  0.77043333560E+02  0.48213241063E+03 -0.71216759743E+03  0.86346397413E+03  0.10566000000E+00 0. -1.
         -4    1    1    2    0  502 -0.46720783835E+03 -0.22200506004E+03 -0.14172091115E+03  0.53633406339E+03  0.00000000000E+00 0. -1.
</event>
<event>
 5    1  0.4419198E-005  0.3538721E+03  0.7818608E-02  0.9886475E-01
         -4   -1    0    0    0  501 -0.00000000000E+00  0.00000000000E+00  0.14050418350E+04  0.14050418350E+04  0.00000000000E+00 0. -1.
         21   -1    0    0  501  502  0.00000000000E+00 -0.00000000000E+00 -0.37654314519E+03  0.37654314519E+03  0.00000000000E+00 0. -1.
        -13    1    1    2    0    0  0.23757063228E+03 -0.24013470893E+03  0.49611925587E+03  0.60019897615E+03  0.10566000000E+00 0.  1.
         13    1    1    2    0    0  0.19100499427E+03  0.30766758792E+03 -0.13406839557E+03  0.38615618388E+03  0.10566000000E+00 0. -1.
         -4    1    1    2    0  502 -0.42857562655E+03 -0.67532878987E+02  0.66644782953E+03  0.79522982018E+03  0.00000000000E+00 0. -1.
</event>
<event>
 5    1  0.4419198E-005  0.1324518E+03  0.7818608E-02  0.1119834E+00
         -4   -1    0    0    0  501 -0.00000000000E+00  0.00000000000E+00  0.14901778287E+03  0.14901778287E+03  0.00000000000E+00 0. -1.
         21   -1    0    0  501  502  0.00000000000E+00 -0.00000000000E+00 -0.36467718469E+03  0.36467718469E+03  0.00000000000E+00 0.  1.
        -13    1    1    2    0    0 -0.91858367652E+02  0.94063905244E+02 -0.21756571094E+03  0.25420627002E+03  0.10566000000E+00 0.  1.
         13    1    1    2    0    0  0.64080405461E+02 -0.11679510551E+03  0.92406398450E+02  0.16213065310E+03  0.10566000000E+00 0. -1.
         -4    1    1    2    0  502  0.27777962191E+02  0.22731200265E+02 -0.90500089327E+02  0.97358044440E+02  0.00000000000E+00 0. -1.
</event>
<event>
 5    1  0.4419198E-005  0.4962203E+03  0.7818608E-02  0.9761875E-01
         21   -1    0    0  501  502  0.00000000000E+00  0.00000000000E+00  0.32689175233E+03  0.32689175233E+03  0.00000000000E+00 0.  1.
          4   -1    0    0  502    0 -0.00000000000E+00 -0.00000000000E+00 -0.14221383307E+04  0.14221383307E+04  0.00000000000E+00 0.  1.
        -13    1    1    2    0    0  0.28696991104E+03  0.46332486679E+03 -0.23863244465E+03  0.59495135670E+03  0.10566000000E+00 0.  1.
         13    1    1    2    0    0  0.73371410841E+02 -0.17208282384E+03 -0.59126161935E+03  0.62015012366E+03  0.10566000000E+00 0. -1.
          4    1    1    2  501    0 -0.36034132188E+03 -0.29124204295E+03 -0.26535251432E+03  0.53392860262E+03  0.00000000000E+00 0.  1.
</event>
<event>
 5    1  0.4419198E-005  0.3397551E+03  0.7818608E-02  0.9976742E-01
         21   -1    0    0  501  502  0.00000000000E+00  0.00000000000E+00  0.68833501260E+03  0.68833501260E+03  0.00000000000E+00 0. -1.
         -4   -1    0    0    0  501 -0.00000000000E+00 -0.00000000000E+00 -0.91112695980E+03  0.91112695980E+03  0.00000000000E+00 0. -1.
        -13    1    1    2    0    0 -0.35925292862E+02  0.28044915221E+03 -0.45324120715E+03  0.53420029639E+03  0.10566000000E+00 0.  1.
         13    1    1    2    0    0  0.24942727370E+03 -0.50354206164E+03 -0.14382376210E+03  0.58004642781E+03  0.10566000000E+00 0. -1.
         -4    1    1    2    0  502 -0.21350198084E+03  0.22309290942E+03  0.37427302205E+03  0.48521524820E+03  0.00000000000E+00 0. -1.
</event>
<event>
 5    1  0.4419198E-005  0.7453323E+02  0.7818608E-02  0.1215312E+00
         21   -1    0    0  501  502  0.00000000000E+00  0.00000000000E+00  0.91139618149E+02  0.91139618149E+02  0.00000000000E+00 0.  1.
         -4   -1    0    0    0  501 -0.00000000000E+00 -0.00000000000E+00 -0.20035987680E+03  0.20035987680E+03  0.00000000000E+00 0. -1.
        -13    1    1    2    0    0  0.16261588461E+02 -0.89197711386E+02  0.27630742683E+02  0.94784703835E+02  0.10566000000E+00 0.  1.
         13    1    1    2    0    0  0.44947645737E+01  0.72508842157E+02 -0.15025676472E+03  0.16689769803E+03  0.10566000000E+00 0. -1.
         -4    1    1    2    0  502 -0.20756353035E+02  0.16688869229E+02  0.13405763394E+02  0.29817093078E+02  0.00000000000E+00 0. -1.
</event>
<event>
 5    1  0.4419198E-005  0.4443221E+02  0.7818608E-02  0.1316283E+00
         21   -1    0    0  501  502  0.00000000000E+00  0.00000000000E+00  0.22284156247E+02  0.22284156247E+02  0.00000000000E+00 0.  1.
         -4   -1    0    0    0  501 -0.00000000000E+00 -0.00000000000E+00 -0.17081629162E+03  0.17081629162E+03  0.00000000000E+00 0. -1.
        -13    1    1    2    0    0 -0.41712332836E+02  0.13609674177E+02 -0.57776591814E+02  0.72548519402E+02  0.10566000000E+00 0.  1.
         13    1    1    2    0    0  0.47142588405E+02  0.13002920898E+02 -0.73802801075E+02  0.88534536786E+02  0.10566000000E+00 0. -1.
         -4    1    1    2    0  502 -0.54302555694E+01 -0.26612595075E+02 -0.16952742483E+02  0.32017391678E+02  0.00000000000E+00 0. -1.
</event>
<event>
 5    1  0.4419198E-005  0.4425086E+03  0.7818608E-02  0.1026724E+00
         -4   -1    0    0    0  501 -0.00000000000E+00  0.00000000000E+00  0.10419168913E+04  0.10419168913E+04  0.00000000000E+00 0. -1.
         21   -1    0    0  501  502  0.00000000000E+00 -0.00000000000E+00 -0.26421674827E+03  0.26421674827E+03  0.00000000000E+00 0. -1.
        -13    1    1    2    0    0 -0.37688842396E+02  0.33626260967E+02  0.11611247831E+03  0.12662264035E+03  0.10566000000E+00 0.  1.
         13    1    1    2    0    0  0.30801473324E+03 -0.36550125018E+03  0.56619227900E+03  0.74097094932E+03  0.10566000000E+00 0. -1.
         -4    1    1    2    0  502 -0.27032589084E+03  0.33187498921E+03  0.95395385696E+02  0.43854004986E+03  0.00000000000E+00 0. -1.
</event>
<event>
 5    1  0.4419198E-005  0.6231049E+02  0.7818608E-02  0.1248475E+00
          4   -1    0    0  502    0 -0.00000000000E+00  0.00000000000E+00  0.36631500738E+02  0.36631500738E+02  0.00000000000E+00 0.  1.
         21   -1    0    0  501  502  0.00000000000E+00 -0.00000000000E+00 -0.53659443608E+03  0.53659443608E+03  0.00000000000E+00 0. -1.
        -13    1    1    2    0    0  0.35916688951E+02  0.51306786996E+02  0.48269068593E+01  0.62814848013E+02  0.10566000000E+00 0.  1.
         13    1    1    2    0    0 -0.43934604942E+02 -0.40424289748E+02 -0.35226213739E+03  0.35728559629E+03  0.10566000000E+00 0. -1.
          4    1    1    2  501    0  0.80179159913E+01 -0.10882497248E+02 -0.15252770482E+03  0.15312549252E+03  0.00000000000E+00 0.  1.
</event>
<event>
 5    1  0.4419198E-005  0.3974816E+03  0.7818608E-02  0.9744126E-01
         -4   -1    0    0    0  501 -0.00000000000E+00  0.00000000000E+00  0.24820553865E+04  0.24820553865E+04  0.00000000000E+00 0. -1.
         21   -1    0    0  501  502  0.00000000000E+00 -0.00000000000E+00 -0.28943326150E+03  0.28943326150E+03  0.00000000000E+00 0. -1.
        -13    1    1    2    0    0  0.86115188547E+02 -0.37723738468E+03  0.14086126107E+04  0.14607920346E+04  0.10566000000E+00 0.  1.
         13    1    1    2    0    0 -0.40716315062E+03 -0.20635180722E+01  0.30802206150E+02  0.40833182144E+03  0.10566000000E+00 0. -1.
         -4    1    1    2    0  502  0.32104796207E+03  0.37930090275E+03  0.75320730819E+03  0.90236479202E+03  0.00000000000E+00 0. -1.
</event>
<event>
 5    1  0.4419198E-005  0.3410250E+03  0.7818608E-02  0.1025333E+00
         21   -1    0    0  501  502  0.00000000000E+00  0.00000000000E+00  0.44994190561E+03  0.44994190561E+03  0.00000000000E+00 0. -1.
         -4   -1    0    0    0  501 -0.00000000000E+00 -0.00000000000E+00 -0.65571853576E+03  0.65571853576E+03  0.00000000000E+00 0. -1.
        -13    1    1    2    0    0  0.10610404653E+03  0.44960574799E+02 -0.70794799515E+02  0.13524583830E+03  0.10566000000E+00 0.  1.
         13    1    1    2    0    0 -0.27168888909E+03 -0.23236950345E+03  0.30130145337E+03  0.46753931980E+03  0.10566000000E+00 0. -1.
         -4    1    1    2    0  502  0.16558484256E+03  0.18740892865E+03 -0.43628328400E+03  0.50287528327E+03  0.00000000000E+00 0. -1.
</event>
<event>
 5    1  0.4419198E-005  0.1082336E+03  0.7818608E-02  0.1151608E+00
         -4   -1    0    0    0  501 -0.00000000000E+00  0.00000000000E+00  0.22715714845E+03  0.22715714845E+03  0.00000000000E+00 0. -1.
         21   -1    0    0  501  502  0.00000000000E+00 -0.00000000000E+00 -0.18101697144E+03  0.18101697144E+03  0.00000000000E+00 0.  1.
        -13    1    1    2    0    0  0.45996605004E+02  0.66604094727E+02 -0.12538245995E+03  0.14923995958E+03  0.10566000000E+00 0.  1.
         13    1    1    2    0    0 -0.56208644910E+02 -0.95981083698E+02  0.19186241433E+03  0.22177235488E+03  0.10566000000E+00 0. -1.
         -4    1    1    2    0  502  0.10212039907E+02  0.29376988971E+02 -0.20339777373E+02  0.37161805441E+02  0.00000000000E+00 0. -1.
</event>
<event>
 5    1  0.4419198E-005  0.5925707E+03  0.7818608E-02  0.9295344E-01
         -4   -1    0    0    0  501 -0.00000000000E+00  0.00000000000E+00  0.13035193955E+04  0.13035193955E+04  0.00000000000E+00 0. -1.
         21   -1    0    0  501  502  0.00000000000E+00 -0.00000000000E+00 -0.39498752351E+03  0.39498752351E+03  0.00000000000E+00 0.  1.
        -13    1    1    2    0    0 -0.27302460884E+03 -0.56810867005E+03  0.96368245243E+02  0.63763370980E+03  0.10566000000E+00 0.  1.
         13    1    1    2    0    0  0.21101344820E+03  0.54023084154E+03  0.80547542644E+03  0.99255564642E+03  0.10566000000E+00 0. -1.
         -4    1    1    2    0  502  0.62011160634E+02  0.27877828506E+02  0.66882003359E+01  0.68317562816E+02  0.00000000000E+00 0. -1.
</event>
<event>
 5    1  0.4419198E-005  0.6870383E+02  0.7818608E-02  0.1244778E+00
         -4   -1    0    0    0  501 -0.00000000000E+00  0.00000000000E+00  0.12438339291E+03  0.12438339291E+03  0.00000000000E+00 0. -1.
         21   -1    0    0  501  502  0.00000000000E+00 -0.00000000000E+00 -0.30045856978E+03  0.30045856978E+03  0.00000000000E+00 0. -1.
        -13    1    1    2    0    0  0.75263011124E+01 -0.49687491630E+02 -0.88987701433E+02  0.10219742758E+03  0.10566000000E+00 0.  1.
         13    1    1    2    0    0 -0.53430031793E+02 -0.37043503656E+01  0.10510264118E+03  0.11796214162E+03  0.10566000000E+00 0. -1.
         -4    1    1    2    0  502  0.45903730680E+02  0.53391841995E+02 -0.19219011661E+03  0.20468239349E+03  0.00000000000E+00 0. -1.
</event>
<event>
 5    1  0.4419198E-005  0.2654432E+03  0.7818608E-02  0.1022687E+00
         21   -1    0    0  501  502  0.00000000000E+00  0.00000000000E+00  0.26962461186E+03  0.26962461186E+03  0.00000000000E+00 0.  1.
          4   -1    0    0  502    0 -0.00000000000E+00 -0.00000000000E+00 -0.24675177054E+04  0.24675177054E+04  0.00000000000E+00 0.  1.
        -13    1    1    2    0    0 -0.24427798449E+03  0.92174368937E+02 -0.15591757544E+04  0.15808848447E+04  0.10566000000E+00 0.  1.
         13    1    1    2    0    0  0.25349299789E+03 -0.10372595791E+03 -0.87635595636E+03  0.91815987047E+03  0.10566000000E+00 0. -1.
          4    1    1    2  501    0 -0.92150133998E+01  0.11551588972E+02  0.23763861726E+03  0.23809760203E+03  0.00000000000E+00 0.  1.
</event>
<event>
 5    1  0.4419198E-005  0.9143529E+02  0.7818608E-02  0.1179561E+00
         21   -1    0    0  501  502  0.00000000000E+00  0.00000000000E+00  0.69051550194E+03  0.69051550194E+03  0.00000000000E+00 0. -1.
         -4   -1    0    0    0  501 -0.00000000000E+00 -0.00000000000E+00 -0.21442541691E+03  0.21442541691E+03  0.00000000000E+00 0. -1.
        -13    1    1    2    0    0  0.28810440289E+02 -0.85505486377E+02  0.23017831382E+03  0.24723126216E+03  0.10566000000E+00 0.  1.
         13    1    1    2    0    0  0.17079390539E+02  0.90368758171E+02 -0.19436265881E+03  0.21502342276E+03  0.10566000000E+00 0. -1.
         -4    1    1    2    0  502 -0.45889830829E+02 -0.48632717942E+01  0.44027443002E+03  0.44268623393E+03  0.00000000000E+00 0. -1.
</event>
<event>
 5    1  0.4419198E-005  0.2256897E+02  0.7818608E-02  0.1476971E+00
          4   -1    0    0  502    0 -0.00000000000E+00  0.00000000000E+00  0.14913088068E+03  0.14913088068E+03  0.00000000000E+00 0.  1.
         21   -1    0    0  501  502  0.00000000000E+00 -0.00000000000E+00 -0.71746414024E+01  0.71746414024E+01  0.00000000000E+00 0. -1.
        -13    1    1    2    0    0 -0.53979906021E+01 -0.21989289753E+02  0.73669633394E+02  0.77070702701E+02  0.10566000000E+00 0.  1.
         13    1    1    2    0    0  0.15935436950E+02  0.18371791174E+02  0.26412441562E+02  0.35903886907E+02  0.10566000000E+00 0. -1.
          4    1    1    2  501    0 -0.10537446348E+02  0.36174985792E+01  0.41874164320E+02  0.43330932473E+02  0.00000000000E+00 0.  1.
</event>
<event>
 5    1  0.4419198E-005  0.5612103E+03  0.7818608E-02  0.9353039E-01
         -4   -1    0    0    0  501 -0.00000000000E+00  0.00000000000E+00  0.83996952333E+03  0.83996952333E+03  0.00000000000E+00 0. -1.
         21   -1    0    0  501  502  0.00000000000E+00 -0.00000000000E+00 -0.75268255178E+03  0.75268255178E+03  0.00000000000E+00 0. -1.
        -13    1    1    2    0    0  0.24860575746E+03  0.39576523772E+03  0.14849302847E+03  0.49039283916E+03  0.10566000000E+00 0.  1.
         13    1    1    2    0    0 -0.44717558182E+03 -0.64253957518E+03 -0.22453027361E+02  0.78315212842E+03  0.10566000000E+00 0. -1.
         -4    1    1    2    0  502  0.19856982436E+03  0.24677433746E+03 -0.38753029564E+02  0.31910710752E+03  0.00000000000E+00 0. -1.
</event>
<event>
 5    1  0.4419198E-005  0.4696801E+03  0.7818608E-02  0.9695799E-01
         -4   -1    0    0    0  501 -0.00000000000E+00  0.00000000000E+00  0.27842415096E+04  0.27842415096E+04  0.00000000000E+00 0. -1.
         21   -1    0    0  501  502  0.00000000000E+00 -0.00000000000E+00 -0.20343263723E+03  0.20343263723E+03  0.00000000000E+00 0. -1.
        -13    1    1    2    0    0  0.24329264414E+03 -0.13311652953E+03  0.12938163581E+04  0.13232052376E+04  0.10566000000E+00 0.  1.
         13    1    1    2    0    0  0.27878889662E+03  0.35016573272E+03  0.34219975340E+03  0.56341811441E+03  0.10566000000E+00 0. -1.
         -4    1    1    2    0  502 -0.52208154076E+03 -0.21704920319E+03  0.94479276092E+03  0.11010507949E+04  0.00000000000E+00 0. -1.
</event>
<event>
 5    1  0.4419198E-005  0.4992433E+03  0.7818608E-02  0.9625454E-01
         21   -1    0    0  501  502  0.00000000000E+00  0.00000000000E+00  0.27016100928E+03  0.27016100928E+03  0.00000000000E+00 0.  1.
          4   -1    0    0  502    0 -0.00000000000E+00 -0.00000000000E+00 -0.18289801514E+04  0.18289801514E+04  0.00000000000E+00 0.  1.
        -13    1    1    2    0    0  0.42178248882E+03  0.15608451105E+03 -0.40901577146E+03  0.60791179865E+03  0.10566000000E+00 0.  1.
         13    1    1    2    0    0  0.17041853847E+03 -0.24156551202E+03 -0.64068589446E+03  0.70560243861E+03  0.10566000000E+00 0. -1.
          4    1    1    2  501    0 -0.59220102729E+03  0.85481000963E+02 -0.50911747623E+03  0.78562692346E+03  0.00000000000E+00 0.  1.
</event>
<event>
 5    1  0.4419198E-005  0.1413290E+03  0.7818608E-02  0.1109993E+00
         -4   -1    0    0    0  501 -0.00000000000E+00  0.00000000000E+00  0.20177701062E+03  0.20177701062E+03  0.00000000000E+00 0. -1.
         21   -1    0    0  501  502  0.00000000000E+00 -0.00000000000E+00 -0.69322262841E+03  0.69322262841E+03  0.00000000000E+00 0.  1.
        -13    1    1    2    0    0  0.15096505512E+03 -0.25891518243E+02 -0.54114278165E+03  0.56240229363E+03  0.10566000000E+00 0.  1.
         13    1    1    2    0    0 -0.13959937049E+03  0.18171505488E+02  0.16476294827E+03  0.21671416230E+03  0.10566000000E+00 0. -1.
         -4    1    1    2    0  502 -0.11365684629E+02  0.77200127554E+01 -0.11506578441E+03  0.11588318310E+03  0.00000000000E+00 0. -1.
</event>
<event>
 5    1  0.4419198E-005  0.5871524E+02  0.7818608E-02  0.1259879E+00
         -4   -1    0    0    0  501 -0.00000000000E+00  0.00000000000E+00  0.67573019510E+02  0.67573019510E+02  0.00000000000E+00 0. -1.
         21   -1    0    0  501  502  0.00000000000E+00 -0.00000000000E+00 -0.10318025819E+03  0.10318025819E+03  0.00000000000E+00 0.  1.
        -13    1    1    2    0    0 -0.59110974431E+02  0.43904207130E+02 -0.18701211751E+02  0.75969949236E+02  0.10566000000E+00 0.  1.
         13    1    1    2    0    0  0.43568535935E+02 -0.29553443100E+02  0.16562135383E+02  0.55190024598E+02  0.10566000000E+00 0. -1.
         -4    1    1    2    0  502  0.15542438496E+02 -0.14350764030E+02 -0.33468162315E+02  0.39593303870E+02  0.00000000000E+00 0. -1.
</event>
<event>
 5    1  0.4419198E-005  0.4292186E+03  0.7818608E-02  0.9648267E-01
         21   -1    0    0  501  502  0.00000000000E+00  0.00000000000E+00  0.20934346299E+03  0.20934346299E+03  0.00000000000E+00 0.  1.
         -4   -1    0    0    0  501 -0.00000000000E+00 -0.00000000000E+00 -0.96727699907E+03  0.96727699907E+03  0.00000000000E+00 0. -1.
        -13    1    1    2    0    0 -0.23524084856E+03 -0.34384121107E+03 -0.35870271477E+03  0.54975693175E+03  0.10566000000E+00 0.  1.
         13    1    1    2    0    0  0.24030997606E+03  0.37115366519E+03 -0.40369690694E+03  0.59872792787E+03  0.10566000000E+00 0. -1.
         -4    1    1    2    0  502 -0.50691275043E+01 -0.27312454122E+02  0.44660856276E+01  0.28135602440E+02  0.00000000000E+00 0. -1.
</event>
<event>
 5    1  0.4419198E-005  0.2129508E+03  0.7818608E-02  0.1051603E+00
          4   -1    0    0  502    0 -0.00000000000E+00  0.00000000000E+00  0.16273246346E+04  0.16273246346E+04  0.00000000000E+00 0.  1.
         21   -1    0    0  501  502  0.00000000000E+00 -0.00000000000E+00 -0.98149432026E+02  0.98149432026E+02  0.00000000000E+00 0.  1.
        -13    1    1    2    0    0  0.86461018796E+01  0.28879727574E+03  0.86083644188E+03  0.90802974201E+03  0.10566000000E+00 0.  1.
         13    1    1    2    0    0  0.86179653968E+01 -0.17661079341E+03  0.68067696603E+03  0.70326864350E+03  0.10566000000E+00 0. -1.
          4    1    1    2  501    0 -0.17264067276E+02 -0.11218648234E+03 -0.12338205371E+02  0.11417568108E+03  0.00000000000E+00 0.  1.
</event>
<event>
 5    1  0.4419198E-005  0.4464185E+03  0.7818608E-02  0.9981642E-01
         -4   -1    0    0    0  501 -0.00000000000E+00  0.00000000000E+00  0.27237373860E+04  0.27237373860E+04  0.00000000000E+00 0. -1.
         21   -1    0    0  501  502  0.00000000000E+00 -0.00000000000E+00 -0.11574957717E+03  0.11574957717E+03  0.00000000000E+00 0. -1.
        -13    1    1    2    0    0 -0.11529437717E+03 -0.41826049297E+02  0.27111019247E+03  0.29756169013E+03  0.10566000000E+00 0.  1.
         13    1    1    2    0    0 -0.22436241619E+03 -0.35337633857E+03  0.62287545103E+03  0.75045797292E+03  0.10566000000E+00 0. -1.
         -4    1    1    2    0  502  0.33965679336E+03  0.39520238787E+03  0.17140021653E+04  0.17914673001E+04  0.00000000000E+00 0. -1.
</event>
<event>
 5    1  0.4419198E-005  0.5795565E+03  0.7818608E-02  0.9318818E-01
         21   -1    0    0  501  502  0.00000000000E+00  0.00000000000E+00  0.16500337112E+03  0.16500337112E+03  0.00000000000E+00 0.  1.
         -4   -1    0    0    0  501 -0.00000000000E+00 -0.00000000000E+00 -0.38308574772E+04  0.38308574772E+04  0.00000000000E+00 0. -1.
        -13    1    1    2    0    0 -0.35292133891E+02 -0.59183235403E+03 -0.81990639366E+03  0.10118090608E+04  0.10566000000E+00 0.  1.
         13    1    1    2    0    0  0.47809207219E+02  0.57365361419E+03 -0.28835522240E+04  0.29404485422E+04  0.10566000000E+00 0. -1.
         -4    1    1    2    0  502 -0.12517073328E+02  0.18178739839E+02  0.37604511624E+02  0.43603245308E+02  0.00000000000E+00 0. -1.
</event>
<event>
 5    1  0.4419198E-005  0.3384236E+03  0.7818608E-02  0.9968287E-01
         21   -1    0    0  501  502  0.00000000000E+00  0.00000000000E+00  0.26928641628E+03  0.26928641628E+03  0.00000000000E+00 0. -1.
         -4   -1    0    0    0  501 -0.00000000000E+00 -0.00000000000E+00 -0.20782580093E+04  0.20782580093E+04  0.00000000000E+00 0. -1.
        -13    1    1    2    0    0  0.29371589635E+03  0.17251185854E+03 -0.70819819258E+03  0.78585880426E+03  0.10566000000E+00 0.  1.
         13    1    1    2    0    0  0.34632112185E+01 -0.33442263802E+03 -0.11694775106E+04  0.12163585629E+04  0.10566000000E+00 0. -1.
         -4    1    1    2    0  502 -0.29717910757E+03  0.16191077948E+03  0.68704110176E+02  0.34532705837E+03  0.00000000000E+00 0. -1.
</event>
<event>
 5    1  0.4419198E-005  0.4375863E+03  0.7818608E-02  0.9682987E-01
         21   -1    0    0  501  502  0.00000000000E+00  0.00000000000E+00  0.31779955116E+03  0.31779955116E+03  0.00000000000E+00 0.  1.
          4   -1    0    0  502    0 -0.00000000000E+00 -0.00000000000E+00 -0.29486473623E+04  0.29486473623E+04  0.00000000000E+00 0.  1.
        -13    1    1    2    0    0 -0.62014583142E+02  0.19737829791E+03 -0.67346646514E+03  0.70452898581E+03  0.10566000000E+00 0.  1.
         13    1    1    2    0    0 -0.31668139535E+03  0.16827995593E+03 -0.20017624337E+04  0.20336317518E+04  0.10566000000E+00 0. -1.
          4    1    1    2  501    0  0.37869597849E+03 -0.36565825383E+03  0.44381087646E+02  0.52828617592E+03  0.00000000000E+00 0.  1.
</event>
<event>
 5    1  0.4419198E-005  0.5150259E+03  0.7818608E-02  0.9743227E-01
         21   -1    0    0  501  502  0.00000000000E+00  0.00000000000E+00  0.38888959630E+03  0.38888959630E+03  0.00000000000E+00 0. -1.
         -4   -1    0    0    0  501 -0.00000000000E+00 -0.00000000000E+00 -0.16799691134E+04  0.16799691134E+04  0.00000000000E+00 0. -1.
        -13    1    1    2    0    0 -0.17704213389E+03  0.22177454154E+02 -0.95249300599E+03  0.96906072785E+03  0.10566000000E+00 0.  1.
         13    1    1    2    0    0  0.59443245776E+03 -0.12666356527E+03 -0.12952063523E+03  0.62142514571E+03  0.10566000000E+00 0. -1.
         -4    1    1    2    0  502 -0.41739032387E+03  0.10448611111E+03 -0.20906587584E+03  0.47837283610E+03  0.00000000000E+00 0. -1.
</event>
<event>
 5    1  0.4419198E-005  0.1789114E+03  0.7818608E-02  0.1075641E+00
         -4   -1    0    0    0  501 -0.00000000000E+00  0.00000000000E+00  0.79964942294E+03  0.79964942294E+03  0.00000000000E+00 0. -1.
         21   -1    0    0  501  502  0.00000000000E+00 -0.00000000000E+00 -0.18331052028E+03  0.18331052028E+03  0.00000000000E+00 0. -1.
        -13    1    1    2    0    0  0.12873094771E+03 -0.88720698096E+02  0.21009715773E+03  0.26188517716E+03  0.10566000000E+00 0.  1.
         13    1    1    2    0    0 -0.16560329598E+03  0.10024737403E+03  0.54430733359E+03  0.57770621617E+03  0.10566000000E+00 0. -1.
         -4    1    1    2    0  502  0.36872348270E+02 -0.11526675930E+02 -0.13806558865E+03  0.14336854988E+03  0.00000000000E+00 0. -1.
</event>
<event>
 5    1  0.4419198E-005  0.6018649E+02  0.7818608E-02  0.1264936E+00
         21   -1    0    0  501  502  0.00000000000E+00  0.00000000000E+00  0.31662993614E+03  0.31662993614E+03  0.00000000000E+00 0.  1.
         -4   -1    0    0    0  501 -0.00000000000E+00 -0.00000000000E+00 -0.67600161293E+02  0.67600161293E+02  0.00000000000E+00 0. -1.
        -13    1    1    2    0    0  0.46243577178E+02 -0.16586520303E+02  0.19315507690E+03  0.19930498233E+03  0.10566000000E+00 0.  1.
         13    1    1    2    0    0 -0.98835511485E+02  0.47702123458E+01 -0.10402135374E+02  0.99495873486E+02  0.10566000000E+00 0. -1.
         -4    1    1    2    0  502  0.52591934308E+02  0.11816307958E+02  0.66276833323E+02  0.85429241618E+02  0.00000000000E+00 0. -1.
</event>
<event>
 5    1  0.4419198E-005  0.1736121E+03  0.7818608E-02  0.1111359E+00
         21   -1    0    0  501  502  0.00000000000E+00  0.00000000000E+00  0.10742078541E+04  0.10742078541E+04  0.00000000000E+00 0. -1.
         -4   -1    0    0    0  501 -0.00000000000E+00 -0.00000000000E+00 -0.32776364379E+03  0.32776364379E+03  0.00000000000E+00 0. -1.
        -13    1    1    2    0    0 -0.26304452840E+02  0.68655788908E+02 -0.10554320176E+03  0.12862705855E+03  0.10566000000E+00 0.  1.
         13    1    1    2    0    0 -0.13115046298E+03  0.88464730519E+01 -0.18203569564E+03  0.22453442871E+03  0.10566000000E+00 0. -1.
         -4    1    1    2    0  502  0.15745491582E+03 -0.77502261960E+02  0.10340231077E+04  0.10488100107E+04  0.00000000000E+00 0. -1.
</event>
<event>
 5    1  0.4419198E-005  0.4374321E+03  0.7818608E-02  0.9626782E-01
         21   -1    0    0  501  502  0.00000000000E+00  0.00000000000E+00  0.59185018488E+03  0.59185018488E+03  0.00000000000E+00 0. -1.
         -4   -1    0    0    0  501 -0.00000000000E+00 -0.00000000000E+00 -0.93536567495E+03  0.93536567495E+03  0.00000000000E+00 0. -1.
        -13    1    1    2    0    0 -0.37337847908E+03 -0.30494850018E+02 -0.25639396159E+03  0.45395957884E+03  0.10566000000E+00 0.  1.
         13    1    1    2    0    0  0.51175315253E+03 -0.23905614483E+01 -0.45127716710E+03  0.68231085043E+03  0.10566000000E+00 0. -1.
         -4    1    1    2    0  502 -0.13837467345E+03  0.32885411466E+02  0.36415563862E+03  0.39094543056E+03  0.00000000000E+00 0. -1.
</event>
<event>
 5    1  0.4419198E-005  0.5008279E+03  0.7818608E-02  0.9880173E-01
         -4   -1    0    0    0  501 -0.00000000000E+00  0.00000000000E+00  0.31022900461E+03  0.31022900461E+03  0.00000000000E+00 0. -1.
         21   -1    0    0  501  502  0.00000000000E+00 -0.00000000000E+00 -0.10643413178E+04  0.10643413178E+04  0.00000000000E+00 0. -1.
        -13    1    1    2    0    0 -0.10692024576E+03 -0.58141166221E+02 -0.13600969276E+02  0.12246359333E+03  0.10566000000E+00 0.  1.
         13    1    1    2    0    0  0.29415979719E+03  0.46616940388E+03 -0.49265685985E+03  0.73929337351E+03  0.10566000000E+00 0. -1.
         -4    1    1    2    0  502 -0.18723955143E+03 -0.40802823766E+03 -0.24785448402E+03  0.51281335551E+03  0.00000000000E+00 0. -1.
</event>
<event>
 5    1  0.4419198E-005  0.1120425E+03  0.7818608E-02  0.1146036E+00
         -4   -1    0    0    0  501 -0.00000000000E+00  0.00000000000E+00  0.71556501160E+03  0.71556501160E+03  0.00000000000E+00 0. -1.
         21   -1    0    0  501  502  0.00000000000E+00 -0.00000000000E+00 -0.84918899819E+02  0.84918899819E+02  0.00000000000E+00 0. -1.
        -13    1    1    2    0    0  0.23662257096E+02 -0.10372284427E+03  0.14022735504E+02  0.10730787068E+03  0.10566000000E+00 0.  1.
         13    1    1    2    0    0 -0.63127493621E+02  0.94129930993E+02  0.63750951653E+03  0.64750592213E+03  0.10566000000E+00 0. -1.
         -4    1    1    2    0  502  0.39465236525E+02  0.95929132797E+01 -0.20886140254E+02  0.45670118611E+02  0.00000000000E+00 0. -1.
</event>
<event>
 5    1  0.4419198E-005  0.8767296E+02  0.7818608E-02  0.1186738E+00
         21   -1    0    0  501  502  0.00000000000E+00  0.00000000000E+00  0.36918365221E+02  0.36918365221E+02  0.00000000000E+00 0.  1.
          4   -1    0    0  502    0 -0.00000000000E+00 -0.00000000000E+00 -0.36213771884E+03  0.36213771884E+03  0.00000000000E+00 0.  1.
        -13    1    1    2    0    0  0.28194490722E+02  0.90585729943E+02 -0.22318811815E+03  0.24251525936E+03  0.10566000000E+00 0.  1.
         13    1    1    2    0    0 -0.19035020499E+02 -0.76176342057E+02 -0.11199098085E+03  0.13677411323E+03  0.10566000000E+00 0. -1.
          4    1    1    2  501    0 -0.91594702229E+01 -0.14409387886E+02  0.99597453828E+01  0.19766711464E+02  0.00000000000E+00 0.  1.
</event>
<event>
 5    1  0.4419198E-005  0.4189406E+03  0.7818608E-02  0.9675884E-01
         21   -1    0    0  501  502  0.00000000000E+00  0.00000000000E+00  0.53633792780E+03  0.53633792780E+03  0.00000000000E+00 0. -1.
         -4   -1    0    0    0  501 -0.00000000000E+00 -0.00000000000E+00 -0.15679905650E+04  0.15679905650E+04  0.00000000000E+00 0. -1.
        -13    1    1    2    0    0 -0.39500270799E+03  0.14847069387E+03 -0.88979719640E+03  0.98478918970E+03  0.10566000000E+00 0.  1.
         13    1    1    2    0    0  0.27663764520E+03 -0.36649119973E+03 -0.50321073816E+03  0.68122334398E+03  0.10566000000E+00 0. -1.
         -4    1    1    2    0  502  0.11836506279E+03  0.21802050586E+03  0.36135529738E+03  0.43831595910E+03  0.00000000000E+00 0. -1.
</event>
<event>
 5    1  0.4419198E-005  0.3514580E+03  0.7818608E-02  0.9936861E-01
         -4   -1    0    0    0  501 -0.00000000000E+00  0.00000000000E+00  0.14216896365E+04  0.14216896365E+04  0.00000000000E+00 0. -1.
         21   -1    0    0  501  502  0.00000000000E+00 -0.00000000000E+00 -0.34300789454E+03  0.34300789454E+03  0.00000000000E+00 0.  1.
        -13    1    1    2    0    0  0.37892019072E+02 -0.28895859480E+03  0.48158836565E+03  0.56290340176E+03  0.10566000000E+00 0.  1.
         13    1    1    2    0    0 -0.36800729260E+03  0.14289878838E+03  0.71944361820E+03  0.82063911804E+03  0.10566000000E+00 0. -1.
         -4    1    1    2    0  502  0.33011527353E+03  0.14605980643E+03 -0.12235024192E+03  0.38115501121E+03  0.00000000000E+00 0. -1.
</event>
<event>
 5    1  0.4419198E-005  0.3061818E+03  0.7818608E-02  0.1036370E+00
         21   -1    0    0  501  502  0.00000000000E+00  0.00000000000E+00  0.17040906709E+03  0.17040906709E+03  0.00000000000E+00 0. -1.
         -4   -1    0    0    0  501 -0.00000000000E+00 -0.00000000000E+00 -0.18952271157E+04  0.18952271157E+04  0.00000000000E+00 0. -1.
        -13    1    1    2    0    0  0.11310811852E+03  0.61647541471E+01 -0.17425350492E+03  0.20783586266E+03  0.10566000000E+00 0.  1.
         13    1    1    2    0    0  0.11270944703E+03  0.27927845212E+03 -0.39765621953E+02  0.30377819066E+03  0.10566000000E+00 0. -1.
         -4    1    1    2    0  502 -0.22581756555E+03 -0.28544320627E+03 -0.15107989218E+04  0.15540221295E+04  0.00000000000E+00 0. -1.
</event>
<event>
 5    1  0.4419198E-005  0.2637346E+03  0.7818608E-02  0.1033148E+00
          4   -1    0    0  502    0 -0.00000000000E+00  0.00000000000E+00  0.21037480006E+04  0.21037480006E+04  0.00000000000E+00 0.  1.
         21   -1    0    0  501  502  0.00000000000E+00 -0.00000000000E+00 -0.17972225331E+03  0.17972225331E+03  0.00000000000E+00 0.  1.
        -13    1    1    2    0    0 -0.41751660709E+03  0.44517239314E+02  0.15248916175E+04  0.15816435622E+04  0.10566000000E+00 0.  1.
         13    1    1    2    0    0  0.18669598103E+03  0.58400363268E+02  0.40420316089E+03  0.44905032925E+03  0.10566000000E+00 0. -1.
          4    1    1    2  501    0  0.23082062606E+03 -0.10291760258E+03 -0.50690310355E+01  0.25277636244E+03  0.00000000000E+00 0.  1.
</event>
<event>
 5    1  0.4419198E-005  0.4497646E+03  0.7818608E-02  0.9700788E-01
         21   -1    0    0  501  502  0.00000000000E+00  0.00000000000E+00  0.12029121632E+04  0.12029121632E+04  0.00000000000E+00 0. -1.
         -4   -1    0    0    0  501 -0.00000000000E+00 -0.00000000000E+00 -0.55588010329E+03  0.55588010329E+03  0.00000000000E+00 0. -1.
        -13    1    1    2    0    0 -0.30851991255E+03  0.33949189474E+02 -0.22530424031E+03  0.38353499941E+03  0.10566000000E+00 0.  1.
         13    1    1    2    0    0  0.48803966203E+03  0.34079628524E+03  0.29610783501E+03  0.66483432588E+03  0.10566000000E+00 0. -1.
         -4    1    1    2    0  502 -0.17951974948E+03 -0.37474547471E+03  0.57622846522E+03  0.71042294121E+03  0.00000000000E+00 0. -1.
</event>
<event>
 5    1  0.4419198E-005  0.9480253E+02  0.7818608E-02  0.1173453E+00
         21   -1    0    0  501  502  0.00000000000E+00  0.00000000000E+00  0.46043052329E+02  0.46043052329E+02  0.00000000000E+00 0. -1.
          4   -1    0    0  502    0 -0.00000000000E+00 -0.00000000000E+00 -0.26152250862E+03  0.26152250862E+03  0.00000000000E+00 0.  1.
        -13    1    1    2    0    0 -0.34492533148E+02 -0.93683697502E+02 -0.15884769755E+03  0.18761389128E+03  0.10566000000E+00 0.  1.
         13    1    1    2    0    0  0.39689755818E+02  0.77238860407E+02 -0.54618358387E+02  0.10258798424E+03  0.10566000000E+00 0. -1.
          4    1    1    2  501    0 -0.51972226698E+01  0.16444837094E+02 -0.20134003525E+01  0.17363685424E+02  0.00000000000E+00 0.  1.
</event>
<event>
 5    1  0.4419198E-005  0.1623045E+03  0.7818608E-02  0.1089573E+00
          4   -1    0    0  502    0 -0.00000000000E+00  0.00000000000E+00  0.58327253439E+02  0.58327253439E+02  0.00000000000E+00 0.  1.
         21   -1    0    0  501  502  0.00000000000E+00 -0.00000000000E+00 -0.12555152058E+04  0.12555152058E+04  0.00000000000E+00 0.  1.
        -13    1    1    2    0    0 -0.96406664415E+02 -0.21029760830E+03 -0.39458322983E+03  0.45740055250E+03  0.10566000000E+00 0.  1.
         13    1    1    2    0    0  0.89254484141E+02  0.98065675780E+02 -0.17892838434E+03  0.22270747089E+03  0.10566000000E+00 0. -1.
          4    1    1    2  501    0  0.71521802742E+01  0.11223193252E+03 -0.62367633814E+03  0.63373443580E+03  0.00000000000E+00 0.  1.
</event>
<event>
 5    1  0.4419198E-005  0.3186109E+02  0.7818608E-02  0.1401913E+00
         21   -1    0    0  501  502  0.00000000000E+00  0.00000000000E+00  0.30252480595E+03  0.30252480595E+03  0.00000000000E+00 0. -1.
         -4   -1    0    0    0  501 -0.00000000000E+00 -0.00000000000E+00 -0.81721118727E+01  0.81721118727E+01  0.00000000000E+00 0. -1.
        -13    1    1    2    0    0 -0.68061753859E+01 -0.25428604989E+02  0.12368634856E+03  0.12645656155E+03  0.10566000000E+00 0.  1.
         13    1    1    2    0    0 -0.21900430820E+02  0.33092766715E+02  0.99339579309E+02  0.10697253507E+03  0.10566000000E+00 0. -1.
         -4    1    1    2    0  502  0.28706606206E+02 -0.76641617260E+01  0.71326766205E+02  0.77267821194E+02  0.00000000000E+00 0. -1.
</event>
<event>
 5    1  0.4419198E-005  0.7274478E+03  0.7818608E-02  0.9084085E-01
         21   -1    0    0  501  502  0.00000000000E+00  0.00000000000E+00  0.36418872956E+03  0.36418872956E+03  0.00000000000E+00 0. -1.
          4   -1    0    0  502    0 -0.00000000000E+00 -0.00000000000E+00 -0.25692554516E+04  0.25692554516E+04  0.00000000000E+00 0.  1.
        -13    1    1    2    0    0  0.38360094992E+03  0.62792646320E+03 -0.16266428237E+04  0.17853314031E+04  0.10566000000E+00 0.  1.
         13    1    1    2    0    0 -0.35336015819E+03 -0.61824754550E+03 -0.71427279359E+03  0.10086025301E+04  0.10566000000E+00 0. -1.
          4    1    1    2  501    0 -0.30240791730E+02 -0.96789176973E+01  0.13584889525E+03  0.13951024792E+03  0.00000000000E+00 0.  1.
</event>
<event>
 5    1  0.4419198E-005  0.4210645E+03  0.7818608E-02  0.1002235E+00
         -4   -1    0    0    0  501 -0.00000000000E+00  0.00000000000E+00  0.12591244626E+04  0.12591244626E+04  0.00000000000E+00 0. -1.
         21   -1    0    0  501  502  0.00000000000E+00 -0.00000000000E+00 -0.30847574150E+03  0.30847574150E+03  0.00000000000E+00 0. -1.
        -13    1    1    2    0    0  0.99048268097E+02 -0.80939230769E+02  0.37907153764E+03  0.40007119404E+03  0.10566000000E+00 0.  1.
         13    1    1    2    0    0  0.94986848073E+02 -0.38630500350E+03 -0.83899842005E+01  0.39790006287E+03  0.10566000000E+00 0. -1.
         -4    1    1    2    0  502 -0.19403511617E+03  0.46724423427E+03  0.57996716766E+03  0.76962894717E+03  0.00000000000E+00 0. -1.
</event>
<event>
 5    1  0.4419198E-005  0.5524530E+02  0.7818608E-02  0.1271790E+00
         -4   -1    0    0    0  501 -0.00000000000E+00  0.00000000000E+00  0.19149727465E+03  0.19149727465E+03  0.00000000000E+00 0. -1.
         21   -1    0    0  501  502  0.00000000000E+00 -0.00000000000E+00 -0.15069828339E+03  0.15069828339E+03  0.00000000000E+00 0. -1.
        -13    1    1    2    0    0 -0.93452550386E+02 -0.38265369659E+02  0.38160536774E+02  0.10795302413E+03  0.10566000000E+00 0.  1.
         13    1    1    2    0    0  0.45467025183E+02  0.16616956577E+02  0.10695256792E+03  0.11739777074E+03  0.10566000000E+00 0. -1.
         -4    1    1    2    0  502  0.47985525204E+02  0.21648413082E+02 -0.10431411344E+03  0.11684476317E+03  0.00000000000E+00 0. -1.
</event>
<event>
 5    1  0.4419198E-005  0.4655417E+03  0.7818608E-02  0.9650814E-01
          4   -1    0    0  502    0 -0.00000000000E+00  0.00000000000E+00  0.87030759063E+03  0.87030759063E+03  0.00000000000E+00 0.  1.
         21   -1    0    0  501  502  0.00000000000E+00 -0.00000000000E+00 -0.54433469294E+03  0.54433469294E+03  0.00000000000E+00 0.  1.
        -13    1    1    2    0    0  0.51710922784E+03 -0.17033884285E+03  0.23259333130E+03  0.59204471439E+03  0.10566000000E+00 0.  1.
         13    1    1    2    0    0 -0.25743317385E+03 -0.21183306065E+03  0.13282601677E+03  0.35887023627E+03  0.10566000000E+00 0. -1.
          4    1    1    2  501    0 -0.25967605399E+03  0.38217190350E+03 -0.39446450389E+02  0.46372733291E+03  0.00000000000E+00 0.  1.
</event>
<event>
 5    1  0.4419198E-005  0.1976631E+03  0.7818608E-02  0.1084975E+00
         21   -1    0    0  501  502  0.00000000000E+00  0.00000000000E+00  0.22320884357E+03  0.22320884357E+03  0.00000000000E+00 0.  1.
          4   -1    0    0  502    0 -0.00000000000E+00 -0.00000000000E+00 -0.74355626380E+03  0.74355626380E+03  0.00000000000E+00 0.  1.
        -13    1    1    2    0    0  0.16754521571E+03 -0.16415680517E+03 -0.42417452220E+03  0.48470908021E+03  0.10566000000E+00 0.  1.
         13    1    1    2    0    0  0.17549432712E+02  0.10055652944E+03 -0.22546080000E+03  0.24749178108E+03  0.10566000000E+00 0. -1.
          4    1    1    2  501    0 -0.18509464842E+03  0.63600275730E+02  0.12928790197E+03  0.23456424609E+03  0.00000000000E+00 0.  1.
</event>
<event>
 5    1  0.4419198E-005  0.3508609E+03  0.7818608E-02  0.9882805E-01
         21   -1    0    0  501  502  0.00000000000E+00  0.00000000000E+00  0.67921486384E+02  0.67921486384E+02  0.00000000000E+00 0. -1.
          4   -1    0    0  502    0 -0.00000000000E+00 -0.00000000000E+00 -0.24680267634E+04  0.24680267634E+04  0.00000000000E+00 0.  1.
        -13    1    1    2    0    0  0.10310831604E+03 -0.37674769143E+03 -0.15144183735E+04  0.15639799132E+04  0.10566000000E+00 0.  1.
         13    1    1    2    0    0 -0.43179655964E+02  0.29566903917E+03 -0.63606454903E+03  0.70275371583E+03  0.10566000000E+00 0. -1.
          4    1    1    2  501    0 -0.59928660077E+02  0.81078652261E+02 -0.24962235445E+03  0.26921462069E+03  0.00000000000E+00 0.  1.
</event>
<event>
 5    1  0.4419198E-005  0.4697382E+03  0.7818608E-02  0.9682326E-01
          4   -1    0    0  502    0 -0.00000000000E+00  0.00000000000E+00  0.13093059114E+04  0.13093059114E+04  0.00000000000E+00 0.  1.
         21   -1    0    0  501  502  0.00000000000E+00 -0.00000000000E+00 -0.34888726869E+03  0.34888726869E+03  0.00000000000E+00 0.  1.
        -13    1    1    2    0    0  0.19727666079E+03 -0.24273447496E+03  0.70318589023E+03  0.76961582209E+03  0.10566000000E+00 0.  1.
         13    1    1    2    0    0 -0.49676461449E+02 -0.28629577080E+03  0.15698586042E+03  0.33026896726E+03  0.10566000000E+00 0. -1.
          4    1    1    2  501    0 -0.14760019934E+03  0.52903024576E+03  0.10024689202E+03  0.55830839071E+03  0.00000000000E+00 0.  1.
</event>
<event>
 5    1  0.4419198E-005  0.6078582E+03  0.7818608E-02  0.9268568E-01
         21   -1    0    0  501  502  0.00000000000E+00  0.00000000000E+00  0.64253777932E+03  0.64253777932E+03  0.00000000000E+00 0.  1.
         -4   -1    0    0    0  501 -0.00000000000E+00 -0.00000000000E+00 -0.13234962580E+04  0.13234962580E+04  0.00000000000E+00 0. -1.
        -13    1    1    2    0    0  0.36555778344E+03  0.53470891296E+03 -0.26112400350E+03  0.69837802872E+03  0.10566000000E+00 0.  1.
         13    1    1    2    0    0  0.12622510635E+03 -0.65603581364E+03 -0.35634614823E+03  0.75716468141E+03  0.10566000000E+00 0. -1.
         -4    1    1    2    0  502 -0.49178288979E+03  0.12132690068E+03 -0.63488326993E+02  0.51049132724E+03  0.00000000000E+00 0. -1.
</event>
<event>
 5    1  0.4419198E-005  0.4865694E+03  0.7818608E-02  0.9990881E-01
         -4   -1    0    0    0  501 -0.00000000000E+00  0.00000000000E+00  0.18492830412E+04  0.18492830412E+04  0.00000000000E+00 0. -1.
         21   -1    0    0  501  502  0.00000000000E+00 -0.00000000000E+00 -0.16924905063E+03  0.16924905063E+03  0.00000000000E+00 0. -1.
        -13    1    1    2    0    0  0.61880916171E+02 -0.67927895188E+02  0.27115902610E+03  0.28630521359E+03  0.10566000000E+00 0.  1.
         13    1    1    2    0    0  0.30910627717E+03  0.38273248602E+03  0.91540437524E+03  0.10392285734E+04  0.10566000000E+00 0. -1.
         -4    1    1    2    0  502 -0.37098719334E+03 -0.31480459083E+03  0.49347058922E+03  0.69299830480E+03  0.00000000000E+00 0. -1.
</event>
<event>
 5    1  0.4419198E-005  0.1257458E+03  0.7818608E-02  0.1127840E+00
          4   -1    0    0  502    0 -0.00000000000E+00  0.00000000000E+00  0.50847815358E+03  0.50847815358E+03  0.00000000000E+00 0.  1.
         21   -1    0    0  501  502  0.00000000000E+00 -0.00000000000E+00 -0.69917674011E+02  0.69917674011E+02  0.00000000000E+00 0. -1.
        -13    1    1    2    0    0 -0.12102968264E+03 -0.35133589690E+02  0.38961502165E+03  0.40949045100E+03  0.10566000000E+00 0.  1.
         13    1    1    2    0    0  0.11058693585E+03  0.62757210196E+02  0.22227913671E+02  0.12908148249E+03  0.10566000000E+00 0. -1.
          4    1    1    2  501    0  0.10442746786E+02 -0.27623620506E+02  0.26717544248E+02  0.39823894096E+02  0.00000000000E+00 0.  1.
</event>
<event>
 5    1  0.4419198E-005  0.4149097E+03  0.7818608E-02  0.9815145E-01
         21   -1    0    0  501  502  0.00000000000E+00  0.00000000000E+00  0.20106106267E+03  0.20106106267E+03  0.00000000000E+00 0.  1.
          4   -1    0    0  502    0 -0.00000000000E+00 -0.00000000000E+00 -0.23394388731E+04  0.23394388731E+04  0.00000000000E+00 0.  1.
        -13    1    1    2    0    0 -0.18694087590E+03  0.30504250356E+03 -0.12240043858E+04  0.12752194194E+04  0.10566000000E+00 0.  1.
         13    1    1    2    0    0 -0.22684192614E+03 -0.14023733303E+03 -0.74065500834E+03  0.78720621286E+03  0.10566000000E+00 0. -1.
          4    1    1    2  501    0  0.41378280204E+03 -0.16480517053E+03 -0.17371841630E+03  0.47807430349E+03  0.00000000000E+00 0.  1.
</event>
<event>
 5    1  0.4419198E-005  0.3944724E+03  0.7818608E-02  0.9745147E-01
         -4   -1    0    0    0  501 -0.00000000000E+00  0.00000000000E+00  0.25243065577E+03  0.25243065577E+03  0.00000000000E+00 0. -1.
         21   -1    0    0  501  502  0.00000000000E+00 -0.00000000000E+00 -0.11056398824E+04  0.11056398824E+04  0.00000000000E+00 0. -1.
        -13    1    1    2    0    0 -0.32826867531E+03 -0.24907100277E+03 -0.36165681242E+03  0.54826302879E+03  0.10566000000E+00 0.  1.
         13    1    1    2    0    0  0.18639541460E+03  0.35182991560E+03 -0.14911193779E+03  0.42516105331E+03  0.10566000000E+00 0. -1.
         -4    1    1    2    0  502  0.14187326071E+03 -0.10275891283E+03 -0.34244047647E+03  0.38464645611E+03  0.00000000000E+00 0. -1.
</event>
<event>
 5    1  0.4419198E-005  0.1001714E+03  0.7818608E-02  0.1164272E+00
         21   -1    0    0  501  502  0.00000000000E+00  0.00000000000E+00  0.52428490167E+03  0.52428490167E+03  0.00000000000E+00 0. -1.
         -4   -1    0    0    0  501 -0.00000000000E+00 -0.00000000000E+00 -0.46039245986E+02  0.46039245986E+02  0.00000000000E+00 0. -1.
        -13    1    1    2    0    0 -0.52509031191E+02 -0.68944913514E+02  0.92281636456E+02  0.12659585715E+03  0.10566000000E+00 0.  1.
         13    1    1    2    0    0  0.79399948632E+02  0.83208640051E+02  0.89573519376E+02  0.14577879187E+03  0.10566000000E+00 0. -1.
         -4    1    1    2    0  502 -0.26890917441E+02 -0.14263726537E+02  0.29639049985E+03  0.29794949864E+03  0.00000000000E+00 0. -1.
</event>
<event>
 5    1  0.4419198E-005  0.2423884E+03  0.7818608E-02  0.1034414E+00
         21   -1    0    0  501  502  0.00000000000E+00  0.00000000000E+00  0.10626621912E+03  0.10626621912E+03  0.00000000000E+00 0. -1.
          4   -1    0    0  502    0 -0.00000000000E+00 -0.00000000000E+00 -0.82971870980E+03  0.82971870980E+03  0.00000000000E+00 0.  1.
        -13    1    1    2    0    0  0.87848767149E+02  0.23893794814E+03 -0.33509186733E+03  0.42082694741E+03  0.10566000000E+00 0.  1.
         13    1    1    2    0    0 -0.42030146427E+02 -0.23112858685E+03 -0.40296205955E+03  0.46643905225E+03  0.10566000000E+00 0. -1.
          4    1    1    2  501    0 -0.45818620722E+02 -0.78093612958E+01  0.14601436207E+02  0.48718929258E+02  0.00000000000E+00 0.  1.
</event>
<event>
 5    1  0.4668403E-005  0.6661367E+03  0.7818608E-02  0.9173604E-01
          4   -1    0    0  502    0 -0.00000000000E+00  0.00000000000E+00  0.13022995395E+04  0.13022995395E+04  0.00000000000E+00 0.  1.
         21   -1    0    0  501  502  0.00000000000E+00 -0.00000000000E+00 -0.74571226588E+03  0.74571226588E+03  0.00000000000E+00 0. -1.
        -13    1    1    2    0    0 -0.11775442136E+03 -0.63494301636E+03  0.72644570350E+03  0.97197845093E+03  0.10566000000E+00 0.  1.
         13    1    1    2    0    0  0.27020364021E+03  0.67422710456E+03  0.12949454489E+03  0.73780827050E+03  0.10566000000E+00 0. -1.
          4    1    1    2  501    0 -0.15244921885E+03 -0.39284088196E+02 -0.29935297477E+03  0.33822508395E+03  0.00000000000E+00 0.  1.
</event>
<event>
 5    1  0.4419198E-005  0.4085193E+03  0.7818608E-02  0.1018860E+00
         21   -1    0    0  501  502  0.00000000000E+00  0.00000000000E+00  0.20004786527E+03  0.20004786527E+03  0.00000000000E+00 0. -1.
         -4   -1    0    0    0  501 -0.00000000000E+00 -0.00000000000E+00 -0.14086559451E+04  0.14086559451E+04  0.00000000000E+00 0. -1.
        -13    1    1    2    0    0 -0.41628039727E+02  0.70809659636E+02 -0.17191621796E+03  0.19053109655E+03  0.10566000000E+00 0.  1.
         13    1    1    2    0    0 -0.24342139380E+03  0.30399983070E+03 -0.15606609613E+03  0.41955513291E+03  0.10566000000E+00 0. -1.
         -4    1    1    2    0  502  0.28504943353E+03 -0.37480949034E+03 -0.88062576572E+03  0.99861758088E+03  0.00000000000E+00 0. -1.
</event>
<event>
 5    1  0.4419198E-005  0.8002247E+02  0.7818608E-02  0.1202641E+00
         21   -1    0    0  501  502  0.00000000000E+00  0.00000000000E+00  0.66818512026E+02  0.66818512026E+02  0.00000000000E+00 0.  1.
         -4   -1    0    0    0  501 -0.00000000000E+00 -0.00000000000E+00 -0.13489442589E+03  0.13489442589E+03  0.00000000000E+00 0. -1.
        -13    1    1    2    0    0  0.16316045949E+01  0.69714790206E+02 -0.25018298402E+02  0.74086034622E+02  0.10566000000E+00 0.  1.
         13    1    1    2    0    0 -0.21846164678E+00 -0.91240365873E+02 -0.51134454614E+02  0.10459252221E+03  0.10566000000E+00 0. -1.
         -4    1    1    2    0  502 -0.14131429481E+01  0.21525575667E+02  0.80768391572E+01  0.23034381076E+02  0.00000000000E+00 0. -1.
</event>
<event>
 5    1  0.4419198E-005  0.4935175E+03  0.7818608E-02  0.9586443E-01
          4   -1    0    0  502    0 -0.00000000000E+00  0.00000000000E+00  0.16906787797E+04  0.16906787797E+04  0.00000000000E+00 0.  1.
         21   -1    0    0  501  502  0.00000000000E+00 -0.00000000000E+00 -0.61621517081E+03  0.61621517081E+03  0.00000000000E+00 0.  1.
        -13    1    1    2    0    0 -0.30629635213E+03 -0.40532701496E+03 -0.16889127611E+03  0.53537997599E+03  0.10566000000E+00 0.  1.
         13    1    1    2    0    0 -0.22192922565E+03  0.27262577031E+03  0.11703482143E+04  0.12220034147E+04  0.10566000000E+00 0. -1.
          4    1    1    2  501    0  0.52822557778E+03  0.13270124465E+03  0.73006670747E+02  0.54951055980E+03  0.00000000000E+00 0.  1.
</event>
<event>
 5    1  0.4419198E-005  0.1755119E+03  0.7818608E-02  0.1078357E+00
         -4   -1    0    0    0  501 -0.00000000000E+00  0.00000000000E+00  0.13203327334E+04  0.13203327334E+04  0.00000000000E+00 0. -1.
         21   -1    0    0  501  502  0.00000000000E+00 -0.00000000000E+00 -0.51420045347E+02  0.51420045347E+02  0.00000000000E+00 0.  1.
        -13    1    1    2    0    0 -0.15617819137E+03 -0.12203286897E+01  0.60612627865E+03  0.62592507019E+03  0.10566000000E+00 0.  1.
         13    1    1    2    0    0  0.20949679120E+03  0.73120934690E+02  0.59036347169E+03  0.63068583025E+03  0.10566000000E+00 0. -1.
         -4    1    1    2    0  502 -0.53318599835E+02 -0.71900606000E+02  0.72422937713E+02  0.11514187830E+03  0.00000000000E+00 0. -1.
</event>
<event>
 5    1  0.4419198E-005  0.7596974E+02  0.7818608E-02  0.1211882E+00
         21   -1    0    0  501  502  0.00000000000E+00  0.00000000000E+00  0.11527203589E+03  0.11527203589E+03  0.00000000000E+00 0. -1.
          4   -1    0    0  502    0 -0.00000000000E+00 -0.00000000000E+00 -0.12996016152E+03  0.12996016152E+03  0.00000000000E+00 0.  1.
        -13    1    1    2    0    0 -0.70842501997E+02  0.16742110766E+01 -0.60414570931E+02  0.93120323328E+02  0.10566000000E+00 0.  1.
         13    1    1    2    0    0  0.88479218990E+02 -0.33257859305E+02  0.92314915910E+00  0.94527883542E+02  0.10566000000E+00 0. -1.
          4    1    1    2  501    0 -0.17636716993E+02  0.31583648228E+02  0.44803296146E+02  0.57583990546E+02  0.00000000000E+00 0.  1.
</event>
<event>
 5    1  0.4419198E-005  0.5397969E+03  0.7818608E-02  0.9394766E-01
         21   -1    0    0  501  502  0.00000000000E+00  0.00000000000E+00  0.18856067016E+03  0.18856067016E+03  0.00000000000E+00 0. -1.
         -4   -1    0    0    0  501 -0.00000000000E+00 -0.00000000000E+00 -0.35940322925E+04  0.35940322925E+04  0.00000000000E+00 0. -1.
        -13    1    1    2    0    0  0.45051279208E+03 -0.16840356377E+03 -0.14676004701E+04  0.15444004296E+04  0.10566000000E+00 0.  1.
         13    1    1    2    0    0 -0.74832018480E+03 -0.32259278607E+02 -0.11510100492E+04  0.13732617757E+04  0.10566000000E+00 0. -1.
         -4    1    1    2    0  502  0.29780739272E+03  0.20066284238E+03 -0.78686110304E+03  0.86493075731E+03  0.00000000000E+00 0. -1.
</event>
<event>
 5    1  0.4419198E-005  0.4202004E+03  0.7818608E-02  0.9672454E-01
         21   -1    0    0  501  502  0.00000000000E+00  0.00000000000E+00  0.47947033114E+03  0.47947033114E+03  0.00000000000E+00 0. -1.
         -4   -1    0    0    0  501 -0.00000000000E+00 -0.00000000000E+00 -0.28924775604E+04  0.28924775604E+04  0.00000000000E+00 0. -1.
        -13    1    1    2    0    0  0.34151836856E+03  0.23702737740E+03 -0.22611003360E+04  0.22989979370E+04  0.10566000000E+00 0.  1.
         13    1    1    2    0    0 -0.23050619051E+03 -0.55478121647E+03  0.15174852281E+03  0.61963128338E+03  0.10566000000E+00 0. -1.
         -4    1    1    2    0  502 -0.11101217805E+03  0.31775383907E+03 -0.30365541612E+03  0.45331867120E+03  0.00000000000E+00 0. -1.
</event>
<event>
 5    1  0.4419198E-005  0.4135579E+03  0.7818608E-02  0.9816911E-01
         21   -1    0    0  501  502  0.00000000000E+00  0.00000000000E+00  0.11949666494E+04  0.11949666494E+04  0.00000000000E+00 0. -1.
         -4   -1    0    0    0  501 -0.00000000000E+00 -0.00000000000E+00 -0.27840382134E+03  0.27840382134E+03  0.00000000000E+00 0. -1.
        -13    1    1    2    0    0 -0.68251908092E+02 -0.25885344505E+03  0.32732239061E+03  0.42285149584E+03  0.10566000000E+00 0.  1.
         13    1    1    2    0    0  0.17216517765E+03  0.51506784481E+03  0.54703286583E+03  0.77083117517E+03  0.10566000000E+00 0. -1.
         -4    1    1    2    0  502 -0.10391326956E+03 -0.25621439976E+03  0.42207571643E+02  0.27968779977E+03  0.00000000000E+00 0. -1.
</event>
<event>
 5    1  0.4419198E-005  0.4551665E+03  0.7818608E-02  0.9666920E-01
         21   -1    0    0  501  502  0.00000000000E+00  0.00000000000E+00  0.46039844665E+03  0.46039844665E+03  0.00000000000E+00 0. -1.
         -4   -1    0    0    0  501 -0.00000000000E+00 -0.00000000000E+00 -0.14978452793E+04  0.14978452793E+04  0.00000000000E+00 0. -1.
        -13    1    1    2    0    0 -0.19512945665E+03 -0.49160613732E+03 -0.41686332259E+03  0.67344423673E+03  0.10566000000E+00 0.  1.
         13    1    1    2    0    0  0.26878366544E+03 -0.22143156765E+03 -0.18629431691E+02  0.34874584564E+03  0.10566000000E+00 0. -1.
         -4    1    1    2    0  502 -0.73654208798E+02  0.71303770497E+03 -0.60195407837E+03  0.93605364357E+03  0.00000000000E+00 0. -1.
</event>
<event>
 5    1  0.7481114E-005  0.3941424E+03  0.7818608E-02  0.1040966E+00
          4   -1    0    0  502    0 -0.00000000000E+00  0.00000000000E+00  0.51629510577E+03  0.51629510577E+03  0.00000000000E+00 0.  1.
         21   -1    0    0  501  502  0.00000000000E+00 -0.00000000000E+00 -0.74547649436E+03  0.74547649436E+03  0.00000000000E+00 0.  1.
        -13    1    1    2    0    0 -0.28021833757E+03 -0.22562063213E+03  0.16948727662E+03  0.39768446594E+03  0.10566000000E+00 0.  1.
         13    1    1    2    0    0 -0.20199948685E+02 -0.41531757117E+02  0.16522444355E+03  0.17155772406E+03  0.10566000000E+00 0. -1.
          4    1    1    2  501    0  0.30041828625E+03  0.26715238925E+03 -0.56389310875E+03  0.69252941012E+03  0.00000000000E+00 0.  1.
</event>
<event>
 5    1  0.4419198E-005  0.5381777E+03  0.7818608E-02  0.9438218E-01
         -4   -1    0    0    0  501 -0.00000000000E+00  0.00000000000E+00  0.21049945926E+04  0.21049945926E+04  0.00000000000E+00 0. -1.
         21   -1    0    0  501  502  0.00000000000E+00 -0.00000000000E+00 -0.43369299488E+03  0.43369299488E+03  0.00000000000E+00 0.  1.
        -13    1    1    2    0    0  0.55578796509E+03 -0.16475272805E+03  0.10892654485E+04  0.12339136728E+04  0.10566000000E+00 0.  1.
         13    1    1    2    0    0 -0.36682550621E+03 -0.41234157156E+03  0.19826969188E+03  0.58642766436E+03  0.10566000000E+00 0. -1.
         -4    1    1    2    0  502 -0.18896245888E+03  0.57709429961E+03  0.38376645732E+03  0.71834625027E+03  0.00000000000E+00 0. -1.
</event>
<event>
 5    1  0.4419198E-005  0.4800603E+03  0.7818608E-02  0.1021742E+00
          4   -1    0    0  502    0 -0.00000000000E+00  0.00000000000E+00  0.87179262503E+03  0.87179262503E+03  0.00000000000E+00 0.  1.
         21   -1    0    0  501  502  0.00000000000E+00 -0.00000000000E+00 -0.29987321030E+03  0.29987321030E+03  0.00000000000E+00 0.  1.
        -13    1    1    2    0    0  0.16945963173E+03 -0.47561923520E+03  0.33030362489E+03  0.60334958312E+03  0.10566000000E+00 0.  1.
         13    1    1    2    0    0 -0.67814112535E+01  0.45725064431E+02 -0.53362041960E+01  0.46532303780E+02  0.10566000000E+00 0. -1.
          4    1    1    2  501    0 -0.16267822047E+03  0.42989417077E+03  0.24695199403E+03  0.52178394842E+03  0.00000000000E+00 0.  1.
</event>
<event>
 5    1  0.4419198E-005  0.9127101E+03  0.7818608E-02  0.8861236E-01
         21   -1    0    0  501  502  0.00000000000E+00  0.00000000000E+00  0.28794547943E+03  0.28794547943E+03  0.00000000000E+00 0.  1.
          4   -1    0    0  502    0 -0.00000000000E+00 -0.00000000000E+00 -0.38740697181E+04  0.38740697181E+04  0.00000000000E+00 0.  1.
        -13    1    1    2    0    0 -0.97574436767E+03 -0.35134619041E+03 -0.18029633412E+04  0.20799514507E+04  0.10566000000E+00 0.  1.
         13    1    1    2    0    0  0.75367255537E+03  0.33034885004E+03 -0.15747410090E+04  0.17767841569E+04  0.10566000000E+00 0. -1.
          4    1    1    2  501    0  0.22207181230E+03  0.20997340379E+02 -0.20841988844E+03  0.30527958991E+03  0.00000000000E+00 0.  1.
</event>
<event>
 5    1  0.4419198E-005  0.4608884E+03  0.7818608E-02  0.9731553E-01
          4   -1    0    0  502    0 -0.00000000000E+00  0.00000000000E+00  0.30821956745E+04  0.30821956745E+04  0.00000000000E+00 0.  1.
         21   -1    0    0  501  502  0.00000000000E+00 -0.00000000000E+00 -0.16348679293E+03  0.16348679293E+03  0.00000000000E+00 0.  1.
        -13    1    1    2    0    0 -0.28439050533E+03  0.41345415511E+03  0.11909170784E+04  0.12923257317E+04  0.10566000000E+00 0.  1.
         13    1    1    2    0    0  0.25437007898E+03  0.49955064163E+02  0.12878157107E+04  0.13136471982E+04  0.10566000000E+00 0. -1.
          4    1    1    2  501    0  0.30020426351E+02 -0.46340921927E+03  0.43997609248E+03  0.63970953757E+03  0.00000000000E+00 0.  1.
</event>
<event>
 5    1  0.4419198E-005  0.4179168E+02  0.7818608E-02  0.1329365E+00
          4   -1    0    0  502    0 -0.00000000000E+00  0.00000000000E+00  0.18261847374E+03  0.18261847374E+03  0.00000000000E+00 0.  1.
         21   -1    0    0  501  502  0.00000000000E+00 -0.00000000000E+00 -0.25231508376E+02  0.25231508376E+02  0.00000000000E+00 0.  1.
        -13    1    1    2    0    0  0.41476650170E+02 -0.48734888221E+01  0.11196860595E+03  0.11950331914E+03  0.10566000000E+00 0.  1.
         13    1    1    2    0    0 -0.42485979681E+02 -0.18473607794E+02  0.45559956285E+02  0.64977330163E+02  0.10566000000E+00 0. -1.
          4    1    1    2  501    0  0.10093295109E+01  0.23347096616E+02 -0.14159687176E+00  0.23369332813E+02  0.00000000000E+00 0.  1.
</event>
<event>
 5    1  0.4419198E-005  0.2668879E+03  0.7818608E-02  0.1021995E+00
         21   -1    0    0  501  502  0.00000000000E+00  0.00000000000E+00  0.28109783635E+03  0.28109783635E+03  0.00000000000E+00 0. -1.
          4   -1    0    0  502    0 -0.00000000000E+00 -0.00000000000E+00 -0.17588040699E+04  0.17588040699E+04  0.00000000000E+00 0.  1.
        -13    1    1    2    0    0  0.11804523715E+03 -0.24831309030E+03 -0.15161000267E+04  0.15408287935E+04  0.10566000000E+00 0.  1.
         13    1    1    2    0    0 -0.25051871381E+03  0.91098266024E+02 -0.56744099539E+02  0.27254068327E+03  0.10566000000E+00 0. -1.
          4    1    1    2  501    0  0.13247347666E+03  0.15721482427E+03  0.95137892661E+02  0.22653242949E+03  0.00000000000E+00 0.  1.
</event>
<event>
 5    1  0.4419198E-005  0.5009608E+03  0.7818608E-02  0.9475869E-01
         -4   -1    0    0    0  501 -0.00000000000E+00  0.00000000000E+00  0.23560150784E+04  0.23560150784E+04  0.00000000000E+00 0. -1.
         21   -1    0    0  501  502  0.00000000000E+00 -0.00000000000E+00 -0.38326249190E+03  0.38326249190E+03  0.00000000000E+00 0. -1.
        -13    1    1    2    0    0 -0.53912771804E+02 -0.48234132198E+03  0.13342031723E+04  0.14197386569E+04  0.10566000000E+00 0.  1.
         13    1    1    2    0    0  0.37373842818E+03  0.47017728885E+03  0.76741635155E+03  0.97451267998E+03  0.10566000000E+00 0. -1.
         -4    1    1    2    0  502 -0.31982565637E+03  0.12164033134E+02 -0.12886693737E+03  0.34502623338E+03  0.00000000000E+00 0. -1.
</event>
<event>
 5    1  0.4419198E-005  0.4510502E+03  0.7818608E-02  0.9592241E-01
         -4   -1    0    0    0  501 -0.00000000000E+00  0.00000000000E+00  0.27205471845E+04  0.27205471845E+04  0.00000000000E+00 0. -1.
         21   -1    0    0  501  502  0.00000000000E+00 -0.00000000000E+00 -0.26345626008E+03  0.26345626008E+03  0.00000000000E+00 0.  1.
        -13    1    1    2    0    0  0.25893384618E+03 -0.40823781970E+03  0.41876236883E+03  0.63958329156E+03  0.10566000000E+00 0.  1.
         13    1    1    2    0    0 -0.13978184860E+03  0.42436310735E+03  0.21405011723E+04  0.21866340096E+04  0.10566000000E+00 0. -1.
         -4    1    1    2    0  502 -0.11915199758E+03 -0.16125287650E+02 -0.10217261677E+03  0.15778614339E+03  0.00000000000E+00 0. -1.
</event>
<event>
 5    1  0.4419198E-005  0.4831302E+03  0.7818608E-02  0.9741919E-01
         21   -1    0    0  501  502  0.00000000000E+00  0.00000000000E+00  0.10307102187E+04  0.10307102187E+04  0.00000000000E+00 0. -1.
         -4   -1    0    0    0  501 -0.00000000000E+00 -0.00000000000E+00 -0.37013796375E+03  0.37013796375E+03  0.00000000000E+00 0. -1.
        -13    1    1    2    0    0 -0.15480650308E+03  0.15224644215E+03  0.17056861645E+03  0.27611174663E+03  0.10566000000E+00 0.  1.
         13    1    1    2    0    0  0.51128018258E+03 -0.23495601402E+03  0.50838527915E+03  0.75833195689E+03  0.10566000000E+00 0. -1.
         -4    1    1    2    0  502 -0.35647367950E+03  0.82709571875E+02 -0.18381640662E+02  0.36640447891E+03  0.00000000000E+00 0. -1.
</event>
<event>
 5    1  0.4419198E-005  0.5667964E+03  0.7818608E-02  0.9342475E-01
          4   -1    0    0  502    0 -0.00000000000E+00  0.00000000000E+00  0.21853711383E+04  0.21853711383E+04  0.00000000000E+00 0.  1.
         21   -1    0    0  501  502  0.00000000000E+00 -0.00000000000E+00 -0.58009300657E+03  0.58009300657E+03  0.00000000000E+00 0. -1.
        -13    1    1    2    0    0  0.48283793488E+03 -0.17938694886E+03  0.12795598101E+04  0.13793424040E+04  0.10566000000E+00 0.  1.
         13    1    1    2    0    0 -0.88418329166E+03  0.94411053512E+02  0.38981641435E+03  0.97090184280E+03  0.10566000000E+00 0. -1.
          4    1    1    2  501    0  0.40134535679E+03  0.84975895345E+02 -0.64098092759E+02  0.41521989801E+03  0.00000000000E+00 0.  1.
</event>
<event>
 5    1  0.4758408E-005  0.3494782E+03  0.7818608E-02  0.9887512E-01
         21   -1    0    0  501  502  0.00000000000E+00  0.00000000000E+00  0.49549468267E+03  0.49549468267E+03  0.00000000000E+00 0.  1.
          4   -1    0    0  502    0 -0.00000000000E+00 -0.00000000000E+00 -0.16681299800E+04  0.16681299800E+04  0.00000000000E+00 0.  1.
        -13    1    1    2    0    0 -0.32691531870E+03  0.52063814996E+02 -0.12085581858E+04  0.12530750840E+04  0.10566000000E+00 0.  1.
         13    1    1    2    0    0  0.50838850959E+03 -0.27813802377E+03 -0.10382078444E+03  0.58872608520E+03  0.10566000000E+00 0. -1.
          4    1    1    2  501    0 -0.18147319090E+03  0.22607420877E+03  0.13974367287E+03  0.32182349354E+03  0.00000000000E+00 0.  1.
</event>
<event>
 5    1  0.4419198E-005  0.5519032E+03  0.7818608E-02  0.9370932E-01
         21   -1    0    0  501  502  0.00000000000E+00  0.00000000000E+00  0.19083485832E+03  0.19083485832E+03  0.00000000000E+00 0.  1.
         -4   -1    0    0    0  501 -0.00000000000E+00 -0.00000000000E+00 -0.25905395494E+04  0.25905395494E+04  0.00000000000E+00 0. -1.
        -13    1    1    2    0    0  0.56188666323E+03 -0.18789445863E+02 -0.67073616097E+03  0.87518950770E+03  0.10566000000E+00 0.  1.
         13    1    1    2    0    0 -0.54775782909E+03  0.54609479707E+01 -0.17742637473E+04  0.18569007290E+04  0.10566000000E+00 0. -1.
         -4    1    1    2    0  502 -0.14128834138E+02  0.13328497893E+02  0.45295217194E+02  0.49284170997E+02  0.00000000000E+00 0. -1.
</event>
<event>
 5    1  0.4419198E-005  0.4836952E+03  0.7818608E-02  0.9683459E-01
          4   -1    0    0  502    0 -0.00000000000E+00  0.00000000000E+00  0.21379432149E+04  0.21379432149E+04  0.00000000000E+00 0.  1.
         21   -1    0    0  501  502  0.00000000000E+00 -0.00000000000E+00 -0.44554217470E+03  0.44554217470E+03  0.00000000000E+00 0. -1.
        -13    1    1    2    0    0 -0.48620223206E+02  0.28217086207E+03  0.20416809288E+02  0.28705605510E+03  0.10566000000E+00 0.  1.
         13    1    1    2    0    0  0.41783839598E+03  0.50230644356E+03  0.10212363660E+04  0.12123631530E+04  0.10566000000E+00 0. -1.
          4    1    1    2  501    0 -0.36921817278E+03 -0.78447730563E+03  0.65074786494E+03  0.10840661815E+04  0.00000000000E+00 0.  1.
</event>
<event>
 5    1  0.4419198E-005  0.2480172E+02  0.7818608E-02  0.1465258E+00
          4   -1    0    0  502    0 -0.00000000000E+00  0.00000000000E+00  0.18200262127E+02  0.18200262127E+02  0.00000000000E+00 0.  1.
         21   -1    0    0  501  502  0.00000000000E+00 -0.00000000000E+00 -0.90477723477E+02  0.90477723477E+02  0.00000000000E+00 0.  1.
        -13    1    1    2    0    0  0.23847522727E+02 -0.22872047727E+02 -0.17803494416E+02  0.37534124273E+02  0.10566000000E+00 0.  1.
         13    1    1    2    0    0 -0.20275051563E+02  0.11526312963E+01 -0.39823774279E+02  0.44702913067E+02  0.10566000000E+00 0. -1.
          4    1    1    2  501    0 -0.35724711642E+01  0.21719416431E+02 -0.14650192655E+02  0.26440948264E+02  0.00000000000E+00 0.  1.
</event>
<event>
 5    1  0.4419198E-005  0.1526215E+03  0.7818608E-02  0.1138498E+00
          4   -1    0    0  502    0 -0.00000000000E+00  0.00000000000E+00  0.17919080140E+03  0.17919080140E+03  0.00000000000E+00 0.  1.
         21   -1    0    0  501  502  0.00000000000E+00 -0.00000000000E+00 -0.35599456704E+03  0.35599456704E+03  0.00000000000E+00 0.  1.
        -13    1    1    2    0    0 -0.14300335548E+03 -0.12652209530E+03  0.82105822572E+02  0.20784411837E+03  0.10566000000E+00 0.  1.
         13    1    1    2    0    0  0.18277757209E+02  0.50357045092E+02 -0.80845866528E+02  0.96984399249E+02  0.10566000000E+00 0. -1.
          4    1    1    2  501    0  0.12472559827E+03  0.76165050203E+02 -0.17806372169E+03  0.23035685082E+03  0.00000000000E+00 0.  1.
</event>
<event>
 5    1  0.4419198E-005  0.8568782E+03  0.7818608E-02  0.8922114E-01
         -4   -1    0    0    0  501 -0.00000000000E+00  0.00000000000E+00  0.12560358203E+04  0.12560358203E+04  0.00000000000E+00 0. -1.
         21   -1    0    0  501  502  0.00000000000E+00 -0.00000000000E+00 -0.73342475228E+03  0.73342475228E+03  0.00000000000E+00 0.  1.
        -13    1    1    2    0    0 -0.42849105590E+03 -0.74945877218E+03  0.40267419992E+03  0.95259622015E+03  0.10566000000E+00 0.  1.
         13    1    1    2    0    0  0.56485068276E+03  0.64558616346E+03  0.85883064696E+02  0.86209842839E+03  0.10566000000E+00 0. -1.
         -4    1    1    2    0  502 -0.13635962685E+03  0.10387260872E+03  0.34053803396E+02  0.17476592404E+03  0.00000000000E+00 0. -1.
</event>
<event>
 5    1  0.4419198E-005  0.3369922E+03  0.7818608E-02  0.9931094E-01
         21   -1    0    0  501  502  0.00000000000E+00  0.00000000000E+00  0.10456634424E+03  0.10456634424E+03  0.00000000000E+00 0. -1.
          4   -1    0    0  502    0 -0.00000000000E+00 -0.00000000000E+00 -0.20399545906E+04  0.20399545906E+04  0.00000000000E+00 0.  1.
        -13    1    1    2    0    0 -0.63147801482E+02  0.37874589052E+03 -0.95689353890E+03  0.10310583642E+04  0.10566000000E+00 0.  1.
         13    1    1    2    0    0  0.62906932926E+02 -0.30099872683E+03 -0.98836074973E+03  0.10350915411E+04  0.10566000000E+00 0. -1.
          4    1    1    2  501    0  0.24086855578E+00 -0.77747163692E+02  0.98660422527E+01  0.78371029530E+02  0.00000000000E+00 0.  1.
</event>
<event>
 5    1  0.4419198E-005  0.1886122E+03  0.7818608E-02  0.1090823E+00
         21   -1    0    0  501  502  0.00000000000E+00  0.00000000000E+00  0.32355318227E+03  0.32355318227E+03  0.00000000000E+00 0.  1.
          4   -1    0    0  502    0 -0.00000000000E+00 -0.00000000000E+00 -0.96062518750E+03  0.96062518750E+03  0.00000000000E+00 0.  1.
        -13    1    1    2    0    0 -0.13199246632E+03 -0.23536471378E+03 -0.74629826261E+03  0.79358658482E+03  0.10566000000E+00 0.  1.
         13    1    1    2    0    0  0.50893707081E+01  0.99785594066E+02 -0.14479886644E+03  0.17592552221E+03  0.10566000000E+00 0. -1.
          4    1    1    2  501    0  0.12690309562E+03  0.13557911971E+03  0.25402512382E+03  0.31466626275E+03  0.00000000000E+00 0.  1.
</event>
<event>
 5    1  0.4419198E-005  0.7684924E+02  0.7818608E-02  0.1256297E+00
         21   -1    0    0  501  502  0.00000000000E+00  0.00000000000E+00  0.38419685329E+02  0.38419685329E+02  0.00000000000E+00 0. -1.
         -4   -1    0    0    0  501 -0.00000000000E+00 -0.00000000000E+00 -0.23122920635E+03  0.23122920635E+03  0.00000000000E+00 0. -1.
        -13    1    1    2    0    0  0.11347386149E+02 -0.25820304158E+02 -0.19666393005E+02  0.34383563764E+02  0.10566000000E+00 0.  1.
         13    1    1    2    0    0 -0.28837682317E+02  0.83280894541E+02 -0.58319764603E+02  0.10568124443E+03  0.10566000000E+00 0. -1.
         -4    1    1    2    0  502  0.17490296168E+02 -0.57460590382E+02 -0.11482336341E+03  0.12958408349E+03  0.00000000000E+00 0. -1.
</event>
<event>
 5    1  0.4419198E-005  0.1932710E+03  0.7818608E-02  0.1072369E+00
          4   -1    0    0  502    0 -0.00000000000E+00  0.00000000000E+00  0.24854008791E+03  0.24854008791E+03  0.00000000000E+00 0.  1.
         21   -1    0    0  501  502  0.00000000000E+00 -0.00000000000E+00 -0.14053030961E+04  0.14053030961E+04  0.00000000000E+00 0.  1.
        -13    1    1    2    0    0 -0.27725181056E+03 -0.20194035296E+03  0.50165596965E+02  0.34664833895E+03  0.10566000000E+00 0.  1.
         13    1    1    2    0    0  0.12800538324E+03  0.88727101913E+02 -0.10126712919E+03  0.18577653074E+03  0.10566000000E+00 0. -1.
          4    1    1    2  501    0  0.14924642732E+03  0.11321325104E+03 -0.11056614760E+04  0.11214183144E+04  0.00000000000E+00 0.  1.
</event>
<event>
 5    1  0.4419198E-005  0.4737185E+03  0.7818608E-02  0.9872464E-01
         21   -1    0    0  501  502  0.00000000000E+00  0.00000000000E+00  0.29557744505E+03  0.29557744505E+03  0.00000000000E+00 0. -1.
         -4   -1    0    0    0  501 -0.00000000000E+00 -0.00000000000E+00 -0.13052869956E+04  0.13052869956E+04  0.00000000000E+00 0. -1.
        -13    1    1    2    0    0  0.31195290081E+02 -0.14426031926E+03 -0.37709667644E+03  0.40495197293E+03  0.10566000000E+00 0.  1.
         13    1    1    2    0    0  0.40659245741E+03  0.27296275642E+03 -0.10962857023E+03  0.50184113760E+03  0.10566000000E+00 0. -1.
         -4    1    1    2    0  502 -0.43778774749E+03 -0.12870243716E+03 -0.52298430392E+03  0.69407133015E+03  0.00000000000E+00 0. -1.
</event>
<event>
 5    1  0.4419198E-005  0.3067167E+03  0.7818608E-02  0.1004571E+00
          4   -1    0    0  502    0 -0.00000000000E+00  0.00000000000E+00  0.17296161947E+04  0.17296161947E+04  0.00000000000E+00 0.  1.
         21   -1    0    0  501  502  0.00000000000E+00 -0.00000000000E+00 -0.13890244263E+03  0.13890244263E+03  0.00000000000E+00 0.  1.
        -13    1    1    2    0    0 -0.24591533381E+03  0.29724707877E+03  0.47231646727E+03  0.60984672964E+03  0.10566000000E+00 0.  1.
         13    1    1    2    0    0  0.12112386687E+02 -0.29761997494E+03  0.86037359028E+03  0.91047629591E+03  0.10566000000E+00 0. -1.
          4    1    1    2  501    0  0.23380294712E+03  0.37289617644E+00  0.25802369456E+03  0.34819561182E+03  0.00000000000E+00 0.  1.
</event>
<event>
 5    1  0.4419198E-005  0.4928505E+03  0.7818608E-02  0.9500736E-01
         -4   -1    0    0    0  501 -0.00000000000E+00  0.00000000000E+00  0.26763756814E+04  0.26763756814E+04  0.00000000000E+00 0. -1.
         21   -1    0    0  501  502  0.00000000000E+00 -0.00000000000E+00 -0.24772668167E+03  0.24772668167E+03  0.00000000000E+00 0.  1.
        -13    1    1    2    0    0  0.35828504367E+03 -0.34749535185E+03  0.10068791665E+04  0.11238001865E+04  0.10566000000E+00 0.  1.
         13    1    1    2    0    0  0.22572161883E+03  0.42361541132E+03  0.86809333674E+03  0.99196084518E+03  0.10566000000E+00 0. -1.
         -4    1    1    2    0  502 -0.58400666250E+03 -0.76120059470E+02  0.55367649650E+03  0.80834133141E+03  0.00000000000E+00 0. -1.
</event>
<event>
 5    1  0.4419198E-005  0.2909543E+03  0.7818608E-02  0.1011111E+00
         21   -1    0    0  501  502  0.00000000000E+00  0.00000000000E+00  0.12825245598E+04  0.12825245598E+04  0.00000000000E+00 0. -1.
         -4   -1    0    0    0  501 -0.00000000000E+00 -0.00000000000E+00 -0.34647470361E+03  0.34647470361E+03  0.00000000000E+00 0. -1.
        -13    1    1    2    0    0  0.20530531886E+03 -0.18063278212E+03  0.22875045593E+03  0.35651824382E+03  0.10566000000E+00 0.  1.
         13    1    1    2    0    0 -0.45359706899E+01  0.32057450515E+03 -0.16915951850E+03  0.36249626515E+03  0.10566000000E+00 0. -1.
         -4    1    1    2    0  502 -0.20076934817E+03 -0.13994172304E+03  0.87645891872E+03  0.90998475439E+03  0.00000000000E+00 0. -1.
</event>
<event>
 5    1  0.4419198E-005  0.3999786E+03  0.7818608E-02  0.9852252E-01
         -4   -1    0    0    0  501 -0.00000000000E+00  0.00000000000E+00  0.21433977273E+04  0.21433977273E+04  0.00000000000E+00 0. -1.
         21   -1    0    0  501  502  0.00000000000E+00 -0.00000000000E+00 -0.21376910036E+03  0.21376910036E+03  0.00000000000E+00 0. -1.
        -13    1    1    2    0    0  0.26177977950E+03  0.19306948727E+02  0.87691522300E+03  0.91535879890E+03  0.10566000000E+00 0.  1.
         13    1    1    2    0    0  0.95185125924E+02 -0.28320536347E+03  0.93638913568E+03  0.98289883034E+03  0.10566000000E+00 0. -1.
         -4    1    1    2    0  502 -0.35696490542E+03  0.26389841474E+03  0.11632426826E+03  0.45890919842E+03  0.00000000000E+00 0. -1.
</event>
<event>
 5    1  0.1173019E-004  0.4641896E+03  0.7818608E-02  0.1014667E+00
         -4   -1    0    0    0  501 -0.00000000000E+00  0.00000000000E+00  0.13610894552E+04  0.13610894552E+04  0.00000000000E+00 0. -1.
         21   -1    0    0  501  502  0.00000000000E+00 -0.00000000000E+00 -0.21500937629E+03  0.21500937629E+03  0.00000000000E+00 0. -1.
        -13    1    1    2    0    0  0.63946920107E+02  0.77742716261E+00  0.16951200070E+03  0.18117434291E+03  0.10566000000E+00 0.  1.
         13    1    1    2    0    0  0.40448639159E+03  0.12142017241E+03  0.74931133998E+03  0.86012766182E+03  0.10566000000E+00 0. -1.
         -4    1    1    2    0  502 -0.46843331169E+03 -0.12219759958E+03  0.22725673826E+03  0.53479682678E+03  0.00000000000E+00 0. -1.
</event>
<event>
 5    1  0.4419198E-005  0.3056032E+03  0.7818608E-02  0.1027370E+00
         21   -1    0    0  501  502  0.00000000000E+00  0.00000000000E+00  0.88959982693E+03  0.88959982693E+03  0.00000000000E+00 0. -1.
         -4   -1    0    0    0  501 -0.00000000000E+00 -0.00000000000E+00 -0.53385552593E+03  0.53385552593E+03  0.00000000000E+00 0. -1.
        -13    1    1    2    0    0  0.15003357299E+03  0.88685193297E+01 -0.35400117723E+01  0.15033717606E+03  0.10566000000E+00 0.  1.
         13    1    1    2    0    0  0.80985435639E+02 -0.21956445173E+03 -0.39358462031E+03  0.45790397876E+03  0.10566000000E+00 0. -1.
         -4    1    1    2    0  502 -0.23101900863E+03  0.21069593240E+03  0.75286893309E+03  0.81521419804E+03  0.00000000000E+00 0. -1.
</event>
<event>
 5    1  0.4419198E-005  0.4437296E+03  0.7818608E-02  0.9908647E-01
          4   -1    0    0  502    0 -0.00000000000E+00  0.00000000000E+00  0.69591402719E+03  0.69591402719E+03  0.00000000000E+00 0.  1.
         21   -1    0    0  501  502  0.00000000000E+00 -0.00000000000E+00 -0.41153247759E+03  0.41153247759E+03  0.00000000000E+00 0.  1.
        -13    1    1    2    0    0 -0.31634684015E+03  0.31108464617E+03  0.59438560070E+02  0.44764040696E+03  0.10566000000E+00 0.  1.
         13    1    1    2    0    0 -0.10263269847E+03 -0.12153922751E+03  0.39084413196E+02  0.16380737815E+03  0.10566000000E+00 0. -1.
          4    1    1    2  501    0  0.41897953862E+03 -0.18954541867E+03  0.18585857633E+03  0.49599871967E+03  0.00000000000E+00 0.  1.
</event>
<event>
 5    1  0.4419198E-005  0.8633076E+02  0.7818608E-02  0.1189396E+00
         21   -1    0    0  501  502  0.00000000000E+00  0.00000000000E+00  0.66065490876E+02  0.66065490876E+02  0.00000000000E+00 0.  1.
          4   -1    0    0  502    0 -0.00000000000E+00 -0.00000000000E+00 -0.26561583882E+03  0.26561583882E+03  0.00000000000E+00 0.  1.
        -13    1    1    2    0    0  0.89077838981E+02 -0.84995020735E+01 -0.19613203836E+03  0.21558035756E+03  0.10566000000E+00 0.  1.
         13    1    1    2    0    0 -0.75939215694E+02 -0.24735652838E+02 -0.70612459360E+01  0.80177860783E+02  0.10566000000E+00 0. -1.
          4    1    1    2  501    0 -0.13138623287E+02  0.33235154912E+02  0.36429363481E+01  0.35923111351E+02  0.00000000000E+00 0.  1.
</event>
<event>
 5    1  0.4419198E-005  0.3244061E+03  0.7818608E-02  0.1012877E+00
         21   -1    0    0  501  502  0.00000000000E+00  0.00000000000E+00  0.30105256253E+03  0.30105256253E+03  0.00000000000E+00 0. -1.
         -4   -1    0    0    0  501 -0.00000000000E+00 -0.00000000000E+00 -0.12583982630E+04  0.12583982630E+04  0.00000000000E+00 0. -1.
        -13    1    1    2    0    0  0.10004490114E+03 -0.17129160573E+03 -0.11382436419E+03  0.22870459874E+03  0.10566000000E+00 0.  1.
         13    1    1    2    0    0 -0.90653303964E+02  0.47567885638E+03 -0.89907574443E+03  0.10211883280E+04  0.10566000000E+00 0. -1.
         -4    1    1    2    0  502 -0.93915971709E+01 -0.30438725064E+03  0.55554408111E+02  0.30955789880E+03  0.00000000000E+00 0. -1.
</event>
<event>
 5    1  0.4419198E-005  0.6388176E+03  0.7818608E-02  0.9216795E-01
         21   -1    0    0  501  502  0.00000000000E+00  0.00000000000E+00  0.27681576586E+03  0.27681576586E+03  0.00000000000E+00 0.  1.
         -4   -1    0    0    0  501 -0.00000000000E+00 -0.00000000000E+00 -0.28747745016E+04  0.28747745016E+04  0.00000000000E+00 0. -1.
        -13    1    1    2    0    0  0.19224259963E+03  0.62112569007E+03 -0.43030817089E+03  0.77969190907E+03  0.10566000000E+00 0.  1.
         13    1    1    2    0    0 -0.19628049603E+03 -0.60487768380E+03 -0.22239908675E+04  0.23131230913E+04  0.10566000000E+00 0. -1.
         -4    1    1    2    0  502  0.40378963995E+01 -0.16248006277E+02  0.56340302674E+02  0.58775267083E+02  0.00000000000E+00 0. -1.
</event>
<event>
 5    1  0.4419198E-005  0.4305052E+03  0.7818608E-02  0.9829304E-01
         21   -1    0    0  501  502  0.00000000000E+00  0.00000000000E+00  0.21089566699E+03  0.21089566699E+03  0.00000000000E+00 0. -1.
         -4   -1    0    0    0  501 -0.00000000000E+00 -0.00000000000E+00 -0.19730561644E+04  0.19730561644E+04  0.00000000000E+00 0. -1.
        -13    1    1    2    0    0 -0.18053937160E+03 -0.13847214195E+03 -0.57119387969E+03  0.61484262877E+03  0.10566000000E+00 0.  1.
         13    1    1    2    0    0 -0.20889895845E+03  0.36215711984E+03 -0.99469351855E+03  0.10789864509E+04  0.10566000000E+00 0. -1.
         -4    1    1    2    0  502  0.38943833005E+03 -0.22368497789E+03 -0.19627309913E+03  0.49012275166E+03  0.00000000000E+00 0. -1.
</event>
<event>
 5    1  0.4419198E-005  0.8755944E+03  0.7818608E-02  0.8901181E-01
         21   -1    0    0  501  502  0.00000000000E+00  0.00000000000E+00  0.42640491275E+03  0.42640491275E+03  0.00000000000E+00 0. -1.
          4   -1    0    0  502    0 -0.00000000000E+00 -0.00000000000E+00 -0.28178252255E+04  0.28178252255E+04  0.00000000000E+00 0.  1.
        -13    1    1    2    0    0 -0.51592756282E+03  0.78762785169E+03 -0.13561155908E+04  0.16509356104E+04  0.10566000000E+00 0.  1.
         13    1    1    2    0    0  0.17036422003E+03 -0.78976000183E+03 -0.48152289106E+03  0.94053662009E+03  0.10566000000E+00 0. -1.
          4    1    1    2  501    0  0.34556334279E+03  0.21321501391E+01 -0.55378183091E+03  0.65275790780E+03  0.00000000000E+00 0.  1.
</event>
<event>
 5    1  0.4419198E-005  0.3071981E+03  0.7818608E-02  0.1011426E+00
         -4   -1    0    0    0  501 -0.00000000000E+00  0.00000000000E+00  0.27058786581E+03  0.27058786581E+03  0.00000000000E+00 0. -1.
         21   -1    0    0  501  502  0.00000000000E+00 -0.00000000000E+00 -0.14998337041E+04  0.14998337041E+04  0.00000000000E+00 0.  1.
        -13    1    1    2    0    0  0.22660398211E+03 -0.92389981569E+02 -0.20968261637E+03  0.32226089458E+03  0.10566000000E+00 0.  1.
         13    1    1    2    0    0 -0.37941365270E+03  0.33385603822E+03 -0.14157558069E+03  0.52484114770E+03  0.10566000000E+00 0. -1.
         -4    1    1    2    0  502  0.15280967060E+03 -0.24146605665E+03 -0.87798764128E+03  0.92331952767E+03  0.00000000000E+00 0. -1.
</event>
<event>
 5    1  0.4419198E-005  0.3080282E+03  0.7818608E-02  0.1004046E+00
         -4   -1    0    0    0  501 -0.00000000000E+00  0.00000000000E+00  0.95071623773E+03  0.95071623773E+03  0.00000000000E+00 0. -1.
         21   -1    0    0  501  502  0.00000000000E+00 -0.00000000000E+00 -0.51580536561E+03  0.51580536561E+03  0.00000000000E+00 0.  1.
        -13    1    1    2    0    0 -0.34465453678E+03  0.10620305848E+02 -0.21700186855E+02  0.34550028928E+03  0.10566000000E+00 0.  1.
         13    1    1    2    0    0  0.22385991110E+03 -0.22271633441E+03  0.70517734372E+03  0.77265187677E+03  0.10566000000E+00 0. -1.
         -4    1    1    2    0  502  0.12079462569E+03  0.21209602856E+03 -0.24856628475E+03  0.34836943730E+03  0.00000000000E+00 0. -1.
</event>
<event>
 5    1  0.4419198E-005  0.5071321E+03  0.7818608E-02  0.9462476E-01
          4   -1    0    0  502    0 -0.00000000000E+00  0.00000000000E+00  0.34909442101E+04  0.34909442101E+04  0.00000000000E+00 0.  1.
         21   -1    0    0  501  502  0.00000000000E+00 -0.00000000000E+00 -0.14999296119E+03  0.14999296119E+03  0.00000000000E+00 0.  1.
        -13    1    1    2    0    0  0.15466924673E+03  0.68058764753E+03  0.17241173319E+04  0.18600276093E+04  0.10566000000E+00 0.  1.
         13    1    1    2    0    0 -0.60276494851E+02 -0.34597560120E+03  0.49852251207E+03  0.60980085164E+03  0.10566000000E+00 0. -1.
          4    1    1    2  501    0 -0.94392751883E+02 -0.33461204633E+03  0.11183114049E+04  0.11711087104E+04  0.00000000000E+00 0.  1.
</event>
<event>
 5    1  0.4419198E-005  0.2578453E+03  0.7818608E-02  0.1026406E+00
         21   -1    0    0  501  502  0.00000000000E+00  0.00000000000E+00  0.61482701020E+02  0.61482701020E+02  0.00000000000E+00 0.  1.
         -4   -1    0    0    0  501 -0.00000000000E+00 -0.00000000000E+00 -0.20446520342E+04  0.20446520342E+04  0.00000000000E+00 0. -1.
        -13    1    1    2    0    0 -0.62278245335E+02 -0.24217813431E+03 -0.60857538464E+03  0.65794592371E+03  0.10566000000E+00 0.  1.
         13    1    1    2    0    0  0.71646188010E+02  0.25170651872E+03 -0.13974334500E+04  0.14217276836E+04  0.10566000000E+00 0. -1.
         -4    1    1    2    0  502 -0.93679426746E+01 -0.95283844168E+01  0.22839501525E+02  0.26461127894E+02  0.00000000000E+00 0. -1.
</event>
<event>
 5    1  0.4419198E-005  0.6959190E+03  0.7818608E-02  0.9128919E-01
         21   -1    0    0  501  502  0.00000000000E+00  0.00000000000E+00  0.42373662898E+03  0.42373662898E+03  0.00000000000E+00 0.  1.
         -4   -1    0    0    0  501 -0.00000000000E+00 -0.00000000000E+00 -0.28088075528E+04  0.28088075528E+04  0.00000000000E+00 0. -1.
        -13    1    1    2    0    0 -0.61725804926E+03 -0.29433336006E+03 -0.17305775366E+04  0.18607896839E+04  0.10566000000E+00 0.  1.
         13    1    1    2    0    0  0.51438808585E+03  0.62713859522E+03 -0.27459847170E+03  0.85633069097E+03  0.10566000000E+00 0. -1.
         -4    1    1    2    0  502  0.10286996341E+03 -0.33280523516E+03 -0.37989491547E+03  0.51542380690E+03  0.00000000000E+00 0. -1.
</event>
<event>
 5    1  0.4419198E-005  0.3673784E+03  0.7818608E-02  0.9903340E-01
         -4   -1    0    0    0  501 -0.00000000000E+00  0.00000000000E+00  0.60868090156E+03  0.60868090156E+03  0.00000000000E+00 0. -1.
         21   -1    0    0  501  502  0.00000000000E+00 -0.00000000000E+00 -0.21140246703E+04  0.21140246703E+04  0.00000000000E+00 0. -1.
        -13    1    1    2    0    0  0.40780273430E+03  0.86516723971E+02  0.36954636811E+03  0.55709311877E+03  0.10566000000E+00 0.  1.
         13    1    1    2    0    0  0.41560434524E+02  0.30070351818E+03 -0.13161900020E+04  0.13507427616E+04  0.10566000000E+00 0. -1.
         -4    1    1    2    0  502 -0.44936316883E+03 -0.38722024215E+03 -0.55870013493E+03  0.81486969155E+03  0.00000000000E+00 0. -1.
</event>
<event>
 5    1  0.4419198E-005  0.4886827E+03  0.7818608E-02  0.9644576E-01
          4   -1    0    0  502    0 -0.00000000000E+00  0.00000000000E+00  0.15325146276E+04  0.15325146276E+04  0.00000000000E+00 0.  1.
         21   -1    0    0  501  502  0.00000000000E+00 -0.00000000000E+00 -0.36173287103E+03  0.36173287103E+03  0.00000000000E+00 0.  1.
        -13    1    1    2    0    0  0.24115039450E+03  0.44527969899E+03  0.17870945956E+03  0.53699590799E+03  0.10566000000E+00 0.  1.
         13    1    1    2    0    0 -0.28679625108E+03  0.67495277661E+02  0.71343612245E+03  0.77188005164E+03  0.10566000000E+00 0. -1.
          4    1    1    2  501    0  0.45645856583E+02 -0.51277497665E+03  0.27863617458E+03  0.58537153901E+03  0.00000000000E+00 0.  1.
</event>
<event>
 5    1  0.4419198E-005  0.4461213E+03  0.7818608E-02  0.9814817E-01
         -4   -1    0    0    0  501 -0.00000000000E+00  0.00000000000E+00  0.23971935649E+04  0.23971935649E+04  0.00000000000E+00 0. -1.
         21   -1    0    0  501  502  0.00000000000E+00 -0.00000000000E+00 -0.18848550611E+03  0.18848550611E+03  0.00000000000E+00 0. -1.
        -13    1    1    2    0    0 -0.14509594126E+03 -0.15835921914E+03  0.95221625116E+03  0.97613845053E+03  0.10566000000E+00 0.  1.
         13    1    1    2    0    0  0.54875476630E+03  0.12923781928E+03  0.93864917037E+03  0.10949413152E+04  0.10566000000E+00 0. -1.
         -4    1    1    2    0  502 -0.40365882504E+03  0.29121399857E+02  0.31784263724E+03  0.51459930529E+03  0.00000000000E+00 0. -1.
</event>
<event>
 5    1  0.4419198E-005  0.4866738E+03  0.7818608E-02  0.9619948E-01
         -4   -1    0    0    0  501 -0.00000000000E+00  0.00000000000E+00  0.19886899574E+04  0.19886899574E+04  0.00000000000E+00 0. -1.
         21   -1    0    0  501  502  0.00000000000E+00 -0.00000000000E+00 -0.28562308169E+03  0.28562308169E+03  0.00000000000E+00 0. -1.
        -13    1    1    2    0    0  0.19231959156E+03  0.26250070777E+03  0.88947307573E+03  0.94713030281E+03  0.10566000000E+00 0.  1.
         13    1    1    2    0    0  0.35622633586E+02 -0.62170551414E+03  0.50155884446E+03  0.79959239864E+03  0.10566000000E+00 0. -1.
         -4    1    1    2    0  502 -0.22794222514E+03  0.35920480637E+03  0.31203495555E+03  0.52759033768E+03  0.00000000000E+00 0. -1.
</event>
<event>
 5    1  0.4419198E-005  0.4489137E+03  0.7818608E-02  0.9876120E-01
         21   -1    0    0  501  502  0.00000000000E+00  0.00000000000E+00  0.19969769533E+03  0.19969769533E+03  0.00000000000E+00 0.  1.
          4   -1    0    0  502    0 -0.00000000000E+00 -0.00000000000E+00 -0.16637456520E+04  0.16637456520E+04  0.00000000000E+00 0.  1.
        -13    1    1    2    0    0 -0.46184088353E+03 -0.14988405383E+03 -0.31445940203E+03  0.57848678289E+03  0.10566000000E+00 0.  1.
         13    1    1    2    0    0  0.78227905560E+02  0.15241484506E+03 -0.21648205137E+03  0.27606952011E+03  0.10566000000E+00 0. -1.
          4    1    1    2  501    0  0.38361297797E+03 -0.25307912337E+01 -0.93310650327E+03  0.10088870443E+04  0.00000000000E+00 0.  1.
</event>
<event>
 5    1  0.4419198E-005  0.1042495E+03  0.7818608E-02  0.1180631E+00
          4   -1    0    0  502    0 -0.00000000000E+00  0.00000000000E+00  0.26720950104E+03  0.26720950104E+03  0.00000000000E+00 0.  1.
         21   -1    0    0  501  502  0.00000000000E+00 -0.00000000000E+00 -0.91144018322E+02  0.91144018322E+02  0.00000000000E+00 0.  1.
        -13    1    1    2    0    0 -0.56976483788E+02  0.13781818993E+03  0.10607783944E+03  0.18301008815E+03  0.10566000000E+00 0.  1.
         13    1    1    2    0    0  0.21237574357E+02 -0.56283225007E+02  0.61316305114E+02  0.85898407544E+02  0.10566000000E+00 0. -1.
          4    1    1    2  501    0  0.35738909430E+02 -0.81534964928E+02  0.86713381665E+01  0.89445023666E+02  0.00000000000E+00 0.  1.
</event>
<event>
 5    1  0.4419198E-005  0.6309341E+03  0.7818608E-02  0.9229682E-01
         21   -1    0    0  501  502  0.00000000000E+00  0.00000000000E+00  0.42999320645E+03  0.42999320645E+03  0.00000000000E+00 0. -1.
          4   -1    0    0  502    0 -0.00000000000E+00 -0.00000000000E+00 -0.18264114946E+04  0.18264114946E+04  0.00000000000E+00 0.  1.
        -13    1    1    2    0    0  0.96711064884E+02  0.67711097783E+03 -0.12755531811E+04  0.14473659646E+04  0.10566000000E+00 0.  1.
         13    1    1    2    0    0  0.12106808228E+03 -0.51060237057E+03 -0.99110516844E+02  0.53403667205E+03  0.10566000000E+00 0. -1.
          4    1    1    2  501    0 -0.21777914716E+03 -0.16650860726E+03 -0.21754590153E+02  0.27500206440E+03  0.00000000000E+00 0.  1.
</event>
<event>
 5    1  0.4419198E-005  0.3148080E+03  0.7818608E-02  0.1001373E+00
         21   -1    0    0  501  502  0.00000000000E+00  0.00000000000E+00  0.28214144807E+03  0.28214144807E+03  0.00000000000E+00 0. -1.
         -4   -1    0    0    0  501 -0.00000000000E+00 -0.00000000000E+00 -0.16444038580E+04  0.16444038580E+04  0.00000000000E+00 0. -1.
        -13    1    1    2    0    0 -0.11941191891E+03  0.27209975239E+03 -0.42018146311E+03  0.51463574957E+03  0.10566000000E+00 0.  1.
         13    1    1    2    0    0  0.76333391849E+02 -0.31564586769E+03 -0.11500952252E+04  0.11950640730E+04  0.10566000000E+00 0. -1.
         -4    1    1    2    0  502  0.43078527057E+02  0.43546115306E+02  0.20801427841E+03  0.21684548341E+03  0.00000000000E+00 0. -1.
</event>
<event>
 5    1  0.4419198E-005  0.1800962E+03  0.7818608E-02  0.1074710E+00
         21   -1    0    0  501  502  0.00000000000E+00  0.00000000000E+00  0.17350067904E+03  0.17350067904E+03  0.00000000000E+00 0.  1.
          4   -1    0    0  502    0 -0.00000000000E+00 -0.00000000000E+00 -0.11632666868E+04  0.11632666868E+04  0.00000000000E+00 0.  1.
        -13    1    1    2    0    0 -0.16838663723E+03  0.12022247146E+03 -0.10274909817E+04  0.10481150848E+04  0.10566000000E+00 0.  1.
         13    1    1    2    0    0  0.10277737432E+03 -0.37236291013E+02 -0.76148129249E+02  0.13322266621E+03  0.10566000000E+00 0. -1.
          4    1    1    2  501    0  0.65609262918E+02 -0.82986180448E+02  0.11387310323E+03  0.15542961483E+03  0.00000000000E+00 0.  1.
</event>
<event>
 5    1  0.4419198E-005  0.2663044E+03  0.7818608E-02  0.1025523E+00
          4   -1    0    0  502    0 -0.00000000000E+00  0.00000000000E+00  0.64171247050E+03  0.64171247050E+03  0.00000000000E+00 0.  1.
         21   -1    0    0  501  502  0.00000000000E+00 -0.00000000000E+00 -0.10707114460E+04  0.10707114460E+04  0.00000000000E+00 0.  1.
        -13    1    1    2    0    0 -0.19880508339E+03 -0.15233330291E+03 -0.79009795030E+03  0.82884478559E+03  0.10566000000E+00 0.  1.
         13    1    1    2    0    0 -0.17960283849E+03 -0.16005022704E+03  0.30683467152E+03  0.38989842469E+03  0.10566000000E+00 0. -1.
          4    1    1    2  501    0  0.37840792188E+03  0.31238352995E+03  0.54264303257E+02  0.49368070626E+03  0.00000000000E+00 0.  1.
</event>
<event>
 5    1  0.4419198E-005  0.1038562E+03  0.7818608E-02  0.1161929E+00
         21   -1    0    0  501  502  0.00000000000E+00  0.00000000000E+00  0.51183542027E+03  0.51183542027E+03  0.00000000000E+00 0. -1.
         -4   -1    0    0    0  501 -0.00000000000E+00 -0.00000000000E+00 -0.18777810103E+03  0.18777810103E+03  0.00000000000E+00 0. -1.
        -13    1    1    2    0    0 -0.66314601501E+02 -0.18419244480E+03  0.20415501017E+03  0.28284936351E+03  0.10566000000E+00 0.  1.
         13    1    1    2    0    0  0.71826279063E+01  0.93207783613E+02 -0.12079128400E+03  0.15274104400E+03  0.10566000000E+00 0. -1.
         -4    1    1    2    0  502  0.59131973595E+02  0.90984661191E+02  0.24069359306E+03  0.26402311379E+03  0.00000000000E+00 0. -1.
</event>
<event>
 5    1  0.4419198E-005  0.2480938E+03  0.7818608E-02  0.1035140E+00
         21   -1    0    0  501  502  0.00000000000E+00  0.00000000000E+00  0.10174842481E+04  0.10174842481E+04  0.00000000000E+00 0.  1.
          4   -1    0    0  502    0 -0.00000000000E+00 -0.00000000000E+00 -0.41009464074E+03  0.41009464074E+03  0.00000000000E+00 0.  1.
        -13    1    1    2    0    0  0.19578299448E+01  0.38451660952E+03 -0.15782067971E+03  0.41564917202E+03  0.10566000000E+00 0.  1.
         13    1    1    2    0    0 -0.13027490815E+03 -0.17862226259E+03  0.12888562424E+02  0.22145787544E+03  0.10566000000E+00 0. -1.
          4    1    1    2  501    0  0.12831707821E+03 -0.20589434692E+03  0.75232172468E+03  0.79047184142E+03  0.00000000000E+00 0.  1.
</event>
<event>
 5    1  0.4419198E-005  0.7068265E+02  0.7818608E-02  0.1224947E+00
         21   -1    0    0  501  502  0.00000000000E+00  0.00000000000E+00  0.31243163113E+02  0.31243163113E+02  0.00000000000E+00 0. -1.
         -4   -1    0    0    0  501 -0.00000000000E+00 -0.00000000000E+00 -0.32487011482E+03  0.32487011482E+03  0.00000000000E+00 0. -1.
        -13    1    1    2    0    0 -0.24802597084E+02  0.73507326973E+02 -0.15766886715E+03  0.17572130996E+03  0.10566000000E+00 0.  1.
         13    1    1    2    0    0 -0.22683178383E+02 -0.65268105969E+02 -0.66885347333E+02  0.96167110232E+02  0.10566000000E+00 0. -1.
         -4    1    1    2    0  502  0.47485775467E+02 -0.82392210037E+01 -0.69072737222E+02  0.84224857743E+02  0.00000000000E+00 0. -1.
</event>
<event>
 5    1  0.4419198E-005  0.1126758E+03  0.7818608E-02  0.1145133E+00
         21   -1    0    0  501  502  0.00000000000E+00  0.00000000000E+00  0.26073117804E+03  0.26073117804E+03  0.00000000000E+00 0. -1.
          4   -1    0    0  502    0 -0.00000000000E+00 -0.00000000000E+00 -0.15206166339E+03  0.15206166339E+03  0.00000000000E+00 0.  1.
        -13    1    1    2    0    0 -0.10383998316E+03  0.34020942752E+02 -0.96699890732E+02  0.14591451840E+03  0.10566000000E+00 0.  1.
         13    1    1    2    0    0  0.13240900045E+03 -0.31590245784E+02  0.13886864774E+03  0.19445976324E+03  0.10566000000E+00 0. -1.
          4    1    1    2  501    0 -0.28569017291E+02 -0.24306969690E+01  0.66500757640E+02  0.72418559800E+02  0.00000000000E+00 0.  1.
</event>
<event>
 5    1  0.4419198E-005  0.6244485E+02  0.7818608E-02  0.1248065E+00
         21   -1    0    0  501  502  0.00000000000E+00  0.00000000000E+00  0.38137464439E+03  0.38137464439E+03  0.00000000000E+00 0. -1.
         -4   -1    0    0    0  501 -0.00000000000E+00 -0.00000000000E+00 -0.14098148969E+03  0.14098148969E+03  0.00000000000E+00 0. -1.
        -13    1    1    2    0    0 -0.39888142852E+02  0.30527781856E+02  0.43973574441E+02  0.66758488737E+02  0.10566000000E+00 0.  1.
         13    1    1    2    0    0  0.65668185955E+02 -0.70942944804E+00 -0.11996656468E+03  0.13676549910E+03  0.10566000000E+00 0. -1.
         -4    1    1    2    0  502 -0.25780043103E+02 -0.29818352408E+02  0.31638614495E+03  0.31883214624E+03  0.00000000000E+00 0. -1.
</event>
<event>
 5    1  0.4419198E-005  0.7804060E+02  0.7818608E-02  0.1207083E+00
          4   -1    0    0  502    0 -0.00000000000E+00  0.00000000000E+00  0.65884596103E+02  0.65884596103E+02  0.00000000000E+00 0.  1.
         21   -1    0    0  501  502  0.00000000000E+00 -0.00000000000E+00 -0.15175594520E+03  0.15175594520E+03  0.00000000000E+00 0. -1.
        -13    1    1    2    0    0 -0.20502186449E+02 -0.76528114824E+02  0.19675073970E+02  0.81633398235E+02  0.10566000000E+00 0.  1.
         13    1    1    2    0    0  0.28134719309E+02  0.68785364672E+02 -0.96892461360E+02  0.12211121593E+03  0.10566000000E+00 0. -1.
          4    1    1    2  501    0 -0.76325328600E+01  0.77427501522E+01 -0.86539617033E+01  0.13895927135E+02  0.00000000000E+00 0.  1.
</event>
<event>
 5    1  0.4419198E-005  0.3220722E+03  0.7818608E-02  0.9985892E-01
          4   -1    0    0  502    0 -0.00000000000E+00  0.00000000000E+00  0.73394457704E+03  0.73394457704E+03  0.00000000000E+00 0.  1.
         21   -1    0    0  501  502  0.00000000000E+00 -0.00000000000E+00 -0.64174897289E+03  0.64174897289E+03  0.00000000000E+00 0.  1.
        -13    1    1    2    0    0 -0.33306821878E+03  0.22047042724E+03  0.38136383590E+03  0.55224997433E+03  0.10566000000E+00 0.  1.
         13    1    1    2    0    0  0.17777588082E+03 -0.19567974050E+03  0.18578897105E+03  0.32312904167E+03  0.10566000000E+00 0. -1.
          4    1    1    2  501    0  0.15529233795E+03 -0.24790686739E+02 -0.47495720280E+03  0.50031453393E+03  0.00000000000E+00 0.  1.
</event>
<event>
 5    1  0.4419198E-005  0.1087998E+03  0.7818608E-02  0.1150763E+00
         21   -1    0    0  501  502  0.00000000000E+00  0.00000000000E+00  0.87200195973E+03  0.87200195973E+03  0.00000000000E+00 0.  1.
          4   -1    0    0  502    0 -0.00000000000E+00 -0.00000000000E+00 -0.22973481434E+03  0.22973481434E+03  0.00000000000E+00 0.  1.
        -13    1    1    2    0    0  0.94627084057E+02  0.52846546716E+02 -0.20159486386E+03  0.22888325154E+03  0.10566000000E+00 0.  1.
         13    1    1    2    0    0 -0.95267986093E+02 -0.67219491104E+02  0.22139541598E+03  0.25022068368E+03  0.10566000000E+00 0. -1.
          4    1    1    2  501    0  0.64090203625E+00  0.14372944388E+02  0.62246659327E+03  0.62263283885E+03  0.00000000000E+00 0.  1.
</event>
<event>
 5    1  0.4419198E-005  0.2590631E+03  0.7818608E-02  0.1025800E+00
         21   -1    0    0  501  502  0.00000000000E+00  0.00000000000E+00  0.53865775721E+02  0.53865775721E+02  0.00000000000E+00 0.  1.
         -4   -1    0    0    0  501 -0.00000000000E+00 -0.00000000000E+00 -0.13226072011E+04  0.13226072011E+04  0.00000000000E+00 0. -1.
        -13    1    1    2    0    0 -0.17913682806E+03  0.18304101069E+03 -0.69710231737E+03  0.74266120594E+03  0.10566000000E+00 0.  1.
         13    1    1    2    0    0  0.17840141003E+03 -0.19315396314E+03 -0.55769771600E+03  0.61657300473E+03  0.10566000000E+00 0. -1.
         -4    1    1    2    0  502  0.73541802930E+00  0.10112952444E+02 -0.13941391994E+02  0.17238766126E+02  0.00000000000E+00 0. -1.
</event>
<event>
 5    1  0.4419198E-005  0.4175878E+03  0.7818608E-02  0.9679581E-01
         21   -1    0    0  501  502  0.00000000000E+00  0.00000000000E+00  0.37944598480E+03  0.37944598480E+03  0.00000000000E+00 0. -1.
         -4   -1    0    0    0  501 -0.00000000000E+00 -0.00000000000E+00 -0.11790656581E+04  0.11790656581E+04  0.00000000000E+00 0. -1.
        -13    1    1    2    0    0 -0.17956356310E+03 -0.22335931608E+03 -0.11530472921E+03  0.30891365948E+03  0.10566000000E+00 0.  1.
         13    1    1    2    0    0  0.43884779382E+03  0.30607556036E+03 -0.79293505942E+03  0.95656450615E+03  0.10566000000E+00 0. -1.
         -4    1    1    2    0  502 -0.25928423072E+03 -0.82716244278E+02  0.10862011530E+03  0.29303347729E+03  0.00000000000E+00 0. -1.
</event>
<event>
 5    1  0.4419198E-005  0.4758552E+03  0.7818608E-02  0.9532523E-01
          4   -1    0    0  502    0 -0.00000000000E+00  0.00000000000E+00  0.89009181245E+03  0.89009181245E+03  0.00000000000E+00 0.  1.
         21   -1    0    0  501  502  0.00000000000E+00 -0.00000000000E+00 -0.82643124552E+03  0.82643124552E+03  0.00000000000E+00 0.  1.
        -13    1    1    2    0    0 -0.26051639569E+03  0.51218231137E+03 -0.31434368376E+03  0.65498967564E+03  0.10566000000E+00 0.  1.
         13    1    1    2    0    0  0.48115727594E+03 -0.10858782420E+03  0.34186782357E+03  0.60014769825E+03  0.10566000000E+00 0. -1.
          4    1    1    2  501    0 -0.22064088025E+03 -0.40359448717E+03  0.36136427119E+02  0.46138568408E+03  0.00000000000E+00 0.  1.
</event>
<event>
 5    1  0.4419198E-005  0.4633597E+03  0.7818608E-02  0.9738824E-01
          4   -1    0    0  502    0 -0.00000000000E+00  0.00000000000E+00  0.83933348313E+03  0.83933348313E+03  0.00000000000E+00 0.  1.
         21   -1    0    0  501  502  0.00000000000E+00 -0.00000000000E+00 -0.55330569058E+03  0.55330569058E+03  0.00000000000E+00 0.  1.
        -13    1    1    2    0    0  0.40067134352E+03  0.31899049262E+03 -0.26059789091E+03  0.57463356307E+03  0.10566000000E+00 0.  1.
         13    1    1    2    0    0 -0.55190507507E+02 -0.24256898889E+03  0.17039167347E+03  0.30152784289E+03  0.10566000000E+00 0. -1.
          4    1    1    2  501    0 -0.34548083602E+03 -0.76421503730E+02  0.37623400999E+03  0.51647776773E+03  0.00000000000E+00 0.  1.
</event>
<event>
 5    1  0.4419198E-005  0.2634776E+03  0.7818608E-02  0.1031542E+00
         21   -1    0    0  501  502  0.00000000000E+00  0.00000000000E+00  0.18220489524E+03  0.18220489524E+03  0.00000000000E+00 0. -1.
         -4   -1    0    0    0  501 -0.00000000000E+00 -0.00000000000E+00 -0.24207141970E+04  0.24207141970E+04  0.00000000000E+00 0. -1.
        -13    1    1    2    0    0 -0.16323791922E+03  0.12586298380E+03 -0.92907626470E+03  0.95166739240E+03  0.10566000000E+00 0.  1.
         13    1    1    2    0    0  0.26199503315E+03  0.75425248837E+02  0.46788808515E+02  0.27662170797E+03  0.10566000000E+00 0. -1.
         -4    1    1    2    0  502 -0.98757113928E+02 -0.20128823264E+03 -0.13562218455E+04  0.13746299919E+04  0.00000000000E+00 0. -1.
</event>
<event>
 5    1  0.4419198E-005  0.4911066E+03  0.7818608E-02  0.9621000E-01
         -4   -1    0    0    0  501 -0.00000000000E+00  0.00000000000E+00  0.15645755826E+04  0.15645755826E+04  0.00000000000E+00 0. -1.
         21   -1    0    0  501  502  0.00000000000E+00 -0.00000000000E+00 -0.30266405651E+03  0.30266405651E+03  0.00000000000E+00 0.  1.
        -13    1    1    2    0    0 -0.30395855015E+03 -0.84562994332E+02  0.24578027975E+03  0.39993706667E+03  0.10566000000E+00 0.  1.
         13    1    1    2    0    0  0.56540104595E+03 -0.16643516944E+03  0.29248412305E+03  0.65797111015E+03  0.10566000000E+00 0. -1.
         -4    1    1    2    0  502 -0.26144249580E+03  0.25099816377E+03  0.72364712331E+03  0.80933146232E+03  0.00000000000E+00 0. -1.
</event>
<event>
 5    1  0.4419198E-005  0.1899025E+03  0.7818608E-02  0.1075979E+00
          4   -1    0    0  502    0 -0.00000000000E+00  0.00000000000E+00  0.36290870519E+03  0.36290870519E+03  0.00000000000E+00 0.  1.
         21   -1    0    0  501  502  0.00000000000E+00 -0.00000000000E+00 -0.22915732690E+03  0.22915732690E+03  0.00000000000E+00 0. -1.
        -13    1    1    2    0    0 -0.17754110780E+03  0.10677269590E+02  0.13418778694E+03  0.22280310225E+03  0.10566000000E+00 0.  1.
         13    1    1    2    0    0  0.72573796121E+01 -0.14800925310E+03 -0.20433643927E+02  0.14958928281E+03  0.10566000000E+00 0. -1.
          4    1    1    2  501    0  0.17028372819E+03  0.13733198351E+03  0.19997235283E+02  0.21967364703E+03  0.00000000000E+00 0.  1.
</event>
<event>
 5    1  0.4419198E-005  0.6364672E+02  0.7818608E-02  0.1244453E+00
         -4   -1    0    0    0  501 -0.00000000000E+00  0.00000000000E+00  0.12669003717E+03  0.12669003717E+03  0.00000000000E+00 0. -1.
         21   -1    0    0  501  502  0.00000000000E+00 -0.00000000000E+00 -0.45303102423E+02  0.45303102423E+02  0.00000000000E+00 0. -1.
        -13    1    1    2    0    0 -0.50233263450E+02 -0.22525571225E+02  0.26163097682E+02  0.60953268659E+02  0.10566000000E+00 0.  1.
         13    1    1    2    0    0  0.68577281528E+02  0.23262553238E+02  0.57597517377E+02  0.92528239457E+02  0.10566000000E+00 0. -1.
         -4    1    1    2    0  502 -0.18344018079E+02 -0.73698201312E+00 -0.23736803113E+01  0.18511631478E+02  0.00000000000E+00 0. -1.
</event>
<event>
 5    1  0.4419198E-005  0.7404727E+02  0.7818608E-02  0.1216492E+00
         21   -1    0    0  501  502  0.00000000000E+00  0.00000000000E+00  0.51050383527E+03  0.51050383527E+03  0.00000000000E+00 0.  1.
          4   -1    0    0  502    0 -0.00000000000E+00 -0.00000000000E+00 -0.66380081944E+02  0.66380081944E+02  0.00000000000E+00 0.  1.
        -13    1    1    2    0    0 -0.76429576311E+02 -0.10322000903E+02  0.11260274232E+02  0.77941187940E+02  0.10566000000E+00 0.  1.
         13    1    1    2    0    0  0.63097912054E+02  0.39489425446E+02  0.10278556445E+02  0.75142671727E+02  0.10566000000E+00 0. -1.
          4    1    1    2  501    0  0.13331664257E+02 -0.29167424543E+02  0.42258492265E+03  0.42380005755E+03  0.00000000000E+00 0.  1.
</event>
<event>
 5    1  0.4419198E-005  0.2645532E+03  0.7818608E-02  0.1023115E+00
         21   -1    0    0  501  502  0.00000000000E+00  0.00000000000E+00  0.12572170138E+04  0.12572170138E+04  0.00000000000E+00 0.  1.
          4   -1    0    0  502    0 -0.00000000000E+00 -0.00000000000E+00 -0.40883150278E+03  0.40883150278E+03  0.00000000000E+00 0.  1.
        -13    1    1    2    0    0 -0.20828520300E+03  0.19969321049E+03 -0.14510349527E+03  0.32297854357E+03  0.10566000000E+00 0.  1.
         13    1    1    2    0    0  0.17456466340E+03 -0.16746942614E+03 -0.90349507435E+02  0.25822833899E+03  0.10566000000E+00 0. -1.
          4    1    1    2  501    0  0.33720539594E+02 -0.32223784346E+02  0.10838385137E+04  0.10848416340E+04  0.00000000000E+00 0.  1.
</event>
<event>
 5    1  0.4419198E-005  0.3270042E+03  0.7818608E-02  0.9967433E-01
         21   -1    0    0  501  502  0.00000000000E+00  0.00000000000E+00  0.31559270039E+03  0.31559270039E+03  0.00000000000E+00 0.  1.
          4   -1    0    0  502    0 -0.00000000000E+00 -0.00000000000E+00 -0.17700500879E+04  0.17700500879E+04  0.00000000000E+00 0.  1.
        -13    1    1    2    0    0 -0.20445111979E+03 -0.25258037352E+03 -0.12993648000E+04  0.13393826937E+04  0.10566000000E+00 0.  1.
         13    1    1    2    0    0  0.21401052256E+03  0.25557650536E+03 -0.38891380048E+03  0.51222437391E+03  0.10566000000E+00 0. -1.
          4    1    1    2  501    0 -0.95594027762E+01 -0.29961318435E+01  0.23382121291E+03  0.23403572077E+03  0.00000000000E+00 0.  1.
</event>
<event>
 5    1  0.4419198E-005  0.3897931E+03  0.7818608E-02  0.9758995E-01
          4   -1    0    0  502    0 -0.00000000000E+00  0.00000000000E+00  0.10927787338E+04  0.10927787338E+04  0.00000000000E+00 0.  1.
         21   -1    0    0  501  502  0.00000000000E+00 -0.00000000000E+00 -0.63580381757E+03  0.63580381757E+03  0.00000000000E+00 0.  1.
        -13    1    1    2    0    0 -0.24664186348E+03  0.26035207211E+03  0.58212675573E+03  0.68373019618E+03  0.10566000000E+00 0.  1.
         13    1    1    2    0    0  0.43442861003E+03 -0.22949045571E+03  0.30235633120E+03  0.57689986017E+03  0.10566000000E+00 0. -1.
          4    1    1    2  501    0 -0.18778674655E+03 -0.30861616394E+02 -0.42750817072E+03  0.46795249500E+03  0.00000000000E+00 0.  1.
</event>
<event>
 5    1  0.4419198E-005  0.2483539E+03  0.7818608E-02  0.1031249E+00
         -4   -1    0    0    0  501 -0.00000000000E+00  0.00000000000E+00  0.21596724067E+03  0.21596724067E+03  0.00000000000E+00 0. -1.
         21   -1    0    0  501  502  0.00000000000E+00 -0.00000000000E+00 -0.36360154458E+03  0.36360154458E+03  0.00000000000E+00 0.  1.
        -13    1    1    2    0    0 -0.22434773534E+03 -0.10238408042E+03  0.41171922194E+02  0.25001908850E+03  0.10566000000E+00 0.  1.
         13    1    1    2    0    0  0.22526442035E+03  0.11370236810E+03 -0.16050514267E+03  0.29905551253E+03  0.10566000000E+00 0. -1.
         -4    1    1    2    0  502 -0.91668501302E+00 -0.11318287681E+02 -0.28301083433E+02  0.30494184215E+02  0.00000000000E+00 0. -1.
</event>
<event>
 5    1  0.4419198E-005  0.1212652E+03  0.7818608E-02  0.1133498E+00
         -4   -1    0    0    0  501 -0.00000000000E+00  0.00000000000E+00  0.10425901703E+03  0.10425901703E+03  0.00000000000E+00 0. -1.
         21   -1    0    0  501  502  0.00000000000E+00 -0.00000000000E+00 -0.19444504846E+03  0.19444504846E+03  0.00000000000E+00 0.  1.
        -13    1    1    2    0    0 -0.10532262503E+03 -0.26393462731E+02 -0.32344000012E+02  0.11329437638E+03  0.10566000000E+00 0.  1.
         13    1    1    2    0    0  0.12751697702E+03  0.43775070892E+02 -0.17151864810E+02  0.13590818184E+03  0.10566000000E+00 0. -1.
         -4    1    1    2    0  502 -0.22194351988E+02 -0.17381608161E+02 -0.40690166607E+02  0.49501507259E+02  0.00000000000E+00 0. -1.
</event>
<event>
 5    1  0.4419198E-005  0.2293730E+03  0.7818608E-02  0.1041673E+00
         -4   -1    0    0    0  501 -0.00000000000E+00  0.00000000000E+00  0.10800573479E+04  0.10800573479E+04  0.00000000000E+00 0. -1.
         21   -1    0    0  501  502  0.00000000000E+00 -0.00000000000E+00 -0.24868257034E+03  0.24868257034E+03  0.00000000000E+00 0. -1.
        -13    1    1    2    0    0  0.20343065976E+03 -0.29053098201E+02  0.33375493648E+03  0.39194449177E+03  0.10566000000E+00 0.  1.
         13    1    1    2    0    0 -0.24321421872E+03  0.42587391495E+02  0.69366334074E+03  0.73629863748E+03  0.10566000000E+00 0. -1.
         -4    1    1    2    0  502  0.39783558957E+02 -0.13534293294E+02 -0.19604349963E+03  0.20049678901E+03  0.00000000000E+00 0. -1.
</event>
<event>
 5    1  0.4419198E-005  0.4754700E+03  0.7818608E-02  0.9580127E-01
         21   -1    0    0  501  502  0.00000000000E+00  0.00000000000E+00  0.64482932141E+03  0.64482932141E+03  0.00000000000E+00 0. -1.
         -4   -1    0    0    0  501 -0.00000000000E+00 -0.00000000000E+00 -0.84958564069E+03  0.84958564069E+03  0.00000000000E+00 0. -1.
        -13    1    1    2    0    0  0.40037018528E+03 -0.36918081476E+02 -0.13241431499E+03  0.42331169601E+03  0.10566000000E+00 0.  1.
         13    1    1    2    0    0  0.17602232881E+03  0.22227057155E+03 -0.31051073038E+03  0.42048185700E+03  0.10566000000E+00 0. -1.
         -4    1    1    2    0  502 -0.57639251409E+03 -0.18535249007E+03  0.23816872609E+03  0.65062140909E+03  0.00000000000E+00 0. -1.
</event>
<event>
 5    1  0.4419198E-005  0.7400764E+03  0.7818608E-02  0.9066784E-01
          4   -1    0    0  502    0 -0.00000000000E+00  0.00000000000E+00  0.39652994616E+04  0.39652994616E+04  0.00000000000E+00 0.  1.
         21   -1    0    0  501  502  0.00000000000E+00 -0.00000000000E+00 -0.21510750452E+03  0.21510750452E+03  0.00000000000E+00 0. -1.
        -13    1    1    2    0    0  0.46639873628E+03 -0.72242280169E+03  0.21493557959E+04  0.23149844133E+04  0.10566000000E+00 0.  1.
         13    1    1    2    0    0 -0.18013587781E+03  0.61429062715E+03  0.12114237912E+04  0.13701640493E+04  0.10566000000E+00 0. -1.
          4    1    1    2  501    0 -0.28626285847E+03  0.10813217454E+03  0.38941237005E+03  0.49525850347E+03  0.00000000000E+00 0.  1.
</event>
<event>
 5    1  0.4419198E-005  0.3012794E+02  0.7818608E-02  0.1439866E+00
          4   -1    0    0  502    0 -0.00000000000E+00  0.00000000000E+00  0.24047693026E+02  0.24047693026E+02  0.00000000000E+00 0.  1.
         21   -1    0    0  501  502  0.00000000000E+00 -0.00000000000E+00 -0.33939314347E+03  0.33939314347E+03  0.00000000000E+00 0. -1.
        -13    1    1    2    0    0 -0.98471619915E+01 -0.19796673820E+02  0.10832334705E+02  0.24621647646E+02  0.10566000000E+00 0.  1.
         13    1    1    2    0    0  0.49445578427E+02  0.12121072570E+02 -0.19830690534E+03  0.20473745504E+03  0.10566000000E+00 0. -1.
          4    1    1    2  501    0 -0.39598416435E+02  0.76756012497E+01 -0.12787087981E+03  0.13408173381E+03  0.00000000000E+00 0.  1.
</event>
<event>
 5    1  0.4419198E-005  0.5078141E+03  0.7818608E-02  0.9843185E-01
         -4   -1    0    0    0  501 -0.00000000000E+00  0.00000000000E+00  0.17775405837E+04  0.17775405837E+04  0.00000000000E+00 0. -1.
         21   -1    0    0  501  502  0.00000000000E+00 -0.00000000000E+00 -0.22976915664E+03  0.22976915664E+03  0.00000000000E+00 0. -1.
        -13    1    1    2    0    0  0.10136134616E+03  0.84960253412E+02  0.56868758260E+03  0.58386466319E+03  0.10566000000E+00 0.  1.
         13    1    1    2    0    0 -0.28269159767E+03  0.41135924173E+03  0.40108385944E+03  0.64031182921E+03  0.10566000000E+00 0. -1.
         -4    1    1    2    0  502  0.18133025151E+03 -0.49631949514E+03  0.57799998507E+03  0.78313324800E+03  0.00000000000E+00 0. -1.
</event>
<event>
 5    1  0.4419198E-005  0.3599467E+03  0.7818608E-02  0.9852437E-01
         21   -1    0    0  501  502  0.00000000000E+00  0.00000000000E+00  0.11019717519E+04  0.11019717519E+04  0.00000000000E+00 0.  1.
          4   -1    0    0  502    0 -0.00000000000E+00 -0.00000000000E+00 -0.39044450932E+03  0.39044450932E+03  0.00000000000E+00 0.  1.
        -13    1    1    2    0    0 -0.46791628611E+03  0.18971741571E+03 -0.34820550868E+02  0.50611345621E+03  0.10566000000E+00 0.  1.
         13    1    1    2    0    0  0.25016549366E+03 -0.58338488961E+02  0.73785703246E+02  0.26726483996E+03  0.10566000000E+00 0. -1.
          4    1    1    2  501    0  0.21775079245E+03 -0.13137892674E+03  0.67256209019E+03  0.71903796504E+03  0.00000000000E+00 0.  1.
</event>
<event>
 5    1  0.4419198E-005  0.4740802E+03  0.7818608E-02  0.9540212E-01
          4   -1    0    0  502    0 -0.00000000000E+00  0.00000000000E+00  0.18730333164E+04  0.18730333164E+04  0.00000000000E+00 0.  1.
         21   -1    0    0  501  502  0.00000000000E+00 -0.00000000000E+00 -0.36697791422E+03  0.36697791422E+03  0.00000000000E+00 0.  1.
        -13    1    1    2    0    0  0.40720451547E+03 -0.61857001523E+02  0.32947121011E+03  0.52744013453E+03  0.10566000000E+00 0.  1.
         13    1    1    2    0    0  0.75448994647E+02  0.47111525437E+03  0.90678710430E+03  0.10246487190E+04  0.10566000000E+00 0. -1.
          4    1    1    2  501    0 -0.48265351012E+03 -0.40925825285E+03  0.26979708781E+03  0.68792237712E+03  0.00000000000E+00 0.  1.
</event>
<event>
 5    1  0.4419198E-005  0.4932953E+03  0.7818608E-02  0.9553890E-01
          4   -1    0    0  502    0 -0.00000000000E+00  0.00000000000E+00  0.10759885637E+04  0.10759885637E+04  0.00000000000E+00 0.  1.
         21   -1    0    0  501  502  0.00000000000E+00 -0.00000000000E+00 -0.51728210911E+03  0.51728210911E+03  0.00000000000E+00 0.  1.
        -13    1    1    2    0    0  0.38182080439E+03 -0.43075877721E+02  0.15647140211E+03  0.41488066809E+03  0.10566000000E+00 0.  1.
         13    1    1    2    0    0  0.19523572988E+03 -0.34397386642E+03  0.24735942241E+03  0.46649941695E+03  0.10566000000E+00 0. -1.
          4    1    1    2  501    0 -0.57705653427E+03  0.38704974414E+03  0.15487563008E+03  0.71189058778E+03  0.00000000000E+00 0.  1.
</event>
<event>
 5    1  0.4419198E-005  0.5597715E+02  0.7818608E-02  0.1269197E+00
          4   -1    0    0  502    0 -0.00000000000E+00  0.00000000000E+00  0.62115157562E+02  0.62115157562E+02  0.00000000000E+00 0.  1.
         21   -1    0    0  501  502  0.00000000000E+00 -0.00000000000E+00 -0.63812358564E+03  0.63812358564E+03  0.00000000000E+00 0.  1.
        -13    1    1    2    0    0  0.25351728471E+02  0.51009252572E+02  0.44119748618E+02  0.72050103168E+02  0.10566000000E+00 0.  1.
         13    1    1    2    0    0 -0.16146687395E+02 -0.43678315492E+02 -0.13297084465E+03  0.14088920274E+03  0.10566000000E+00 0. -1.
          4    1    1    2  501    0 -0.92050410768E+01 -0.73309370798E+01 -0.48715733204E+03  0.48729943729E+03  0.00000000000E+00 0.  1.
</event>
<event>
 5    1  0.4419198E-005  0.4521869E+03  0.7818608E-02  0.9603961E-01
         -4   -1    0    0    0  501 -0.00000000000E+00  0.00000000000E+00  0.12174715476E+04  0.12174715476E+04  0.00000000000E+00 0. -1.
         21   -1    0    0  501  502  0.00000000000E+00 -0.00000000000E+00 -0.54762065127E+03  0.54762065127E+03  0.00000000000E+00 0. -1.
        -13    1    1    2    0    0 -0.41497274540E+03 -0.20769456929E+03  0.46355382748E+03  0.65591278054E+03  0.10566000000E+00 0.  1.
         13    1    1    2    0    0 -0.28491869398E+03 -0.12904821250E+03  0.46412059248E+02  0.31620593564E+03  0.10566000000E+00 0. -1.
         -4    1    1    2    0  502  0.69989143938E+03  0.33674278178E+03  0.15988500963E+03  0.79297348272E+03  0.00000000000E+00 0. -1.
</event>
<event>
 5    1  0.4419198E-005  0.2383470E+02  0.7818608E-02  0.1496108E+00
         21   -1    0    0  501  502  0.00000000000E+00  0.00000000000E+00  0.23398932973E+03  0.23398932973E+03  0.00000000000E+00 0.  1.
          4   -1    0    0  502    0 -0.00000000000E+00 -0.00000000000E+00 -0.50791457987E+02  0.50791457987E+02  0.00000000000E+00 0.  1.
        -13    1    1    2    0    0  0.11952352703E+01 -0.26166802937E+02 -0.45678670948E+02  0.52656265599E+02  0.10566000000E+00 0.  1.
         13    1    1    2    0    0  0.12730493389E+02  0.67831391433E+01  0.70610239745E+02  0.72068672524E+02  0.10566000000E+00 0. -1.
          4    1    1    2  501    0 -0.13925728659E+02  0.19383663794E+02  0.15826630295E+03  0.16005584959E+03  0.00000000000E+00 0.  1.
</event>
<event>
 5    1  0.4419198E-005  0.5708281E+02  0.7818608E-02  0.1269629E+00
         -4   -1    0    0    0  501 -0.00000000000E+00  0.00000000000E+00  0.20461163793E+03  0.20461163793E+03  0.00000000000E+00 0. -1.
         21   -1    0    0  501  502  0.00000000000E+00 -0.00000000000E+00 -0.72071814244E+02  0.72071814244E+02  0.00000000000E+00 0. -1.
        -13    1    1    2    0    0 -0.22233577985E+02 -0.47367351637E+02  0.74809717877E+01  0.52858056093E+02  0.10566000000E+00 0.  1.
         13    1    1    2    0    0  0.76940301689E+01  0.97678335073E+02  0.13859768762E+03  0.16973386645E+03  0.10566000000E+00 0. -1.
         -4    1    1    2    0  502  0.14539547816E+02 -0.50310983436E+02 -0.13538835721E+02  0.54091529630E+02  0.00000000000E+00 0. -1.
</event>
<event>
 5    1  0.4419198E-005  0.5004792E+03  0.7818608E-02  0.9661137E-01
         -4   -1    0    0    0  501 -0.00000000000E+00  0.00000000000E+00  0.16094227570E+04  0.16094227570E+04  0.00000000000E+00 0. -1.
         21   -1    0    0  501  502  0.00000000000E+00 -0.00000000000E+00 -0.34551155070E+03  0.34551155070E+03  0.00000000000E+00 0. -1.
        -13    1    1    2    0    0  0.16269912311E+03  0.20121491715E+03 -0.68657533690E+02  0.26771685722E+03  0.10566000000E+00 0.  1.
         13    1    1    2    0    0  0.41421426319E+03 -0.70465950806E+02  0.73345561402E+03  0.84527868478E+03  0.10566000000E+00 0. -1.
         -4    1    1    2    0  502 -0.57691338629E+03 -0.13074896635E+03  0.59911312600E+03  0.84193876572E+03  0.00000000000E+00 0. -1.
</event>
<event>
 5    1  0.5043478E-005  0.3713906E+03  0.7818608E-02  0.1013855E+00
         -4   -1    0    0    0  501 -0.00000000000E+00  0.00000000000E+00  0.13700364883E+04  0.13700364883E+04  0.00000000000E+00 0. -1.
         21   -1    0    0  501  502  0.00000000000E+00 -0.00000000000E+00 -0.24917915959E+03  0.24917915959E+03  0.00000000000E+00 0. -1.
        -13    1    1    2    0    0  0.92374447072E+02  0.88812181833E+02  0.30403098972E+03  0.32993256278E+03  0.10566000000E+00 0.  1.
         13    1    1    2    0    0  0.25599337453E+03  0.91343555451E+02  0.85316000423E+03  0.89540954703E+03  0.10566000000E+00 0. -1.
         -4    1    1    2    0  502 -0.34836782160E+03 -0.18015573728E+03 -0.36333665186E+02  0.39387353812E+03  0.00000000000E+00 0. -1.
</event>
<event>
 5    1  0.4419198E-005  0.2016942E+03  0.7818608E-02  0.1058981E+00
          4   -1    0    0  502    0 -0.00000000000E+00  0.00000000000E+00  0.65211564331E+03  0.65211564331E+03  0.00000000000E+00 0.  1.
         21   -1    0    0  501  502  0.00000000000E+00 -0.00000000000E+00 -0.21424702013E+03  0.21424702013E+03  0.00000000000E+00 0. -1.
        -13    1    1    2    0    0 -0.18931107649E+03 -0.72639590858E+02  0.57662178577E+03  0.61123472483E+03  0.10566000000E+00 0.  1.
         13    1    1    2    0    0  0.17789333152E+03  0.71574787756E+02 -0.10317570830E+03  0.21774807827E+03  0.10566000000E+00 0. -1.
          4    1    1    2  501    0  0.11417744970E+02  0.10648031026E+01 -0.35577454290E+02  0.37379860347E+02  0.00000000000E+00 0.  1.
</event>
<event>
 5    1  0.4419198E-005  0.4943759E+03  0.7818608E-02  0.9535839E-01
          4   -1    0    0  502    0 -0.00000000000E+00  0.00000000000E+00  0.94668993061E+03  0.94668993061E+03  0.00000000000E+00 0.  1.
         21   -1    0    0  501  502  0.00000000000E+00 -0.00000000000E+00 -0.62778075037E+03  0.62778075037E+03  0.00000000000E+00 0.  1.
        -13    1    1    2    0    0 -0.54310865954E+02  0.34494877674E+03  0.26539111333E+03  0.43860207812E+03  0.10566000000E+00 0.  1.
         13    1    1    2    0    0 -0.41141709581E+03  0.80957672073E+02  0.23305152686E+03  0.47971991487E+03  0.10566000000E+00 0. -1.
          4    1    1    2  501    0  0.46572796176E+03 -0.42590644881E+03 -0.17953345996E+03  0.65614868799E+03  0.00000000000E+00 0.  1.
</event>
<event>
 5    1  0.4797339E-005  0.2942786E+03  0.7818608E-02  0.1043686E+00
         21   -1    0    0  501  502  0.00000000000E+00  0.00000000000E+00  0.27878416569E+03  0.27878416569E+03  0.00000000000E+00 0.  1.
          4   -1    0    0  502    0 -0.00000000000E+00 -0.00000000000E+00 -0.15251781429E+04  0.15251781429E+04  0.00000000000E+00 0.  1.
        -13    1    1    2    0    0  0.20793190692E+03  0.22153517940E+03 -0.81934081383E+03  0.87386091227E+03  0.10566000000E+00 0.  1.
         13    1    1    2    0    0  0.54326713507E+02 -0.86589689135E+02 -0.58614338336E+03  0.59499012016E+03  0.10566000000E+00 0. -1.
          4    1    1    2  501    0 -0.26225862043E+03 -0.13494549026E+03  0.15909021997E+03  0.33511127618E+03  0.00000000000E+00 0.  1.
</event>
<event>
 5    1  0.4419198E-005  0.3751712E+03  0.7818608E-02  0.1002308E+00
         -4   -1    0    0    0  501 -0.00000000000E+00  0.00000000000E+00  0.15791506385E+04  0.15791506385E+04  0.00000000000E+00 0. -1.
         21   -1    0    0  501  502  0.00000000000E+00 -0.00000000000E+00 -0.24214002028E+03  0.24214002028E+03  0.00000000000E+00 0. -1.
        -13    1    1    2    0    0 -0.27686491397E+02 -0.17826483939E+03  0.97593256195E+02  0.20510814120E+03  0.10566000000E+00 0.  1.
         13    1    1    2    0    0  0.16202665347E+03 -0.19894533118E+03  0.11845540425E+04  0.12120231730E+04  0.10566000000E+00 0. -1.
         -4    1    1    2    0  502 -0.13434016207E+03  0.37721017057E+03  0.54863319510E+02  0.40415934451E+03  0.00000000000E+00 0. -1.
</event>
