<event>
 6    2  0.2220137E-005  0.1256336E+04  0.7818608E-02  0.9255287E-01
         -4   -1    0    0    0  501 -0.00000000000E+00  0.00000000000E+00  0.10854473757E+04  0.10854473757E+04  0.00000000000E+00 0. -1.
         21   -1    0    0  501  502  0.00000000000E+00 -0.00000000000E+00 -0.80857804472E+03  0.80857804472E+03  0.00000000000E+00 0. -1.
   -9000010    2    1    2    0  502 -0.23207333972E+03  0.56747989252E+03  0.24568134411E+03  0.12801327872E+04  0.10965806704E+04 0.  0.
         13    1    3    3    0    0  0.34678809456E+03  0.89724744300E+02  0.37491963998E+03  0.51853375963E+03  0.10566000000E+00 0. -1.
         -4    1    3    3    0  502 -0.57886143428E+03  0.47775514822E+03 -0.12923829587E+03  0.76159902761E+03  0.00000000000E+00 0. -1.
        -13    1    1    2    0    0  0.23207333972E+03 -0.56747989252E+03  0.31187986916E+02  0.61389263321E+03  0.10566000000E+00 0.  1.
<mgrwt>
<rscale>  1 0.10500555E+04</rscale>
<asrwt>0</asrwt>
<pdfrwt beam="2">  1       21 0.12439662E+00 0.12563362E+04</pdfrwt>
<pdfrwt beam="1">  1       -4 0.16699190E+00 0.12563362E+04</pdfrwt>
<totfact> 0.37678633E+00</totfact>
</mgrwt>
</event>
<event>
 6    2  0.2220137E-005  0.1125621E+04  0.7818608E-02  0.9401860E-01
         -4   -1    0    0    0  501 -0.00000000000E+00  0.00000000000E+00  0.56765301593E+03  0.56765301593E+03  0.00000000000E+00 0. -1.
         21   -1    0    0  501  502  0.00000000000E+00 -0.00000000000E+00 -0.11995905836E+04  0.11995905836E+04  0.00000000000E+00 0. -1.
   -9000010    2    1    2    0  502 -0.88673996815E+02  0.49271290006E+03 -0.57325225949E+03  0.12631869994E+04  0.10081637579E+04 0.  0.
         13    1    3    3    0    0  0.56800487307E+02  0.25585223926E+03  0.26941310788E+03  0.37585914590E+03  0.10566000000E+00 0. -1.
         -4    1    3    3    0  502 -0.14547448412E+03  0.23686066080E+03 -0.84266536737E+03  0.88732785346E+03  0.00000000000E+00 0. -1.
        -13    1    1    2    0    0  0.88673996815E+02 -0.49271290006E+03 -0.58685308163E+02  0.50405660015E+03  0.10566000000E+00 0.  1.
<mgrwt>
<rscale>  1 0.91922781E+03</rscale>
<asrwt>0</asrwt>
<pdfrwt beam="2">  1       21 0.18455240E+00 0.11256213E+04</pdfrwt>
<pdfrwt beam="1">  1       -4 0.87331234E-01 0.11256213E+04</pdfrwt>
<totfact> 0.65322566E+00</totfact>
</mgrwt>
</event>
<event>
 6    2  0.2220137E-005  0.1063310E+04  0.7818608E-02  0.9568848E-01
         -4   -1    0    0    0  501 -0.00000000000E+00  0.00000000000E+00  0.17601798833E+04  0.17601798833E+04  0.00000000000E+00 0. -1.
         21   -1    0    0  501  502  0.00000000000E+00 -0.00000000000E+00 -0.29180533059E+03  0.29180533059E+03  0.00000000000E+00 0. -1.
   -9000010    2    1    2    0  502 -0.22041727229E+03  0.24623687211E+03  0.89343390730E+03  0.13888312891E+04  0.10106492130E+04 0.  0.
         13    1    3    3    0    0  0.50227177777E+02 -0.36342021753E+03  0.47968357738E+03  0.60389847613E+03  0.10566000000E+00 0. -1.
         -4    1    3    3    0  502 -0.27064445007E+03  0.60965708965E+03  0.41375032992E+03  0.78493281293E+03  0.00000000000E+00 0. -1.
        -13    1    1    2    0    0  0.22041727229E+03 -0.24623687211E+03  0.57494064541E+03  0.66315392483E+03  0.10566000000E+00 0.  1.
<mgrwt>
<rscale>  1 0.79392761E+03</rscale>
<asrwt>0</asrwt>
<pdfrwt beam="2">  1       21 0.44893129E-01 0.10633100E+04</pdfrwt>
<pdfrwt beam="1">  1       -4 0.27079690E+00 0.10633100E+04</pdfrwt>
<totfact> 0.88509183E+00</totfact>
</mgrwt>
</event>
<event>
 6    2  0.2220137E-005  0.1090152E+04  0.7818608E-02  0.9462002E-01
         21   -1    0    0  501  502  0.00000000000E+00  0.00000000000E+00  0.41695377078E+03  0.41695377078E+03  0.00000000000E+00 0. -1.
         -4   -1    0    0    0  501 -0.00000000000E+00 -0.00000000000E+00 -0.14262657726E+04  0.14262657726E+04  0.00000000000E+00 0. -1.
   -9000010    2    1    2    0  502  0.35532544609E+03  0.26812168146E+03 -0.63489963442E+03  0.12615580948E+04  0.99513108289E+03 0.  0.
         13    1    3    3    0    0  0.13114032046E+03  0.23872364209E+03  0.23685848376E+03  0.36095527899E+03  0.10566000000E+00 0. -1.
         -4    1    3    3    0  502  0.22418512562E+03  0.29398039379E+02 -0.87175811818E+03  0.90060281583E+03  0.00000000000E+00 0. -1.
        -13    1    1    2    0    0 -0.35532544609E+03 -0.26812168146E+03 -0.37441236737E+03  0.58166144854E+03  0.10566000000E+00 0.  1.
<mgrwt>
<rscale>  1 0.87144159E+03</rscale>
<asrwt>0</asrwt>
<pdfrwt beam="1">  1       21 0.64146733E-01 0.10901520E+04</pdfrwt>
<pdfrwt beam="2">  1       -4 0.21942551E+00 0.10901520E+04</pdfrwt>
<totfact> 0.84451627E+00</totfact>
</mgrwt>
</event>
<event>
 6    2  0.2220137E-005  0.1021594E+04  0.7818608E-02  0.9702609E-01
         -4   -1    0    0    0  501 -0.00000000000E+00  0.00000000000E+00  0.34134567288E+03  0.34134567288E+03  0.00000000000E+00 0. -1.
         21   -1    0    0  501  502  0.00000000000E+00 -0.00000000000E+00 -0.14248612993E+04  0.14248612993E+04  0.00000000000E+00 0. -1.
   -9000010    2    1    2    0  502 -0.15477306581E+03  0.17880737312E+03 -0.11319775677E+04  0.15248040942E+04  0.99384482358E+03 0.  0.
         13    1    3    3    0    0 -0.36738049202E+03 -0.43170133510E+02 -0.11586635301E+04  0.12162784523E+04  0.10566000000E+00 0. -1.
         -4    1    3    3    0  502  0.21260742621E+03  0.22197750663E+03  0.26685962415E+02  0.30852564192E+03  0.00000000000E+00 0. -1.
        -13    1    1    2    0    0  0.15477306581E+03 -0.17880737312E+03  0.48461941255E+02  0.24140287798E+03  0.10566000000E+00 0.  1.
<mgrwt>
<rscale>  1 0.70861646E+03</rscale>
<asrwt>0</asrwt>
<pdfrwt beam="2">  1       21 0.21920943E+00 0.10215940E+04</pdfrwt>
<pdfrwt beam="1">  1       -4 0.52514719E-01 0.10215940E+04</pdfrwt>
<totfact> 0.11889849E+01</totfact>
</mgrwt>
</event>
<event>
 6    2  0.2220137E-005  0.1064627E+04  0.7818608E-02  0.9691312E-01
         21   -1    0    0  501  502  0.00000000000E+00  0.00000000000E+00  0.89583458802E+03  0.89583458802E+03  0.00000000000E+00 0. -1.
         -4   -1    0    0    0  501 -0.00000000000E+00 -0.00000000000E+00 -0.64730514620E+03  0.64730514620E+03  0.00000000000E+00 0. -1.
   -9000010    2    1    2    0  502  0.17301354213E+03  0.13102485263E+03  0.52875310824E+03  0.11887014291E+04  0.10422715770E+04 0.  0.
         13    1    3    3    0    0  0.39152068013E+03  0.39645419561E+03 -0.96695069195E+00  0.55719414780E+03  0.10566000000E+00 0. -1.
         -4    1    3    3    0  502 -0.21850713800E+03 -0.26542934299E+03  0.52972005893E+03  0.63150728128E+03  0.00000000000E+00 0. -1.
        -13    1    1    2    0    0 -0.17301354213E+03 -0.13102485263E+03 -0.28022366642E+03  0.35443830514E+03  0.10566000000E+00 0.  1.
<mgrwt>
<rscale>  1 0.71536419E+03</rscale>
<asrwt>0</asrwt>
<pdfrwt beam="1">  1       21 0.13782071E+00 0.10646273E+04</pdfrwt>
<pdfrwt beam="2">  1       -4 0.99585407E-01 0.10646273E+04</pdfrwt>
<totfact> 0.11132311E+01</totfact>
</mgrwt>
</event>
<event>
 6    2  0.2220137E-005  0.1072678E+04  0.7818608E-02  0.9537118E-01
         -4   -1    0    0    0  501 -0.00000000000E+00  0.00000000000E+00  0.93157082917E+03  0.93157082917E+03  0.00000000000E+00 0. -1.
         21   -1    0    0  501  502  0.00000000000E+00 -0.00000000000E+00 -0.61579339839E+03  0.61579339839E+03  0.00000000000E+00 0. -1.
   -9000010    2    1    2    0  502  0.19362469659E+03 -0.30259817635E+03  0.55235798454E+01  0.10726920853E+04  0.10107332093E+04 0.  0.
         13    1    3    3    0    0  0.54296224173E+03 -0.43439557801E+03 -0.40321816119E+02  0.69651516434E+03  0.10566000000E+00 0. -1.
         -4    1    3    3    0  502 -0.34933754514E+03  0.13179740166E+03  0.45845395964E+02  0.37617692096E+03  0.00000000000E+00 0. -1.
        -13    1    1    2    0    0 -0.19362469659E+03  0.30259817635E+03  0.31025385093E+03  0.47467214226E+03  0.10566000000E+00 0.  1.
<mgrwt>
<rscale>  1 0.81601726E+03</rscale>
<asrwt>0</asrwt>
<pdfrwt beam="2">  1       21 0.94737446E-01 0.10726779E+04</pdfrwt>
<pdfrwt beam="1">  1       -4 0.14331859E+00 0.10726779E+04</pdfrwt>
<totfact> 0.11640316E+01</totfact>
</mgrwt>
</event>
<event>
 6    2  0.2220137E-005  0.1136764E+04  0.7818608E-02  0.9361518E-01
         21   -1    0    0  501  502  0.00000000000E+00  0.00000000000E+00  0.17610445337E+04  0.17610445337E+04  0.00000000000E+00 0.  1.
         -4   -1    0    0    0  501 -0.00000000000E+00 -0.00000000000E+00 -0.42709895363E+03  0.42709895363E+03  0.00000000000E+00 0. -1.
   -9000010    2    1    2    0  502  0.44505420636E+03 -0.34282078423E+03  0.10926174377E+04  0.15767200496E+04  0.98824790059E+03 0.  0.
         13    1    3    3    0    0 -0.19706219297E+01 -0.26625252943E+03 -0.11252617328E+03  0.28906131463E+03  0.10566000000E+00 0. -1.
         -4    1    3    3    0  502  0.44702482829E+03 -0.76568254801E+02  0.12051436109E+04  0.12876587350E+04  0.00000000000E+00 0. -1.
        -13    1    1    2    0    0 -0.44505420636E+03  0.34282078423E+03  0.24132814237E+03  0.61142343770E+03  0.10566000000E+00 0.  1.
<mgrwt>
<rscale>  1 0.95311401E+03</rscale>
<asrwt>0</asrwt>
<pdfrwt beam="1">  1       21 0.27092992E+00 0.11367644E+04</pdfrwt>
<pdfrwt beam="2">  1       -4 0.65707532E-01 0.11367644E+04</pdfrwt>
<totfact> 0.33451834E+00</totfact>
</mgrwt>
</event>
<event>
 6    2  0.2220137E-005  0.1025004E+04  0.7818608E-02  0.9720825E-01
         21   -1    0    0  501  502  0.00000000000E+00  0.00000000000E+00  0.17986114115E+03  0.17986114115E+03  0.00000000000E+00 0. -1.
         -4   -1    0    0    0  501 -0.00000000000E+00 -0.00000000000E+00 -0.26766332428E+04  0.26766332428E+04  0.00000000000E+00 0. -1.
   -9000010    2    1    2    0  502 -0.21667095513E+03 -0.39790602271E+02 -0.13846081000E+04  0.17227226377E+04  0.10010514977E+04 0.  0.
         13    1    3    3    0    0  0.11612840216E+03  0.30153565178E+03 -0.11439395422E+04  0.11886998118E+04  0.10566000000E+00 0. -1.
         -4    1    3    3    0  502 -0.33279935729E+03 -0.34132625405E+03 -0.24066855776E+03  0.53402282593E+03  0.00000000000E+00 0. -1.
        -13    1    1    2    0    0  0.21667095513E+03  0.39790602271E+02 -0.11121640017E+04  0.11337717463E+04  0.10566000000E+00 0.  1.
<mgrwt>
<rscale>  1 0.69790304E+03</rscale>
<asrwt>0</asrwt>
<pdfrwt beam="1">  1       21 0.27670946E-01 0.10250042E+04</pdfrwt>
<pdfrwt beam="2">  1       -4 0.41178971E+00 0.10250042E+04</pdfrwt>
<totfact> 0.29469884E+00</totfact>
</mgrwt>
</event>
<event>
 6    2  0.2220137E-005  0.1017748E+04  0.7818608E-02  0.9758156E-01
         21   -1    0    0  501  502  0.00000000000E+00  0.00000000000E+00  0.11365551179E+04  0.11365551179E+04  0.00000000000E+00 0. -1.
         -4   -1    0    0    0  501 -0.00000000000E+00 -0.00000000000E+00 -0.40011679880E+03  0.40011679880E+03  0.00000000000E+00 0. -1.
   -9000010    2    1    2    0  502  0.15615161253E+02 -0.19814994096E+03  0.83347886959E+03  0.13154839605E+04  0.99815018501E+03 0.  0.
         13    1    3    3    0    0  0.15232412616E+03  0.34409836574E+03  0.60267734483E+03  0.71051130733E+03  0.10566000000E+00 0. -1.
         -4    1    3    3    0  502 -0.13670896491E+03 -0.54224830671E+03  0.23080152477E+03  0.60497265314E+03  0.00000000000E+00 0. -1.
        -13    1    1    2    0    0 -0.15615161253E+02  0.19814994096E+03 -0.97040550508E+02  0.22118795621E+03  0.10566000000E+00 0.  1.
<mgrwt>
<rscale>  1 0.67657320E+03</rscale>
<asrwt>0</asrwt>
<pdfrwt beam="1">  1       21 0.17485463E+00 0.10177480E+04</pdfrwt>
<pdfrwt beam="2">  1       -4 0.61556431E-01 0.10177480E+04</pdfrwt>
<totfact> 0.17176892E+01</totfact>
</mgrwt>
</event>
<event>
 6    2  0.2220137E-005  0.1100095E+04  0.7818608E-02  0.9458444E-01
         -4   -1    0    0    0  501 -0.00000000000E+00  0.00000000000E+00  0.30326450530E+04  0.30326450530E+04  0.00000000000E+00 0. -1.
         21   -1    0    0  501  502  0.00000000000E+00 -0.00000000000E+00 -0.19774993336E+03  0.19774993336E+03  0.00000000000E+00 0. -1.
   -9000010    2    1    2    0  502  0.38857139454E+03 -0.20352861040E+03  0.18525765326E+04  0.21545876423E+04  0.10088589968E+04 0.  0.
         13    1    3    3    0    0 -0.27651379956E+03 -0.26519651686E+03  0.10043421450E+04  0.10749382444E+04  0.10566000000E+00 0. -1.
         -4    1    3    3    0  502  0.66508519410E+03  0.61667906464E+02  0.84823438769E+03  0.10796493980E+04  0.00000000000E+00 0. -1.
        -13    1    1    2    0    0 -0.38857139454E+03  0.20352861040E+03  0.98231858700E+03  0.10758073440E+04  0.10566000000E+00 0.  1.
<mgrwt>
<rscale>  1 0.87418115E+03</rscale>
<asrwt>0</asrwt>
<pdfrwt beam="2">  1       21 0.30423069E-01 0.11000946E+04</pdfrwt>
<pdfrwt beam="1">  1       -4 0.46656074E+00 0.11000946E+04</pdfrwt>
<totfact> 0.95263327E-01</totfact>
</mgrwt>
</event>
<event>
 6    2  0.2220137E-005  0.1019050E+04  0.7818608E-02  0.9850588E-01
         -4   -1    0    0    0  501 -0.00000000000E+00  0.00000000000E+00  0.20099650380E+03  0.20099650380E+03  0.00000000000E+00 0. -1.
         21   -1    0    0  501  502  0.00000000000E+00 -0.00000000000E+00 -0.17809090027E+04  0.17809090027E+04  0.00000000000E+00 0. -1.
   -9000010    2    1    2    0  502  0.85885415945E+02  0.11831597325E+03 -0.15052110283E+04  0.18177248283E+04  0.10085079760E+04 0.  0.
         13    1    3    3    0    0 -0.26335133245E+03  0.44502527362E+03 -0.97542091202E+03  0.11040142142E+04  0.10566000000E+00 0. -1.
         -4    1    3    3    0  502  0.34923674839E+03 -0.32670930036E+03 -0.52979011629E+03  0.71371061411E+03  0.00000000000E+00 0. -1.
        -13    1    1    2    0    0 -0.85885415945E+02 -0.11831597325E+03 -0.74701470551E+02  0.16418067811E+03  0.10566000000E+00 0.  1.
<mgrwt>
<rscale>  1 0.62716947E+03</rscale>
<asrwt>0</asrwt>
<pdfrwt beam="2">  1       21 0.27398600E+00 0.10190502E+04</pdfrwt>
<pdfrwt beam="1">  1       -4 0.30922539E-01 0.10190502E+04</pdfrwt>
<totfact> 0.15660214E+01</totfact>
</mgrwt>
</event>
<event>
 6    2  0.2220137E-005  0.1399298E+04  0.7818608E-02  0.9042056E-01
         21   -1    0    0  501  502  0.00000000000E+00  0.00000000000E+00  0.82886722336E+03  0.82886722336E+03  0.00000000000E+00 0.  1.
         -4   -1    0    0    0  501 -0.00000000000E+00 -0.00000000000E+00 -0.18551256090E+04  0.18551256090E+04  0.00000000000E+00 0. -1.
   -9000010    2    1    2    0  502 -0.35956219689E+03 -0.92579794814E+03 -0.94289275955E+03  0.16873300744E+04  0.98572268404E+03 0.  0.
         13    1    3    3    0    0 -0.18383108995E+03 -0.18960728861E+03 -0.89028598967E+03  0.92863014602E+03  0.10566000000E+00 0. -1.
         -4    1    3    3    0  502 -0.17573110694E+03 -0.73619065953E+03 -0.52606769879E+02  0.75869992841E+03  0.00000000000E+00 0. -1.
        -13    1    1    2    0    0  0.35956219689E+03  0.92579794814E+03 -0.83365626046E+02  0.99666275790E+03  0.10566000000E+00 0.  1.
<mgrwt>
<rscale>  1 0.12843658E+04</rscale>
<asrwt>0</asrwt>
<pdfrwt beam="1">  1       21 0.12751804E+00 0.13992984E+04</pdfrwt>
<pdfrwt beam="2">  1       -4 0.28540394E+00 0.13992984E+04</pdfrwt>
<totfact> 0.58878374E-01</totfact>
</mgrwt>
</event>
<event>
 6    2  0.2220137E-005  0.1056149E+04  0.7818608E-02  0.9502782E-01
         21   -1    0    0  501  502  0.00000000000E+00  0.00000000000E+00  0.11663853291E+04  0.11663853291E+04  0.00000000000E+00 0. -1.
         -4   -1    0    0    0  501 -0.00000000000E+00 -0.00000000000E+00 -0.47565601626E+03  0.47565601626E+03  0.00000000000E+00 0. -1.
   -9000010    2    1    2    0  502 -0.27268753000E+03  0.32494730170E+03  0.40781781307E+03  0.11321509986E+04  0.96721314974E+03 0.  0.
         13    1    3    3    0    0 -0.36991639234E+03 -0.15499054160E+03 -0.11358816609E+03  0.41684827930E+03  0.10566000000E+00 0. -1.
         -4    1    3    3    0  502  0.97228862347E+02  0.47993784330E+03  0.52140597917E+03  0.71530271929E+03  0.00000000000E+00 0. -1.
        -13    1    1    2    0    0  0.27268753000E+03 -0.32494730170E+03  0.28291149981E+03  0.50989034683E+03  0.10566000000E+00 0.  1.
<mgrwt>
<rscale>  1 0.84079027E+03</rscale>
<asrwt>0</asrwt>
<pdfrwt beam="1">  1       21 0.17944390E+00 0.10561489E+04</pdfrwt>
<pdfrwt beam="2">  1       -4 0.73177849E-01 0.10561489E+04</pdfrwt>
<totfact> 0.10771844E+01</totfact>
</mgrwt>
</event>
<event>
 6    2  0.2220137E-005  0.8253129E+03  0.7818608E-02  0.1028308E+00
         21   -1    0    0  501  502  0.00000000000E+00  0.00000000000E+00  0.31775086702E+03  0.31775086702E+03  0.00000000000E+00 0. -1.
         -4   -1    0    0    0  501 -0.00000000000E+00 -0.00000000000E+00 -0.63316172619E+03  0.63316172619E+03  0.00000000000E+00 0. -1.
   -9000010    2    1    2    0  502 -0.71634469741E+02  0.26282339164E+01 -0.28666407840E+03  0.87368051802E+03  0.82219398493E+03 0.  0.
         13    1    3    3    0    0  0.35310343369E+02 -0.26758507959E+03 -0.46142962389E+03  0.53457076626E+03  0.10566000000E+00 0. -1.
         -4    1    3    3    0  502 -0.10694481311E+03  0.27021331351E+03  0.17476554549E+03  0.33910975176E+03  0.00000000000E+00 0. -1.
        -13    1    1    2    0    0  0.71634469741E+02 -0.26282339164E+01 -0.28746780771E+02  0.77232075185E+02  0.10566000000E+00 0.  1.
<mgrwt>
<rscale>  1 0.44804086E+03</rscale>
<asrwt>0</asrwt>
<pdfrwt beam="1">  1       21 0.48884749E-01 0.82531288E+03</pdfrwt>
<pdfrwt beam="2">  1       -4 0.97409496E-01 0.82531288E+03</pdfrwt>
<totfact> 0.14195364E+02</totfact>
</mgrwt>
</event>
<event>
 6    2  0.2220137E-005  0.1020611E+04  0.7818608E-02  0.9835510E-01
         21   -1    0    0  501  502  0.00000000000E+00  0.00000000000E+00  0.19932858052E+03  0.19932858052E+03  0.00000000000E+00 0. -1.
         -4   -1    0    0    0  501 -0.00000000000E+00 -0.00000000000E+00 -0.17550310277E+04  0.17550310277E+04  0.00000000000E+00 0. -1.
   -9000010    2    1    2    0  502 -0.32744924567E+02  0.14930453563E+03 -0.14277210283E+04  0.17550023179E+04  0.10090994633E+04 0.  0.
         13    1    3    3    0    0 -0.10005786941E+03 -0.37069664097E+03 -0.23010843990E+03  0.44763543440E+03  0.10566000000E+00 0. -1.
         -4    1    3    3    0  502  0.67312944848E+02  0.52000117660E+03 -0.11976125884E+04  0.13073668835E+04  0.00000000000E+00 0. -1.
        -13    1    1    2    0    0  0.32744924567E+02 -0.14930453563E+03 -0.12798141880E+03  0.19935729023E+03  0.10566000000E+00 0.  1.
<mgrwt>
<rscale>  1 0.63491221E+03</rscale>
<asrwt>0</asrwt>
<pdfrwt beam="1">  1       21 0.30665937E-01 0.10206105E+04</pdfrwt>
<pdfrwt beam="2">  1       -4 0.27000476E+00 0.10206105E+04</pdfrwt>
<totfact> 0.19835091E+01</totfact>
</mgrwt>
</event>
<event>
 6    2  0.2220137E-005  0.1002646E+04  0.7818608E-02  0.1056322E+00
         21   -1    0    0  501  502  0.00000000000E+00  0.00000000000E+00  0.52718985330E+03  0.52718985330E+03  0.00000000000E+00 0. -1.
         -4   -1    0    0    0  501 -0.00000000000E+00 -0.00000000000E+00 -0.57935342029E+03  0.57935342029E+03  0.00000000000E+00 0. -1.
   -9000010    2    1    2    0  502  0.12400922121E+01 -0.17714230583E+02  0.48990821666E+02  0.10038419917E+04  0.10024885595E+04 0.  0.
         13    1    3    3    0    0  0.24420765915E+03 -0.66303188354E+02 -0.41025389413E+03  0.48201842536E+03  0.10566000000E+00 0. -1.
         -4    1    3    3    0  502 -0.24296756693E+03  0.48588957771E+02  0.45924471580E+03  0.52182356634E+03  0.00000000000E+00 0. -1.
        -13    1    1    2    0    0 -0.12400922121E+01  0.17714230583E+02 -0.10115438866E+03  0.10270128189E+03  0.10566000000E+00 0.  1.
<mgrwt>
<rscale>  1 0.36577040E+03</rscale>
<asrwt>0</asrwt>
<pdfrwt beam="1">  1       21 0.81106131E-01 0.10026458E+04</pdfrwt>
<pdfrwt beam="2">  1       -4 0.89131296E-01 0.10026458E+04</pdfrwt>
<totfact> 0.55426597E+01</totfact>
</mgrwt>
</event>
<event>
 6    2  0.2220137E-005  0.9045824E+03  0.7818608E-02  0.9782777E-01
         21   -1    0    0  501  502  0.00000000000E+00  0.00000000000E+00  0.42385509855E+03  0.42385509855E+03  0.00000000000E+00 0. -1.
         -4   -1    0    0    0  501 -0.00000000000E+00 -0.00000000000E+00 -0.80943974795E+03  0.80943974795E+03  0.00000000000E+00 0. -1.
   -9000010    2    1    2    0  502 -0.22557839555E+03 -0.13121141567E+03 -0.34992698134E+03  0.96990629588E+03  0.86612197892E+03 0.  0.
         13    1    3    3    0    0 -0.54956827504E+03 -0.17142144548E+03 -0.18892930212E+03  0.60589181647E+03  0.10566000000E+00 0. -1.
         -4    1    3    3    0  502  0.32398987948E+03  0.40210029816E+02 -0.16099767922E+03  0.36401447941E+03  0.00000000000E+00 0. -1.
        -13    1    1    2    0    0  0.22557839555E+03  0.13121141567E+03 -0.35657668053E+02  0.26338855062E+03  0.10566000000E+00 0.  1.
<mgrwt>
<rscale>  1 0.66295063E+03</rscale>
<asrwt>0</asrwt>
<pdfrwt beam="1">  1       21 0.65208477E-01 0.90458241E+03</pdfrwt>
<pdfrwt beam="2">  1       -4 0.12452919E+00 0.90458241E+03</pdfrwt>
<totfact> 0.40907497E+01</totfact>
</mgrwt>
</event>
<event>
 6    2  0.2220137E-005  0.9833877E+03  0.7818608E-02  0.9940752E-01
         21   -1    0    0  501  502  0.00000000000E+00  0.00000000000E+00  0.51570456402E+03  0.51570456402E+03  0.00000000000E+00 0. -1.
         -4   -1    0    0    0  501 -0.00000000000E+00 -0.00000000000E+00 -0.59231079027E+03  0.59231079027E+03  0.00000000000E+00 0. -1.
   -9000010    2    1    2    0  502 -0.67112776149E+02 -0.10151931232E+03 -0.75946077271E+02  0.98631596047E+03  0.97582840281E+03 0.  0.
         13    1    3    3    0    0  0.35528581227E+03 -0.33220170441E+03  0.49607233002E+02  0.48892419612E+03  0.10566000000E+00 0. -1.
         -4    1    3    3    0  502 -0.42239858842E+03  0.23068239210E+03 -0.12555331027E+03  0.49739176435E+03  0.00000000000E+00 0. -1.
        -13    1    1    2    0    0  0.67112776149E+02  0.10151931232E+03 -0.66014897754E+00  0.12169939382E+03  0.10566000000E+00 0.  1.
<mgrwt>
<rscale>  1 0.58326261E+03</rscale>
<asrwt>0</asrwt>
<pdfrwt beam="1">  1       21 0.79339164E-01 0.98338770E+03</pdfrwt>
<pdfrwt beam="2">  1       -4 0.91124737E-01 0.98338770E+03</pdfrwt>
<totfact> 0.55499786E+01</totfact>
</mgrwt>
</event>
<event>
 6    2  0.2220137E-005  0.9931266E+03  0.7818608E-02  0.9882579E-01
         21   -1    0    0  501  502  0.00000000000E+00  0.00000000000E+00  0.11731940566E+04  0.11731940566E+04  0.00000000000E+00 0. -1.
         -4   -1    0    0    0  501 -0.00000000000E+00 -0.00000000000E+00 -0.31865560831E+03  0.31865560831E+03  0.00000000000E+00 0. -1.
   -9000010    2    1    2    0  502 -0.10874426376E+03 -0.91943428453E+02  0.90214103457E+03  0.13416999851E+04  0.98286392493E+03 0.  0.
         13    1    3    3    0    0  0.12037445883E+03  0.36831046005E+03  0.67783390001E+03  0.78076975639E+03  0.10566000000E+00 0. -1.
         -4    1    3    3    0  502 -0.22911872259E+03 -0.46025388850E+03  0.22430713456E+03  0.56093022876E+03  0.00000000000E+00 0. -1.
        -13    1    1    2    0    0  0.10874426376E+03  0.91943428453E+02 -0.47602586309E+02  0.15014967973E+03  0.10566000000E+00 0.  1.
<mgrwt>
<rscale>  1 0.61113064E+03</rscale>
<asrwt>0</asrwt>
<pdfrwt beam="1">  1       21 0.18049139E+00 0.99312658E+03</pdfrwt>
<pdfrwt beam="2">  1       -4 0.49023940E-01 0.99312658E+03</pdfrwt>
<totfact> 0.25530023E+01</totfact>
</mgrwt>
</event>
<event>
 6    2  0.2220137E-005  0.1159458E+04  0.7818608E-02  0.9315246E-01
         21   -1    0    0  501  502  0.00000000000E+00  0.00000000000E+00  0.96956864212E+03  0.96956864212E+03  0.00000000000E+00 0.  1.
         -4   -1    0    0    0  501 -0.00000000000E+00 -0.00000000000E+00 -0.85010669480E+03  0.85010669480E+03  0.00000000000E+00 0. -1.
   -9000010    2    1    2    0  502  0.62503714817E+03 -0.36078557521E+02 -0.81011309270E+02  0.11622845577E+04  0.97589418577E+03 0.  0.
         13    1    3    3    0    0  0.66546157959E+03  0.29029959702E+03 -0.27971547937E+03  0.77804481266E+03  0.10566000000E+00 0. -1.
         -4    1    3    3    0  502 -0.40424431415E+02 -0.32637815454E+03  0.19870417010E+03  0.38423974499E+03  0.00000000000E+00 0. -1.
        -13    1    1    2    0    0 -0.62503714817E+03  0.36078557521E+02  0.20047325659E+03  0.65739077928E+03  0.10566000000E+00 0.  1.
<mgrwt>
<rscale>  1 0.99391288E+03</rscale>
<asrwt>0</asrwt>
<pdfrwt beam="1">  1       21 0.14916441E+00 0.11594579E+04</pdfrwt>
<pdfrwt beam="2">  1       -4 0.13078564E+00 0.11594579E+04</pdfrwt>
<totfact> 0.44903870E+00</totfact>
</mgrwt>
</event>
<event>
 6    2  0.2220137E-005  0.1004782E+04  0.7818608E-02  0.9927962E-01
         21   -1    0    0  501  502  0.00000000000E+00  0.00000000000E+00  0.31158089572E+03  0.31158089572E+03  0.00000000000E+00 0. -1.
         -4   -1    0    0    0  501 -0.00000000000E+00 -0.00000000000E+00 -0.10130154821E+04  0.10130154821E+04  0.00000000000E+00 0. -1.
   -9000010    2    1    2    0  502  0.72554454995E+02 -0.94128529436E+02 -0.62647243166E+03  0.11840842261E+04  0.99772913046E+03 0.  0.
         13    1    3    3    0    0 -0.18852093263E+03 -0.40706668471E+02  0.22239240008E+03  0.29437317418E+03  0.10566000000E+00 0. -1.
         -4    1    3    3    0  502  0.26107538763E+03 -0.53421860965E+02 -0.84886483174E+03  0.88971105187E+03  0.00000000000E+00 0. -1.
        -13    1    1    2    0    0 -0.72554454995E+02  0.94128529436E+02 -0.74962154765E+02  0.14051215180E+03  0.10566000000E+00 0.  1.
<mgrwt>
<rscale>  1 0.58925062E+03</rscale>
<asrwt>0</asrwt>
<pdfrwt beam="1">  1       21 0.47935522E-01 0.10047824E+04</pdfrwt>
<pdfrwt beam="2">  1       -4 0.15584854E+00 0.10047824E+04</pdfrwt>
<totfact> 0.44323186E+01</totfact>
</mgrwt>
</event>
<event>
 6    2  0.2220137E-005  0.1019391E+04  0.7818608E-02  0.9818383E-01
         -4   -1    0    0    0  501 -0.00000000000E+00  0.00000000000E+00  0.32823833579E+03  0.32823833579E+03  0.00000000000E+00 0. -1.
         21   -1    0    0  501  502  0.00000000000E+00 -0.00000000000E+00 -0.12862596914E+04  0.12862596914E+04  0.00000000000E+00 0. -1.
   -9000010    2    1    2    0  502 -0.75799385470E+02 -0.14342939833E+03 -0.10188382943E+04  0.14412460421E+04  0.10064000918E+04 0.  0.
         13    1    3    3    0    0  0.39057227744E+03  0.19110220538E+02 -0.10890754838E+03  0.40592212270E+03  0.10566000000E+00 0. -1.
         -4    1    3    3    0  502 -0.46637166291E+03 -0.16253961887E+03 -0.90993074594E+03  0.10353239194E+04  0.00000000000E+00 0. -1.
        -13    1    1    2    0    0  0.75799385470E+02  0.14342939833E+03  0.60816938707E+02  0.17325198510E+03  0.10566000000E+00 0.  1.
<mgrwt>
<rscale>  1 0.64385250E+03</rscale>
<asrwt>0</asrwt>
<pdfrwt beam="2">  1       21 0.19788611E+00 0.10193913E+04</pdfrwt>
<pdfrwt beam="1">  1       -4 0.50498205E-01 0.10193913E+04</pdfrwt>
<totfact> 0.18011246E+01</totfact>
</mgrwt>
</event>
<event>
 6    2  0.2220137E-005  0.9748607E+03  0.7818608E-02  0.1003215E+00
         21   -1    0    0  501  502  0.00000000000E+00  0.00000000000E+00  0.51514938497E+03  0.51514938497E+03  0.00000000000E+00 0. -1.
         -4   -1    0    0    0  501 -0.00000000000E+00 -0.00000000000E+00 -0.55744282206E+03  0.55744282206E+03  0.00000000000E+00 0. -1.
   -9000010    2    1    2    0  502  0.62286133433E+02 -0.69839205499E+02 -0.14484587754E+02  0.97496833542E+03  0.97035888967E+03 0.  0.
         13    1    3    3    0    0  0.15416471676E+03  0.29376576197E+03  0.32840337116E+03  0.46681245500E+03  0.10566000000E+00 0. -1.
         -4    1    3    3    0  502 -0.91878583323E+02 -0.36360496746E+03 -0.34288795891E+03  0.50815588042E+03  0.00000000000E+00 0. -1.
        -13    1    1    2    0    0 -0.62286133433E+02  0.69839205499E+02 -0.27808849332E+02  0.97623871609E+02  0.10566000000E+00 0.  1.
<mgrwt>
<rscale>  1 0.54262762E+03</rscale>
<asrwt>0</asrwt>
<pdfrwt beam="1">  1       21 0.79253752E-01 0.97486073E+03</pdfrwt>
<pdfrwt beam="2">  1       -4 0.85760434E-01 0.97486073E+03</pdfrwt>
<totfact> 0.64182596E+01</totfact>
</mgrwt>
</event>
<event>
 6    2  0.2220137E-005  0.9273693E+03  0.7818608E-02  0.9778411E-01
         21   -1    0    0  501  502  0.00000000000E+00  0.00000000000E+00  0.45252463249E+03  0.45252463249E+03  0.00000000000E+00 0. -1.
         -4   -1    0    0    0  501 -0.00000000000E+00 -0.00000000000E+00 -0.14212946927E+04  0.14212946927E+04  0.00000000000E+00 0. -1.
   -9000010    2    1    2    0  502  0.23841459760E+03 -0.59422846911E+02 -0.56554734259E+02  0.92909216503E+03  0.89422660331E+03 0.  0.
         13    1    3    3    0    0 -0.34108808614E+03  0.34655410222E+00  0.19104929715E+02  0.34162290923E+03  0.10566000000E+00 0. -1.
         -4    1    3    3    0  502  0.57950268374E+03 -0.59769401014E+02 -0.75659663974E+02  0.58746925580E+03  0.00000000000E+00 0. -1.
        -13    1    1    2    0    0 -0.23841459760E+03  0.59422846911E+02 -0.91221532598E+03  0.94472716019E+03  0.10566000000E+00 0.  1.
<mgrwt>
<rscale>  1 0.66534137E+03</rscale>
<asrwt>0</asrwt>
<pdfrwt beam="1">  1       21 0.69619175E-01 0.92736930E+03</pdfrwt>
<pdfrwt beam="2">  1       -4 0.21866072E+00 0.92736930E+03</pdfrwt>
<totfact> 0.72335532E+00</totfact>
</mgrwt>
</event>
<event>
 6    2  0.2220137E-005  0.1030486E+04  0.7818608E-02  0.9620233E-01
         21   -1    0    0  501  502  0.00000000000E+00  0.00000000000E+00  0.41919928829E+03  0.41919928829E+03  0.00000000000E+00 0. -1.
         -4   -1    0    0    0  501 -0.00000000000E+00 -0.00000000000E+00 -0.11491796899E+04  0.11491796899E+04  0.00000000000E+00 0. -1.
   -9000010    2    1    2    0  502 -0.65431690142E+02 -0.29730553108E+03 -0.36525402974E+03  0.10933029607E+04  0.98449427259E+03 0.  0.
         13    1    3    3    0    0 -0.51745682508E+03 -0.66075151306E+02 -0.15992420501E+03  0.54562189652E+03  0.10566000000E+00 0. -1.
         -4    1    3    3    0  502  0.45202513494E+03 -0.23123037977E+03 -0.20532982472E+03  0.54768106419E+03  0.00000000000E+00 0. -1.
        -13    1    1    2    0    0  0.65431690142E+02  0.29730553108E+03 -0.36472637184E+03  0.47507601746E+03  0.10566000000E+00 0.  1.
<mgrwt>
<rscale>  1 0.75971377E+03</rscale>
<asrwt>0</asrwt>
<pdfrwt beam="1">  1       21 0.64492199E-01 0.10304857E+04</pdfrwt>
<pdfrwt beam="2">  1       -4 0.17679687E+00 0.10304857E+04</pdfrwt>
<totfact> 0.16175960E+01</totfact>
</mgrwt>
</event>
<event>
 6    2  0.2220137E-005  0.1153879E+04  0.7818608E-02  0.9354463E-01
         21   -1    0    0  501  502  0.00000000000E+00  0.00000000000E+00  0.61369736380E+03  0.61369736380E+03  0.00000000000E+00 0. -1.
         -4   -1    0    0    0  501 -0.00000000000E+00 -0.00000000000E+00 -0.16728860273E+04  0.16728860273E+04  0.00000000000E+00 0. -1.
   -9000010    2    1    2    0  502 -0.43434639564E+03 -0.33903739854E+03 -0.72111653905E+02  0.11561303036E+04  0.10138215027E+04 0.  0.
         13    1    3    3    0    0  0.22730770000E+03 -0.42910566075E+03 -0.47665504797E+02  0.48792670564E+03  0.10566000000E+00 0. -1.
         -4    1    3    3    0  502 -0.66165409564E+03  0.90068262208E+02 -0.24446149108E+02  0.66820359797E+03  0.00000000000E+00 0. -1.
        -13    1    1    2    0    0  0.43434639564E+03  0.33903739854E+03 -0.98707700956E+03  0.11304530875E+04  0.10566000000E+00 0.  1.
<mgrwt>
<rscale>  1 0.95919861E+03</rscale>
<asrwt>0</asrwt>
<pdfrwt beam="1">  1       21 0.94414979E-01 0.11538792E+04</pdfrwt>
<pdfrwt beam="2">  1       -4 0.25736708E+00 0.11538792E+04</pdfrwt>
<totfact> 0.19543048E+00</totfact>
</mgrwt>
</event>
<event>
 6    2  0.2220137E-005  0.9858851E+03  0.7818608E-02  0.1015558E+00
         -4   -1    0    0    0  501 -0.00000000000E+00  0.00000000000E+00  0.25469060358E+03  0.25469060358E+03  0.00000000000E+00 0. -1.
         21   -1    0    0  501  502  0.00000000000E+00 -0.00000000000E+00 -0.11114657812E+04  0.11114657812E+04  0.00000000000E+00 0. -1.
   -9000010    2    1    2    0  502  0.43476852547E+02 -0.43876216235E+02 -0.85398696906E+03  0.13043248044E+04  0.98394821659E+03 0.  0.
         13    1    3    3    0    0  0.40961071199E+03 -0.31043690637E+03 -0.58023358496E+03  0.77512775237E+03  0.10566000000E+00 0. -1.
         -4    1    3    3    0  502 -0.36613385944E+03  0.26656069013E+03 -0.27375338410E+03  0.52919705201E+03  0.00000000000E+00 0. -1.
        -13    1    1    2    0    0 -0.43476852547E+02  0.43876216235E+02 -0.27882085057E+01  0.61831580355E+02  0.10566000000E+00 0.  1.
<mgrwt>
<rscale>  1 0.49324401E+03</rscale>
<asrwt>0</asrwt>
<pdfrwt beam="2">  1       21 0.17099474E+00 0.98588511E+03</pdfrwt>
<pdfrwt beam="1">  1       -4 0.39183170E-01 0.98588511E+03</pdfrwt>
<totfact> 0.47682979E+01</totfact>
</mgrwt>
</event>
<event>
 6    2  0.2220137E-005  0.1090764E+04  0.7818608E-02  0.9465478E-01
         21   -1    0    0  501  502  0.00000000000E+00  0.00000000000E+00  0.24369516534E+03  0.24369516534E+03  0.00000000000E+00 0. -1.
         -4   -1    0    0    0  501 -0.00000000000E+00 -0.00000000000E+00 -0.24826992459E+04  0.24826992459E+04  0.00000000000E+00 0. -1.
   -9000010    2    1    2    0  502  0.96178483325E+02  0.42830759462E+03 -0.13556992569E+04  0.17400247448E+04  0.99853289431E+03 0.  0.
         13    1    3    3    0    0  0.12276589309E+03  0.71904966632E+03 -0.65279848155E+03  0.97890232189E+03  0.10566000000E+00 0. -1.
         -4    1    3    3    0  502 -0.26587409768E+02 -0.29074207170E+03 -0.70290077539E+03  0.76112242292E+03  0.00000000000E+00 0. -1.
        -13    1    1    2    0    0 -0.96178483325E+02 -0.42830759462E+03 -0.88330482357E+03  0.98636966638E+03  0.10566000000E+00 0.  1.
<mgrwt>
<rscale>  1 0.86877557E+03</rscale>
<asrwt>0</asrwt>
<pdfrwt beam="1">  1       21 0.37491567E-01 0.10907638E+04</pdfrwt>
<pdfrwt beam="2">  1       -4 0.38195370E+00 0.10907638E+04</pdfrwt>
<totfact> 0.25234076E+00</totfact>
</mgrwt>
</event>
<event>
 6    2  0.2220137E-005  0.1101619E+04  0.7818608E-02  0.9435653E-01
         -4   -1    0    0    0  501 -0.00000000000E+00  0.00000000000E+00  0.43439191193E+03  0.43439191193E+03  0.00000000000E+00 0. -1.
         21   -1    0    0  501  502  0.00000000000E+00 -0.00000000000E+00 -0.14300657830E+04  0.14300657830E+04  0.00000000000E+00 0.  1.
   -9000010    2    1    2    0  502 -0.36434901377E+03  0.30244823634E+03 -0.72931521034E+03  0.13211602747E+04  0.99465504371E+03 0.  0.
         13    1    3    3    0    0  0.19293816003E+03 -0.24728044920E+03 -0.26796862032E+03  0.41252872239E+03  0.10566000000E+00 0. -1.
         -4    1    3    3    0  502 -0.55728717380E+03  0.54972868554E+03 -0.46134659001E+03  0.90863155233E+03  0.00000000000E+00 0. -1.
        -13    1    1    2    0    0  0.36434901377E+03 -0.30244823634E+03 -0.26635866072E+03  0.54329742021E+03  0.10566000000E+00 0.  1.
<mgrwt>
<rscale>  1 0.89198802E+03</rscale>
<asrwt>0</asrwt>
<pdfrwt beam="2">  1       21 0.22001012E+00 0.11016187E+04</pdfrwt>
<pdfrwt beam="1">  1       -4 0.66829526E-01 0.11016187E+04</pdfrwt>
<totfact> 0.68786750E+00</totfact>
</mgrwt>
</event>
<event>
 6    2  0.2220137E-005  0.1062735E+04  0.7818608E-02  0.9555549E-01
         21   -1    0    0  501  502  0.00000000000E+00  0.00000000000E+00  0.11757228762E+04  0.11757228762E+04  0.00000000000E+00 0. -1.
         -4   -1    0    0    0  501 -0.00000000000E+00 -0.00000000000E+00 -0.47048311469E+03  0.47048311469E+03  0.00000000000E+00 0. -1.
   -9000010    2    1    2    0  502 -0.48567122509E+02  0.34314982812E+03  0.74428157289E+03  0.12974441178E+04  0.10046370535E+04 0.  0.
         13    1    3    3    0    0  0.41805321608E+03  0.23027002004E+03  0.89616036457E+02  0.48561694653E+03  0.10566000000E+00 0. -1.
         -4    1    3    3    0  502 -0.46662033859E+03  0.11287980808E+03  0.65466553643E+03  0.81182717129E+03  0.00000000000E+00 0. -1.
        -13    1    1    2    0    0  0.48567122509E+02 -0.34314982812E+03 -0.39041811354E+02  0.34876187310E+03  0.10566000000E+00 0.  1.
<mgrwt>
<rscale>  1 0.80309416E+03</rscale>
<asrwt>0</asrwt>
<pdfrwt beam="1">  1       21 0.18088044E+00 0.10627352E+04</pdfrwt>
<pdfrwt beam="2">  1       -4 0.72382018E-01 0.10627352E+04</pdfrwt>
<totfact> 0.10770452E+01</totfact>
</mgrwt>
</event>
<event>
 6    2  0.2220137E-005  0.1051099E+04  0.7818608E-02  0.9576625E-01
         -4   -1    0    0    0  501 -0.00000000000E+00  0.00000000000E+00  0.75224220862E+03  0.75224220862E+03  0.00000000000E+00 0. -1.
         21   -1    0    0  501  502  0.00000000000E+00 -0.00000000000E+00 -0.67982663650E+03  0.67982663650E+03  0.00000000000E+00 0. -1.
   -9000010    2    1    2    0  502  0.70958917418E+02  0.32544099895E+03  0.20967623191E+03  0.10718085064E+04  0.99692644684E+03 0.  0.
         13    1    3    3    0    0  0.12101435309E+03 -0.35128446817E+03  0.52110102647E+02  0.37518092328E+03  0.10566000000E+00 0. -1.
         -4    1    3    3    0  502 -0.50055435676E+02  0.67672546711E+03  0.15756612926E+03  0.69662758313E+03  0.00000000000E+00 0. -1.
        -13    1    1    2    0    0 -0.70958917418E+02 -0.32544099895E+03 -0.13726065979E+03  0.36026033871E+03  0.10566000000E+00 0.  1.
<mgrwt>
<rscale>  1 0.78862813E+03</rscale>
<asrwt>0</asrwt>
<pdfrwt beam="2">  1       21 0.10458871E+00 0.10510991E+04</pdfrwt>
<pdfrwt beam="1">  1       -4 0.11572957E+00 0.10510991E+04</pdfrwt>
<totfact> 0.15808205E+01</totfact>
</mgrwt>
</event>
<event>
 6    2  0.2220137E-005  0.1046687E+04  0.7818608E-02  0.9721023E-01
         -4   -1    0    0    0  501 -0.00000000000E+00  0.00000000000E+00  0.45214093847E+03  0.45214093847E+03  0.00000000000E+00 0. -1.
         21   -1    0    0  501  502  0.00000000000E+00 -0.00000000000E+00 -0.11903888925E+04  0.11903888925E+04  0.00000000000E+00 0. -1.
   -9000010    2    1    2    0  502  0.10976560073E+03  0.17520440249E+03 -0.89969022168E+03  0.13802157316E+04  0.10260642772E+04 0.  0.
         13    1    3    3    0    0 -0.25314973834E+03 -0.32491976867E+03 -0.24174985159E+03  0.47759883585E+03  0.10566000000E+00 0. -1.
         -4    1    3    3    0  502  0.36291533908E+03  0.50012417116E+03 -0.65794037008E+03  0.90261689575E+03  0.00000000000E+00 0. -1.
        -13    1    1    2    0    0 -0.10976560073E+03 -0.17520440249E+03  0.16144226767E+03  0.26231409934E+03  0.10566000000E+00 0.  1.
<mgrwt>
<rscale>  1 0.69778766E+03</rscale>
<asrwt>0</asrwt>
<pdfrwt beam="2">  1       21 0.18313675E+00 0.10466867E+04</pdfrwt>
<pdfrwt beam="1">  1       -4 0.69560144E-01 0.10466867E+04</pdfrwt>
<totfact> 0.11365073E+01</totfact>
</mgrwt>
</event>
<event>
 6    2  0.2220137E-005  0.1013674E+04  0.7818608E-02  0.9812369E-01
         21   -1    0    0  501  502  0.00000000000E+00  0.00000000000E+00  0.54308619239E+03  0.54308619239E+03  0.00000000000E+00 0. -1.
         -4   -1    0    0    0  501 -0.00000000000E+00 -0.00000000000E+00 -0.65462391030E+03  0.65462391030E+03  0.00000000000E+00 0. -1.
   -9000010    2    1    2    0  502 -0.27360391441E+02 -0.16602860273E+03 -0.38861965154E+02  0.10144183567E+04  0.99961005505E+03 0.  0.
         13    1    3    3    0    0 -0.49955926141E+03 -0.92549333300E+02  0.97783386116E+02  0.51738422523E+03  0.10566000000E+00 0. -1.
         -4    1    3    3    0  502  0.47219886997E+03 -0.73479269429E+02 -0.13664535127E+03  0.49703413148E+03  0.00000000000E+00 0. -1.
        -13    1    1    2    0    0  0.27360391441E+02  0.16602860273E+03 -0.72675752747E+02  0.18329174598E+03  0.10566000000E+00 0.  1.
<mgrwt>
<rscale>  1 0.64702934E+03</rscale>
<asrwt>0</asrwt>
<pdfrwt beam="1">  1       21 0.83551722E-01 0.10136737E+04</pdfrwt>
<pdfrwt beam="2">  1       -4 0.10071137E+00 0.10136737E+04</pdfrwt>
<totfact> 0.38595523E+01</totfact>
</mgrwt>
</event>
<event>
 6    2  0.2220137E-005  0.1037514E+04  0.7818608E-02  0.9594576E-01
         -4   -1    0    0    0  501 -0.00000000000E+00  0.00000000000E+00  0.30837649462E+03  0.30837649462E+03  0.00000000000E+00 0. -1.
         21   -1    0    0  501  502  0.00000000000E+00 -0.00000000000E+00 -0.25823346376E+04  0.25823346376E+04  0.00000000000E+00 0. -1.
   -9000010    2    1    2    0  502 -0.23913450503E+03 -0.22101743187E+03 -0.23388827116E+04  0.25586731412E+04  0.98508978672E+03 0.  0.
         13    1    3    3    0    0 -0.62472552865E+03 -0.16077166888E+03 -0.13759963609E+04  0.15197024420E+04  0.10566000000E+00 0. -1.
         -4    1    3    3    0  502  0.38559102361E+03 -0.60245762992E+02 -0.96288635072E+03  0.10389706992E+04  0.00000000000E+00 0. -1.
        -13    1    1    2    0    0  0.23913450503E+03  0.22101743187E+03  0.64924568686E+02  0.33203799101E+03  0.10566000000E+00 0.  1.
<mgrwt>
<rscale>  1 0.77656216E+03</rscale>
<asrwt>0</asrwt>
<pdfrwt beam="2">  1       21 0.39728224E+00 0.10375143E+04</pdfrwt>
<pdfrwt beam="1">  1       -4 0.47442539E-01 0.10375143E+04</pdfrwt>
<totfact> 0.10899604E+00</totfact>
</mgrwt>
</event>
<event>
 6    2  0.2220137E-005  0.1048983E+04  0.7818608E-02  0.9608665E-01
         -4   -1    0    0    0  501 -0.00000000000E+00  0.00000000000E+00  0.55186067680E+03  0.55186067680E+03  0.00000000000E+00 0. -1.
         21   -1    0    0  501  502  0.00000000000E+00 -0.00000000000E+00 -0.86276758368E+03  0.86276758368E+03  0.00000000000E+00 0. -1.
   -9000010    2    1    2    0  502 -0.28644193700E+03  0.89928343071E+02 -0.36279876705E+03  0.11099499605E+04  0.10051019248E+04 0.  0.
         13    1    3    3    0    0 -0.15491422040E+03  0.47857346438E+03 -0.46726434384E+03  0.68656169037E+03  0.10566000000E+00 0. -1.
         -4    1    3    3    0  502 -0.13152771660E+03 -0.38864512131E+03  0.10446557680E+03  0.42338827013E+03  0.00000000000E+00 0. -1.
        -13    1    1    2    0    0  0.28644193700E+03 -0.89928343071E+02  0.51891860165E+02  0.30467829998E+03  0.10566000000E+00 0.  1.
<mgrwt>
<rscale>  1 0.76725332E+03</rscale>
<asrwt>0</asrwt>
<pdfrwt beam="2">  1       21 0.13273347E+00 0.10489833E+04</pdfrwt>
<pdfrwt beam="1">  1       -4 0.84901643E-01 0.10489833E+04</pdfrwt>
<totfact> 0.17994710E+01</totfact>
</mgrwt>
</event>
<event>
 6    2  0.2220137E-005  0.1006597E+04  0.7818608E-02  0.9638956E-01
         21   -1    0    0  501  502  0.00000000000E+00  0.00000000000E+00  0.15249721145E+04  0.15249721145E+04  0.00000000000E+00 0. -1.
         -4   -1    0    0    0  501 -0.00000000000E+00 -0.00000000000E+00 -0.28337369612E+03  0.28337369612E+03  0.00000000000E+00 0. -1.
   -9000010    2    1    2    0  502  0.19819384961E+03  0.23372922623E+03  0.98985165520E+03  0.14117520674E+04  0.95881564826E+03 0.  0.
         13    1    3    3    0    0  0.53072844575E+03  0.36341362411E+03  0.71122952031E+03  0.95895233825E+03  0.10566000000E+00 0. -1.
         -4    1    3    3    0  502 -0.33253459614E+03 -0.12968439787E+03  0.27862213489E+03  0.45279972917E+03  0.00000000000E+00 0. -1.
        -13    1    1    2    0    0 -0.19819384961E+03 -0.23372922623E+03  0.25174676321E+03  0.39659374323E+03  0.10566000000E+00 0.  1.
<mgrwt>
<rscale>  1 0.74770591E+03</rscale>
<asrwt>0</asrwt>
<pdfrwt beam="1">  1       21 0.23461109E+00 0.10065970E+04</pdfrwt>
<pdfrwt beam="2">  1       -4 0.43595954E-01 0.10065970E+04</pdfrwt>
<totfact> 0.13959518E+01</totfact>
</mgrwt>
</event>
<event>
 6    2  0.2220137E-005  0.1039920E+04  0.7818608E-02  0.9623205E-01
         -4   -1    0    0    0  501 -0.00000000000E+00  0.00000000000E+00  0.71467681658E+03  0.71467681658E+03  0.00000000000E+00 0. -1.
         21   -1    0    0  501  502  0.00000000000E+00 -0.00000000000E+00 -0.62805436536E+03  0.62805436536E+03  0.00000000000E+00 0. -1.
   -9000010    2    1    2    0  502  0.28726352034E+03  0.58819984327E+02  0.11274424964E+02  0.10399813563E+04  0.99772440493E+03 0.  0.
         13    1    3    3    0    0 -0.37108784986E+03 -0.43321490873E+02 -0.23087969870E+01  0.37361515707E+03  0.10566000000E+00 0. -1.
         -4    1    3    3    0  502  0.65835137020E+03  0.10214147520E+03  0.13583221951E+02  0.66636619926E+03  0.00000000000E+00 0. -1.
        -13    1    1    2    0    0 -0.28726352034E+03 -0.58819984327E+02  0.75348026257E+02  0.30274982560E+03  0.10566000000E+00 0.  1.
<mgrwt>
<rscale>  1 0.75779160E+03</rscale>
<asrwt>0</asrwt>
<pdfrwt beam="2">  1       21 0.96623748E-01 0.10399202E+04</pdfrwt>
<pdfrwt beam="1">  1       -4 0.10995028E+00 0.10399202E+04</pdfrwt>
<totfact> 0.21872867E+01</totfact>
</mgrwt>
</event>
<event>
 6    2  0.2220137E-005  0.1191572E+04  0.7818608E-02  0.9949267E-01
         21   -1    0    0  501  502  0.00000000000E+00  0.00000000000E+00  0.29512770880E+03  0.29512770880E+03  0.00000000000E+00 0. -1.
         -4   -1    0    0    0  501 -0.00000000000E+00 -0.00000000000E+00 -0.13620467800E+04  0.13620467800E+04  0.00000000000E+00 0. -1.
   -9000010    2    1    2    0  502  0.27648949858E+00  0.66574061438E+02 -0.10507012309E+04  0.15886528746E+04  0.11897111823E+04 0.  0.
         13    1    3    3    0    0 -0.46317990489E+03  0.37069885149E+03 -0.75558864537E+03  0.96065991640E+03  0.10566000000E+00 0. -1.
         -4    1    3    3    0  502  0.46345639439E+03 -0.30412479005E+03 -0.29511258551E+03  0.62799295820E+03  0.00000000000E+00 0. -1.
        -13    1    1    2    0    0 -0.27648949858E+00 -0.66574061438E+02 -0.16217840319E+02  0.68521614192E+02  0.10566000000E+00 0.  1.
<mgrwt>
<rscale>  1 0.57931894E+03</rscale>
<asrwt>0</asrwt>
<pdfrwt beam="1">  1       21 0.45404263E-01 0.11915724E+04</pdfrwt>
<pdfrwt beam="2">  1       -4 0.20954566E+00 0.11915724E+04</pdfrwt>
<totfact> 0.20686251E+01</totfact>
</mgrwt>
</event>
<event>
 6    2  0.2220137E-005  0.1054141E+04  0.7818608E-02  0.9558993E-01
         -4   -1    0    0    0  501 -0.00000000000E+00  0.00000000000E+00  0.10490437332E+04  0.10490437332E+04  0.00000000000E+00 0. -1.
         21   -1    0    0  501  502  0.00000000000E+00 -0.00000000000E+00 -0.56337298039E+03  0.56337298039E+03  0.00000000000E+00 0. -1.
   -9000010    2    1    2    0  502  0.23231556678E+03 -0.26300251191E+03  0.53194710491E+02  0.10554819040E+04  0.99401787132E+03 0.  0.
         13    1    3    3    0    0 -0.27346996336E+03 -0.16413586972E+03 -0.29424670964E+03  0.43394416909E+03  0.10566000000E+00 0. -1.
         -4    1    3    3    0  502  0.50578553014E+03 -0.98866642189E+02  0.34744142014E+03  0.62153773486E+03  0.00000000000E+00 0. -1.
        -13    1    1    2    0    0 -0.23231556678E+03  0.26300251191E+03  0.43247604233E+03  0.55693480964E+03  0.10566000000E+00 0.  1.
<mgrwt>
<rscale>  1 0.80070801E+03</rscale>
<asrwt>0</asrwt>
<pdfrwt beam="2">  1       21 0.86672766E-01 0.10541406E+04</pdfrwt>
<pdfrwt beam="1">  1       -4 0.16139134E+00 0.10541406E+04</pdfrwt>
<totfact> 0.10491694E+01</totfact>
</mgrwt>
</event>
<event>
 6    2  0.2220137E-005  0.1518106E+04  0.7818608E-02  0.8943308E-01
         21   -1    0    0  501  502  0.00000000000E+00  0.00000000000E+00  0.12614731025E+04  0.12614731025E+04  0.00000000000E+00 0.  1.
         -4   -1    0    0    0  501 -0.00000000000E+00 -0.00000000000E+00 -0.16266425146E+04  0.16266425146E+04  0.00000000000E+00 0. -1.
   -9000010    2    1    2    0  502  0.37581499493E+03 -0.10811181103E+04  0.32369392706E+03  0.15522316439E+04  0.99729235381E+03 0.  0.
         13    1    3    3    0    0  0.30549461550E+03 -0.81180850744E+03 -0.26004505719E+03  0.90552937876E+03  0.10566000000E+00 0. -1.
         -4    1    3    3    0  502  0.70320379427E+02 -0.26930960284E+03  0.58373898425E+03  0.64670226509E+03  0.00000000000E+00 0. -1.
        -13    1    1    2    0    0 -0.37581499493E+03  0.10811181103E+04 -0.68886333914E+03  0.13358839732E+04  0.10566000000E+00 0.  1.
<mgrwt>
<rscale>  1 0.14146130E+04</rscale>
<asrwt>0</asrwt>
<pdfrwt beam="1">  1       21 0.19407279E+00 0.15181058E+04</pdfrwt>
<pdfrwt beam="2">  1       -4 0.25025269E+00 0.15181058E+04</pdfrwt>
<totfact> 0.28559642E-01</totfact>
</mgrwt>
</event>
<event>
 6    2  0.2220137E-005  0.1251791E+04  0.7818608E-02  0.9207540E-01
         -4   -1    0    0    0  501 -0.00000000000E+00  0.00000000000E+00  0.18774267318E+04  0.18774267318E+04  0.00000000000E+00 0. -1.
         21   -1    0    0  501  502  0.00000000000E+00 -0.00000000000E+00 -0.56811723595E+03  0.56811723595E+03  0.00000000000E+00 0.  1.
   -9000010    2    1    2    0  502 -0.60366470611E+03 -0.42782901351E+03  0.49719072297E+03  0.13469149791E+04  0.10097190717E+04 0.  0.
         13    1    3    3    0    0 -0.10031624235E+03  0.31400882497E+03  0.25929680813E+03  0.41940402538E+03  0.10566000000E+00 0. -1.
         -4    1    3    3    0  502 -0.50334846376E+03 -0.74183783848E+03  0.23789391484E+03  0.92751095373E+03  0.00000000000E+00 0. -1.
        -13    1    1    2    0    0  0.60366470611E+03  0.42782901351E+03  0.81211877286E+03  0.10986289886E+04  0.10566000000E+00 0.  1.
<mgrwt>
<rscale>  1 0.10975944E+04</rscale>
<asrwt>0</asrwt>
<pdfrwt beam="2">  1       21 0.87402653E-01 0.12517913E+04</pdfrwt>
<pdfrwt beam="1">  1       -4 0.28883488E+00 0.12517913E+04</pdfrwt>
<totfact> 0.14860484E+00</totfact>
</mgrwt>
</event>
<event>
 6    2  0.2220137E-005  0.1107678E+04  0.7818608E-02  0.9394346E-01
         -4   -1    0    0    0  501 -0.00000000000E+00  0.00000000000E+00  0.12443681015E+04  0.12443681015E+04  0.00000000000E+00 0. -1.
         21   -1    0    0  501  502  0.00000000000E+00 -0.00000000000E+00 -0.62220459180E+03  0.62220459180E+03  0.00000000000E+00 0.  1.
   -9000010    2    1    2    0  502  0.53864349163E+03  0.33169431101E+02  0.94322837166E+02  0.11116867357E+04  0.96732289255E+03 0.  0.
         13    1    3    3    0    0  0.72241070087E+03 -0.24777112632E+03  0.12771533823E+03  0.77432484821E+03  0.10566000000E+00 0. -1.
         -4    1    3    3    0  502 -0.18376720924E+03  0.28094055742E+03 -0.33392501067E+02  0.33736188747E+03  0.00000000000E+00 0. -1.
        -13    1    1    2    0    0 -0.53864349163E+03 -0.33169431101E+02  0.52784067251E+03  0.75488595758E+03  0.10566000000E+00 0.  1.
<mgrwt>
<rscale>  1 0.92542447E+03</rscale>
<asrwt>0</asrwt>
<pdfrwt beam="2">  1       21 0.95723784E-01 0.11076780E+04</pdfrwt>
<pdfrwt beam="1">  1       -4 0.19144125E+00 0.11076780E+04</pdfrwt>
<totfact> 0.50230332E+00</totfact>
</mgrwt>
</event>
<event>
 6    2  0.2220137E-005  0.1029556E+04  0.7818608E-02  0.9912183E-01
         21   -1    0    0  501  502  0.00000000000E+00  0.00000000000E+00  0.10153380332E+04  0.10153380332E+04  0.00000000000E+00 0. -1.
         -4   -1    0    0    0  501 -0.00000000000E+00 -0.00000000000E+00 -0.52107995837E+03  0.52107995837E+03  0.00000000000E+00 0. -1.
   -9000010    2    1    2    0  502 -0.11453964836E+03  0.19570238706E+02  0.73776765202E+03  0.12666046291E+04  0.10229779336E+04 0.  0.
         13    1    3    3    0    0  0.18817925119E+03  0.42875514847E+03  0.15583784623E+03  0.49348541356E+03  0.10566000000E+00 0. -1.
         -4    1    3    3    0  502 -0.30271889955E+03 -0.40918490976E+03  0.58192980578E+03  0.77311921550E+03  0.00000000000E+00 0. -1.
        -13    1    1    2    0    0  0.11453964836E+03 -0.19570238706E+02 -0.24350957714E+03  0.26981336255E+03  0.10566000000E+00 0.  1.
<mgrwt>
<rscale>  1 0.59674487E+03</rscale>
<asrwt>0</asrwt>
<pdfrwt beam="1">  1       21 0.15620585E+00 0.10295563E+04</pdfrwt>
<pdfrwt beam="2">  1       -4 0.80166148E-01 0.10295563E+04</pdfrwt>
<totfact> 0.13155539E+01</totfact>
</mgrwt>
</event>
<event>
 6    2  0.2220137E-005  0.1038111E+04  0.7818608E-02  0.9561315E-01
         -4   -1    0    0    0  501 -0.00000000000E+00  0.00000000000E+00  0.75968817647E+03  0.75968817647E+03  0.00000000000E+00 0. -1.
         21   -1    0    0  501  502  0.00000000000E+00 -0.00000000000E+00 -0.64760499662E+03  0.64760499662E+03  0.00000000000E+00 0. -1.
   -9000010    2    1    2    0  502  0.35240075475E+03  0.93080380102E+02  0.94014039420E+02  0.10423592693E+04  0.97202055413E+03 0.  0.
         13    1    3    3    0    0 -0.56585633337E+02  0.53369041701E+02  0.47540689298E+03  0.48172804939E+03  0.10566000000E+00 0. -1.
         -4    1    3    3    0  502  0.40898638809E+03  0.39711338400E+02 -0.38139285356E+03  0.56063121995E+03  0.00000000000E+00 0. -1.
        -13    1    1    2    0    0 -0.35240075475E+03 -0.93080380102E+02  0.18069140426E+02  0.36493390375E+03  0.10566000000E+00 0.  1.
<mgrwt>
<rscale>  1 0.79910374E+03</rscale>
<asrwt>0</asrwt>
<pdfrwt beam="2">  1       21 0.99631538E-01 0.10381109E+04</pdfrwt>
<pdfrwt beam="1">  1       -4 0.11687510E+00 0.10381109E+04</pdfrwt>
<totfact> 0.17438608E+01</totfact>
</mgrwt>
</event>
<event>
 6    2  0.2220137E-005  0.1037417E+04  0.7818608E-02  0.9553789E-01
         -4   -1    0    0    0  501 -0.00000000000E+00  0.00000000000E+00  0.12292801869E+04  0.12292801869E+04  0.00000000000E+00 0. -1.
         21   -1    0    0  501  502  0.00000000000E+00 -0.00000000000E+00 -0.50917405175E+03  0.50917405175E+03  0.00000000000E+00 0. -1.
   -9000010    2    1    2    0  502  0.24044205130E+03  0.28756686436E+03  0.13864309086E+03  0.10466404165E+04  0.96732991954E+03 0.  0.
         13    1    3    3    0    0  0.33147942095E+03 -0.19700846266E+03  0.33996547697E+03  0.51406952600E+03  0.10566000000E+00 0. -1.
         -4    1    3    3    0  502 -0.91037369648E+02  0.48457532702E+03 -0.20132238611E+03  0.53257089047E+03  0.00000000000E+00 0. -1.
        -13    1    1    2    0    0 -0.24044205130E+03 -0.28756686436E+03  0.58146304428E+03  0.69181382217E+03  0.10566000000E+00 0.  1.
<mgrwt>
<rscale>  1 0.80431716E+03</rscale>
<asrwt>0</asrwt>
<pdfrwt beam="2">  1       21 0.78334470E-01 0.10374171E+04</pdfrwt>
<pdfrwt beam="1">  1       -4 0.18912003E+00 0.10374171E+04</pdfrwt>
<totfact> 0.84916813E+00</totfact>
</mgrwt>
</event>
<event>
 6    2  0.2220137E-005  0.1038419E+04  0.7818608E-02  0.9994705E-01
         -4   -1    0    0    0  501 -0.00000000000E+00  0.00000000000E+00  0.41852771666E+03  0.41852771666E+03  0.00000000000E+00 0. -1.
         21   -1    0    0  501  502  0.00000000000E+00 -0.00000000000E+00 -0.14296459765E+04  0.14296459765E+04  0.00000000000E+00 0. -1.
   -9000010    2    1    2    0  502  0.66436836190E+02  0.56320294061E+02 -0.12316971923E+04  0.16110220427E+04  0.10347599817E+04 0.  0.
         13    1    3    3    0    0 -0.16926040171E+02  0.51839685178E+03 -0.39641220292E+03  0.65281270864E+03  0.10566000000E+00 0. -1.
         -4    1    3    3    0  502  0.83362876361E+02 -0.46207655772E+03 -0.83528498938E+03  0.95820933403E+03  0.00000000000E+00 0. -1.
        -13    1    1    2    0    0 -0.66436836190E+02 -0.56320294061E+02  0.22057893246E+03  0.23715165050E+03  0.10566000000E+00 0.  1.
<mgrwt>
<rscale>  1 0.55883028E+03</rscale>
<asrwt>0</asrwt>
<pdfrwt beam="2">  1       21 0.21994553E+00 0.10384190E+04</pdfrwt>
<pdfrwt beam="1">  1       -4 0.64388880E-01 0.10384190E+04</pdfrwt>
<totfact> 0.75410359E+00</totfact>
</mgrwt>
</event>
<event>
 6    2  0.2220137E-005  0.1057734E+04  0.7818608E-02  0.9552525E-01
         21   -1    0    0  501  502  0.00000000000E+00  0.00000000000E+00  0.44175128459E+03  0.44175128459E+03  0.00000000000E+00 0. -1.
         -4   -1    0    0    0  501 -0.00000000000E+00 -0.00000000000E+00 -0.17934412309E+04  0.17934412309E+04  0.00000000000E+00 0. -1.
   -9000010    2    1    2    0  502  0.26543136448E+03  0.23604440268E+03 -0.26288581662E+03  0.10899129805E+04  0.99630847792E+03 0.  0.
         13    1    3    3    0    0  0.62793523349E+03  0.11697673239E+03 -0.30166315861E+03  0.70639003801E+03  0.10566000000E+00 0. -1.
         -4    1    3    3    0  502 -0.36250386901E+03  0.11906767029E+03  0.38777341983E+02  0.38352294248E+03  0.00000000000E+00 0. -1.
        -13    1    1    2    0    0 -0.26543136448E+03 -0.23604440268E+03 -0.10888041297E+04  0.11452795350E+04  0.10566000000E+00 0.  1.
<mgrwt>
<rscale>  1 0.80519713E+03</rscale>
<asrwt>0</asrwt>
<pdfrwt beam="1">  1       21 0.67961735E-01 0.10577341E+04</pdfrwt>
<pdfrwt beam="2">  1       -4 0.27591404E+00 0.10577341E+04</pdfrwt>
<totfact> 0.33054677E+00</totfact>
</mgrwt>
</event>
<event>
 6    2  0.2220137E-005  0.9914386E+03  0.7818608E-02  0.9853431E-01
         21   -1    0    0  501  502  0.00000000000E+00  0.00000000000E+00  0.15978826180E+04  0.15978826180E+04  0.00000000000E+00 0. -1.
         -4   -1    0    0    0  501 -0.00000000000E+00 -0.00000000000E+00 -0.23734272189E+03  0.23734272189E+03  0.00000000000E+00 0. -1.
   -9000010    2    1    2    0  502  0.67859878509E+02 -0.14191010755E+03  0.13534963352E+04  0.16777672037E+04  0.97888049255E+03 0.  0.
         13    1    3    3    0    0  0.40935805651E+03 -0.39114401481E+03  0.71575928521E+03  0.91262205993E+03  0.10566000000E+00 0. -1.
         -4    1    3    3    0  502 -0.34149817800E+03  0.24923390726E+03  0.63773705001E+03  0.76514514379E+03  0.00000000000E+00 0. -1.
        -13    1    1    2    0    0 -0.67859878509E+02  0.14191010755E+03  0.70435609169E+01  0.15745813618E+03  0.10566000000E+00 0.  1.
<mgrwt>
<rscale>  1 0.62572268E+03</rscale>
<asrwt>0</asrwt>
<pdfrwt beam="1">  1       21 0.24582809E+00 0.99143858E+03</pdfrwt>
<pdfrwt beam="2">  1       -4 0.36514266E-01 0.99143858E+03</pdfrwt>
<totfact> 0.17010055E+01</totfact>
</mgrwt>
</event>
<event>
 6    2  0.2220137E-005  0.1032284E+04  0.7818608E-02  0.9685930E-01
         -4   -1    0    0    0  501 -0.00000000000E+00  0.00000000000E+00  0.19412703590E+04  0.19412703590E+04  0.00000000000E+00 0. -1.
         21   -1    0    0  501  502  0.00000000000E+00 -0.00000000000E+00 -0.21216733974E+03  0.21216733974E+03  0.00000000000E+00 0.  1.
   -9000010    2    1    2    0  502 -0.19141866465E+03 -0.14874934831E+03  0.12934459759E+04  0.16548752208E+04  0.10034151833E+04 0.  0.
         13    1    3    3    0    0  0.11730251012E+03  0.12116291839E+03 -0.10425054144E+03  0.19826375924E+03  0.10566000000E+00 0. -1.
         -4    1    3    3    0  502 -0.30872117477E+03 -0.26991226670E+03  0.13976965173E+04  0.14566114616E+04  0.00000000000E+00 0. -1.
        -13    1    1    2    0    0  0.19141866465E+03  0.14874934831E+03  0.43565704338E+03  0.49856247794E+03  0.10566000000E+00 0.  1.
<mgrwt>
<rscale>  1 0.71860696E+03</rscale>
<asrwt>0</asrwt>
<pdfrwt beam="2">  1       21 0.32641131E-01 0.10322836E+04</pdfrwt>
<pdfrwt beam="1">  1       -4 0.29865697E+00 0.10322836E+04</pdfrwt>
<totfact> 0.11616450E+01</totfact>
</mgrwt>
</event>
<event>
 6    2  0.2220137E-005  0.1138375E+04  0.7818608E-02  0.9369709E-01
         21   -1    0    0  501  502  0.00000000000E+00  0.00000000000E+00  0.20896067812E+04  0.20896067812E+04  0.00000000000E+00 0. -1.
         -4   -1    0    0    0  501 -0.00000000000E+00 -0.00000000000E+00 -0.36094390754E+03  0.36094390754E+03  0.00000000000E+00 0. -1.
   -9000010    2    1    2    0  502  0.34296282129E+03  0.42115940328E+03  0.14395249301E+04  0.18352462915E+04  0.10004489923E+04 0.  0.
         13    1    3    3    0    0  0.51973970312E+03 -0.21305307321E+02  0.11870396588E+04  0.12960117429E+04  0.10566000000E+00 0. -1.
         -4    1    3    3    0  502 -0.17677688183E+03  0.44246471060E+03  0.25248527133E+03  0.53923454852E+03  0.00000000000E+00 0. -1.
        -13    1    1    2    0    0 -0.34296282129E+03 -0.42115940328E+03  0.28913794351E+03  0.61530439727E+03  0.10566000000E+00 0.  1.
<mgrwt>
<rscale>  1 0.94610959E+03</rscale>
<asrwt>0</asrwt>
<pdfrwt beam="1">  1       21 0.32147796E+00 0.11383747E+04</pdfrwt>
<pdfrwt beam="2">  1       -4 0.55529833E-01 0.11383747E+04</pdfrwt>
<totfact> 0.23321356E+00</totfact>
</mgrwt>
</event>
<event>
 6    2  0.2220137E-005  0.1020967E+04  0.7818608E-02  0.9647430E-01
         21   -1    0    0  501  502  0.00000000000E+00  0.00000000000E+00  0.32964006492E+03  0.32964006492E+03  0.00000000000E+00 0.  1.
         -4   -1    0    0    0  501 -0.00000000000E+00 -0.00000000000E+00 -0.15169346758E+04  0.15169346758E+04  0.00000000000E+00 0. -1.
   -9000010    2    1    2    0  502  0.15034448973E+03 -0.24254629003E+03 -0.57669283660E+03  0.11725816352E+04  0.98027592799E+03 0.  0.
         13    1    3    3    0    0  0.20435990535E+03 -0.32085591337E+03  0.17227199976E+03  0.41759925901E+03  0.10566000000E+00 0. -1.
         -4    1    3    3    0  502 -0.54015415629E+02  0.78309623335E+02 -0.74896483636E+03  0.75498237617E+03  0.00000000000E+00 0. -1.
        -13    1    1    2    0    0 -0.15034448973E+03  0.24254629003E+03 -0.61060177429E+03  0.67399310555E+03  0.10566000000E+00 0.  1.
<mgrwt>
<rscale>  1 0.74234912E+03</rscale>
<asrwt>0</asrwt>
<pdfrwt beam="1">  1       21 0.50713856E-01 0.10209667E+04</pdfrwt>
<pdfrwt beam="2">  1       -4 0.23337457E+00 0.10209667E+04</pdfrwt>
<totfact> 0.11678383E+01</totfact>
</mgrwt>
</event>
<event>
 6    2  0.2220137E-005  0.1027496E+04  0.7818608E-02  0.9845014E-01
         -4   -1    0    0    0  501 -0.00000000000E+00  0.00000000000E+00  0.75514644123E+03  0.75514644123E+03  0.00000000000E+00 0. -1.
         21   -1    0    0  501  502  0.00000000000E+00 -0.00000000000E+00 -0.45608855606E+03  0.45608855606E+03  0.00000000000E+00 0. -1.
   -9000010    2    1    2    0  502  0.14378825819E+03  0.20445170321E+02  0.27835155059E+03  0.10645317879E+04  0.10171800596E+04 0.  0.
         13    1    3    3    0    0 -0.43557257414E+03  0.51612754073E+02  0.18853227230E+03  0.47742200681E+03  0.10566000000E+00 0. -1.
         -4    1    3    3    0  502  0.57936083233E+03 -0.31167583752E+02  0.89819278290E+02  0.58710978111E+03  0.00000000000E+00 0. -1.
        -13    1    1    2    0    0 -0.14378825819E+03 -0.20445170321E+02  0.20706334587E+02  0.14670320937E+03  0.10566000000E+00 0.  1.
<mgrwt>
<rscale>  1 0.63001763E+03</rscale>
<asrwt>0</asrwt>
<pdfrwt beam="2">  1       21 0.70167470E-01 0.10274962E+04</pdfrwt>
<pdfrwt beam="1">  1       -4 0.11617638E+00 0.10274962E+04</pdfrwt>
<totfact> 0.40799207E+01</totfact>
</mgrwt>
</event>
<event>
 6    2  0.2220137E-005  0.1045675E+04  0.7818608E-02  0.9697876E-01
         -4   -1    0    0    0  501 -0.00000000000E+00  0.00000000000E+00  0.18750883226E+03  0.18750883226E+03  0.00000000000E+00 0. -1.
         21   -1    0    0  501  502  0.00000000000E+00 -0.00000000000E+00 -0.21495123227E+04  0.21495123227E+04  0.00000000000E+00 0. -1.
   -9000010    2    1    2    0  502  0.79042237719E+01  0.22391213455E+03 -0.16172794663E+04  0.19258839702E+04  0.10213897756E+04 0.  0.
         13    1    3    3    0    0 -0.19665086486E+03 -0.93019645814E+02  0.44316201665E+02  0.22200935577E+03  0.10566000000E+00 0. -1.
         -4    1    3    3    0  502  0.20455508863E+03  0.31693178036E+03 -0.16615956680E+04  0.17038746144E+04  0.00000000000E+00 0. -1.
        -13    1    1    2    0    0 -0.79042237719E+01 -0.22391213455E+03 -0.34472402405E+03  0.41113718474E+03  0.10566000000E+00 0.  1.
<mgrwt>
<rscale>  1 0.71143392E+03</rscale>
<asrwt>0</asrwt>
<pdfrwt beam="2">  1       21 0.33069420E+00 0.10456750E+04</pdfrwt>
<pdfrwt beam="1">  1       -4 0.28847513E-01 0.10456750E+04</pdfrwt>
<totfact> 0.79124090E+00</totfact>
</mgrwt>
</event>
<event>
 6    2  0.2220137E-005  0.1001938E+04  0.7818608E-02  0.9993839E-01
         21   -1    0    0  501  502  0.00000000000E+00  0.00000000000E+00  0.55677522314E+03  0.55677522314E+03  0.00000000000E+00 0. -1.
         -4   -1    0    0    0  501 -0.00000000000E+00 -0.00000000000E+00 -0.73159631520E+03  0.73159631520E+03  0.00000000000E+00 0. -1.
   -9000010    2    1    2    0  502 -0.32346778185E+02 -0.91687538365E+02  0.90286521210E+02  0.10059977143E+04  0.99720951982E+03 0.  0.
         13    1    3    3    0    0 -0.60475255612E+02  0.75762883751E+02 -0.43929386316E+03  0.44986262399E+03  0.10566000000E+00 0. -1.
         -4    1    3    3    0  502  0.28128477427E+02 -0.16745042212E+03  0.52958038437E+03  0.55613509026E+03  0.00000000000E+00 0. -1.
        -13    1    1    2    0    0  0.32346778185E+02  0.91687538365E+02 -0.26510761327E+03  0.28237382409E+03  0.10566000000E+00 0.  1.
<mgrwt>
<rscale>  1 0.55921194E+03</rscale>
<asrwt>0</asrwt>
<pdfrwt beam="1">  1       21 0.85657726E-01 0.10019380E+04</pdfrwt>
<pdfrwt beam="2">  1       -4 0.11255328E+00 0.10019380E+04</pdfrwt>
<totfact> 0.27737537E+01</totfact>
</mgrwt>
</event>
<event>
 6    2  0.2220137E-005  0.1084626E+04  0.7818608E-02  0.9555315E-01
         -4   -1    0    0    0  501 -0.00000000000E+00  0.00000000000E+00  0.74610716983E+03  0.74610716983E+03  0.00000000000E+00 0. -1.
         21   -1    0    0  501  502  0.00000000000E+00 -0.00000000000E+00 -0.79658380270E+03  0.79658380270E+03  0.00000000000E+00 0. -1.
   -9000010    2    1    2    0  502  0.28184100159E+03  0.16437062405E+03 -0.30746705982E+03  0.11273644228E+04  0.10343899152E+04 0.  0.
         13    1    3    3    0    0 -0.35345882643E+03  0.23628308739E+03 -0.18029168334E+02  0.42554424146E+03  0.10566000000E+00 0. -1.
         -4    1    3    3    0  502  0.63529982802E+03 -0.71912463337E+02 -0.28943789149E+03  0.70182018131E+03  0.00000000000E+00 0. -1.
        -13    1    1    2    0    0 -0.28184100159E+03 -0.16437062405E+03  0.25699042695E+03  0.41532654976E+03  0.10566000000E+00 0.  1.
<mgrwt>
<rscale>  1 0.80325679E+03</rscale>
<asrwt>0</asrwt>
<pdfrwt beam="2">  1       21 0.12255135E+00 0.10846265E+04</pdfrwt>
<pdfrwt beam="1">  1       -4 0.11478572E+00 0.10846265E+04</pdfrwt>
<totfact> 0.10719035E+01</totfact>
</mgrwt>
</event>
<event>
 6    2  0.2220137E-005  0.1221346E+04  0.7818608E-02  0.9247218E-01
         21   -1    0    0  501  502  0.00000000000E+00  0.00000000000E+00  0.22289768171E+04  0.22289768171E+04  0.00000000000E+00 0. -1.
         -4   -1    0    0    0  501 -0.00000000000E+00 -0.00000000000E+00 -0.43056327621E+03  0.43056327621E+03  0.00000000000E+00 0. -1.
   -9000010    2    1    2    0  502 -0.45409848036E+02 -0.68600329235E+03  0.14263783243E+04  0.18778286472E+04  0.10094665586E+04 0.  0.
         13    1    3    3    0    0 -0.32089270090E+03 -0.65964027215E+03  0.44454651344E+03  0.85774065306E+03  0.10566000000E+00 0. -1.
         -4    1    3    3    0  502  0.27548285287E+03 -0.26363020202E+02  0.98183181085E+03  0.10200879942E+04  0.00000000000E+00 0. -1.
        -13    1    1    2    0    0  0.45409848036E+02  0.68600329235E+03  0.37203521664E+03  0.78171144612E+03  0.10566000000E+00 0.  1.
<mgrwt>
<rscale>  1 0.10579079E+04</rscale>
<asrwt>0</asrwt>
<pdfrwt beam="1">  1       21 0.34291950E+00 0.12213457E+04</pdfrwt>
<pdfrwt beam="2">  1       -4 0.66240505E-01 0.12213457E+04</pdfrwt>
<totfact> 0.11453951E+00</totfact>
</mgrwt>
</event>
<event>
 6    2  0.2220137E-005  0.1002945E+04  0.7818608E-02  0.9779207E-01
         21   -1    0    0  501  502  0.00000000000E+00  0.00000000000E+00  0.46121782646E+03  0.46121782646E+03  0.00000000000E+00 0. -1.
         -4   -1    0    0    0  501 -0.00000000000E+00 -0.00000000000E+00 -0.78374575867E+03  0.78374575867E+03  0.00000000000E+00 0. -1.
   -9000010    2    1    2    0  502 -0.18855933111E+03  0.44478126593E+02 -0.22417161843E+03  0.10276920943E+04  0.98405548681E+03 0.  0.
         13    1    3    3    0    0 -0.18821966629E+03  0.21161260382E+03  0.33813693737E+03  0.44107044387E+03  0.10566000000E+00 0. -1.
         -4    1    3    3    0  502 -0.33966481744E+00 -0.16713447723E+03 -0.56230855580E+03  0.58662165045E+03  0.00000000000E+00 0. -1.
        -13    1    1    2    0    0  0.18855933111E+03 -0.44478126593E+02 -0.98356313790E+02  0.21727149081E+03  0.10566000000E+00 0.  1.
<mgrwt>
<rscale>  1 0.66490457E+03</rscale>
<asrwt>0</asrwt>
<pdfrwt beam="1">  1       21 0.70956589E-01 0.10029447E+04</pdfrwt>
<pdfrwt beam="2">  1       -4 0.12057627E+00 0.10029447E+04</pdfrwt>
<totfact> 0.36303720E+01</totfact>
</mgrwt>
</event>
<event>
 6    2  0.2220137E-005  0.1082323E+04  0.7818608E-02  0.9480176E-01
         -4   -1    0    0    0  501 -0.00000000000E+00  0.00000000000E+00  0.12304651710E+04  0.12304651710E+04  0.00000000000E+00 0. -1.
         21   -1    0    0  501  502  0.00000000000E+00 -0.00000000000E+00 -0.54280906737E+03  0.54280906737E+03  0.00000000000E+00 0.  1.
   -9000010    2    1    2    0  502  0.34847539954E+03  0.24619773317E+03  0.78327800074E+03  0.13360191798E+04  0.99467300877E+03 0.  0.
         13    1    3    3    0    0 -0.28152399237E+03 -0.19724680481E+02 -0.17790476775E+02  0.28277435090E+03  0.10566000000E+00 0. -1.
         -4    1    3    3    0  502  0.62999939191E+03  0.26592241365E+03  0.80106847751E+03  0.10532448289E+04  0.00000000000E+00 0. -1.
        -13    1    1    2    0    0 -0.34847539954E+03 -0.24619773317E+03 -0.95621897111E+02  0.43725505860E+03  0.10566000000E+00 0.  1.
<mgrwt>
<rscale>  1 0.85761241E+03</rscale>
<asrwt>0</asrwt>
<pdfrwt beam="2">  1       21 0.83509088E-01 0.10823229E+04</pdfrwt>
<pdfrwt beam="1">  1       -4 0.18930233E+00 0.10823229E+04</pdfrwt>
<totfact> 0.72437826E+00</totfact>
</mgrwt>
</event>
<event>
 6    2  0.2220137E-005  0.1037726E+04  0.7818608E-02  0.9690559E-01
         -4   -1    0    0    0  501 -0.00000000000E+00  0.00000000000E+00  0.33116436156E+03  0.33116436156E+03  0.00000000000E+00 0. -1.
         21   -1    0    0  501  502  0.00000000000E+00 -0.00000000000E+00 -0.12229948349E+04  0.12229948349E+04  0.00000000000E+00 0.  1.
   -9000010    2    1    2    0  502  0.68519840283E+02 -0.22472694090E+03 -0.71805021033E+03  0.12619319605E+04  0.10107813818E+04 0.  0.
         13    1    3    3    0    0  0.22686546276E+03 -0.23188994195E+03 -0.93703399159E+03  0.99160153083E+03  0.10566000000E+00 0. -1.
         -4    1    3    3    0  502 -0.15834562248E+03  0.71630010483E+01  0.21898378126E+03  0.27033042965E+03  0.00000000000E+00 0. -1.
        -13    1    1    2    0    0 -0.68519840283E+02  0.22472694090E+03 -0.17378026305E+03  0.29222723602E+03  0.10566000000E+00 0.  1.
<mgrwt>
<rscale>  1 0.71581670E+03</rscale>
<asrwt>0</asrwt>
<pdfrwt beam="2">  1       21 0.18815305E+00 0.10377264E+04</pdfrwt>
<pdfrwt beam="1">  1       -4 0.50948363E-01 0.10377264E+04</pdfrwt>
<totfact> 0.20634762E+01</totfact>
</mgrwt>
</event>
<event>
 6    2  0.2220137E-005  0.9417878E+03  0.7818608E-02  0.1008658E+00
         21   -1    0    0  501  502  0.00000000000E+00  0.00000000000E+00  0.47447382278E+03  0.47447382278E+03  0.00000000000E+00 0. -1.
         -4   -1    0    0    0  501 -0.00000000000E+00 -0.00000000000E+00 -0.77840201579E+03  0.77840201579E+03  0.00000000000E+00 0. -1.
   -9000010    2    1    2    0  502  0.30980277593E+02 -0.81945287785E+02 -0.54468184851E+01  0.94180358026E+03  0.93770438208E+03 0.  0.
         13    1    3    3    0    0  0.13665739857E+02 -0.17810533667E+03  0.44571806232E+03  0.48018003461E+03  0.10566000000E+00 0. -1.
         -4    1    3    3    0  502  0.17314537736E+02  0.96160048889E+02 -0.45116488081E+03  0.46162354564E+03  0.00000000000E+00 0. -1.
        -13    1    1    2    0    0 -0.30980277593E+02  0.81945287785E+02 -0.29848137453E+03  0.31107225832E+03  0.10566000000E+00 0.  1.
<mgrwt>
<rscale>  1 0.52011374E+03</rscale>
<asrwt>0</asrwt>
<pdfrwt beam="1">  1       21 0.72995974E-01 0.94178783E+03</pdfrwt>
<pdfrwt beam="2">  1       -4 0.11975415E+00 0.94178783E+03</pdfrwt>
<totfact> 0.34791463E+01</totfact>
</mgrwt>
</event>
<event>
 6    2  0.2220137E-005  0.1013157E+04  0.7818608E-02  0.1014647E+00
         -4   -1    0    0    0  501 -0.00000000000E+00  0.00000000000E+00  0.48696842967E+03  0.48696842967E+03  0.00000000000E+00 0. -1.
         21   -1    0    0  501  502  0.00000000000E+00 -0.00000000000E+00 -0.62222556942E+03  0.62222556942E+03  0.00000000000E+00 0. -1.
   -9000010    2    1    2    0  502  0.19397715675E+02 -0.55212296977E+02 -0.18795434375E+03  0.10304432811E+04  0.10114652002E+04 0.  0.
         13    1    3    3    0    0 -0.32062054463E+03  0.25938726244E+03 -0.34874784547E+03  0.54009661769E+03  0.10566000000E+00 0. -1.
         -4    1    3    3    0  502  0.34001826030E+03 -0.31459955941E+03  0.16079350172E+03  0.49034666341E+03  0.00000000000E+00 0. -1.
        -13    1    1    2    0    0 -0.19397715675E+02  0.55212296977E+02  0.52697204002E+02  0.78750717994E+02  0.10566000000E+00 0.  1.
<mgrwt>
<rscale>  1 0.49668949E+03</rscale>
<asrwt>0</asrwt>
<pdfrwt beam="2">  1       21 0.95727010E-01 0.10131567E+04</pdfrwt>
<pdfrwt beam="1">  1       -4 0.74918220E-01 0.10131567E+04</pdfrwt>
<totfact> 0.55517348E+01</totfact>
</mgrwt>
</event>
<event>
 6    2  0.2220137E-005  0.1050308E+04  0.7818608E-02  0.9569156E-01
         21   -1    0    0  501  502  0.00000000000E+00  0.00000000000E+00  0.44590635767E+03  0.44590635767E+03  0.00000000000E+00 0. -1.
         -4   -1    0    0    0  501 -0.00000000000E+00 -0.00000000000E+00 -0.22782510916E+04  0.22782510916E+04  0.00000000000E+00 0. -1.
   -9000010    2    1    2    0  502  0.33330742304E+03  0.78996858381E+02 -0.21648091639E+03  0.10723856037E+04  0.99288093643E+03 0.  0.
         13    1    3    3    0    0  0.65242275009E+02  0.30714573855E+03 -0.52009320666E+03  0.60752943462E+03  0.10566000000E+00 0. -1.
         -4    1    3    3    0  502  0.26806514803E+03 -0.22814888017E+03  0.30361229027E+03  0.46485616906E+03  0.00000000000E+00 0. -1.
        -13    1    1    2    0    0 -0.33330742304E+03 -0.78996858381E+02 -0.16158638175E+04  0.16517718456E+04  0.10566000000E+00 0.  1.
<mgrwt>
<rscale>  1 0.79371695E+03</rscale>
<asrwt>0</asrwt>
<pdfrwt beam="1">  1       21 0.68600978E-01 0.10503080E+04</pdfrwt>
<pdfrwt beam="2">  1       -4 0.35050017E+00 0.10503080E+04</pdfrwt>
<totfact> 0.11023858E+00</totfact>
</mgrwt>
</event>
<event>
 6    2  0.2220137E-005  0.9977188E+03  0.7818608E-02  0.1026781E+00
         -4   -1    0    0    0  501 -0.00000000000E+00  0.00000000000E+00  0.31451535922E+03  0.31451535922E+03  0.00000000000E+00 0. -1.
         21   -1    0    0  501  502  0.00000000000E+00 -0.00000000000E+00 -0.87537578733E+03  0.87537578733E+03  0.00000000000E+00 0. -1.
   -9000010    2    1    2    0  502  0.36865580447E+02 -0.21073408760E+02 -0.56605650928E+03  0.11471106603E+04  0.99681479510E+03 0.  0.
         13    1    3    3    0    0  0.35377493134E+03 -0.28924682063E+03 -0.15052605616E+02  0.45721659789E+03  0.10566000000E+00 0. -1.
         -4    1    3    3    0  502 -0.31690935089E+03  0.26817341187E+03 -0.55100390366E+03  0.68989406242E+03  0.00000000000E+00 0. -1.
        -13    1    1    2    0    0 -0.36865580447E+02  0.21073408760E+02  0.51960811708E+01  0.42780486229E+02  0.10566000000E+00 0.  1.
<mgrwt>
<rscale>  1 0.45316957E+03</rscale>
<asrwt>0</asrwt>
<pdfrwt beam="2">  1       21 0.13467320E+00 0.99771885E+03</pdfrwt>
<pdfrwt beam="1">  1       -4 0.48386978E-01 0.99771885E+03</pdfrwt>
<totfact> 0.60172620E+01</totfact>
</mgrwt>
</event>
<event>
 6    2  0.2220137E-005  0.1066830E+04  0.7818608E-02  0.9555441E-01
         21   -1    0    0  501  502  0.00000000000E+00  0.00000000000E+00  0.12613023692E+04  0.12613023692E+04  0.00000000000E+00 0. -1.
         -4   -1    0    0    0  501 -0.00000000000E+00 -0.00000000000E+00 -0.91724292501E+03  0.91724292501E+03  0.00000000000E+00 0. -1.
   -9000010    2    1    2    0  502 -0.23311774672E+03  0.25122623021E+03  0.98481520029E+03  0.14518910073E+04  0.10102811568E+04 0.  0.
         13    1    3    3    0    0  0.91136488802E+02  0.13588698989E+03 -0.17648843924E+03  0.24066431801E+03  0.10566000000E+00 0. -1.
         -4    1    3    3    0  502 -0.32425423552E+03  0.11533924032E+03  0.11613036395E+04  0.12112266893E+04  0.00000000000E+00 0. -1.
        -13    1    1    2    0    0  0.23311774672E+03 -0.25122623021E+03 -0.64075575609E+03  0.72665428693E+03  0.10566000000E+00 0.  1.
<mgrwt>
<rscale>  1 0.80316915E+03</rscale>
<asrwt>0</asrwt>
<pdfrwt beam="1">  1       21 0.19404652E+00 0.10668301E+04</pdfrwt>
<pdfrwt beam="2">  1       -4 0.14111430E+00 0.10668301E+04</pdfrwt>
<totfact> 0.17174836E+00</totfact>
</mgrwt>
</event>
<event>
 6    2  0.2220137E-005  0.1278418E+04  0.7818608E-02  0.9171854E-01
         -4   -1    0    0    0  501 -0.00000000000E+00  0.00000000000E+00  0.24190464775E+04  0.24190464775E+04  0.00000000000E+00 0. -1.
         21   -1    0    0  501  502  0.00000000000E+00 -0.00000000000E+00 -0.56327602051E+03  0.56327602051E+03  0.00000000000E+00 0. -1.
   -9000010    2    1    2    0  502  0.78575958479E+03 -0.11344838240E+03  0.42708327713E+03  0.13478697671E+04  0.10020300010E+04 0.  0.
         13    1    3    3    0    0 -0.78011737441E+02  0.26945543180E+03  0.27134827954E+03  0.39028446149E+03  0.10566000000E+00 0. -1.
         -4    1    3    3    0  502  0.86377132223E+03 -0.38290381421E+03  0.15573499759E+03  0.95758530560E+03  0.00000000000E+00 0. -1.
        -13    1    1    2    0    0 -0.78575958479E+03  0.11344838240E+03  0.14286871798E+04  0.16344527309E+04  0.10566000000E+00 0.  1.
<mgrwt>
<rscale>  1 0.11348726E+04</rscale>
<asrwt>0</asrwt>
<pdfrwt beam="2">  1       21 0.86657851E-01 0.12784181E+04</pdfrwt>
<pdfrwt beam="1">  1       -4 0.37216099E+00 0.12784181E+04</pdfrwt>
<totfact> 0.44267578E-01</totfact>
</mgrwt>
</event>
<event>
 6    2  0.2220137E-005  0.1097844E+04  0.7818608E-02  0.9584091E-01
         -4   -1    0    0    0  501 -0.00000000000E+00  0.00000000000E+00  0.94781651816E+03  0.94781651816E+03  0.00000000000E+00 0. -1.
         21   -1    0    0  501  502  0.00000000000E+00 -0.00000000000E+00 -0.10691405801E+04  0.10691405801E+04  0.00000000000E+00 0. -1.
   -9000010    2    1    2    0  502  0.19087933137E+03  0.21152130172E+03 -0.74807404055E+03  0.13284865274E+04  0.10602289861E+04 0.  0.
         13    1    3    3    0    0  0.10642217714E+03  0.53193365023E+03 -0.36687653749E+02  0.54371415572E+03  0.10566000000E+00 0. -1.
         -4    1    3    3    0  502  0.84457154239E+02 -0.32041234850E+03 -0.71138638680E+03  0.78477237165E+03  0.00000000000E+00 0. -1.
        -13    1    1    2    0    0 -0.19087933137E+03 -0.21152130172E+03  0.62674997858E+03  0.68847057093E+03  0.10566000000E+00 0.  1.
<mgrwt>
<rscale>  1 0.78358135E+03</rscale>
<asrwt>0</asrwt>
<pdfrwt beam="2">  1       21 0.16448317E+00 0.10978441E+04</pdfrwt>
<pdfrwt beam="1">  1       -4 0.14581793E+00 0.10978441E+04</pdfrwt>
<totfact> 0.25757320E+00</totfact>
</mgrwt>
</event>
<event>
 6    2  0.2220137E-005  0.1036612E+04  0.7818608E-02  0.9648861E-01
         -4   -1    0    0    0  501 -0.00000000000E+00  0.00000000000E+00  0.39342514726E+03  0.39342514726E+03  0.00000000000E+00 0. -1.
         21   -1    0    0  501  502  0.00000000000E+00 -0.00000000000E+00 -0.11416357612E+04  0.11416357612E+04  0.00000000000E+00 0. -1.
   -9000010    2    1    2    0  502  0.26465817119E+03  0.59742347828E+02 -0.72032952223E+03  0.12623147588E+04  0.10004753041E+04 0.  0.
         13    1    3    3    0    0 -0.93554425162E+02 -0.10864049704E+03  0.20828678582E+03  0.25286080039E+03  0.10566000000E+00 0. -1.
         -4    1    3    3    0  502  0.35821259635E+03  0.16838284486E+03 -0.92861630804E+03  0.10094539584E+04  0.00000000000E+00 0. -1.
        -13    1    1    2    0    0 -0.26465817119E+03 -0.59742347828E+02 -0.27881091704E+02  0.27274614963E+03  0.10566000000E+00 0.  1.
<mgrwt>
<rscale>  1 0.74144935E+03</rscale>
<asrwt>0</asrwt>
<pdfrwt beam="2">  1       21 0.17563627E+00 0.10366118E+04</pdfrwt>
<pdfrwt beam="1">  1       -4 0.60526947E-01 0.10366118E+04</pdfrwt>
<totfact> 0.17548105E+01</totfact>
</mgrwt>
</event>
<event>
 6    2  0.2220137E-005  0.1027058E+04  0.7818608E-02  0.9969228E-01
         -4   -1    0    0    0  501 -0.00000000000E+00  0.00000000000E+00  0.24348997171E+03  0.24348997171E+03  0.00000000000E+00 0. -1.
         21   -1    0    0  501  502  0.00000000000E+00 -0.00000000000E+00 -0.18354624131E+04  0.18354624131E+04  0.00000000000E+00 0. -1.
   -9000010    2    1    2    0  502 -0.34034942620E+01 -0.97514711066E+02 -0.16655411599E+04  0.19567514431E+04  0.10224129069E+04 0.  0.
         13    1    3    3    0    0 -0.23684206110E+03  0.28122298493E+03 -0.13799150398E+04  0.14280567417E+04  0.10566000000E+00 0. -1.
         -4    1    3    3    0  502  0.23343856684E+03 -0.37873769600E+03 -0.28562612001E+03  0.52869470140E+03  0.00000000000E+00 0. -1.
        -13    1    1    2    0    0  0.34034942620E+01  0.97514711066E+02  0.73568718478E+02  0.12220094169E+03  0.10566000000E+00 0.  1.
<mgrwt>
<rscale>  1 0.57020369E+03</rscale>
<asrwt>0</asrwt>
<pdfrwt beam="2">  1       21 0.28237882E+00 0.10270584E+04</pdfrwt>
<pdfrwt beam="1">  1       -4 0.37459997E-01 0.10270584E+04</pdfrwt>
<totfact> 0.94602652E+00</totfact>
</mgrwt>
</event>
<event>
 6    2  0.2220137E-005  0.1010273E+04  0.7818608E-02  0.9784450E-01
         21   -1    0    0  501  502  0.00000000000E+00  0.00000000000E+00  0.32666063936E+03  0.32666063936E+03  0.00000000000E+00 0. -1.
         -4   -1    0    0    0  501 -0.00000000000E+00 -0.00000000000E+00 -0.10962790170E+04  0.10962790170E+04  0.00000000000E+00 0. -1.
   -9000010    2    1    2    0  502  0.17483775453E+03  0.64340931448E+02 -0.63862099291E+03  0.11951934778E+04  0.99294646430E+03 0.  0.
         13    1    3    3    0    0 -0.11161448437E+03 -0.31393416365E+03  0.71847995754E+02  0.34084394946E+03  0.10566000000E+00 0. -1.
         -4    1    3    3    0  502  0.28645223891E+03  0.37827509510E+03 -0.71046898867E+03  0.85434952836E+03  0.00000000000E+00 0. -1.
        -13    1    1    2    0    0 -0.17483775453E+03 -0.64340931448E+02 -0.13099738472E+03  0.22774617853E+03  0.10566000000E+00 0.  1.
<mgrwt>
<rscale>  1 0.66203756E+03</rscale>
<asrwt>0</asrwt>
<pdfrwt beam="1">  1       21 0.50255482E-01 0.10102726E+04</pdfrwt>
<pdfrwt beam="2">  1       -4 0.16865831E+00 0.10102726E+04</pdfrwt>
<totfact> 0.32150871E+01</totfact>
</mgrwt>
</event>
<event>
 6    2  0.2220137E-005  0.1100652E+04  0.7818608E-02  0.9514973E-01
         -4   -1    0    0    0  501 -0.00000000000E+00  0.00000000000E+00  0.29695416543E+03  0.29695416543E+03  0.00000000000E+00 0. -1.
         21   -1    0    0  501  502  0.00000000000E+00 -0.00000000000E+00 -0.17955943994E+04  0.17955943994E+04  0.00000000000E+00 0. -1.
   -9000010    2    1    2    0  502  0.35640367382E+03 -0.44565832970E+02 -0.11039327111E+04  0.15588785057E+04  0.10403965940E+04 0.  0.
         13    1    3    3    0    0  0.20820720536E+02  0.46987622171E+03 -0.61253141212E+03  0.77227709284E+03  0.10566000000E+00 0. -1.
         -4    1    3    3    0  502  0.33558295328E+03 -0.51444205468E+03 -0.49140129895E+03  0.78660141289E+03  0.00000000000E+00 0. -1.
        -13    1    1    2    0    0 -0.35640367382E+03  0.44565832970E+02 -0.39470752292E+03  0.53367005911E+03  0.10566000000E+00 0.  1.
<mgrwt>
<rscale>  1 0.83188897E+03</rscale>
<asrwt>0</asrwt>
<pdfrwt beam="2">  1       21 0.27624530E+00 0.11006520E+04</pdfrwt>
<pdfrwt beam="1">  1       -4 0.45685255E-01 0.11006520E+04</pdfrwt>
<totfact> 0.68000187E+00</totfact>
</mgrwt>
</event>
<event>
 6    2  0.2220137E-005  0.9786368E+03  0.7818608E-02  0.1005650E+00
         -4   -1    0    0    0  501 -0.00000000000E+00  0.00000000000E+00  0.92932451985E+03  0.92932451985E+03  0.00000000000E+00 0. -1.
         21   -1    0    0  501  502  0.00000000000E+00 -0.00000000000E+00 -0.35351781536E+03  0.35351781536E+03  0.00000000000E+00 0. -1.
   -9000010    2    1    2    0  502  0.85207127989E+02  0.94222658420E+01  0.34672009497E+03  0.10382411913E+04  0.97487481935E+03 0.  0.
         13    1    3    3    0    0 -0.14751184191E+03  0.44080976002E+03  0.28236593084E+03  0.54387821991E+03  0.10566000000E+00 0. -1.
         -4    1    3    3    0  502  0.23271896989E+03 -0.43138749418E+03  0.64354164126E+02  0.49436297143E+03  0.00000000000E+00 0. -1.
        -13    1    1    2    0    0 -0.85207127989E+02 -0.94222658420E+01  0.22908660952E+03  0.24460114387E+03  0.10566000000E+00 0.  1.
<mgrwt>
<rscale>  1 0.53240854E+03</rscale>
<asrwt>0</asrwt>
<pdfrwt beam="2">  1       21 0.54387356E-01 0.97863678E+03</pdfrwt>
<pdfrwt beam="1">  1       -4 0.14297300E+00 0.97863678E+03</pdfrwt>
<totfact> 0.42562517E+01</totfact>
</mgrwt>
</event>
<event>
 6    2  0.2220137E-005  0.1006997E+04  0.7818608E-02  0.9882440E-01
         -4   -1    0    0    0  501 -0.00000000000E+00  0.00000000000E+00  0.17989477658E+03  0.17989477658E+03  0.00000000000E+00 0. -1.
         21   -1    0    0  501  502  0.00000000000E+00 -0.00000000000E+00 -0.32511035605E+04  0.32511035605E+04  0.00000000000E+00 0. -1.
   -9000010    2    1    2    0  502  0.17974935588E+02  0.13547451181E+03 -0.31256748752E+04  0.32838827093E+04  0.99768019994E+03 0.  0.
         13    1    3    3    0    0  0.14748197303E+03 -0.30182673835E+03 -0.24229815358E+04  0.24461581810E+04  0.10566000000E+00 0. -1.
         -4    1    3    3    0  502 -0.12950703744E+03  0.43730125016E+03 -0.70269333944E+03  0.83772452837E+03  0.00000000000E+00 0. -1.
        -13    1    1    2    0    0 -0.17974935588E+02 -0.13547451181E+03  0.54466091309E+02  0.14711562775E+03  0.10566000000E+00 0.  1.
<mgrwt>
<rscale>  1 0.61119925E+03</rscale>
<asrwt>0</asrwt>
<pdfrwt beam="2">  1       21 0.50016975E+00 0.10069966E+04</pdfrwt>
<pdfrwt beam="1">  1       -4 0.27676121E-01 0.10069966E+04</pdfrwt>
<totfact> 0.63827081E-01</totfact>
</mgrwt>
</event>
<event>
 6    2  0.2220137E-005  0.1028079E+04  0.7818608E-02  0.9699901E-01
         -4   -1    0    0    0  501 -0.00000000000E+00  0.00000000000E+00  0.90178553783E+03  0.90178553783E+03  0.00000000000E+00 0. -1.
         21   -1    0    0  501  502  0.00000000000E+00 -0.00000000000E+00 -0.74232571098E+03  0.74232571098E+03  0.00000000000E+00 0. -1.
   -9000010    2    1    2    0  502 -0.81571477473E+02 -0.21949017676E+03 -0.34787942843E+03  0.10853420883E+04  0.10010581942E+04 0.  0.
         13    1    3    3    0    0 -0.33332535510E+03 -0.12316826065E+03 -0.61217445574E+03  0.70783740238E+03  0.10566000000E+00 0. -1.
         -4    1    3    3    0  502  0.25175387763E+03 -0.96321916107E+02  0.26429502731E+03  0.37750468591E+03  0.00000000000E+00 0. -1.
        -13    1    1    2    0    0  0.81571477473E+02  0.21949017676E+03  0.50733925529E+03  0.55876916052E+03  0.10566000000E+00 0.  1.
<mgrwt>
<rscale>  1 0.71022695E+03</rscale>
<asrwt>0</asrwt>
<pdfrwt beam="2">  1       21 0.11420396E+00 0.10280794E+04</pdfrwt>
<pdfrwt beam="1">  1       -4 0.13873624E+00 0.10280794E+04</pdfrwt>
<totfact> 0.79808614E+00</totfact>
</mgrwt>
</event>
<event>
 6    2  0.2220137E-005  0.9948485E+03  0.7818608E-02  0.9910145E-01
         -4   -1    0    0    0  501 -0.00000000000E+00  0.00000000000E+00  0.49829993654E+03  0.49829993654E+03  0.00000000000E+00 0. -1.
         21   -1    0    0  501  502  0.00000000000E+00 -0.00000000000E+00 -0.68604227009E+03  0.68604227009E+03  0.00000000000E+00 0. -1.
   -9000010    2    1    2    0  502  0.65357287118E+02 -0.11195419415E+03 -0.26996897784E+03  0.10308282048E+04  0.98636617045E+03 0.  0.
         13    1    3    3    0    0 -0.35021858576E+03 -0.15378499187E+03  0.17492401451E+03  0.42059636655E+03  0.10566000000E+00 0. -1.
         -4    1    3    3    0  502  0.41557587287E+03  0.41830797717E+02 -0.44489299236E+03  0.61023183824E+03  0.00000000000E+00 0. -1.
        -13    1    1    2    0    0 -0.65357287118E+02  0.11195419415E+03  0.82226644285E+02  0.15351400184E+03  0.10566000000E+00 0.  1.
<mgrwt>
<rscale>  1 0.59772110E+03</rscale>
<asrwt>0</asrwt>
<pdfrwt beam="2">  1       21 0.10554496E+00 0.99484850E+03</pdfrwt>
<pdfrwt beam="1">  1       -4 0.76661529E-01 0.99484850E+03</pdfrwt>
<totfact> 0.41407933E+01</totfact>
</mgrwt>
</event>
<event>
 6    2  0.2220137E-005  0.1021409E+04  0.7818608E-02  0.1003138E+00
         -4   -1    0    0    0  501 -0.00000000000E+00  0.00000000000E+00  0.17608730129E+03  0.17608730129E+03  0.00000000000E+00 0. -1.
         21   -1    0    0  501  502  0.00000000000E+00 -0.00000000000E+00 -0.17272466163E+04  0.17272466163E+04  0.00000000000E+00 0. -1.
   -9000010    2    1    2    0  502 -0.30538540915E+02  0.75622138691E+02 -0.14397563372E+04  0.17652689149E+04  0.10181476912E+04 0.  0.
         13    1    3    3    0    0 -0.41390201515E+03  0.19193296947E+03 -0.27306666044E+03  0.53171285026E+03  0.10566000000E+00 0. -1.
         -4    1    3    3    0  502  0.38336347424E+03 -0.11631083078E+03 -0.11666896768E+04  0.12335560647E+04  0.00000000000E+00 0. -1.
        -13    1    1    2    0    0  0.30538540915E+02 -0.75622138691E+02 -0.11140297783E+03  0.13806500271E+03  0.10566000000E+00 0.  1.
<mgrwt>
<rscale>  1 0.54295421E+03</rscale>
<asrwt>0</asrwt>
<pdfrwt beam="2">  1       21 0.26573025E+00 0.10214088E+04</pdfrwt>
<pdfrwt beam="1">  1       -4 0.27090354E-01 0.10214088E+04</pdfrwt>
<totfact> 0.22825082E+01</totfact>
</mgrwt>
</event>
<event>
 6    2  0.2220137E-005  0.1029152E+04  0.7818608E-02  0.9728921E-01
         21   -1    0    0  501  502  0.00000000000E+00  0.00000000000E+00  0.81148394556E+03  0.81148394556E+03  0.00000000000E+00 0. -1.
         -4   -1    0    0    0  501 -0.00000000000E+00 -0.00000000000E+00 -0.72644214100E+03  0.72644214100E+03  0.00000000000E+00 0. -1.
   -9000010    2    1    2    0  502 -0.15203517943E+03 -0.14752098129E+03  0.44421917960E+03  0.11209302429E+04  0.10071130990E+04 0.  0.
         13    1    3    3    0    0 -0.30323855072E+03 -0.50504368714E+03  0.43561224446E+03  0.73265324899E+03  0.10566000000E+00 0. -1.
         -4    1    3    3    0  502  0.15120337130E+03  0.35752270585E+03  0.86069351411E+01  0.38827699393E+03  0.00000000000E+00 0. -1.
        -13    1    1    2    0    0  0.15203517943E+03  0.14752098129E+03 -0.35917737505E+03  0.41699584364E+03  0.10566000000E+00 0.  1.
<mgrwt>
<rscale>  1 0.69320679E+03</rscale>
<asrwt>0</asrwt>
<pdfrwt beam="1">  1       21 0.12484368E+00 0.10291520E+04</pdfrwt>
<pdfrwt beam="2">  1       -4 0.11176033E+00 0.10291520E+04</pdfrwt>
<totfact> 0.10972838E+01</totfact>
</mgrwt>
</event>
<event>
 6    2  0.2220137E-005  0.1023806E+04  0.7818608E-02  0.9691904E-01
         -4   -1    0    0    0  501 -0.00000000000E+00  0.00000000000E+00  0.21260684897E+04  0.21260684897E+04  0.00000000000E+00 0. -1.
         21   -1    0    0  501  502  0.00000000000E+00 -0.00000000000E+00 -0.18918858186E+03  0.18918858186E+03  0.00000000000E+00 0. -1.
   -9000010    2    1    2    0  502  0.13362223937E+03  0.20362462799E+03  0.15261724312E+04  0.18377651506E+04  0.99441468577E+03 0.  0.
         13    1    3    3    0    0 -0.31554548368E+03 -0.20462259202E+03  0.34779880848E+03  0.51225323794E+03  0.10566000000E+00 0. -1.
         -4    1    3    3    0  502  0.44916772305E+03  0.40824722000E+03  0.11783736227E+04  0.13255119127E+04  0.00000000000E+00 0. -1.
        -13    1    1    2    0    0 -0.13362223937E+03 -0.20362462799E+03  0.41070747664E+03  0.47749192088E+03  0.10566000000E+00 0.  1.
<mgrwt>
<rscale>  1 0.71500888E+03</rscale>
<asrwt>0</asrwt>
<pdfrwt beam="2">  1       21 0.29105937E-01 0.10238059E+04</pdfrwt>
<pdfrwt beam="1">  1       -4 0.32708744E+00 0.10238059E+04</pdfrwt>
<totfact> 0.97428832E+00</totfact>
</mgrwt>
</event>
<event>
 6    2  0.2220137E-005  0.1018677E+04  0.7818608E-02  0.9684781E-01
         21   -1    0    0  501  502  0.00000000000E+00  0.00000000000E+00  0.30531226945E+03  0.30531226945E+03  0.00000000000E+00 0. -1.
         -4   -1    0    0    0  501 -0.00000000000E+00 -0.00000000000E+00 -0.14780067381E+04  0.14780067381E+04  0.00000000000E+00 0. -1.
   -9000010    2    1    2    0  502  0.19766015170E+03 -0.15830961735E+03 -0.66659146643E+03  0.12173934554E+04  0.98669710232E+03 0.  0.
         13    1    3    3    0    0  0.30674604706E+03  0.36560646226E+03 -0.38184913885E+03  0.61120372924E+03  0.10566000000E+00 0. -1.
         -4    1    3    3    0  502 -0.10908589536E+03 -0.52391607961E+03 -0.28474232758E+03  0.60618972621E+03  0.00000000000E+00 0. -1.
        -13    1    1    2    0    0 -0.19766015170E+03  0.15830961735E+03 -0.50610300226E+03  0.56592555215E+03  0.10566000000E+00 0.  1.
<mgrwt>
<rscale>  1 0.71930198E+03</rscale>
<asrwt>0</asrwt>
<pdfrwt beam="1">  1       21 0.46971119E-01 0.10186769E+04</pdfrwt>
<pdfrwt beam="2">  1       -4 0.22738565E+00 0.10186769E+04</pdfrwt>
<totfact> 0.15030887E+01</totfact>
</mgrwt>
</event>
<event>
 6    2  0.2220137E-005  0.1018554E+04  0.7818608E-02  0.9718871E-01
         -4   -1    0    0    0  501 -0.00000000000E+00  0.00000000000E+00  0.66627257626E+03  0.66627257626E+03  0.00000000000E+00 0. -1.
         21   -1    0    0  501  502  0.00000000000E+00 -0.00000000000E+00 -0.58628105402E+03  0.58628105402E+03  0.00000000000E+00 0. -1.
   -9000010    2    1    2    0  502  0.23161591468E+02  0.22478567541E+03  0.20001704911E+02  0.10187506180E+04  0.99317052631E+03 0.  0.
         13    1    3    3    0    0  0.13424163415E+03 -0.22348073615E+03  0.36056111343E+03  0.44493683085E+03  0.10566000000E+00 0. -1.
         -4    1    3    3    0  502 -0.11108004268E+03  0.44826641156E+03 -0.34055940852E+03  0.57381378717E+03  0.00000000000E+00 0. -1.
        -13    1    1    2    0    0 -0.23161591468E+02 -0.22478567541E+03  0.59989817326E+02  0.23380301225E+03  0.10566000000E+00 0.  1.
<mgrwt>
<rscale>  1 0.69904255E+03</rscale>
<asrwt>0</asrwt>
<pdfrwt beam="2">  1       21 0.90197085E-01 0.10185542E+04</pdfrwt>
<pdfrwt beam="1">  1       -4 0.10250347E+00 0.10185542E+04</pdfrwt>
<totfact> 0.30769503E+01</totfact>
</mgrwt>
</event>
<event>
 6    2  0.2220137E-005  0.1066082E+04  0.7818608E-02  0.9528375E-01
         -4   -1    0    0    0  501 -0.00000000000E+00  0.00000000000E+00  0.15502223838E+04  0.15502223838E+04  0.00000000000E+00 0. -1.
         21   -1    0    0  501  502  0.00000000000E+00 -0.00000000000E+00 -0.33701987322E+03  0.33701987322E+03  0.00000000000E+00 0.  1.
   -9000010    2    1    2    0  502  0.16349450928E+03 -0.33997008727E+03  0.94196647110E+03  0.14226143251E+04  0.99710609798E+03 0.  0.
         13    1    3    3    0    0  0.40388723580E+03 -0.56245672870E+03  0.43084019248E+03  0.81554016058E+03  0.10566000000E+00 0. -1.
         -4    1    3    3    0  502 -0.24039272653E+03  0.22248664143E+03  0.51112627863E+03  0.60707416457E+03  0.00000000000E+00 0. -1.
        -13    1    1    2    0    0 -0.16349450928E+03  0.33997008727E+03  0.27123603949E+03  0.46462793188E+03  0.10566000000E+00 0.  1.
<mgrwt>
<rscale>  1 0.82223785E+03</rscale>
<asrwt>0</asrwt>
<pdfrwt beam="2">  1       21 0.51849212E-01 0.10660819E+04</pdfrwt>
<pdfrwt beam="1">  1       -4 0.23849575E+00 0.10660819E+04</pdfrwt>
<totfact> 0.10284390E+01</totfact>
</mgrwt>
</event>
<event>
 6    2  0.2220137E-005  0.1041551E+04  0.7818608E-02  0.9492832E-01
         21   -1    0    0  501  502  0.00000000000E+00  0.00000000000E+00  0.12596364205E+04  0.12596364205E+04  0.00000000000E+00 0. -1.
         -4   -1    0    0    0  501 -0.00000000000E+00 -0.00000000000E+00 -0.50319283331E+03  0.50319283331E+03  0.00000000000E+00 0. -1.
   -9000010    2    1    2    0  502  0.43188871750E+03 -0.15234112256E+03  0.78458798344E+03  0.13039961686E+04  0.93546353322E+03 0.  0.
         13    1    3    3    0    0  0.15697420195E+03 -0.27366292112E+03 -0.13006491133E+03  0.34124651910E+03  0.10566000000E+00 0. -1.
         -4    1    3    3    0  502  0.27491451555E+03  0.12132179856E+03  0.91465289477E+03  0.96274964949E+03  0.00000000000E+00 0. -1.
        -13    1    1    2    0    0 -0.43188871750E+03  0.15234112256E+03 -0.28144396224E+02  0.45883308526E+03  0.10566000000E+00 0.  1.
<mgrwt>
<rscale>  1 0.84814349E+03</rscale>
<asrwt>0</asrwt>
<pdfrwt beam="1">  1       21 0.19379022E+00 0.10415506E+04</pdfrwt>
<pdfrwt beam="2">  1       -4 0.77414283E-01 0.10415506E+04</pdfrwt>
<totfact> 0.75039455E+00</totfact>
</mgrwt>
</event>
<event>
 6    2  0.2220137E-005  0.1154435E+04  0.7818608E-02  0.9342359E-01
         21   -1    0    0  501  502  0.00000000000E+00  0.00000000000E+00  0.35738616577E+03  0.35738616577E+03  0.00000000000E+00 0. -1.
         -4   -1    0    0    0  501 -0.00000000000E+00 -0.00000000000E+00 -0.21905631088E+04  0.21905631088E+04  0.00000000000E+00 0. -1.
   -9000010    2    1    2    0  502  0.57932794527E+02 -0.57189171917E+03 -0.95437309742E+03  0.14978480617E+04  0.10011515667E+04 0.  0.
         13    1    3    3    0    0 -0.74672187226E+02 -0.44988331607E+03 -0.11468451459E+04  0.12341899098E+04  0.10566000000E+00 0. -1.
         -4    1    3    3    0  502  0.13260498175E+03 -0.12200840310E+03  0.19247204846E+03  0.26365815188E+03  0.00000000000E+00 0. -1.
        -13    1    1    2    0    0 -0.57932794527E+02  0.57189171917E+03 -0.87880384564E+03  0.10501012129E+04  0.10566000000E+00 0.  1.
<mgrwt>
<rscale>  1 0.96975021E+03</rscale>
<asrwt>0</asrwt>
<pdfrwt beam="1">  1       21 0.54982485E-01 0.11544353E+04</pdfrwt>
<pdfrwt beam="2">  1       -4 0.33700972E+00 0.11544353E+04</pdfrwt>
<totfact> 0.21771274E+00</totfact>
</mgrwt>
</event>
<event>
 6    2  0.2220137E-005  0.1025936E+04  0.7818608E-02  0.9755008E-01
         -4   -1    0    0    0  501 -0.00000000000E+00  0.00000000000E+00  0.48406668914E+03  0.48406668914E+03  0.00000000000E+00 0. -1.
         21   -1    0    0  501  502  0.00000000000E+00 -0.00000000000E+00 -0.77145785935E+03  0.77145785935E+03  0.00000000000E+00 0. -1.
   -9000010    2    1    2    0  502 -0.59596377596E+02  0.18680173629E+03 -0.24906465465E+03  0.10557357854E+04  0.10070244433E+04 0.  0.
         13    1    3    3    0    0 -0.40942318919E+03  0.39150411687E+03 -0.31016901463E+03  0.64583871839E+03  0.10566000000E+00 0. -1.
         -4    1    3    3    0  502  0.34982681159E+03 -0.20470238057E+03  0.61104359977E+02  0.40989706699E+03  0.00000000000E+00 0. -1.
        -13    1    1    2    0    0  0.59596377596E+02 -0.18680173629E+03 -0.38326515563E+02  0.19978876311E+03  0.10566000000E+00 0.  1.
<mgrwt>
<rscale>  1 0.67834013E+03</rscale>
<asrwt>0</asrwt>
<pdfrwt beam="2">  1       21 0.11868582E+00 0.10259361E+04</pdfrwt>
<pdfrwt beam="1">  1       -4 0.74471799E-01 0.10259361E+04</pdfrwt>
<totfact> 0.32724216E+01</totfact>
</mgrwt>
</event>
<event>
 6    2  0.2220137E-005  0.1173599E+04  0.7818608E-02  0.9322912E-01
         21   -1    0    0  501  502  0.00000000000E+00  0.00000000000E+00  0.91834148896E+03  0.91834148896E+03  0.00000000000E+00 0.  1.
         -4   -1    0    0    0  501 -0.00000000000E+00 -0.00000000000E+00 -0.10780757821E+04  0.10780757821E+04  0.00000000000E+00 0. -1.
   -9000010    2    1    2    0  502  0.55222398802E+03 -0.19936961000E+03  0.34383608716E+03  0.12229298999E+04  0.10161863563E+04 0.  0.
         13    1    3    3    0    0  0.90228443155E+02  0.95994771901E+02 -0.32932488031E+03  0.35469854262E+03  0.10566000000E+00 0. -1.
         -4    1    3    3    0  502  0.46199554486E+03 -0.29536438190E+03  0.67316096747E+03  0.86823135724E+03  0.00000000000E+00 0. -1.
        -13    1    1    2    0    0 -0.55222398802E+03  0.19936961000E+03 -0.50357038034E+03  0.77348737123E+03  0.10566000000E+00 0.  1.
<mgrwt>
<rscale>  1 0.98700614E+03</rscale>
<asrwt>0</asrwt>
<pdfrwt beam="1">  1       21 0.14128331E+00 0.11735989E+04</pdfrwt>
<pdfrwt beam="2">  1       -4 0.16585781E+00 0.11735989E+04</pdfrwt>
<totfact> 0.27540764E+00</totfact>
</mgrwt>
</event>
<event>
 6    2  0.2220137E-005  0.1026155E+04  0.7818608E-02  0.9720509E-01
         21   -1    0    0  501  502  0.00000000000E+00  0.00000000000E+00  0.79282039740E+03  0.79282039740E+03  0.00000000000E+00 0. -1.
         -4   -1    0    0    0  501 -0.00000000000E+00 -0.00000000000E+00 -0.56388612185E+03  0.56388612185E+03  0.00000000000E+00 0. -1.
   -9000010    2    1    2    0  502 -0.96736326438E+02  0.19735286835E+03  0.37531410562E+03  0.10926361928E+04  0.10023408105E+04 0.  0.
         13    1    3    3    0    0 -0.40108777520E+03 -0.25860849754E+03  0.15432326603E+03  0.50156299706E+03  0.10566000000E+00 0. -1.
         -4    1    3    3    0  502  0.30435144876E+03  0.45596136589E+03  0.22099083959E+03  0.59107319575E+03  0.00000000000E+00 0. -1.
        -13    1    1    2    0    0  0.96736326438E+02 -0.19735286835E+03 -0.14637983006E+03  0.26407032645E+03  0.10566000000E+00 0.  1.
<mgrwt>
<rscale>  1 0.69808742E+03</rscale>
<asrwt>0</asrwt>
<pdfrwt beam="1">  1       21 0.12197237E+00 0.10261546E+04</pdfrwt>
<pdfrwt beam="2">  1       -4 0.86751711E-01 0.10261546E+04</pdfrwt>
<totfact> 0.21449507E+01</totfact>
</mgrwt>
</event>
<event>
 6    2  0.2220137E-005  0.9816279E+03  0.7818608E-02  0.1002557E+00
         -4   -1    0    0    0  501 -0.00000000000E+00  0.00000000000E+00  0.79841419499E+02  0.79841419499E+02  0.00000000000E+00 0. -1.
         21   -1    0    0  501  502  0.00000000000E+00 -0.00000000000E+00 -0.36281004105E+04  0.36281004105E+04  0.00000000000E+00 0. -1.
   -9000010    2    1    2    0  502 -0.59775314060E+01 -0.93375664274E+02 -0.32862071518E+04  0.34296866896E+04  0.97715843075E+03 0.  0.
         13    1    3    3    0    0  0.74453189780E+01 -0.47725809757E+03 -0.96149438016E+03  0.10734533892E+04  0.10566000000E+00 0. -1.
         -4    1    3    3    0  502 -0.13422850384E+02  0.38388243329E+03 -0.23247127716E+04  0.23562333004E+04  0.00000000000E+00 0. -1.
        -13    1    1    2    0    0  0.59775314060E+01  0.93375664274E+02 -0.26205183923E+03  0.27825514042E+03  0.10566000000E+00 0.  1.
<mgrwt>
<rscale>  1 0.54543209E+03</rscale>
<asrwt>0</asrwt>
<pdfrwt beam="2">  1       21 0.55816934E+00 0.98162791E+03</pdfrwt>
<pdfrwt beam="1">  1       -4 0.12283294E-01 0.98162791E+03</pdfrwt>
<totfact> 0.10763471E+00</totfact>
</mgrwt>
</event>
<event>
 6    2  0.2220137E-005  0.7783736E+03  0.7818608E-02  0.1003147E+00
         -4   -1    0    0    0  501 -0.00000000000E+00  0.00000000000E+00  0.20243127410E+04  0.20243127410E+04  0.00000000000E+00 0. -1.
         21   -1    0    0  501  502  0.00000000000E+00 -0.00000000000E+00 -0.17320444012E+03  0.17320444012E+03  0.00000000000E+00 0. -1.
   -9000010    2    1    2    0  502 -0.14583676871E+03 -0.11257759163E+03  0.74934021086E+03  0.10804518238E+04  0.75625611708E+03 0.  0.
         13    1    3    3    0    0 -0.10373745686E+03  0.26967876027E+03  0.66083983315E+02  0.29640377479E+03  0.10566000000E+00 0. -1.
         -4    1    3    3    0  502 -0.42099311854E+02 -0.38225635190E+03  0.68325622755E+03  0.78404804898E+03  0.00000000000E+00 0. -1.
        -13    1    1    2    0    0  0.14583676871E+03  0.11257759163E+03  0.11017680900E+04  0.11170653573E+04  0.10566000000E+00 0.  1.
<mgrwt>
<rscale>  1 0.54291692E+03</rscale>
<asrwt>0</asrwt>
<pdfrwt beam="2">  1       21 0.26646838E-01 0.77837356E+03</pdfrwt>
<pdfrwt beam="1">  1       -4 0.31143271E+00 0.77837356E+03</pdfrwt>
<totfact> 0.15081540E+01</totfact>
</mgrwt>
</event>
<event>
 6    2  0.2220137E-005  0.1023586E+04  0.7818608E-02  0.9939194E-01
         -4   -1    0    0    0  501 -0.00000000000E+00  0.00000000000E+00  0.10908633118E+04  0.10908633118E+04  0.00000000000E+00 0. -1.
         21   -1    0    0  501  502  0.00000000000E+00 -0.00000000000E+00 -0.31550647227E+03  0.31550647227E+03  0.00000000000E+00 0. -1.
   -9000010    2    1    2    0  502 -0.10486919642E+03  0.27650720329E+02  0.56368770042E+03  0.11685338189E+04  0.10178238314E+04 0.  0.
         13    1    3    3    0    0  0.31439167652E+03  0.68453484085E+02  0.66192917900E+03  0.73598794482E+03  0.10566000000E+00 0. -1.
         -4    1    3    3    0  502 -0.41926087294E+03 -0.40802763756E+02 -0.98241478576E+02  0.43254587413E+03  0.00000000000E+00 0. -1.
        -13    1    1    2    0    0  0.10486919642E+03 -0.27650720329E+02  0.21166913907E+03  0.23783596509E+03  0.10566000000E+00 0.  1.
<mgrwt>
<rscale>  1 0.58398788E+03</rscale>
<asrwt>0</asrwt>
<pdfrwt beam="2">  1       21 0.48539458E-01 0.10235856E+04</pdfrwt>
<pdfrwt beam="1">  1       -4 0.16782512E+00 0.10235856E+04</pdfrwt>
<totfact> 0.35099083E+01</totfact>
</mgrwt>
</event>
<event>
 6    2  0.2220137E-005  0.1019504E+04  0.7818608E-02  0.1030185E+00
         -4   -1    0    0    0  501 -0.00000000000E+00  0.00000000000E+00  0.61661471196E+03  0.61661471196E+03  0.00000000000E+00 0. -1.
         21   -1    0    0  501  502  0.00000000000E+00 -0.00000000000E+00 -0.65437472174E+03  0.65437472174E+03  0.00000000000E+00 0. -1.
   -9000010    2    1    2    0  502  0.34248128598E+02 -0.10977175181E+02 -0.25490387021E+03  0.10508874120E+04  0.10188694406E+04 0.  0.
         13    1    3    3    0    0 -0.31911254972E+03  0.31997535907E+03  0.84356552617E+02  0.45970978773E+03  0.10566000000E+00 0. -1.
         -4    1    3    3    0  502  0.35336067832E+03 -0.33095253425E+03 -0.33926042283E+03  0.59117762424E+03  0.00000000000E+00 0. -1.
        -13    1    1    2    0    0 -0.34248128598E+02  0.10977175181E+02  0.21714386042E+03  0.22010202173E+03  0.10566000000E+00 0.  1.
<mgrwt>
<rscale>  1 0.44183503E+03</rscale>
<asrwt>0</asrwt>
<pdfrwt beam="2">  1       21 0.10067303E+00 0.10195040E+04</pdfrwt>
<pdfrwt beam="1">  1       -4 0.94863802E-01 0.10195040E+04</pdfrwt>
<totfact> 0.28322370E+01</totfact>
</mgrwt>
</event>
<event>
 6    2  0.2220137E-005  0.9823663E+03  0.7818608E-02  0.9771134E-01
         21   -1    0    0  501  502  0.00000000000E+00  0.00000000000E+00  0.56034870991E+03  0.56034870991E+03  0.00000000000E+00 0. -1.
         -4   -1    0    0    0  501 -0.00000000000E+00 -0.00000000000E+00 -0.73219682506E+03  0.73219682506E+03  0.00000000000E+00 0. -1.
   -9000010    2    1    2    0  502 -0.17038589620E+03  0.12569746939E+03  0.52873720337E+02  0.98378815133E+03  0.95927696155E+03 0.  0.
         13    1    3    3    0    0  0.25389337787E+02 -0.18614038669E+03 -0.37492403017E+03  0.41935772509E+03  0.10566000000E+00 0. -1.
         -4    1    3    3    0  502 -0.19577523399E+03  0.31183785608E+03  0.42779775051E+03  0.56443042624E+03  0.00000000000E+00 0. -1.
        -13    1    1    2    0    0  0.17038589620E+03 -0.12569746939E+03 -0.22472183549E+03  0.30875738363E+03  0.10566000000E+00 0.  1.
<mgrwt>
<rscale>  1 0.66934905E+03</rscale>
<asrwt>0</asrwt>
<pdfrwt beam="1">  1       21 0.86207494E-01 0.98236627E+03</pdfrwt>
<pdfrwt beam="2">  1       -4 0.11264566E+00 0.98236627E+03</pdfrwt>
<totfact> 0.27311079E+01</totfact>
</mgrwt>
</event>
<event>
 6    2  0.2220137E-005  0.1037714E+04  0.7818608E-02  0.9606995E-01
         -4   -1    0    0    0  501 -0.00000000000E+00  0.00000000000E+00  0.27744255185E+03  0.27744255185E+03  0.00000000000E+00 0. -1.
         21   -1    0    0  501  502  0.00000000000E+00 -0.00000000000E+00 -0.16987264723E+04  0.16987264723E+04  0.00000000000E+00 0.  1.
   -9000010    2    1    2    0  502 -0.29239500073E+03 -0.10853864214E+03 -0.12341570891E+04  0.16124494406E+04  0.98973431013E+03 0.  0.
         13    1    3    3    0    0  0.34895203268E+03  0.98235799593E+02 -0.47127701026E+03  0.59457533164E+03  0.10566000000E+00 0. -1.
         -4    1    3    3    0  502 -0.64134703341E+03 -0.20677444174E+03 -0.76288007880E+03  0.10178741089E+04  0.00000000000E+00 0. -1.
        -13    1    1    2    0    0  0.29239500073E+03  0.10853864214E+03 -0.18712683143E+03  0.36371958361E+03  0.10566000000E+00 0.  1.
<mgrwt>
<rscale>  1 0.76834904E+03</rscale>
<asrwt>0</asrwt>
<pdfrwt beam="2">  1       21 0.26134253E+00 0.10377136E+04</pdfrwt>
<pdfrwt beam="1">  1       -4 0.42683470E-01 0.10377136E+04</pdfrwt>
<totfact> 0.98034337E+00</totfact>
</mgrwt>
</event>
<event>
 6    2  0.2220137E-005  0.9992803E+03  0.7818608E-02  0.1002499E+00
         21   -1    0    0  501  502  0.00000000000E+00  0.00000000000E+00  0.69579503029E+03  0.69579503029E+03  0.00000000000E+00 0. -1.
         -4   -1    0    0    0  501 -0.00000000000E+00 -0.00000000000E+00 -0.44072434547E+03  0.44072434547E+03  0.00000000000E+00 0. -1.
   -9000010    2    1    2    0  502  0.73967133238E+02 -0.49236913805E+02  0.29082377886E+03  0.10407399136E+04  0.99532190112E+03 0.  0.
         13    1    3    3    0    0 -0.18647126916E+03  0.41392056889E+03  0.47965401396E+02  0.45651118548E+03  0.10566000000E+00 0. -1.
         -4    1    3    3    0  502  0.26043840240E+03 -0.46315748269E+03  0.24285837747E+03  0.58422872809E+03  0.00000000000E+00 0. -1.
        -13    1    1    2    0    0 -0.73967133238E+02  0.49236913805E+02 -0.35753094040E+02  0.95779462193E+02  0.10566000000E+00 0.  1.
<mgrwt>
<rscale>  1 0.54567921E+03</rscale>
<asrwt>0</asrwt>
<pdfrwt beam="1">  1       21 0.10704539E+00 0.99928029E+03</pdfrwt>
<pdfrwt beam="2">  1       -4 0.67803745E-01 0.99928029E+03</pdfrwt>
<totfact> 0.52670215E+01</totfact>
</mgrwt>
</event>
<event>
 6    2  0.2220137E-005  0.1051921E+04  0.7818608E-02  0.9559307E-01
         -4   -1    0    0    0  501 -0.00000000000E+00  0.00000000000E+00  0.50147107655E+03  0.50147107655E+03  0.00000000000E+00 0. -1.
         21   -1    0    0  501  502  0.00000000000E+00 -0.00000000000E+00 -0.10593614081E+04  0.10593614081E+04  0.00000000000E+00 0.  1.
   -9000010    2    1    2    0  502  0.32865252593E+03  0.12816087717E+03 -0.59091706121E+03  0.12065325139E+04  0.99100960679E+03 0.  0.
         13    1    3    3    0    0 -0.35326353511E+03 -0.23211750287E+01 -0.25199211111E+03  0.43393611087E+03  0.10566000000E+00 0. -1.
         -4    1    3    3    0  502  0.68191606104E+03  0.13048205220E+03 -0.33892495010E+03  0.77259640308E+03  0.00000000000E+00 0. -1.
        -13    1    1    2    0    0 -0.32865252593E+03 -0.12816087717E+03  0.33026729611E+02  0.35429997075E+03  0.10566000000E+00 0.  1.
<mgrwt>
<rscale>  1 0.80049078E+03</rscale>
<asrwt>0</asrwt>
<pdfrwt beam="2">  1       21 0.16297868E+00 0.10519210E+04</pdfrwt>
<pdfrwt beam="1">  1       -4 0.77149397E-01 0.10519210E+04</pdfrwt>
<totfact> 0.12687995E+01</totfact>
</mgrwt>
</event>
<event>
 6    2  0.2220137E-005  0.1072380E+04  0.7818608E-02  0.9524277E-01
         21   -1    0    0  501  502  0.00000000000E+00  0.00000000000E+00  0.17138646142E+04  0.17138646142E+04  0.00000000000E+00 0. -1.
         -4   -1    0    0    0  501 -0.00000000000E+00 -0.00000000000E+00 -0.33487664842E+03  0.33487664842E+03  0.00000000000E+00 0. -1.
   -9000010    2    1    2    0  502 -0.28630106587E+03  0.24366717760E+03  0.12596446816E+04  0.16542988404E+04  0.10043196383E+04 0.  0.
         13    1    3    3    0    0 -0.59497610012E+03  0.40720075827E+03  0.79933012190E+03  0.10764467809E+04  0.10566000000E+00 0. -1.
         -4    1    3    3    0  502  0.30867503425E+03 -0.16353358067E+03  0.46031455972E+03  0.57785205950E+03  0.00000000000E+00 0. -1.
        -13    1    1    2    0    0  0.28630106587E+03 -0.24366717760E+03  0.11934328413E+03  0.39444242214E+03  0.10566000000E+00 0.  1.
<mgrwt>
<rscale>  1 0.82517410E+03</rscale>
<asrwt>0</asrwt>
<pdfrwt beam="1">  1       21 0.26367147E+00 0.10723805E+04</pdfrwt>
<pdfrwt beam="2">  1       -4 0.51519485E-01 0.10723805E+04</pdfrwt>
<totfact> 0.63615530E+00</totfact>
</mgrwt>
</event>
<event>
 6    2  0.2220137E-005  0.1051749E+04  0.7818608E-02  0.9580712E-01
         -4   -1    0    0    0  501 -0.00000000000E+00  0.00000000000E+00  0.79897661463E+03  0.79897661463E+03  0.00000000000E+00 0. -1.
         21   -1    0    0  501  502  0.00000000000E+00 -0.00000000000E+00 -0.97948585692E+03  0.97948585692E+03  0.00000000000E+00 0. -1.
   -9000010    2    1    2    0  502 -0.10972201777E+03 -0.30892035754E+03 -0.62706329823E+03  0.12244938402E+04  0.99935282868E+03 0.  0.
         13    1    3    3    0    0  0.36578140485E+03  0.11740672888E+03 -0.10133944341E+03  0.39730349869E+03  0.10566000000E+00 0. -1.
         -4    1    3    3    0  502 -0.47550342262E+03 -0.42632708641E+03 -0.52572385482E+03  0.82719034149E+03  0.00000000000E+00 0. -1.
        -13    1    1    2    0    0  0.10972201777E+03  0.30892035754E+03  0.44655405594E+03  0.55396863136E+03  0.10566000000E+00 0.  1.
<mgrwt>
<rscale>  1 0.78586052E+03</rscale>
<asrwt>0</asrwt>
<pdfrwt beam="2">  1       21 0.15069013E+00 0.10517494E+04</pdfrwt>
<pdfrwt beam="1">  1       -4 0.12291948E+00 0.10517494E+04</pdfrwt>
<totfact> 0.51823448E+00</totfact>
</mgrwt>
</event>
<event>
 6    2  0.2220137E-005  0.1088020E+04  0.7818608E-02  0.9478019E-01
         -4   -1    0    0    0  501 -0.00000000000E+00  0.00000000000E+00  0.55035531556E+03  0.55035531556E+03  0.00000000000E+00 0. -1.
         21   -1    0    0  501  502  0.00000000000E+00 -0.00000000000E+00 -0.10606510629E+04  0.10606510629E+04  0.00000000000E+00 0.  1.
   -9000010    2    1    2    0  502 -0.39486208552E+03  0.15226035775E+03 -0.47227893823E+03  0.11861010101E+04  0.10023417220E+04 0.  0.
         13    1    3    3    0    0  0.19870297720E+02 -0.23968248909E+03 -0.55934954829E+03  0.60886324625E+03  0.10566000000E+00 0. -1.
         -4    1    3    3    0  502 -0.41473238324E+03  0.39194284684E+03  0.87070610051E+02  0.57723776386E+03  0.00000000000E+00 0. -1.
        -13    1    1    2    0    0  0.39486208552E+03 -0.15226035775E+03 -0.38016809131E+02  0.42490536836E+03  0.10566000000E+00 0.  1.
<mgrwt>
<rscale>  1 0.85924000E+03</rscale>
<asrwt>0</asrwt>
<pdfrwt beam="2">  1       21 0.16317708E+00 0.10880203E+04</pdfrwt>
<pdfrwt beam="1">  1       -4 0.84670049E-01 0.10880203E+04</pdfrwt>
<totfact> 0.10162489E+01</totfact>
</mgrwt>
</event>
<event>
 6    2  0.2220137E-005  0.9540891E+03  0.7818608E-02  0.9784102E-01
         -4   -1    0    0    0  501 -0.00000000000E+00  0.00000000000E+00  0.66772501676E+03  0.66772501676E+03  0.00000000000E+00 0. -1.
         21   -1    0    0  501  502  0.00000000000E+00 -0.00000000000E+00 -0.51781475862E+03  0.51781475862E+03  0.00000000000E+00 0. -1.
   -9000010    2    1    2    0  502  0.18173135846E+03  0.12653330247E+03  0.13503706093E+03  0.96359792164E+03  0.92803501200E+03 0.  0.
         13    1    3    3    0    0 -0.64010769194E+02  0.34178138691E+03  0.40929130214E+03  0.53705798214E+03  0.10566000000E+00 0. -1.
         -4    1    3    3    0  502  0.24574212766E+03 -0.21524808444E+03 -0.27425424122E+03  0.42653993950E+03  0.00000000000E+00 0. -1.
        -13    1    1    2    0    0 -0.18173135846E+03 -0.12653330247E+03  0.14873197218E+02  0.22194185374E+03  0.10566000000E+00 0.  1.
<mgrwt>
<rscale>  1 0.66222749E+03</rscale>
<asrwt>0</asrwt>
<pdfrwt beam="2">  1       21 0.79663808E-01 0.95408907E+03</pdfrwt>
<pdfrwt beam="1">  1       -4 0.10272693E+00 0.95408907E+03</pdfrwt>
<totfact> 0.41376584E+01</totfact>
</mgrwt>
</event>
<event>
 6    2  0.2220137E-005  0.1035006E+04  0.7818608E-02  0.9602909E-01
         -4   -1    0    0    0  501 -0.00000000000E+00  0.00000000000E+00  0.41973059013E+03  0.41973059013E+03  0.00000000000E+00 0. -1.
         21   -1    0    0  501  502  0.00000000000E+00 -0.00000000000E+00 -0.11055452989E+04  0.11055452989E+04  0.00000000000E+00 0. -1.
   -9000010    2    1    2    0  502 -0.29641805913E+02 -0.31738946094E+03 -0.59490120417E+03  0.11937943917E+04  0.98469431823E+03 0.  0.
         13    1    3    3    0    0 -0.42827511972E+03 -0.11215787309E+03 -0.59969344287E+03  0.74540673679E+03  0.10566000000E+00 0. -1.
         -4    1    3    3    0  502  0.39863331380E+03 -0.20523158785E+03  0.47922386956E+01  0.44838765491E+03  0.00000000000E+00 0. -1.
        -13    1    1    2    0    0  0.29641805913E+02  0.31738946094E+03 -0.90913504566E+02  0.33148149730E+03  0.10566000000E+00 0.  1.
<mgrwt>
<rscale>  1 0.77103973E+03</rscale>
<asrwt>0</asrwt>
<pdfrwt beam="2">  1       21 0.17008389E+00 0.10350061E+04</pdfrwt>
<pdfrwt beam="1">  1       -4 0.64573936E-01 0.10350061E+04</pdfrwt>
<totfact> 0.16742353E+01</totfact>
</mgrwt>
</event>
<event>
 6    2  0.2220137E-005  0.1174930E+04  0.7818608E-02  0.9310237E-01
         21   -1    0    0  501  502  0.00000000000E+00  0.00000000000E+00  0.10138670913E+04  0.10138670913E+04  0.00000000000E+00 0. -1.
         -4   -1    0    0    0  501 -0.00000000000E+00 -0.00000000000E+00 -0.87633658848E+03  0.87633658848E+03  0.00000000000E+00 0. -1.
   -9000010    2    1    2    0  502  0.49850868856E+03  0.35630655881E+03  0.37458289798E+03  0.12331959738E+04  0.10024942324E+04 0.  0.
         13    1    3    3    0    0 -0.12868487825E+03 -0.26163827893E+03  0.13103093272E+03  0.31966154506E+03  0.10566000000E+00 0. -1.
         -4    1    3    3    0  502  0.62719356681E+03  0.61794483774E+03  0.24355196526E+03  0.91353442876E+03  0.00000000000E+00 0. -1.
        -13    1    1    2    0    0 -0.49850868856E+03 -0.35630655881E+03 -0.23705239519E+03  0.65700770593E+03  0.10566000000E+00 0.  1.
<mgrwt>
<rscale>  1 0.99845881E+03</rscale>
<asrwt>0</asrwt>
<pdfrwt beam="1">  1       21 0.15597955E+00 0.11749298E+04</pdfrwt>
<pdfrwt beam="2">  1       -4 0.13482101E+00 0.11749298E+04</pdfrwt>
<totfact> 0.36536825E+00</totfact>
</mgrwt>
</event>
<event>
 6    2  0.2220137E-005  0.1027469E+04  0.7818608E-02  0.9873266E-01
         21   -1    0    0  501  502  0.00000000000E+00  0.00000000000E+00  0.16152895521E+03  0.16152895521E+03  0.00000000000E+00 0. -1.
         -4   -1    0    0    0  501 -0.00000000000E+00 -0.00000000000E+00 -0.23022700239E+04  0.23022700239E+04  0.00000000000E+00 0. -1.
   -9000010    2    1    2    0  502  0.65739994306E+02  0.11507089445E+03 -0.15588311293E+04  0.18669889203E+04  0.10188866871E+04 0.  0.
         13    1    3    3    0    0  0.25086250920E+03  0.43451669927E+03 -0.13557509601E+04  0.14456131701E+04  0.10566000000E+00 0. -1.
         -4    1    3    3    0  502 -0.18512251489E+03 -0.31944580482E+03 -0.20308016917E+03  0.42137575018E+03  0.00000000000E+00 0. -1.
        -13    1    1    2    0    0 -0.65739994306E+02 -0.11507089445E+03 -0.58190993945E+03  0.59681005890E+03  0.10566000000E+00 0.  1.
<mgrwt>
<rscale>  1 0.61574612E+03</rscale>
<asrwt>0</asrwt>
<pdfrwt beam="1">  1       21 0.24850608E-01 0.10274693E+04</pdfrwt>
<pdfrwt beam="2">  1       -4 0.35419540E+00 0.10274693E+04</pdfrwt>
<totfact> 0.89449631E+00</totfact>
</mgrwt>
</event>
<event>
 6    2  0.2220137E-005  0.1032719E+04  0.7818608E-02  0.9642450E-01
         -4   -1    0    0    0  501 -0.00000000000E+00  0.00000000000E+00  0.26978048359E+04  0.26978048359E+04  0.00000000000E+00 0. -1.
         21   -1    0    0  501  502  0.00000000000E+00 -0.00000000000E+00 -0.16018594713E+03  0.16018594713E+03  0.00000000000E+00 0. -1.
   -9000010    2    1    2    0  502 -0.10028805679E+03  0.26188429170E+03  0.19358602717E+04  0.21940973270E+04  0.99391499248E+03 0.  0.
         13    1    3    3    0    0  0.97430049024E+02  0.53330172321E+03  0.16983917699E+04  0.17828174213E+04  0.10566000000E+00 0. -1.
         -4    1    3    3    0  502 -0.19771810582E+03 -0.27141743151E+03  0.23746850178E+03  0.41127990570E+03  0.00000000000E+00 0. -1.
        -13    1    1    2    0    0  0.10028805679E+03 -0.26188429170E+03  0.60175861707E+03  0.66389345603E+03  0.10566000000E+00 0.  1.
<mgrwt>
<rscale>  1 0.74549159E+03</rscale>
<asrwt>0</asrwt>
<pdfrwt beam="2">  1       21 0.24643994E-01 0.10327188E+04</pdfrwt>
<pdfrwt beam="1">  1       -4 0.41504686E+00 0.10327188E+04</pdfrwt>
<totfact> 0.35140154E+00</totfact>
</mgrwt>
</event>
<event>
 6    2  0.2220137E-005  0.1028404E+04  0.7818608E-02  0.9801551E-01
         21   -1    0    0  501  502  0.00000000000E+00  0.00000000000E+00  0.56741606295E+03  0.56741606295E+03  0.00000000000E+00 0. -1.
         -4   -1    0    0    0  501 -0.00000000000E+00 -0.00000000000E+00 -0.74028440247E+03  0.74028440247E+03  0.00000000000E+00 0. -1.
   -9000010    2    1    2    0  502 -0.34774263663E+02 -0.16329857068E+03  0.49541021696E+02  0.10295968737E+04  0.10147609260E+04 0.  0.
         13    1    3    3    0    0 -0.38029225049E+03 -0.28877773944E+03 -0.26471997678E+03  0.54597752321E+03  0.10566000000E+00 0. -1.
         -4    1    3    3    0  502  0.34551798683E+03  0.12547916877E+03  0.31426099848E+03  0.48361935050E+03  0.00000000000E+00 0. -1.
        -13    1    1    2    0    0  0.34774263663E+02  0.16329857068E+03 -0.22240936122E+03  0.27810359171E+03  0.10566000000E+00 0.  1.
<mgrwt>
<rscale>  1 0.65279393E+03</rscale>
<asrwt>0</asrwt>
<pdfrwt beam="1">  1       21 0.87294780E-01 0.10284043E+04</pdfrwt>
<pdfrwt beam="2">  1       -4 0.11388991E+00 0.10284043E+04</pdfrwt>
<totfact> 0.25683375E+01</totfact>
</mgrwt>
</event>
<event>
 6    2  0.2220137E-005  0.1043572E+04  0.7818608E-02  0.9596868E-01
         21   -1    0    0  501  502  0.00000000000E+00  0.00000000000E+00  0.58008343071E+03  0.58008343071E+03  0.00000000000E+00 0. -1.
         -4   -1    0    0    0  501 -0.00000000000E+00 -0.00000000000E+00 -0.12232477283E+04  0.12232477283E+04  0.00000000000E+00 0. -1.
   -9000010    2    1    2    0  502  0.23431366648E+03  0.21423153913E+03  0.45965541788E+02  0.10445835110E+04  0.99410453865E+03 0.  0.
         13    1    3    3    0    0  0.32881883122E+02 -0.36572065614E+03  0.19077795564E+03  0.41379832780E+03  0.10566000000E+00 0. -1.
         -4    1    3    3    0  502  0.20143178335E+03  0.57995219527E+03 -0.14481241385E+03  0.63078518320E+03  0.00000000000E+00 0. -1.
        -13    1    1    2    0    0 -0.23431366648E+03 -0.21423153913E+03 -0.68912983936E+03  0.75874764798E+03  0.10566000000E+00 0.  1.
<mgrwt>
<rscale>  1 0.77503843E+03</rscale>
<asrwt>0</asrwt>
<pdfrwt beam="1">  1       21 0.89243605E-01 0.10435717E+04</pdfrwt>
<pdfrwt beam="2">  1       -4 0.18819196E+00 0.10435717E+04</pdfrwt>
<totfact> 0.63149350E+00</totfact>
</mgrwt>
</event>
<event>
 6    2  0.2220137E-005  0.1037891E+04  0.7818608E-02  0.9623916E-01
         -4   -1    0    0    0  501 -0.00000000000E+00  0.00000000000E+00  0.52242310965E+03  0.52242310965E+03  0.00000000000E+00 0. -1.
         21   -1    0    0  501  502  0.00000000000E+00 -0.00000000000E+00 -0.15253356656E+04  0.15253356656E+04  0.00000000000E+00 0. -1.
   -9000010    2    1    2    0  502  0.89695496936E+02 -0.28022830768E+03 -0.12770403862E+04  0.16456154363E+04  0.99531142345E+03 0.  0.
         13    1    3    3    0    0  0.47311173436E+03 -0.39430636108E+03 -0.93326137774E+03  0.11181632394E+04  0.10566000000E+00 0. -1.
         -4    1    3    3    0  502 -0.38341623742E+03  0.11407805340E+03 -0.34377900847E+03  0.52745219694E+03  0.00000000000E+00 0. -1.
        -13    1    1    2    0    0 -0.89695496936E+02  0.28022830768E+03  0.27412783024E+03  0.40214333896E+03  0.10566000000E+00 0.  1.
<mgrwt>
<rscale>  1 0.75733283E+03</rscale>
<asrwt>0</asrwt>
<pdfrwt beam="2">  1       21 0.23466703E+00 0.10378911E+04</pdfrwt>
<pdfrwt beam="1">  1       -4 0.80372785E-01 0.10378911E+04</pdfrwt>
<totfact> 0.36662770E+00</totfact>
</mgrwt>
</event>
<event>
 6    2  0.2220137E-005  0.1005404E+04  0.7818608E-02  0.1006888E+00
         21   -1    0    0  501  502  0.00000000000E+00  0.00000000000E+00  0.55350906114E+03  0.55350906114E+03  0.00000000000E+00 0. -1.
         -4   -1    0    0    0  501 -0.00000000000E+00 -0.00000000000E+00 -0.70388205030E+03  0.70388205030E+03  0.00000000000E+00 0. -1.
   -9000010    2    1    2    0  502  0.44457233942E+02 -0.61728341377E+02  0.86002978223E+02  0.10090759027E+04  0.10025222348E+04 0.  0.
         13    1    3    3    0    0 -0.41678926197E+03  0.17322139591E+03  0.17453140080E+03  0.48392164854E+03  0.10566000000E+00 0. -1.
         -4    1    3    3    0  502  0.46124649591E+03 -0.23494973729E+03 -0.88528422574E+02  0.52515425414E+03  0.00000000000E+00 0. -1.
        -13    1    1    2    0    0 -0.44457233942E+02  0.61728341377E+02 -0.23637596739E+03  0.24831520876E+03  0.10566000000E+00 0.  1.
<mgrwt>
<rscale>  1 0.52730363E+03</rscale>
<asrwt>0</asrwt>
<pdfrwt beam="1">  1       21 0.85155240E-01 0.10054042E+04</pdfrwt>
<pdfrwt beam="2">  1       -4 0.10828955E+00 0.10054042E+04</pdfrwt>
<totfact> 0.30926582E+01</totfact>
</mgrwt>
</event>
<event>
 6    2  0.2220137E-005  0.7779797E+03  0.7818608E-02  0.1010775E+00
         21   -1    0    0  501  502  0.00000000000E+00  0.00000000000E+00  0.11724531095E+04  0.11724531095E+04  0.00000000000E+00 0. -1.
         -4   -1    0    0    0  501 -0.00000000000E+00 -0.00000000000E+00 -0.82325365452E+03  0.82325365452E+03  0.00000000000E+00 0. -1.
   -9000010    2    1    2    0  502  0.38266489952E+00  0.14557269101E+03  0.10349086753E+04  0.12947155366E+04  0.76423870597E+03 0.  0.
         13    1    3    3    0    0  0.35019931558E+03  0.50557953935E+02  0.76471146101E+03  0.84260269232E+03  0.10566000000E+00 0. -1.
         -4    1    3    3    0  502 -0.34981665068E+03  0.95014737078E+02  0.27019721429E+03  0.45211284428E+03  0.00000000000E+00 0. -1.
        -13    1    1    2    0    0 -0.38266489952E+00 -0.14557269101E+03 -0.68570922036E+03  0.70099122738E+03  0.10566000000E+00 0.  1.
<mgrwt>
<rscale>  1 0.51167779E+03</rscale>
<asrwt>0</asrwt>
<pdfrwt beam="1">  1       21 0.18037740E+00 0.77797966E+03</pdfrwt>
<pdfrwt beam="2">  1       -4 0.12665441E+00 0.77797966E+03</pdfrwt>
<totfact> 0.29839160E+00</totfact>
</mgrwt>
</event>
<event>
 6    2  0.2220137E-005  0.1087851E+04  0.7818608E-02  0.9568609E-01
         21   -1    0    0  501  502  0.00000000000E+00  0.00000000000E+00  0.28281092632E+04  0.28281092632E+04  0.00000000000E+00 0. -1.
         -4   -1    0    0    0  501 -0.00000000000E+00 -0.00000000000E+00 -0.21702377586E+03  0.21702377586E+03  0.00000000000E+00 0. -1.
   -9000010    2    1    2    0  502 -0.27813000849E+03  0.13432471762E+03  0.24828304265E+04  0.27106949982E+04  0.10430824585E+04 0.  0.
         13    1    3    3    0    0 -0.28523584139E+03 -0.16963310354E+03  0.16066736100E+03  0.36871247210E+03  0.10566000000E+00 0. -1.
         -4    1    3    3    0  502  0.71058328969E+01  0.30395782116E+03  0.23221630655E+04  0.23419825261E+04  0.00000000000E+00 0. -1.
        -13    1    1    2    0    0  0.27813000849E+03 -0.13432471762E+03  0.12825506091E+03  0.33443804090E+03  0.10566000000E+00 0.  1.
<mgrwt>
<rscale>  1 0.79409119E+03</rscale>
<asrwt>0</asrwt>
<pdfrwt beam="1">  1       21 0.43509371E+00 0.10878513E+04</pdfrwt>
<pdfrwt beam="2">  1       -4 0.33388275E-01 0.10878513E+04</pdfrwt>
<totfact> 0.12360501E+00</totfact>
</mgrwt>
</event>
<event>
 6    2  0.2220137E-005  0.9928860E+03  0.7818608E-02  0.9761254E-01
         -4   -1    0    0    0  501 -0.00000000000E+00  0.00000000000E+00  0.47312634530E+03  0.47312634530E+03  0.00000000000E+00 0. -1.
         21   -1    0    0  501  502  0.00000000000E+00 -0.00000000000E+00 -0.98948076800E+03  0.98948076800E+03  0.00000000000E+00 0. -1.
   -9000010    2    1    2    0  502 -0.18146907699E+03 -0.10938504837E+03 -0.67267455963E+03  0.11992971988E+04  0.97001370769E+03 0.  0.
         13    1    3    3    0    0  0.43852820748E+02 -0.41732127353E+03 -0.70066013776E+03  0.81670359068E+03  0.10566000000E+00 0. -1.
         -4    1    3    3    0  502 -0.22532189774E+03  0.30793622516E+03  0.27985578124E+02  0.38259360809E+03  0.00000000000E+00 0. -1.
        -13    1    1    2    0    0  0.18146907699E+03  0.10938504837E+03  0.15632013694E+03  0.26330991453E+03  0.10566000000E+00 0.  1.
<mgrwt>
<rscale>  1 0.67483976E+03</rscale>
<asrwt>0</asrwt>
<pdfrwt beam="2">  1       21 0.15222781E+00 0.99288605E+03</pdfrwt>
<pdfrwt beam="1">  1       -4 0.72788668E-01 0.99288605E+03</pdfrwt>
<totfact> 0.17698974E+01</totfact>
</mgrwt>
</event>
<event>
 6    2  0.2220137E-005  0.1007249E+04  0.7818608E-02  0.9959759E-01
         -4   -1    0    0    0  501 -0.00000000000E+00  0.00000000000E+00  0.51755267299E+03  0.51755267299E+03  0.00000000000E+00 0. -1.
         21   -1    0    0  501  502  0.00000000000E+00 -0.00000000000E+00 -0.68860423366E+03  0.68860423366E+03  0.00000000000E+00 0. -1.
   -9000010    2    1    2    0  502 -0.50833758752E+02 -0.93700894401E+02 -0.28829584079E+03  0.10476950468E+04  0.10015919781E+04 0.  0.
         13    1    3    3    0    0  0.33206168288E+03 -0.39657219219E+03 -0.17968066739E+03  0.54755786749E+03  0.10566000000E+00 0. -1.
         -4    1    3    3    0  502 -0.38289544163E+03  0.30287129779E+03 -0.10861517340E+03  0.50013717932E+03  0.00000000000E+00 0. -1.
        -13    1    1    2    0    0  0.50833758752E+02  0.93700894401E+02  0.11724428012E+03  0.15846185984E+03  0.10566000000E+00 0.  1.
<mgrwt>
<rscale>  1 0.57450489E+03</rscale>
<asrwt>0</asrwt>
<pdfrwt beam="2">  1       21 0.10593911E+00 0.10072489E+04</pdfrwt>
<pdfrwt beam="1">  1       -4 0.79623489E-01 0.10072489E+04</pdfrwt>
<totfact> 0.37573537E+01</totfact>
</mgrwt>
</event>
<event>
 6    2  0.2220137E-005  0.9902027E+03  0.7818608E-02  0.9885341E-01
         -4   -1    0    0    0  501 -0.00000000000E+00  0.00000000000E+00  0.17501422882E+04  0.17501422882E+04  0.00000000000E+00 0. -1.
         21   -1    0    0  501  502  0.00000000000E+00 -0.00000000000E+00 -0.18359782644E+03  0.18359782644E+03  0.00000000000E+00 0. -1.
   -9000010    2    1    2    0  502 -0.11631419511E+03  0.82140891896E+02  0.13968322320E+04  0.17122037289E+04  0.97991081575E+03 0.  0.
         13    1    3    3    0    0 -0.37035596694E+02  0.31642672590E+03  0.14278229931E+04  0.14629340447E+04  0.10566000000E+00 0. -1.
         -4    1    3    3    0  502 -0.79278598413E+02 -0.23428583401E+03 -0.30990761133E+02  0.24926968419E+03  0.00000000000E+00 0. -1.
        -13    1    1    2    0    0  0.11631419511E+03 -0.82140891896E+02  0.16971222972E+03  0.22153638570E+03  0.10566000000E+00 0.  1.
<mgrwt>
<rscale>  1 0.60977028E+03</rscale>
<asrwt>0</asrwt>
<pdfrwt beam="2">  1       21 0.28245821E-01 0.99020267E+03</pdfrwt>
<pdfrwt beam="1">  1       -4 0.26925265E+00 0.99020267E+03</pdfrwt>
<totfact> 0.23737244E+01</totfact>
</mgrwt>
</event>
<event>
 6    2  0.2220137E-005  0.1010243E+04  0.7818608E-02  0.9773251E-01
         21   -1    0    0  501  502  0.00000000000E+00  0.00000000000E+00  0.10827790378E+04  0.10827790378E+04  0.00000000000E+00 0. -1.
         -4   -1    0    0    0  501 -0.00000000000E+00 -0.00000000000E+00 -0.33616679589E+03  0.33616679589E+03  0.00000000000E+00 0. -1.
   -9000010    2    1    2    0  502 -0.12529216496E+03 -0.14723454594E+03  0.66260166977E+03  0.12081522723E+04  0.99157188451E+03 0.  0.
         13    1    3    3    0    0  0.27100576658E+02 -0.54154523450E+03  0.54630876599E+03  0.76971355791E+03  0.10566000000E+00 0. -1.
         -4    1    3    3    0  502 -0.15239274162E+03  0.39431068856E+03  0.11629290379E+03  0.43843871439E+03  0.00000000000E+00 0. -1.
        -13    1    1    2    0    0  0.12529216496E+03  0.14723454594E+03  0.84010572084E+02  0.21079356135E+03  0.10566000000E+00 0.  1.
<mgrwt>
<rscale>  1 0.66818037E+03</rscale>
<asrwt>0</asrwt>
<pdfrwt beam="1">  1       21 0.16658139E+00 0.10102430E+04</pdfrwt>
<pdfrwt beam="2">  1       -4 0.51717969E-01 0.10102430E+04</pdfrwt>
<totfact> 0.28845341E+01</totfact>
</mgrwt>
</event>
<event>
 6    2  0.2220137E-005  0.1035527E+04  0.7818608E-02  0.9822925E-01
         21   -1    0    0  501  502  0.00000000000E+00  0.00000000000E+00  0.14679044384E+03  0.14679044384E+03  0.00000000000E+00 0. -1.
         -4   -1    0    0    0  501 -0.00000000000E+00 -0.00000000000E+00 -0.28021098495E+04  0.28021098495E+04  0.00000000000E+00 0. -1.
   -9000010    2    1    2    0  502 -0.15207395494E+03 -0.11109318613E+02 -0.17709524166E+04  0.20514846220E+04  0.10242396143E+04 0.  0.
         13    1    3    3    0    0 -0.92967773847E+02 -0.19546531825E+03 -0.18348810942E+04  0.18476034040E+04  0.10566000000E+00 0. -1.
         -4    1    3    3    0  502 -0.59106181088E+02  0.18435599963E+03  0.63928677516E+02  0.20388121800E+03  0.00000000000E+00 0. -1.
        -13    1    1    2    0    0  0.15207395494E+03  0.11109318613E+02 -0.88436698900E+03  0.89741567132E+03  0.10566000000E+00 0.  1.
<mgrwt>
<rscale>  1 0.64146627E+03</rscale>
<asrwt>0</asrwt>
<pdfrwt beam="1">  1       21 0.22583145E-01 0.10355273E+04</pdfrwt>
<pdfrwt beam="2">  1       -4 0.43109383E+00 0.10355273E+04</pdfrwt>
<totfact> 0.32003275E+00</totfact>
</mgrwt>
</event>
<event>
 6    2  0.2220137E-005  0.9526547E+03  0.7818608E-02  0.1005916E+00
         21   -1    0    0  501  502  0.00000000000E+00  0.00000000000E+00  0.30508227409E+03  0.30508227409E+03  0.00000000000E+00 0. -1.
         -4   -1    0    0    0  501 -0.00000000000E+00 -0.00000000000E+00 -0.12113090136E+04  0.12113090136E+04  0.00000000000E+00 0. -1.
   -9000010    2    1    2    0  502  0.10886204644E+02 -0.91519929480E+02 -0.45479347312E+03  0.10556457917E+04  0.94818591390E+03 0.  0.
         13    1    3    3    0    0 -0.10406694962E+03 -0.46611922151E+03 -0.46095158334E+03  0.66375705798E+03  0.10566000000E+00 0. -1.
         -4    1    3    3    0  502  0.11495315426E+03  0.37459929203E+03  0.61581102212E+01  0.39188873368E+03  0.00000000000E+00 0. -1.
        -13    1    1    2    0    0 -0.10886204644E+02  0.91519929480E+02 -0.45143326641E+03  0.46074549605E+03  0.10566000000E+00 0.  1.
<mgrwt>
<rscale>  1 0.53130430E+03</rscale>
<asrwt>0</asrwt>
<pdfrwt beam="1">  1       21 0.46935735E-01 0.95265468E+03</pdfrwt>
<pdfrwt beam="2">  1       -4 0.18635523E+00 0.95265468E+03</pdfrwt>
<totfact> 0.28121454E+01</totfact>
</mgrwt>
</event>
<event>
 6    2  0.2220137E-005  0.1076756E+04  0.7818608E-02  0.9535767E-01
         21   -1    0    0  501  502  0.00000000000E+00  0.00000000000E+00  0.26983991635E+03  0.26983991635E+03  0.00000000000E+00 0. -1.
         -4   -1    0    0    0  501 -0.00000000000E+00 -0.00000000000E+00 -0.21733455756E+04  0.21733455756E+04  0.00000000000E+00 0. -1.
   -9000010    2    1    2    0  502 -0.35559256873E+03 -0.29894335867E+02 -0.99097931151E+03  0.14633670941E+04  0.10159052663E+04 0.  0.
         13    1    3    3    0    0  0.33157848912E+02 -0.40823137065E+03 -0.10222213645E+03  0.42213939792E+03  0.10566000000E+00 0. -1.
         -4    1    3    3    0  502 -0.38875041764E+03  0.37833703479E+03 -0.88875717506E+03  0.10412276962E+04  0.00000000000E+00 0. -1.
        -13    1    1    2    0    0  0.35559256873E+03  0.29894335867E+02 -0.91252634773E+03  0.97981839782E+03  0.10566000000E+00 0.  1.
<mgrwt>
<rscale>  1 0.81697440E+03</rscale>
<asrwt>0</asrwt>
<pdfrwt beam="1">  1       21 0.41513835E-01 0.10767559E+04</pdfrwt>
<pdfrwt beam="2">  1       -4 0.33436084E+00 0.10767559E+04</pdfrwt>
<totfact> 0.41896856E+00</totfact>
</mgrwt>
</event>
<event>
 6    2  0.2220137E-005  0.9585342E+03  0.7818608E-02  0.9790072E-01
         21   -1    0    0  501  502  0.00000000000E+00  0.00000000000E+00  0.37853332786E+03  0.37853332786E+03  0.00000000000E+00 0. -1.
         -4   -1    0    0    0  501 -0.00000000000E+00 -0.00000000000E+00 -0.10203296046E+04  0.10203296046E+04  0.00000000000E+00 0. -1.
   -9000010    2    1    2    0  502  0.10334329151E+03 -0.18753590983E+03 -0.31653325447E+03  0.10094459346E+04  0.93431163987E+03 0.  0.
         13    1    3    3    0    0  0.28866240150E+03  0.25184961248E+03 -0.36624988987E+03  0.52999358707E+03  0.10566000000E+00 0. -1.
         -4    1    3    3    0  502 -0.18531910998E+03 -0.43938552232E+03  0.49716635397E+02  0.47945234756E+03  0.00000000000E+00 0. -1.
        -13    1    1    2    0    0 -0.10334329151E+03  0.18753590983E+03 -0.32526302224E+03  0.38941699781E+03  0.10566000000E+00 0.  1.
<mgrwt>
<rscale>  1 0.65898057E+03</rscale>
<asrwt>0</asrwt>
<pdfrwt beam="1">  1       21 0.58235897E-01 0.95853419E+03</pdfrwt>
<pdfrwt beam="2">  1       -4 0.15697378E+00 0.95853419E+03</pdfrwt>
<totfact> 0.28546074E+01</totfact>
</mgrwt>
</event>
<event>
 6    2  0.2220137E-005  0.9990286E+03  0.7818608E-02  0.9998507E-01
         21   -1    0    0  501  502  0.00000000000E+00  0.00000000000E+00  0.86203495436E+03  0.86203495436E+03  0.00000000000E+00 0. -1.
         -4   -1    0    0    0  501 -0.00000000000E+00 -0.00000000000E+00 -0.35430593012E+03  0.35430593012E+03  0.00000000000E+00 0. -1.
   -9000010    2    1    2    0  502  0.78515865008E+02  0.56350801349E+02  0.41305662157E+03  0.10810521974E+04  0.99434296244E+03 0.  0.
         13    1    3    3    0    0 -0.87116355669E+02 -0.26672566188E+03  0.60752333274E+03  0.66919089139E+03  0.10566000000E+00 0. -1.
         -4    1    3    3    0  502  0.16563222068E+03  0.32307646323E+03 -0.19446671117E+03  0.41186130599E+03  0.00000000000E+00 0. -1.
        -13    1    1    2    0    0 -0.78515865008E+02 -0.56350801349E+02  0.94672402665E+02  0.13528868711E+03  0.10566000000E+00 0.  1.
<mgrwt>
<rscale>  1 0.55715727E+03</rscale>
<asrwt>0</asrwt>
<pdfrwt beam="1">  1       21 0.13262076E+00 0.99902857E+03</pdfrwt>
<pdfrwt beam="2">  1       -4 0.54508605E-01 0.99902857E+03</pdfrwt>
<totfact> 0.48693168E+01</totfact>
</mgrwt>
</event>
<event>
 6    2  0.2220137E-005  0.1207368E+04  0.7818608E-02  0.9265686E-01
         -4   -1    0    0    0  501 -0.00000000000E+00  0.00000000000E+00  0.20785001545E+04  0.20785001545E+04  0.00000000000E+00 0. -1.
         21   -1    0    0  501  502  0.00000000000E+00 -0.00000000000E+00 -0.42157834304E+03  0.42157834304E+03  0.00000000000E+00 0.  1.
   -9000010    2    1    2    0  502  0.22884883980E+03  0.62415734273E+03  0.10649697422E+04  0.16099372483E+04  0.10078656716E+04 0.  0.
         13    1    3    3    0    0 -0.19190144074E+03 -0.78573158537E+02 -0.62303828709E+02  0.21652178282E+03  0.10566000000E+00 0. -1.
         -4    1    3    3    0  502  0.42075028054E+03  0.70273050127E+03  0.11272735709E+04  0.13934154655E+04  0.00000000000E+00 0. -1.
        -13    1    1    2    0    0 -0.22884883980E+03 -0.62415734273E+03  0.59195206926E+03  0.89014124914E+03  0.10566000000E+00 0.  1.
<mgrwt>
<rscale>  1 0.10400415E+04</rscale>
<asrwt>0</asrwt>
<pdfrwt beam="2">  1       21 0.64858208E-01 0.12073680E+04</pdfrwt>
<pdfrwt beam="1">  1       -4 0.31976925E+00 0.12073680E+04</pdfrwt>
<totfact> 0.19229056E+00</totfact>
</mgrwt>
</event>
<event>
 6    2  0.2220137E-005  0.1090056E+04  0.7818608E-02  0.9461395E-01
         -4   -1    0    0    0  501 -0.00000000000E+00  0.00000000000E+00  0.34457459264E+03  0.34457459264E+03  0.00000000000E+00 0. -1.
         21   -1    0    0  501  502  0.00000000000E+00 -0.00000000000E+00 -0.17238864244E+04  0.17238864244E+04  0.00000000000E+00 0.  1.
   -9000010    2    1    2    0  502  0.32214628505E+02  0.44504379969E+03 -0.89982624867E+03  0.14134738405E+04  0.99454474707E+03 0.  0.
         13    1    3    3    0    0 -0.95074659387E+02  0.40092644062E+03 -0.10986108345E+04  0.11733400949E+04  0.10566000000E+00 0. -1.
         -4    1    3    3    0  502  0.12728928789E+03  0.44117359071E+02  0.19878458579E+03  0.24013374551E+03  0.00000000000E+00 0. -1.
        -13    1    1    2    0    0 -0.32214628505E+02 -0.44504379969E+03 -0.47948558304E+03  0.65498717655E+03  0.10566000000E+00 0.  1.
<mgrwt>
<rscale>  1 0.87190849E+03</rscale>
<asrwt>0</asrwt>
<pdfrwt beam="2">  1       21 0.26521329E+00 0.10900555E+04</pdfrwt>
<pdfrwt beam="1">  1       -4 0.53011476E-01 0.10900555E+04</pdfrwt>
<totfact> 0.58387180E+00</totfact>
</mgrwt>
</event>
<event>
 6    2  0.2220137E-005  0.1016882E+04  0.7818608E-02  0.9670500E-01
         -4   -1    0    0    0  501 -0.00000000000E+00  0.00000000000E+00  0.34392321605E+03  0.34392321605E+03  0.00000000000E+00 0. -1.
         21   -1    0    0  501  502  0.00000000000E+00 -0.00000000000E+00 -0.16177000956E+04  0.16177000956E+04  0.00000000000E+00 0. -1.
   -9000010    2    1    2    0  502 -0.25783345974E+03  0.69876070198E+02 -0.13440654054E+04  0.16853965096E+04  0.98116707159E+03 0.  0.
         13    1    3    3    0    0 -0.21934669874E+03  0.51951279786E+03 -0.79448345267E+03  0.97427433977E+03  0.10566000000E+00 0. -1.
         -4    1    3    3    0  502 -0.38486761007E+02 -0.44963672767E+03 -0.54958195277E+03  0.71112216985E+03  0.00000000000E+00 0. -1.
        -13    1    1    2    0    0  0.25783345974E+03 -0.69876070198E+02  0.70288525860E+02  0.27622680207E+03  0.10566000000E+00 0.  1.
<mgrwt>
<rscale>  1 0.72800683E+03</rscale>
<asrwt>0</asrwt>
<pdfrwt beam="2">  1       21 0.24887694E+00 0.10168823E+04</pdfrwt>
<pdfrwt beam="1">  1       -4 0.52911264E-01 0.10168823E+04</pdfrwt>
<totfact> 0.75211796E+00</totfact>
</mgrwt>
</event>
<event>
 6    2  0.2220137E-005  0.1025544E+04  0.7818608E-02  0.9685331E-01
         21   -1    0    0  501  502  0.00000000000E+00  0.00000000000E+00  0.25423461909E+03  0.25423461909E+03  0.00000000000E+00 0. -1.
         -4   -1    0    0    0  501 -0.00000000000E+00 -0.00000000000E+00 -0.16081581820E+04  0.16081581820E+04  0.00000000000E+00 0. -1.
   -9000010    2    1    2    0  502 -0.24573398751E+03 -0.31382443955E+02 -0.10181131810E+04  0.14450935390E+04  0.99517377210E+03 0.  0.
         13    1    3    3    0    0  0.32420826618E+03  0.12194717998E+03 -0.68443118860E+03  0.76709072322E+03  0.10566000000E+00 0. -1.
         -4    1    3    3    0  502 -0.56994225369E+03 -0.15332962393E+03 -0.33368199238E+03  0.67800281574E+03  0.00000000000E+00 0. -1.
        -13    1    1    2    0    0  0.24573398751E+03  0.31382443955E+02 -0.33581038198E+03  0.41729926218E+03  0.10566000000E+00 0.  1.
<mgrwt>
<rscale>  1 0.71896931E+03</rscale>
<asrwt>0</asrwt>
<pdfrwt beam="1">  1       21 0.39113018E-01 0.10255442E+04</pdfrwt>
<pdfrwt beam="2">  1       -4 0.24740895E+00 0.10255442E+04</pdfrwt>
<totfact> 0.16580904E+01</totfact>
</mgrwt>
</event>
<event>
 6    2  0.2220137E-005  0.1055111E+04  0.7818608E-02  0.9593377E-01
         -4   -1    0    0    0  501 -0.00000000000E+00  0.00000000000E+00  0.10277948861E+04  0.10277948861E+04  0.00000000000E+00 0. -1.
         21   -1    0    0  501  502  0.00000000000E+00 -0.00000000000E+00 -0.45514060300E+03  0.45514060300E+03  0.00000000000E+00 0. -1.
   -9000010    2    1    2    0  502  0.43228896761E+02  0.30786223104E+03  0.47477256473E+03  0.11570079929E+04  0.10082711027E+04 0.  0.
         13    1    3    3    0    0  0.40720482448E+03 -0.11638533534E+03  0.41816034149E+03  0.59516333701E+03  0.10566000000E+00 0. -1.
         -4    1    3    3    0  502 -0.36397592772E+03  0.42424756638E+03  0.56612223240E+02  0.56184465589E+03  0.00000000000E+00 0. -1.
        -13    1    1    2    0    0 -0.43228896761E+02 -0.30786223104E+03  0.97881718362E+02  0.32592749619E+03  0.10566000000E+00 0.  1.
<mgrwt>
<rscale>  1 0.77736076E+03</rscale>
<asrwt>0</asrwt>
<pdfrwt beam="2">  1       21 0.70021631E-01 0.10551107E+04</pdfrwt>
<pdfrwt beam="1">  1       -4 0.15812229E+00 0.10551107E+04</pdfrwt>
<totfact> 0.18299025E+01</totfact>
</mgrwt>
</event>
<event>
 6    2  0.2220137E-005  0.1095214E+04  0.7818608E-02  0.9479088E-01
         21   -1    0    0  501  502  0.00000000000E+00  0.00000000000E+00  0.10744406410E+04  0.10744406410E+04  0.00000000000E+00 0. -1.
         -4   -1    0    0    0  501 -0.00000000000E+00 -0.00000000000E+00 -0.53423327093E+03  0.53423327093E+03  0.00000000000E+00 0. -1.
   -9000010    2    1    2    0  502  0.26737355738E+03 -0.31524352427E+03  0.32371896876E+03  0.11420537904E+04  0.10142119062E+04 0.  0.
         13    1    3    3    0    0  0.22084371508E+03 -0.22503508722E+03  0.69178455175E+03  0.76024904747E+03  0.10566000000E+00 0. -1.
         -4    1    3    3    0  502  0.46529842292E+02 -0.90208437052E+02 -0.36806558299E+03  0.38180474292E+03  0.00000000000E+00 0. -1.
        -13    1    1    2    0    0 -0.26737355738E+03  0.31524352427E+03  0.21648840134E+03  0.46662012157E+03  0.10566000000E+00 0.  1.
<mgrwt>
<rscale>  1 0.85843317E+03</rscale>
<asrwt>0</asrwt>
<pdfrwt beam="1">  1       21 0.16529856E+00 0.10952136E+04</pdfrwt>
<pdfrwt beam="2">  1       -4 0.82189734E-01 0.10952136E+04</pdfrwt>
<totfact> 0.10479742E+01</totfact>
</mgrwt>
</event>
<event>
 6    2  0.2220137E-005  0.1010821E+04  0.7818608E-02  0.9991696E-01
         21   -1    0    0  501  502  0.00000000000E+00  0.00000000000E+00  0.63620699314E+03  0.63620699314E+03  0.00000000000E+00 0. -1.
         -4   -1    0    0    0  501 -0.00000000000E+00 -0.00000000000E+00 -0.49645564862E+03  0.49645564862E+03  0.00000000000E+00 0. -1.
   -9000010    2    1    2    0  502  0.28493018794E+02 -0.90970175120E+02  0.67545410686E+02  0.10130752974E+04  0.10063159299E+04 0.  0.
         13    1    3    3    0    0  0.57362464127E+02  0.19139191953E+03 -0.41082646315E+03  0.45683663726E+03  0.10566000000E+00 0. -1.
         -4    1    3    3    0  502 -0.28869445334E+02 -0.28236209465E+03  0.47837187384E+03  0.55623866016E+03  0.00000000000E+00 0. -1.
        -13    1    1    2    0    0 -0.28493018794E+02  0.90970175120E+02  0.72205933837E+02  0.11958734434E+03  0.10566000000E+00 0.  1.
<mgrwt>
<rscale>  1 0.56015850E+03</rscale>
<asrwt>0</asrwt>
<pdfrwt beam="1">  1       21 0.97877999E-01 0.10108210E+04</pdfrwt>
<pdfrwt beam="2">  1       -4 0.76377792E-01 0.10108210E+04</pdfrwt>
<totfact> 0.50322919E+01</totfact>
</mgrwt>
</event>
<event>
 6    2  0.2220137E-005  0.1013965E+04  0.7818608E-02  0.9775106E-01
         21   -1    0    0  501  502  0.00000000000E+00  0.00000000000E+00  0.12714873544E+04  0.12714873544E+04  0.00000000000E+00 0. -1.
         -4   -1    0    0    0  501 -0.00000000000E+00 -0.00000000000E+00 -0.30314349719E+03  0.30314349719E+03  0.00000000000E+00 0. -1.
   -9000010    2    1    2    0  502  0.18642129619E+03  0.36908041983E+02  0.93969399069E+03  0.13824436271E+04  0.99599723027E+03 0.  0.
         13    1    3    3    0    0 -0.12317946898E+02  0.21488781077E+03  0.10658276171E+04  0.10873440226E+04  0.10566000000E+00 0. -1.
         -4    1    3    3    0  502  0.19873924309E+03 -0.17797976879E+03 -0.12613362640E+03  0.29509960446E+03  0.00000000000E+00 0. -1.
        -13    1    1    2    0    0 -0.18642129619E+03 -0.36908041983E+02  0.28649866488E+02  0.19218722448E+03  0.10566000000E+00 0.  1.
<mgrwt>
<rscale>  1 0.66715760E+03</rscale>
<asrwt>0</asrwt>
<pdfrwt beam="1">  1       21 0.19561344E+00 0.10139653E+04</pdfrwt>
<pdfrwt beam="2">  1       -4 0.46637462E-01 0.10139653E+04</pdfrwt>
<totfact> 0.22089937E+01</totfact>
</mgrwt>
</event>
<event>
 6    2  0.2220137E-005  0.1439821E+04  0.7818608E-02  0.9008820E-01
         -4   -1    0    0    0  501 -0.00000000000E+00  0.00000000000E+00  0.29955775561E+04  0.29955775561E+04  0.00000000000E+00 0. -1.
         21   -1    0    0  501  502  0.00000000000E+00 -0.00000000000E+00 -0.51535531716E+03  0.51535531716E+03  0.00000000000E+00 0.  1.
   -9000010    2    1    2    0  502  0.75817844652E+03  0.70786322532E+03  0.15784281257E+04  0.21364738756E+04  0.99858919001E+03 0.  0.
         13    1    3    3    0    0  0.93930232043E+03  0.78635161571E+03  0.14616973282E+04  0.19071436241E+04  0.10566000000E+00 0. -1.
         -4    1    3    3    0  502 -0.18112387392E+03 -0.78488390388E+02  0.11673079752E+03  0.22933025142E+03  0.00000000000E+00 0. -1.
        -13    1    1    2    0    0 -0.75817844652E+03 -0.70786322532E+03  0.90179411319E+03  0.13744589977E+04  0.10566000000E+00 0.  1.
<mgrwt>
<rscale>  1 0.13264877E+04</rscale>
<asrwt>0</asrwt>
<pdfrwt beam="2">  1       21 0.79285435E-01 0.14398213E+04</pdfrwt>
<pdfrwt beam="1">  1       -4 0.46085808E+00 0.14398213E+04</pdfrwt>
<totfact> 0.12425302E-01</totfact>
</mgrwt>
</event>
<event>
 6    2  0.2220137E-005  0.9871919E+03  0.7818608E-02  0.9967293E-01
         21   -1    0    0  501  502  0.00000000000E+00  0.00000000000E+00  0.59552089940E+03  0.59552089940E+03  0.00000000000E+00 0. -1.
         -4   -1    0    0    0  501 -0.00000000000E+00 -0.00000000000E+00 -0.50630896170E+03  0.50630896170E+03  0.00000000000E+00 0. -1.
   -9000010    2    1    2    0  502 -0.10826540310E+03  0.22385991261E+02  0.89851051168E+02  0.99127241113E+03  0.98098177942E+03 0.  0.
         13    1    3    3    0    0 -0.10284823671E+03  0.28423066286E+03 -0.36040925833E+03  0.47038247646E+03  0.10566000000E+00 0. -1.
         -4    1    3    3    0  502 -0.54171663871E+01 -0.26184467160E+03  0.45026030949E+03  0.52088993467E+03  0.00000000000E+00 0. -1.
        -13    1    1    2    0    0  0.10826540310E+03 -0.22385991261E+02 -0.63911347133E+00  0.11055744997E+03  0.10566000000E+00 0.  1.
<mgrwt>
<rscale>  1 0.57107923E+03</rscale>
<asrwt>0</asrwt>
<pdfrwt beam="1">  1       21 0.91618600E-01 0.98719187E+03</pdfrwt>
<pdfrwt beam="2">  1       -4 0.77893686E-01 0.98719187E+03</pdfrwt>
<totfact> 0.56654718E+01</totfact>
</mgrwt>
</event>
<event>
 6    2  0.2220137E-005  0.1087328E+04  0.7818608E-02  0.9524900E-01
         21   -1    0    0  501  502  0.00000000000E+00  0.00000000000E+00  0.20453871582E+04  0.20453871582E+04  0.00000000000E+00 0. -1.
         -4   -1    0    0    0  501 -0.00000000000E+00 -0.00000000000E+00 -0.27994231266E+03  0.27994231266E+03  0.00000000000E+00 0. -1.
   -9000010    2    1    2    0  502 -0.35795074456E+03  0.37224181141E+02  0.15866771743E+04  0.19234933517E+04  0.10260447571E+04 0.  0.
         13    1    3    3    0    0  0.20444979905E+02  0.49342763808E+03  0.68528799425E+03  0.84469431006E+03  0.10566000000E+00 0. -1.
         -4    1    3    3    0  502 -0.37839572447E+03 -0.45620345694E+03  0.90138918003E+03  0.10787990417E+04  0.00000000000E+00 0. -1.
        -13    1    1    2    0    0  0.35795074456E+03 -0.37224181141E+02  0.17876767128E+03  0.40183611915E+03  0.10566000000E+00 0.  1.
<mgrwt>
<rscale>  1 0.82472695E+03</rscale>
<asrwt>0</asrwt>
<pdfrwt beam="1">  1       21 0.31467494E+00 0.10873280E+04</pdfrwt>
<pdfrwt beam="2">  1       -4 0.43068049E-01 0.10873280E+04</pdfrwt>
<totfact> 0.44321773E+00</totfact>
</mgrwt>
</event>
<event>
 6    2  0.2220137E-005  0.1002996E+04  0.7818608E-02  0.9519847E-01
         21   -1    0    0  501  502  0.00000000000E+00  0.00000000000E+00  0.12578057807E+04  0.12578057807E+04  0.00000000000E+00 0.  1.
         -4   -1    0    0    0  501 -0.00000000000E+00 -0.00000000000E+00 -0.59450841123E+03  0.59450841123E+03  0.00000000000E+00 0. -1.
   -9000010    2    1    2    0  502  0.36644528140E+03  0.28891750827E+03 -0.45125589217E+02  0.10040108438E+04  0.88783218284E+03 0.  0.
         13    1    3    3    0    0 -0.18654852791E+03 -0.15520791061E+03 -0.15258495467E+03  0.28665663840E+03  0.10566000000E+00 0. -1.
         -4    1    3    3    0  502  0.55299380931E+03  0.44412541889E+03  0.10745936545E+03  0.71735420544E+03  0.00000000000E+00 0. -1.
        -13    1    1    2    0    0 -0.36644528140E+03 -0.28891750827E+03  0.70842295870E+03  0.84830334811E+03  0.10566000000E+00 0.  1.
<mgrwt>
<rscale>  1 0.82836296E+03</rscale>
<asrwt>0</asrwt>
<pdfrwt beam="1">  1       21 0.19350858E+00 0.10029962E+04</pdfrwt>
<pdfrwt beam="2">  1       -4 0.91462833E-01 0.10029962E+04</pdfrwt>
<totfact> 0.51456782E+00</totfact>
</mgrwt>
</event>
<event>
 6    2  0.2220137E-005  0.1139428E+04  0.7818608E-02  0.9389605E-01
         21   -1    0    0  501  502  0.00000000000E+00  0.00000000000E+00  0.21182210385E+04  0.21182210385E+04  0.00000000000E+00 0. -1.
         -4   -1    0    0    0  501 -0.00000000000E+00 -0.00000000000E+00 -0.56967752890E+03  0.56967752890E+03  0.00000000000E+00 0. -1.
   -9000010    2    1    2    0  502  0.22945497688E+03 -0.44905927650E+03  0.17953936656E+04  0.21264372323E+04  0.10217597899E+04 0.  0.
         13    1    3    3    0    0  0.47523013479E+02 -0.16106940476E+03  0.17774041097E+04  0.17853199069E+04  0.10566000000E+00 0. -1.
         -4    1    3    3    0  502  0.18193196340E+03 -0.28798987174E+03  0.17989555931E+02  0.34111732535E+03  0.00000000000E+00 0. -1.
        -13    1    1    2    0    0 -0.22945497688E+03  0.44905927650E+03 -0.24685015593E+03  0.56146133515E+03  0.10566000000E+00 0.  1.
<mgrwt>
<rscale>  1 0.92936084E+03</rscale>
<asrwt>0</asrwt>
<pdfrwt beam="1">  1       21 0.32588016E+00 0.11394283E+04</pdfrwt>
<pdfrwt beam="2">  1       -4 0.87642698E-01 0.11394283E+04</pdfrwt>
<totfact> 0.78559079E-01</totfact>
</mgrwt>
</event>
<event>
 6    2  0.2220137E-005  0.1287931E+04  0.7818608E-02  0.9160421E-01
         21   -1    0    0  501  502  0.00000000000E+00  0.00000000000E+00  0.13172799414E+04  0.13172799414E+04  0.00000000000E+00 0.  1.
         -4   -1    0    0    0  501 -0.00000000000E+00 -0.00000000000E+00 -0.85713438935E+03  0.85713438935E+03  0.00000000000E+00 0. -1.
   -9000010    2    1    2    0  502 -0.56826731190E+03  0.57802341639E+03  0.11382491280E+03  0.12929514535E+04  0.10008638982E+04 0.  0.
         13    1    3    3    0    0 -0.89826793275E+02 -0.20147499637E+03  0.28710632262E+03  0.36206501986E+03  0.10566000000E+00 0. -1.
         -4    1    3    3    0  502 -0.47844051862E+03  0.77949841276E+03 -0.17328140982E+03  0.93088643365E+03  0.00000000000E+00 0. -1.
        -13    1    1    2    0    0  0.56826731190E+03 -0.57802341639E+03  0.34632063928E+03  0.88146287728E+03  0.10566000000E+00 0.  1.
<mgrwt>
<rscale>  1 0.11471455E+04</rscale>
<asrwt>0</asrwt>
<pdfrwt beam="1">  1       21 0.20265845E+00 0.12879314E+04</pdfrwt>
<pdfrwt beam="2">  1       -4 0.13186683E+00 0.12879314E+04</pdfrwt>
<totfact> 0.17321031E+00</totfact>
</mgrwt>
</event>
<event>
 6    2  0.2220137E-005  0.1000172E+04  0.7818608E-02  0.1012659E+00
         -4   -1    0    0    0  501 -0.00000000000E+00  0.00000000000E+00  0.99070563374E+03  0.99070563374E+03  0.00000000000E+00 0. -1.
         21   -1    0    0  501  502  0.00000000000E+00 -0.00000000000E+00 -0.36244939059E+03  0.36244939059E+03  0.00000000000E+00 0. -1.
   -9000010    2    1    2    0  502 -0.63182339388E+02 -0.13700818433E+02  0.33793090257E+03  0.10557184177E+04  0.99808033848E+03 0.  0.
         13    1    3    3    0    0 -0.44168950970E+03  0.24561792093E+03  0.36421440811E+02  0.50669943613E+03  0.10566000000E+00 0. -1.
         -4    1    3    3    0  502  0.37850717031E+03 -0.25931873936E+03  0.30150946176E+03  0.54901898154E+03  0.00000000000E+00 0. -1.
        -13    1    1    2    0    0  0.63182339388E+02  0.13700818433E+02  0.29032534058E+03  0.29743660666E+03  0.10566000000E+00 0.  1.
<mgrwt>
<rscale>  1 0.50431232E+03</rscale>
<asrwt>0</asrwt>
<pdfrwt beam="2">  1       21 0.55761445E-01 0.10001720E+04</pdfrwt>
<pdfrwt beam="1">  1       -4 0.15241625E+00 0.10001720E+04</pdfrwt>
<totfact> 0.33903066E+01</totfact>
</mgrwt>
</event>
<event>
 6    2  0.2220137E-005  0.1032370E+04  0.7818608E-02  0.9591951E-01
         21   -1    0    0  501  502  0.00000000000E+00  0.00000000000E+00  0.30103267112E+03  0.30103267112E+03  0.00000000000E+00 0. -1.
         -4   -1    0    0    0  501 -0.00000000000E+00 -0.00000000000E+00 -0.18038647787E+04  0.18038647787E+04  0.00000000000E+00 0. -1.
   -9000010    2    1    2    0  502 -0.25444949451E+03 -0.21560267572E+03 -0.14296870597E+04  0.17634603864E+04  0.97701503919E+03 0.  0.
         13    1    3    3    0    0  0.21692354948E+03 -0.33123891927E+03 -0.20449833472E+03  0.44563957188E+03  0.10566000000E+00 0. -1.
         -4    1    3    3    0  502 -0.47137304399E+03  0.11563624355E+03 -0.12251887250E+04  0.13178208146E+04  0.00000000000E+00 0. -1.
        -13    1    1    2    0    0  0.25444949451E+03  0.21560267572E+03 -0.73145047819E+02  0.34143706333E+03  0.10566000000E+00 0.  1.
<mgrwt>
<rscale>  1 0.77831216E+03</rscale>
<asrwt>0</asrwt>
<pdfrwt beam="1">  1       21 0.46312719E-01 0.10323698E+04</pdfrwt>
<pdfrwt beam="2">  1       -4 0.27751766E+00 0.10323698E+04</pdfrwt>
<totfact> 0.75575901E+00</totfact>
</mgrwt>
</event>
<event>
 6    2  0.2220137E-005  0.9911822E+03  0.7818608E-02  0.9800501E-01
         21   -1    0    0  501  502  0.00000000000E+00  0.00000000000E+00  0.36390452083E+03  0.36390452083E+03  0.00000000000E+00 0. -1.
         -4   -1    0    0    0  501 -0.00000000000E+00 -0.00000000000E+00 -0.15204342397E+04  0.15204342397E+04  0.00000000000E+00 0. -1.
   -9000010    2    1    2    0  502  0.80228810944E+02  0.16905753321E+03 -0.34190069074E+03  0.10484933345E+04  0.97335763132E+03 0.  0.
         13    1    3    3    0    0  0.39065049153E+03  0.35029411371E+03  0.37262668417E+02  0.52602499015E+03  0.10566000000E+00 0. -1.
         -4    1    3    3    0  502 -0.31042168059E+03 -0.18123658050E+03 -0.37916335916E+03  0.52246834432E+03  0.00000000000E+00 0. -1.
        -13    1    1    2    0    0 -0.80228810944E+02 -0.16905753321E+03 -0.81462902808E+03  0.83584542602E+03  0.10566000000E+00 0.  1.
<mgrwt>
<rscale>  1 0.65335645E+03</rscale>
<asrwt>0</asrwt>
<pdfrwt beam="1">  1       21 0.55985312E-01 0.99118222E+03</pdfrwt>
<pdfrwt beam="2">  1       -4 0.23391295E+00 0.99118222E+03</pdfrwt>
<totfact> 0.93700781E+00</totfact>
</mgrwt>
</event>
<event>
 6    2  0.2220137E-005  0.1020375E+04  0.7818608E-02  0.9766892E-01
         -4   -1    0    0    0  501 -0.00000000000E+00  0.00000000000E+00  0.77770738475E+03  0.77770738475E+03  0.00000000000E+00 0. -1.
         21   -1    0    0  501  502  0.00000000000E+00 -0.00000000000E+00 -0.48168514747E+03  0.48168514747E+03  0.00000000000E+00 0. -1.
   -9000010    2    1    2    0  502 -0.19161095481E+03  0.15989762733E+00  0.18217103895E+03  0.10365094012E+04  0.10022228633E+04 0.  0.
         13    1    3    3    0    0  0.31860916103E+03 -0.90575727661E+01 -0.21956801197E+03  0.38704516553E+03  0.10566000000E+00 0. -1.
         -4    1    3    3    0  502 -0.51022011584E+03  0.92174703934E+01  0.40173905092E+03  0.64946423566E+03  0.00000000000E+00 0. -1.
        -13    1    1    2    0    0  0.19161095481E+03 -0.15989762733E+00  0.11385119833E+03  0.22288313103E+03  0.10566000000E+00 0.  1.
<mgrwt>
<rscale>  1 0.67169953E+03</rscale>
<asrwt>0</asrwt>
<pdfrwt beam="2">  1       21 0.74105407E-01 0.10203752E+04</pdfrwt>
<pdfrwt beam="1">  1       -4 0.11964729E+00 0.10203752E+04</pdfrwt>
<totfact> 0.33440226E+01</totfact>
</mgrwt>
</event>
<event>
 6    2  0.2220137E-005  0.1129646E+04  0.7818608E-02  0.9474299E-01
         -4   -1    0    0    0  501 -0.00000000000E+00  0.00000000000E+00  0.11872842821E+04  0.11872842821E+04  0.00000000000E+00 0. -1.
         21   -1    0    0  501  502  0.00000000000E+00 -0.00000000000E+00 -0.50173817647E+03  0.50173817647E+03  0.00000000000E+00 0. -1.
   -9000010    2    1    2    0  502 -0.38207570005E+03 -0.27991711917E+02  0.65237380313E+03  0.13044892490E+04  0.10627018609E+04 0.  0.
         13    1    3    3    0    0 -0.10506992715E+03 -0.28326259260E+03 -0.20696638741E+03  0.36621371170E+03  0.10566000000E+00 0. -1.
         -4    1    3    3    0  502 -0.27700577290E+03  0.25527088069E+03  0.85934019054E+03  0.93827553726E+03  0.00000000000E+00 0. -1.
        -13    1    1    2    0    0  0.38207570005E+03  0.27991711917E+02  0.33172302548E+02  0.38453320965E+03  0.10566000000E+00 0.  1.
<mgrwt>
<rscale>  1 0.86205476E+03</rscale>
<asrwt>0</asrwt>
<pdfrwt beam="2">  1       21 0.77190489E-01 0.11296462E+04</pdfrwt>
<pdfrwt beam="1">  1       -4 0.18265912E+00 0.11296462E+04</pdfrwt>
<totfact> 0.96388430E+00</totfact>
</mgrwt>
</event>
<event>
 6    2  0.2220137E-005  0.1156645E+04  0.7818608E-02  0.9387803E-01
         -4   -1    0    0    0  501 -0.00000000000E+00  0.00000000000E+00  0.51442565335E+03  0.51442565335E+03  0.00000000000E+00 0. -1.
         21   -1    0    0  501  502  0.00000000000E+00 -0.00000000000E+00 -0.13101348012E+04  0.13101348012E+04  0.00000000000E+00 0.  1.
   -9000010    2    1    2    0  502  0.29438594254E+03  0.38571933052E+03 -0.55471633477E+03  0.12827855638E+04  0.10499457632E+04 0.  0.
         13    1    3    3    0    0  0.65185640711E+03  0.31801736838E+03 -0.56410456968E+03  0.91883937594E+03  0.10566000000E+00 0. -1.
         -4    1    3    3    0  502 -0.35747046457E+03  0.67701962142E+02  0.93882349080E+01  0.36394618788E+03  0.00000000000E+00 0. -1.
        -13    1    1    2    0    0 -0.29438594254E+03 -0.38571933052E+03 -0.24099281308E+03  0.54177489073E+03  0.10566000000E+00 0.  1.
<mgrwt>
<rscale>  1 0.93086315E+03</rscale>
<asrwt>0</asrwt>
<pdfrwt beam="2">  1       21 0.20155919E+00 0.11566454E+04</pdfrwt>
<pdfrwt beam="1">  1       -4 0.79142411E-01 0.11566454E+04</pdfrwt>
<totfact> 0.62097068E+00</totfact>
</mgrwt>
</event>
<event>
 6    2  0.2220137E-005  0.9970762E+03  0.7818608E-02  0.9918747E-01
         -4   -1    0    0    0  501 -0.00000000000E+00  0.00000000000E+00  0.47722485063E+03  0.47722485063E+03  0.00000000000E+00 0. -1.
         21   -1    0    0  501  502  0.00000000000E+00 -0.00000000000E+00 -0.82860811651E+03  0.82860811651E+03  0.00000000000E+00 0. -1.
   -9000010    2    1    2    0  502 -0.88235849086E+02  0.88913310371E+02 -0.49672849865E+03  0.11139569924E+04  0.98917634311E+03 0.  0.
         13    1    3    3    0    0  0.18859846227E+03  0.48083774706E+03 -0.27891396427E+03  0.58699857717E+03  0.10566000000E+00 0. -1.
         -4    1    3    3    0  502 -0.27683431136E+03 -0.39192443669E+03 -0.21781453438E+03  0.52695841525E+03  0.00000000000E+00 0. -1.
        -13    1    1    2    0    0  0.88235849086E+02 -0.88913310371E+02  0.14534523277E+03  0.19187597473E+03  0.10566000000E+00 0.  1.
<mgrwt>
<rscale>  1 0.59361262E+03</rscale>
<asrwt>0</asrwt>
<pdfrwt beam="2">  1       21 0.12747817E+00 0.99707622E+03</pdfrwt>
<pdfrwt beam="1">  1       -4 0.73419209E-01 0.99707622E+03</pdfrwt>
<totfact> 0.28100384E+01</totfact>
</mgrwt>
</event>
<event>
 6    2  0.2220137E-005  0.9201894E+03  0.7818608E-02  0.1019771E+00
         -4   -1    0    0    0  501 -0.00000000000E+00  0.00000000000E+00  0.26583440315E+03  0.26583440315E+03  0.00000000000E+00 0. -1.
         21   -1    0    0  501  502  0.00000000000E+00 -0.00000000000E+00 -0.11269603563E+04  0.11269603563E+04  0.00000000000E+00 0. -1.
   -9000010    2    1    2    0  502  0.66233668307E+02 -0.89071563835E+01 -0.92183412047E+03  0.13025078335E+04  0.91775937712E+03 0.  0.
         13    1    3    3    0    0 -0.89664023036E+02 -0.44268648771E+03 -0.37295060921E+03  0.58575005890E+03  0.10566000000E+00 0. -1.
         -4    1    3    3    0  502  0.15589769134E+03  0.43377933133E+03 -0.54888351126E+03  0.71675777455E+03  0.00000000000E+00 0. -1.
        -13    1    1    2    0    0 -0.66233668307E+02  0.89071563835E+01  0.60708167357E+02  0.90286925965E+02  0.10566000000E+00 0.  1.
<mgrwt>
<rscale>  1 0.47769507E+03</rscale>
<asrwt>0</asrwt>
<pdfrwt beam="2">  1       21 0.17337851E+00 0.92018939E+03</pdfrwt>
<pdfrwt beam="1">  1       -4 0.40897601E-01 0.92018939E+03</pdfrwt>
<totfact> 0.42257128E+01</totfact>
</mgrwt>
</event>
<event>
 6    2  0.2220137E-005  0.1045190E+04  0.7818608E-02  0.9909569E-01
         -4   -1    0    0    0  501 -0.00000000000E+00  0.00000000000E+00  0.18046766135E+04  0.18046766135E+04  0.00000000000E+00 0. -1.
         21   -1    0    0  501  502  0.00000000000E+00 -0.00000000000E+00 -0.22999453391E+03  0.22999453391E+03  0.00000000000E+00 0. -1.
   -9000010    2    1    2    0  502  0.89906625721E+02  0.66786177375E+02  0.99090749491E+03  0.14402501083E+04  0.10391723227E+04 0.  0.
         13    1    3    3    0    0 -0.11440746980E+03  0.37012161002E+03  0.36386112679E+01  0.38741750864E+03  0.10566000000E+00 0. -1.
         -4    1    3    3    0  502  0.20431409552E+03 -0.30333543264E+03  0.98726888364E+03  0.10528325997E+04  0.00000000000E+00 0. -1.
        -13    1    1    2    0    0 -0.89906625721E+02 -0.66786177375E+02  0.58377458467E+03  0.59442103908E+03  0.10566000000E+00 0.  1.
<mgrwt>
<rscale>  1 0.59799743E+03</rscale>
<asrwt>0</asrwt>
<pdfrwt beam="2">  1       21 0.35383776E-01 0.10451903E+04</pdfrwt>
<pdfrwt beam="1">  1       -4 0.27764255E+00 0.10451903E+04</pdfrwt>
<totfact> 0.13252085E+01</totfact>
</mgrwt>
</event>
<event>
 6    2  0.2220137E-005  0.1033301E+04  0.7818608E-02  0.9750633E-01
         -4   -1    0    0    0  501 -0.00000000000E+00  0.00000000000E+00  0.67357796374E+03  0.67357796374E+03  0.00000000000E+00 0. -1.
         21   -1    0    0  501  502  0.00000000000E+00 -0.00000000000E+00 -0.56262113158E+03  0.56262113158E+03  0.00000000000E+00 0. -1.
   -9000010    2    1    2    0  502  0.17131540828E+03  0.92556861261E+02  0.12571713620E+03  0.10409207826E+04  0.10147884191E+04 0.  0.
         13    1    3    3    0    0  0.43873460717E+02 -0.14836975097E+03 -0.41089383194E+03  0.43905832853E+03  0.10566000000E+00 0. -1.
         -4    1    3    3    0  502  0.12744194756E+03  0.24092661224E+03  0.53661096814E+03  0.60186245406E+03  0.00000000000E+00 0. -1.
        -13    1    1    2    0    0 -0.17131540828E+03 -0.92556861261E+02 -0.14760304044E+02  0.19527831272E+03  0.10566000000E+00 0.  1.
<mgrwt>
<rscale>  1 0.68080494E+03</rscale>
<asrwt>0</asrwt>
<pdfrwt beam="2">  1       21 0.86557097E-01 0.10333012E+04</pdfrwt>
<pdfrwt beam="1">  1       -4 0.10362738E+00 0.10333012E+04</pdfrwt>
<totfact> 0.33042282E+01</totfact>
</mgrwt>
</event>
<event>
 6    2  0.2220137E-005  0.1020809E+04  0.7818608E-02  0.9732702E-01
         21   -1    0    0  501  502  0.00000000000E+00  0.00000000000E+00  0.26726114909E+03  0.26726114909E+03  0.00000000000E+00 0. -1.
         -4   -1    0    0    0  501 -0.00000000000E+00 -0.00000000000E+00 -0.14282962554E+04  0.14282962554E+04  0.00000000000E+00 0. -1.
   -9000010    2    1    2    0  502 -0.90269535998E+02 -0.19442731735E+03 -0.97774222779E+03  0.14135168731E+04  0.99804785241E+03 0.  0.
         13    1    3    3    0    0 -0.94192045277E+02 -0.49243872415E+03 -0.99584238314E+03  0.11149305367E+04  0.10566000000E+00 0. -1.
         -4    1    3    3    0  502  0.39225092796E+01  0.29801140681E+03  0.18100155348E+02  0.29858633641E+03  0.00000000000E+00 0. -1.
        -13    1    1    2    0    0  0.90269535998E+02  0.19442731735E+03 -0.18329287852E+03  0.28204053138E+03  0.10566000000E+00 0.  1.
<mgrwt>
<rscale>  1 0.69102642E+03</rscale>
<asrwt>0</asrwt>
<pdfrwt beam="1">  1       21 0.41117101E-01 0.10208085E+04</pdfrwt>
<pdfrwt beam="2">  1       -4 0.21973788E+00 0.10208085E+04</pdfrwt>
<totfact> 0.22291951E+01</totfact>
</mgrwt>
</event>
<event>
 6    2  0.2220137E-005  0.9496971E+03  0.7818608E-02  0.1031772E+00
         21   -1    0    0  501  502  0.00000000000E+00  0.00000000000E+00  0.51787020303E+03  0.51787020303E+03  0.00000000000E+00 0. -1.
         -4   -1    0    0    0  501 -0.00000000000E+00 -0.00000000000E+00 -0.62836627241E+03  0.62836627241E+03  0.00000000000E+00 0. -1.
   -9000010    2    1    2    0  502  0.34074270497E+02 -0.25317171841E+02  0.78117937124E+02  0.95290445607E+03  0.94874784595E+03 0.  0.
         13    1    3    3    0    0 -0.37588458619E+03  0.13485181870E+03 -0.18500407317E+03  0.44011447761E+03  0.10566000000E+00 0. -1.
         -4    1    3    3    0  502  0.40995885669E+03 -0.16016899054E+03  0.26312201029E+03  0.51278997846E+03  0.00000000000E+00 0. -1.
        -13    1    1    2    0    0 -0.34074270497E+02  0.25317171841E+02 -0.18861400650E+03  0.19333201937E+03  0.10566000000E+00 0.  1.
<mgrwt>
<rscale>  1 0.43667563E+03</rscale>
<asrwt>0</asrwt>
<pdfrwt beam="1">  1       21 0.79672339E-01 0.94969705E+03</pdfrwt>
<pdfrwt beam="2">  1       -4 0.96671734E-01 0.94969705E+03</pdfrwt>
<totfact> 0.47901077E+01</totfact>
</mgrwt>
</event>
<event>
 6    2  0.2220137E-005  0.9977871E+03  0.7818608E-02  0.1006198E+00
         -4   -1    0    0    0  501 -0.00000000000E+00  0.00000000000E+00  0.94188254318E+03  0.94188254318E+03  0.00000000000E+00 0. -1.
         21   -1    0    0  501  502  0.00000000000E+00 -0.00000000000E+00 -0.38515846910E+03  0.38515846910E+03  0.00000000000E+00 0. -1.
   -9000010    2    1    2    0  502  0.54741963618E+02  0.57669855163E+02  0.27597553762E+03  0.10352495685E+04  0.99461383308E+03 0.  0.
         13    1    3    3    0    0 -0.36344509757E+03  0.13467738834E+03  0.43375818925E+03  0.58170139745E+03  0.10566000000E+00 0. -1.
         -4    1    3    3    0  502  0.41818706119E+03 -0.77007533182E+02 -0.15778265163E+03  0.45354817106E+03  0.00000000000E+00 0. -1.
        -13    1    1    2    0    0 -0.54741963618E+02 -0.57669855163E+02  0.28074853646E+03  0.29179144378E+03  0.10566000000E+00 0.  1.
<mgrwt>
<rscale>  1 0.53013879E+03</rscale>
<asrwt>0</asrwt>
<pdfrwt beam="2">  1       21 0.59255149E-01 0.99778714E+03</pdfrwt>
<pdfrwt beam="1">  1       -4 0.14490501E+00 0.99778714E+03</pdfrwt>
<totfact> 0.33939121E+01</totfact>
</mgrwt>
</event>
<event>
 6    2  0.2220137E-005  0.1044601E+04  0.7818608E-02  0.9605168E-01
         -4   -1    0    0    0  501 -0.00000000000E+00  0.00000000000E+00  0.51496722709E+03  0.51496722709E+03  0.00000000000E+00 0. -1.
         21   -1    0    0  501  502  0.00000000000E+00 -0.00000000000E+00 -0.12086805501E+04  0.12086805501E+04  0.00000000000E+00 0. -1.
   -9000010    2    1    2    0  502 -0.27378038266E+03 -0.14039390810E+03 -0.87836421916E+03  0.13648133977E+04  0.99826136937E+03 0.  0.
         13    1    3    3    0    0 -0.16502855479E+03 -0.55118426256E+03 -0.30516822084E+03  0.65128040763E+03  0.10566000000E+00 0. -1.
         -4    1    3    3    0  502 -0.10875182786E+03  0.41079035446E+03 -0.57319599831E+03  0.71353299003E+03  0.00000000000E+00 0. -1.
        -13    1    1    2    0    0  0.27378038266E+03  0.14039390810E+03  0.18465089611E+03  0.35883437956E+03  0.10566000000E+00 0.  1.
<mgrwt>
<rscale>  1 0.76955076E+03</rscale>
<asrwt>0</asrwt>
<pdfrwt beam="2">  1       21 0.18595085E+00 0.10446013E+04</pdfrwt>
<pdfrwt beam="1">  1       -4 0.79225728E-01 0.10446013E+04</pdfrwt>
<totfact> 0.80809808E+00</totfact>
</mgrwt>
</event>
<event>
 6    2  0.2220137E-005  0.1014657E+04  0.7818608E-02  0.9832605E-01
         -4   -1    0    0    0  501 -0.00000000000E+00  0.00000000000E+00  0.32095249364E+03  0.32095249364E+03  0.00000000000E+00 0. -1.
         21   -1    0    0  501  502  0.00000000000E+00 -0.00000000000E+00 -0.10694361741E+04  0.10694361741E+04  0.00000000000E+00 0. -1.
   -9000010    2    1    2    0  502 -0.13709710630E+03 -0.76590131015E+02 -0.65174223911E+03  0.12059419753E+04  0.10024302653E+04 0.  0.
         13    1    3    3    0    0 -0.30870966407E+03 -0.36696556884E+03 -0.84914477205E+01  0.47962224850E+03  0.10566000000E+00 0. -1.
         -4    1    3    3    0  502  0.17161255778E+03  0.29037543782E+03 -0.64325079139E+03  0.72631972677E+03  0.00000000000E+00 0. -1.
        -13    1    1    2    0    0  0.13709710630E+03  0.76590131015E+02 -0.96741441339E+02  0.18444669246E+03  0.10566000000E+00 0.  1.
<mgrwt>
<rscale>  1 0.63641755E+03</rscale>
<asrwt>0</asrwt>
<pdfrwt beam="2">  1       21 0.16452864E+00 0.10146566E+04</pdfrwt>
<pdfrwt beam="1">  1       -4 0.49377307E-01 0.10146566E+04</pdfrwt>
<totfact> 0.32962908E+01</totfact>
</mgrwt>
</event>
<event>
 6    2  0.2220137E-005  0.1001914E+04  0.7818608E-02  0.9891824E-01
         -4   -1    0    0    0  501 -0.00000000000E+00  0.00000000000E+00  0.12009576368E+03  0.12009576368E+03  0.00000000000E+00 0. -1.
         21   -1    0    0  501  502  0.00000000000E+00 -0.00000000000E+00 -0.27177901318E+04  0.27177901318E+04  0.00000000000E+00 0. -1.
   -9000010    2    1    2    0  502 -0.26923407628E+01  0.13458821956E+03 -0.21842163482E+04  0.24030464749E+04  0.99282932440E+03 0.  0.
         13    1    3    3    0    0  0.36803993096E+03  0.34299315460E+03 -0.72024136961E+03  0.87854728760E+03  0.10566000000E+00 0. -1.
         -4    1    3    3    0  502 -0.37073227172E+03 -0.20840493504E+03 -0.14639749786E+04  0.15244991873E+04  0.00000000000E+00 0. -1.
        -13    1    1    2    0    0  0.26923407628E+01 -0.13458821956E+03 -0.41347801995E+03  0.43483942058E+03  0.10566000000E+00 0.  1.
<mgrwt>
<rscale>  1 0.60659153E+03</rscale>
<asrwt>0</asrwt>
<pdfrwt beam="2">  1       21 0.41812159E+00 0.10019138E+04</pdfrwt>
<pdfrwt beam="1">  1       -4 0.18476270E-01 0.10019138E+04</pdfrwt>
<totfact> 0.50787725E+00</totfact>
</mgrwt>
</event>
<event>
 6    2  0.2220137E-005  0.1023108E+04  0.7818608E-02  0.1005770E+00
         -4   -1    0    0    0  501 -0.00000000000E+00  0.00000000000E+00  0.21245177824E+03  0.21245177824E+03  0.00000000000E+00 0. -1.
         21   -1    0    0  501  502  0.00000000000E+00 -0.00000000000E+00 -0.15207730803E+04  0.15207730803E+04  0.00000000000E+00 0. -1.
   -9000010    2    1    2    0  502 -0.81506978493E+01 -0.74299688112E+02 -0.13052163195E+04  0.16584149019E+04  0.10203741808E+04 0.  0.
         13    1    3    3    0    0  0.12200862226E+03  0.11526047737E+03 -0.13997641924E+04  0.14097910792E+04  0.10566000000E+00 0. -1.
         -4    1    3    3    0  502 -0.13015932011E+03 -0.18956016548E+03  0.94547872913E+02  0.24862382271E+03  0.00000000000E+00 0. -1.
        -13    1    1    2    0    0  0.81506978493E+01  0.74299688112E+02 -0.31049825763E+01  0.74809956622E+02  0.10566000000E+00 0.  1.
<mgrwt>
<rscale>  1 0.53190910E+03</rscale>
<asrwt>0</asrwt>
<pdfrwt beam="2">  1       21 0.23396509E+00 0.10231082E+04</pdfrwt>
<pdfrwt beam="1">  1       -4 0.32684889E-01 0.10231082E+04</pdfrwt>
<totfact> 0.25178898E+01</totfact>
</mgrwt>
</event>
<event>
 6    2  0.2220137E-005  0.1085910E+04  0.7818608E-02  0.9482456E-01
         -4   -1    0    0    0  501 -0.00000000000E+00  0.00000000000E+00  0.11957878519E+04  0.11957878519E+04  0.00000000000E+00 0. -1.
         21   -1    0    0  501  502  0.00000000000E+00 -0.00000000000E+00 -0.49504310649E+03  0.49504310649E+03  0.00000000000E+00 0.  1.
   -9000010    2    1    2    0  502 -0.36749140845E+03  0.20145466125E+03  0.34007767949E+03  0.11379162638E+04  0.10017817525E+04 0.  0.
         13    1    3    3    0    0 -0.35536075005E+03  0.58465487640E+03  0.11629807713E+03  0.69399412179E+03  0.10566000000E+00 0. -1.
         -4    1    3    3    0  502 -0.12130658403E+02 -0.38320021516E+03  0.22377960236E+03  0.44392214205E+03  0.00000000000E+00 0. -1.
        -13    1    1    2    0    0  0.36749140845E+03 -0.20145466125E+03  0.36066706588E+03  0.55291469450E+03  0.10566000000E+00 0.  1.
<mgrwt>
<rscale>  1 0.85589686E+03</rscale>
<asrwt>0</asrwt>
<pdfrwt beam="2">  1       21 0.76160479E-01 0.10859100E+04</pdfrwt>
<pdfrwt beam="1">  1       -4 0.18396736E+00 0.10859100E+04</pdfrwt>
<totfact> 0.97851634E+00</totfact>
</mgrwt>
</event>
<event>
 6    2  0.2220137E-005  0.1064162E+04  0.7818608E-02  0.9524983E-01
         21   -1    0    0  501  502  0.00000000000E+00  0.00000000000E+00  0.85258123365E+03  0.85258123365E+03  0.00000000000E+00 0.  1.
         -4   -1    0    0    0  501 -0.00000000000E+00 -0.00000000000E+00 -0.66671097391E+03  0.66671097391E+03  0.00000000000E+00 0. -1.
   -9000010    2    1    2    0  502  0.32473966532E+03  0.20454260103E+03  0.32242352869E+03  0.11119344627E+04  0.99254611562E+03 0.  0.
         13    1    3    3    0    0 -0.11245654744E+02  0.24614550662E+03 -0.30915682554E+03  0.39533786705E+03  0.10566000000E+00 0. -1.
         -4    1    3    3    0  502  0.33598532006E+03 -0.41602905591E+02  0.63158035423E+03  0.71659659566E+03  0.00000000000E+00 0. -1.
        -13    1    1    2    0    0 -0.32473966532E+03 -0.20454260103E+03 -0.13655326896E+03  0.40735774486E+03  0.10566000000E+00 0.  1.
<mgrwt>
<rscale>  1 0.82466745E+03</rscale>
<asrwt>0</asrwt>
<pdfrwt beam="1">  1       21 0.13116634E+00 0.10641623E+04</pdfrwt>
<pdfrwt beam="2">  1       -4 0.10257092E+00 0.10641623E+04</pdfrwt>
<totfact> 0.11835948E+01</totfact>
</mgrwt>
</event>
<event>
 6    2  0.2220137E-005  0.1029633E+04  0.7818608E-02  0.9723140E-01
         21   -1    0    0  501  502  0.00000000000E+00  0.00000000000E+00  0.14385992021E+04  0.14385992021E+04  0.00000000000E+00 0. -1.
         -4   -1    0    0    0  501 -0.00000000000E+00 -0.00000000000E+00 -0.27803602196E+03  0.27803602196E+03  0.00000000000E+00 0. -1.
   -9000010    2    1    2    0  502 -0.15281456103E+03 -0.15217919553E+03  0.10630885588E+04  0.14799664459E+04  0.10067932257E+04 0.  0.
         13    1    3    3    0    0 -0.42014291495E+03  0.28644837849E+03  0.61781112007E+03  0.80016456668E+03  0.10566000000E+00 0. -1.
         -4    1    3    3    0  502  0.26732835392E+03 -0.43862757402E+03  0.44527743874E+03  0.67980187919E+03  0.00000000000E+00 0. -1.
        -13    1    1    2    0    0  0.15281456103E+03  0.15217919553E+03  0.97474621385E+02  0.23666877824E+03  0.10566000000E+00 0.  1.
<mgrwt>
<rscale>  1 0.69655589E+03</rscale>
<asrwt>0</asrwt>
<pdfrwt beam="1">  1       21 0.22132295E+00 0.10296327E+04</pdfrwt>
<pdfrwt beam="2">  1       -4 0.42774774E-01 0.10296327E+04</pdfrwt>
<totfact> 0.17672890E+01</totfact>
</mgrwt>
</event>
<event>
 6    2  0.2220137E-005  0.1029496E+04  0.7818608E-02  0.9652446E-01
         21   -1    0    0  501  502  0.00000000000E+00  0.00000000000E+00  0.50251270421E+03  0.50251270421E+03  0.00000000000E+00 0.  1.
         -4   -1    0    0    0  501 -0.00000000000E+00 -0.00000000000E+00 -0.92046614258E+03  0.92046614258E+03  0.00000000000E+00 0. -1.
   -9000010    2    1    2    0  502 -0.25477621251E+03 -0.99833022761E+02 -0.48979017513E+03  0.11400688279E+04  0.99246408787E+03 0.  0.
         13    1    3    3    0    0  0.28794591498E+03 -0.16581731483E+03 -0.49158189385E+03  0.59334728564E+03  0.10566000000E+00 0. -1.
         -4    1    3    3    0  502 -0.54272212749E+03  0.65984292065E+02  0.17917187187E+01  0.54672154222E+03  0.00000000000E+00 0. -1.
        -13    1    1    2    0    0  0.25477621251E+03  0.99833022761E+02  0.71836736760E+02  0.28291001892E+03  0.10566000000E+00 0.  1.
<mgrwt>
<rscale>  1 0.73920108E+03</rscale>
<asrwt>0</asrwt>
<pdfrwt beam="1">  1       21 0.77309648E-01 0.10294962E+04</pdfrwt>
<pdfrwt beam="2">  1       -4 0.14161017E+00 0.10294962E+04</pdfrwt>
<totfact> 0.19619007E+01</totfact>
</mgrwt>
</event>
<event>
 6    2  0.2220137E-005  0.1039782E+04  0.7818608E-02  0.9636712E-01
         -4   -1    0    0    0  501 -0.00000000000E+00  0.00000000000E+00  0.56334635367E+03  0.56334635367E+03  0.00000000000E+00 0. -1.
         21   -1    0    0  501  502  0.00000000000E+00 -0.00000000000E+00 -0.21109318391E+04  0.21109318391E+04  0.00000000000E+00 0. -1.
   -9000010    2    1    2    0  502  0.20829361971E+03 -0.18735987098E+03 -0.19347071311E+04  0.21964151025E+04  0.10013279512E+04 0.  0.
         13    1    3    3    0    0  0.11464732351E+03 -0.59496515064E+03 -0.13260267713E+04  0.14579007334E+04  0.10566000000E+00 0. -1.
         -4    1    3    3    0  502  0.93646296193E+02  0.40760527966E+03 -0.60868035987E+03  0.73851436904E+03  0.00000000000E+00 0. -1.
        -13    1    1    2    0    0 -0.20829361971E+03  0.18735987098E+03  0.38712164574E+03  0.47786309025E+03  0.10566000000E+00 0.  1.
<mgrwt>
<rscale>  1 0.74913250E+03</rscale>
<asrwt>0</asrwt>
<pdfrwt beam="2">  1       21 0.32475875E+00 0.10397825E+04</pdfrwt>
<pdfrwt beam="1">  1       -4 0.86668667E-01 0.10397825E+04</pdfrwt>
<totfact> 0.83553013E-01</totfact>
</mgrwt>
</event>
<event>
 6    2  0.2220137E-005  0.1012462E+04  0.7818608E-02  0.9728190E-01
         21   -1    0    0  501  502  0.00000000000E+00  0.00000000000E+00  0.69732445980E+03  0.69732445980E+03  0.00000000000E+00 0. -1.
         -4   -1    0    0    0  501 -0.00000000000E+00 -0.00000000000E+00 -0.87710538409E+03  0.87710538409E+03  0.00000000000E+00 0. -1.
   -9000010    2    1    2    0  502  0.17777882707E+03  0.13468159366E+03  0.29103182132E+03  0.10534604632E+04  0.98759049382E+03 0.  0.
         13    1    3    3    0    0  0.49531053061E+03 -0.83889043989E+02  0.41171785176E+03  0.64952405195E+03  0.10566000000E+00 0. -1.
         -4    1    3    3    0  502 -0.31753170354E+03  0.21857063765E+03 -0.12068603044E+03  0.40393641125E+03  0.00000000000E+00 0. -1.
        -13    1    1    2    0    0 -0.17777882707E+03 -0.13468159366E+03 -0.47081274561E+03  0.52096938069E+03  0.10566000000E+00 0.  1.
<mgrwt>
<rscale>  1 0.69362886E+03</rscale>
<asrwt>0</asrwt>
<pdfrwt beam="1">  1       21 0.10728069E+00 0.10124621E+04</pdfrwt>
<pdfrwt beam="2">  1       -4 0.13493929E+00 0.10124621E+04</pdfrwt>
<totfact> 0.10073758E+01</totfact>
</mgrwt>
</event>
<event>
 6    2  0.2220137E-005  0.1041621E+04  0.7818608E-02  0.9605341E-01
         -4   -1    0    0    0  501 -0.00000000000E+00  0.00000000000E+00  0.33968138671E+03  0.33968138671E+03  0.00000000000E+00 0. -1.
         21   -1    0    0  501  502  0.00000000000E+00 -0.00000000000E+00 -0.15190162400E+04  0.15190162400E+04  0.00000000000E+00 0. -1.
   -9000010    2    1    2    0  502  0.16083802137E+03 -0.26517919885E+03 -0.11430170705E+04  0.15464351264E+04  0.99437653829E+03 0.  0.
         13    1    3    3    0    0 -0.14171388770E+03 -0.53796457317E+03 -0.93756085564E+03  0.10901876339E+04  0.10566000000E+00 0. -1.
         -4    1    3    3    0  502  0.30255190907E+03  0.27278537432E+03 -0.20545621490E+03  0.45624749245E+03  0.00000000000E+00 0. -1.
        -13    1    1    2    0    0 -0.16083802137E+03  0.26517919885E+03 -0.36317782761E+02  0.31226250036E+03  0.10566000000E+00 0.  1.
<mgrwt>
<rscale>  1 0.76943653E+03</rscale>
<asrwt>0</asrwt>
<pdfrwt beam="2">  1       21 0.23369481E+00 0.10416206E+04</pdfrwt>
<pdfrwt beam="1">  1       -4 0.52258674E-01 0.10416206E+04</pdfrwt>
<totfact> 0.96300457E+00</totfact>
</mgrwt>
</event>
<event>
 6    2  0.2220137E-005  0.9944701E+03  0.7818608E-02  0.9922475E-01
         -4   -1    0    0    0  501 -0.00000000000E+00  0.00000000000E+00  0.95243386948E+03  0.95243386948E+03  0.00000000000E+00 0. -1.
         21   -1    0    0  501  502  0.00000000000E+00 -0.00000000000E+00 -0.57368726055E+03  0.57368726055E+03  0.00000000000E+00 0. -1.
   -9000010    2    1    2    0  502 -0.10655413976E+03  0.64881125727E+02 -0.12942835620E+03  0.10028571894E+04  0.98661415854E+03 0.  0.
         13    1    3    3    0    0  0.33328665864E+03  0.32261661642E+03 -0.16375351364E+03  0.49191127494E+03  0.10566000000E+00 0. -1.
         -4    1    3    3    0  502 -0.43984079840E+03 -0.25773549069E+03  0.34325157441E+02  0.51094591449E+03  0.00000000000E+00 0. -1.
        -13    1    1    2    0    0  0.10655413976E+03 -0.64881125727E+02  0.50817496513E+03  0.52326394060E+03  0.10566000000E+00 0.  1.
<mgrwt>
<rscale>  1 0.59184327E+03</rscale>
<asrwt>0</asrwt>
<pdfrwt beam="2">  1       21 0.88259578E-01 0.99447013E+03</pdfrwt>
<pdfrwt beam="1">  1       -4 0.14652829E+00 0.99447013E+03</pdfrwt>
<totfact> 0.13138434E+01</totfact>
</mgrwt>
</event>
<event>
 6    2  0.2220137E-005  0.9765647E+03  0.7818608E-02  0.9941036E-01
         21   -1    0    0  501  502  0.00000000000E+00  0.00000000000E+00  0.41467387424E+03  0.41467387424E+03  0.00000000000E+00 0. -1.
         -4   -1    0    0    0  501 -0.00000000000E+00 -0.00000000000E+00 -0.75956170231E+03  0.75956170231E+03  0.00000000000E+00 0. -1.
   -9000010    2    1    2    0  502 -0.95605109338E+02 -0.79207822797E+02 -0.22607693463E+03  0.10023918810E+04  0.96864053532E+03 0.  0.
         13    1    3    3    0    0 -0.47673838019E+03 -0.36830788588E+02  0.11207055184E+03  0.49111690043E+03  0.10566000000E+00 0. -1.
         -4    1    3    3    0  502  0.38113327085E+03 -0.42377034208E+02 -0.33814748647E+03  0.51127498060E+03  0.00000000000E+00 0. -1.
        -13    1    1    2    0    0  0.95605109338E+02  0.79207822797E+02 -0.11881089344E+03  0.17184369551E+03  0.10566000000E+00 0.  1.
<mgrwt>
<rscale>  1 0.58313083E+03</rscale>
<asrwt>0</asrwt>
<pdfrwt beam="1">  1       21 0.63795981E-01 0.97656475E+03</pdfrwt>
<pdfrwt beam="2">  1       -4 0.11685565E+00 0.97656475E+03</pdfrwt>
<totfact> 0.50132342E+01</totfact>
</mgrwt>
</event>
<event>
 6    2  0.2220137E-005  0.1005688E+04  0.7818608E-02  0.1018109E+00
         -4   -1    0    0    0  501 -0.00000000000E+00  0.00000000000E+00  0.54729311794E+03  0.54729311794E+03  0.00000000000E+00 0. -1.
         21   -1    0    0  501  502  0.00000000000E+00 -0.00000000000E+00 -0.52301563848E+03  0.52301563848E+03  0.00000000000E+00 0. -1.
   -9000010    2    1    2    0  502  0.43954944576E+02 -0.31091014175E+02 -0.11344680473E+02  0.10057515124E+04  0.10042453458E+04 0.  0.
         13    1    3    3    0    0 -0.27883754749E+03  0.38476639540E+03  0.39777207042E+02  0.47684147711E+03  0.10566000000E+00 0. -1.
         -4    1    3    3    0  502  0.32279249207E+03 -0.41585740958E+03 -0.51121887515E+02  0.52891003528E+03  0.00000000000E+00 0. -1.
        -13    1    1    2    0    0 -0.43954944576E+02  0.31091014175E+02  0.35622159931E+02  0.64557244034E+02  0.10566000000E+00 0.  1.
<mgrwt>
<rscale>  1 0.48375191E+03</rscale>
<asrwt>0</asrwt>
<pdfrwt beam="2">  1       21 0.80463944E-01 0.10056875E+04</pdfrwt>
<pdfrwt beam="1">  1       -4 0.84198941E-01 0.10056875E+04</pdfrwt>
<totfact> 0.64485693E+01</totfact>
</mgrwt>
</event>
<event>
 6    2  0.2220137E-005  0.1058257E+04  0.7818608E-02  0.9511896E-01
         -4   -1    0    0    0  501 -0.00000000000E+00  0.00000000000E+00  0.48640340798E+03  0.48640340798E+03  0.00000000000E+00 0. -1.
         21   -1    0    0  501  502  0.00000000000E+00 -0.00000000000E+00 -0.11715040463E+04  0.11715040463E+04  0.00000000000E+00 0.  1.
   -9000010    2    1    2    0  502  0.33165537871E+03  0.23841955002E+03 -0.30844330747E+03  0.11022907446E+04  0.97625224178E+03 0.  0.
         13    1    3    3    0    0  0.26890738569E+03 -0.32803743753E+02 -0.62473180314E+03  0.68093840008E+03  0.10566000000E+00 0. -1.
         -4    1    3    3    0  502  0.62747993015E+02  0.27122329377E+03  0.31628849567E+03  0.42135234449E+03  0.00000000000E+00 0. -1.
        -13    1    1    2    0    0 -0.33165537871E+03 -0.23841955002E+03 -0.37665733085E+03  0.55561670971E+03  0.10566000000E+00 0.  1.
<mgrwt>
<rscale>  1 0.83412403E+03</rscale>
<asrwt>0</asrwt>
<pdfrwt beam="2">  1       21 0.18023139E+00 0.10582569E+04</pdfrwt>
<pdfrwt beam="1">  1       -4 0.74831295E-01 0.10582569E+04</pdfrwt>
<totfact> 0.10103514E+01</totfact>
</mgrwt>
</event>
<event>
 6    2  0.2220137E-005  0.1032040E+04  0.7818608E-02  0.9649788E-01
         -4   -1    0    0    0  501 -0.00000000000E+00  0.00000000000E+00  0.10836543279E+04  0.10836543279E+04  0.00000000000E+00 0. -1.
         21   -1    0    0  501  502  0.00000000000E+00 -0.00000000000E+00 -0.51555731967E+03  0.51555731967E+03  0.00000000000E+00 0. -1.
   -9000010    2    1    2    0  502  0.13211153766E+03 -0.24013428570E+03  0.74623494628E+02  0.10347348515E+04  0.99498221759E+03 0.  0.
         13    1    3    3    0    0  0.48014780620E+03 -0.28779332657E+02 -0.22318407549E+03  0.53026531897E+03  0.10566000000E+00 0. -1.
         -4    1    3    3    0  502 -0.34803626853E+03 -0.21135495304E+03  0.29780757012E+03  0.50446953249E+03  0.00000000000E+00 0. -1.
        -13    1    1    2    0    0 -0.13211153766E+03  0.24013428570E+03  0.49347351358E+03  0.56447679609E+03  0.10566000000E+00 0.  1.
<mgrwt>
<rscale>  1 0.74086744E+03</rscale>
<asrwt>0</asrwt>
<pdfrwt beam="2">  1       21 0.79316511E-01 0.10320405E+04</pdfrwt>
<pdfrwt beam="1">  1       -4 0.16671605E+00 0.10320405E+04</pdfrwt>
<totfact> 0.11859539E+01</totfact>
</mgrwt>
</event>
<event>
 6    2  0.2220137E-005  0.1176653E+04  0.7818608E-02  0.9300458E-01
         21   -1    0    0  501  502  0.00000000000E+00  0.00000000000E+00  0.10915077656E+04  0.10915077656E+04  0.00000000000E+00 0.  1.
         -4   -1    0    0    0  501 -0.00000000000E+00 -0.00000000000E+00 -0.74943758779E+03  0.74943758779E+03  0.00000000000E+00 0. -1.
   -9000010    2    1    2    0  502 -0.59500165128E+03  0.21374486532E+03  0.22435056115E+03  0.11978499081E+04  0.99236958618E+03 0.  0.
         13    1    3    3    0    0 -0.47615284861E+03  0.54155489408E+03 -0.92103053321E+02  0.72697057859E+03  0.10566000000E+00 0. -1.
         -4    1    3    3    0  502 -0.11884880267E+03 -0.32781002876E+03  0.31645361447E+03  0.47087932951E+03  0.00000000000E+00 0. -1.
        -13    1    1    2    0    0  0.59500165128E+03 -0.21374486532E+03  0.11771961670E+03  0.64309544532E+03  0.10566000000E+00 0.  1.
<mgrwt>
<rscale>  1 0.10074067E+04</rscale>
<asrwt>0</asrwt>
<pdfrwt beam="1">  1       21 0.16792427E+00 0.11766526E+04</pdfrwt>
<pdfrwt beam="2">  1       -4 0.11529809E+00 0.11766526E+04</pdfrwt>
<totfact> 0.43980147E+00</totfact>
</mgrwt>
</event>
<event>
 6    2  0.2220137E-005  0.1628819E+04  0.7818608E-02  0.8860812E-01
         21   -1    0    0  501  502  0.00000000000E+00  0.00000000000E+00  0.22135871649E+04  0.22135871649E+04  0.00000000000E+00 0.  1.
         -4   -1    0    0    0  501 -0.00000000000E+00 -0.00000000000E+00 -0.13652521497E+04  0.13652521497E+04  0.00000000000E+00 0. -1.
   -9000010    2    1    2    0  502  0.45791159000E+03 -0.12042148033E+04 -0.50991055711E+03  0.17067689733E+04  0.99661187802E+03 0.  0.
         13    1    3    3    0    0  0.11638729206E+03 -0.57886065860E+03  0.27097442523E+03  0.64965591979E+03  0.10566000000E+00 0. -1.
         -4    1    3    3    0  502  0.34152429793E+03 -0.62535414467E+03 -0.78088498233E+03  0.10571130535E+04  0.00000000000E+00 0. -1.
        -13    1    1    2    0    0 -0.45791159000E+03  0.12042148033E+04  0.13582455723E+04  0.18720703412E+04  0.10566000000E+00 0.  1.
<mgrwt>
<rscale>  1 0.15360742E+04</rscale>
<asrwt>0</asrwt>
<pdfrwt beam="1">  1       21 0.34055187E+00 0.16288191E+04</pdfrwt>
<pdfrwt beam="2">  1       -4 0.21003879E+00 0.16288191E+04</pdfrwt>
<totfact> 0.56831863E-02</totfact>
</mgrwt>
</event>
<event>
 6    2  0.2220137E-005  0.1055272E+04  0.7818608E-02  0.9590137E-01
         21   -1    0    0  501  502  0.00000000000E+00  0.00000000000E+00  0.62319212764E+03  0.62319212764E+03  0.00000000000E+00 0. -1.
         -4   -1    0    0    0  501 -0.00000000000E+00 -0.00000000000E+00 -0.75247745892E+03  0.75247745892E+03  0.00000000000E+00 0. -1.
   -9000010    2    1    2    0  502 -0.27964458654E+03  0.14327981523E+03 -0.10644119136E+03  0.10606266274E+04  0.10074070256E+04 0.  0.
         13    1    3    3    0    0 -0.30956870936E+03 -0.39969620719E+03 -0.10732747032E+03  0.51682592902E+03  0.10566000000E+00 0. -1.
         -4    1    3    3    0  502  0.29924122828E+02  0.54297602242E+03  0.88627895557E+00  0.54380069836E+03  0.00000000000E+00 0. -1.
        -13    1    1    2    0    0  0.27964458654E+03 -0.14327981523E+03 -0.22844139925E+02  0.31504295917E+03  0.10566000000E+00 0.  1.
<mgrwt>
<rscale>  1 0.77952427E+03</rscale>
<asrwt>0</asrwt>
<pdfrwt beam="1">  1       21 0.95875712E-01 0.10552721E+04</pdfrwt>
<pdfrwt beam="2">  1       -4 0.11576576E+00 0.10552721E+04</pdfrwt>
<totfact> 0.19597400E+01</totfact>
</mgrwt>
</event>
<event>
 6    2  0.2220137E-005  0.1008423E+04  0.7818608E-02  0.9882940E-01
         21   -1    0    0  501  502  0.00000000000E+00  0.00000000000E+00  0.86064753815E+03  0.86064753815E+03  0.00000000000E+00 0. -1.
         -4   -1    0    0    0  501 -0.00000000000E+00 -0.00000000000E+00 -0.38095981787E+03  0.38095981787E+03  0.00000000000E+00 0. -1.
   -9000010    2    1    2    0  502  0.13091130084E+03  0.36344741402E+02  0.40635905742E+03  0.10872188432E+04  0.99922891304E+03 0.  0.
         13    1    3    3    0    0  0.49576991722E+03 -0.14224378920E+03  0.44224880299E+03  0.67941527896E+03  0.10566000000E+00 0. -1.
         -4    1    3    3    0  502 -0.36485861638E+03  0.17858853060E+03 -0.35889745563E+02  0.40780356428E+03  0.00000000000E+00 0. -1.
        -13    1    1    2    0    0 -0.13091130084E+03 -0.36344741402E+02  0.73328662856E+02  0.15438851277E+03  0.10566000000E+00 0.  1.
<mgrwt>
<rscale>  1 0.61095235E+03</rscale>
<asrwt>0</asrwt>
<pdfrwt beam="1">  1       21 0.13240731E+00 0.10084231E+04</pdfrwt>
<pdfrwt beam="2">  1       -4 0.58609203E-01 0.10084231E+04</pdfrwt>
<totfact> 0.41789641E+01</totfact>
</mgrwt>
</event>
<event>
 6    2  0.2220137E-005  0.1094514E+04  0.7818608E-02  0.9464231E-01
         21   -1    0    0  501  502  0.00000000000E+00  0.00000000000E+00  0.10307869594E+04  0.10307869594E+04  0.00000000000E+00 0. -1.
         -4   -1    0    0    0  501 -0.00000000000E+00 -0.00000000000E+00 -0.58744551291E+03  0.58744551291E+03  0.00000000000E+00 0. -1.
   -9000010    2    1    2    0  502  0.43632777000E+03 -0.74287887621E+01  0.44583887091E+03  0.11818343077E+04  0.10037544134E+04 0.  0.
         13    1    3    3    0    0  0.20712246136E+03  0.16811552012E+03  0.72971293179E+03  0.77694498911E+03  0.10566000000E+00 0. -1.
         -4    1    3    3    0  502  0.22920530864E+03 -0.17554430888E+03 -0.28387406089E+03  0.40488931863E+03  0.00000000000E+00 0. -1.
        -13    1    1    2    0    0 -0.43632777000E+03  0.74287887621E+01 -0.24974243805E+01  0.43639816460E+03  0.10566000000E+00 0.  1.
<mgrwt>
<rscale>  1 0.86973075E+03</rscale>
<asrwt>0</asrwt>
<pdfrwt beam="1">  1       21 0.15858261E+00 0.10945136E+04</pdfrwt>
<pdfrwt beam="2">  1       -4 0.90376233E-01 0.10945136E+04</pdfrwt>
<totfact> 0.94625028E+00</totfact>
</mgrwt>
</event>
<event>
 6    2  0.2220137E-005  0.9954403E+03  0.7818608E-02  0.1022681E+00
         -4   -1    0    0    0  501 -0.00000000000E+00  0.00000000000E+00  0.97011252468E+03  0.97011252468E+03  0.00000000000E+00 0. -1.
         21   -1    0    0  501  502  0.00000000000E+00 -0.00000000000E+00 -0.30314013998E+03  0.30314013998E+03  0.00000000000E+00 0. -1.
   -9000010    2    1    2    0  502  0.46628567114E+02  0.12781818711E+02  0.52945958635E+03  0.11274878574E+04  0.99426546600E+03 0.  0.
         13    1    3    3    0    0  0.90145039618E+02 -0.48623801780E+03  0.26162160469E+03  0.55946350491E+03  0.10566000000E+00 0. -1.
         -4    1    3    3    0  502 -0.43516472504E+02  0.49901983651E+03  0.26783798166E+03  0.56802435250E+03  0.00000000000E+00 0. -1.
        -13    1    1    2    0    0 -0.46628567114E+02 -0.12781818711E+02  0.13751279834E+03  0.14576480725E+03  0.10566000000E+00 0.  1.
<mgrwt>
<rscale>  1 0.46731305E+03</rscale>
<asrwt>0</asrwt>
<pdfrwt beam="2">  1       21 0.46636945E-01 0.99544031E+03</pdfrwt>
<pdfrwt beam="1">  1       -4 0.14924808E+00 0.99544031E+03</pdfrwt>
<totfact> 0.52876345E+01</totfact>
</mgrwt>
</event>
<event>
 6    2  0.2220137E-005  0.1026847E+04  0.7818608E-02  0.9943231E-01
         21   -1    0    0  501  502  0.00000000000E+00  0.00000000000E+00  0.13192851805E+04  0.13192851805E+04  0.00000000000E+00 0. -1.
         -4   -1    0    0    0  501 -0.00000000000E+00 -0.00000000000E+00 -0.26340971301E+03  0.26340971301E+03  0.00000000000E+00 0. -1.
   -9000010    2    1    2    0  502  0.10333551540E+03 -0.23836084004E+02  0.10609922100E+04  0.14765224872E+04  0.10213558625E+04 0.  0.
         13    1    3    3    0    0 -0.62483512934E+02 -0.50488061994E+03  0.62954498711E+03  0.80940443027E+03  0.10566000000E+00 0. -1.
         -4    1    3    3    0  502  0.16581902833E+03  0.48104453594E+03  0.43144722285E+03  0.66711805688E+03  0.00000000000E+00 0. -1.
        -13    1    1    2    0    0 -0.10333551540E+03  0.23836084004E+02 -0.51167425204E+01  0.10617240631E+03  0.10566000000E+00 0.  1.
<mgrwt>
<rscale>  1 0.58211113E+03</rscale>
<asrwt>0</asrwt>
<pdfrwt beam="1">  1       21 0.20296695E+00 0.10268467E+04</pdfrwt>
<pdfrwt beam="2">  1       -4 0.40524572E-01 0.10268467E+04</pdfrwt>
<totfact> 0.26232228E+01</totfact>
</mgrwt>
</event>
<event>
 6    2  0.2220137E-005  0.1013595E+04  0.7818608E-02  0.9821443E-01
         21   -1    0    0  501  502  0.00000000000E+00  0.00000000000E+00  0.19431506565E+03  0.19431506565E+03  0.00000000000E+00 0. -1.
         -4   -1    0    0    0  501 -0.00000000000E+00 -0.00000000000E+00 -0.21916113744E+04  0.21916113744E+04  0.00000000000E+00 0. -1.
   -9000010    2    1    2    0  502 -0.11692477373E+03 -0.11411689076E+03 -0.11941176992E+04  0.15662985016E+04  0.10003398668E+04 0.  0.
         13    1    3    3    0    0 -0.32161593140E+03 -0.23243391419E+03 -0.12598824802E+04  0.13208959864E+04  0.10566000000E+00 0. -1.
         -4    1    3    3    0  502  0.20469115768E+03  0.11831702342E+03  0.65764780993E+02  0.24540251523E+03  0.00000000000E+00 0. -1.
        -13    1    1    2    0    0  0.11692477373E+03  0.11411689076E+03 -0.80317860950E+03  0.81962793839E+03  0.10566000000E+00 0.  1.
<mgrwt>
<rscale>  1 0.64224402E+03</rscale>
<asrwt>0</asrwt>
<pdfrwt beam="1">  1       21 0.29894624E-01 0.10135946E+04</pdfrwt>
<pdfrwt beam="2">  1       -4 0.33717100E+00 0.10135946E+04</pdfrwt>
<totfact> 0.79773270E+00</totfact>
</mgrwt>
</event>
<event>
 6    2  0.2220137E-005  0.9510448E+03  0.7818608E-02  0.1026655E+00
         -4   -1    0    0    0  501 -0.00000000000E+00  0.00000000000E+00  0.23950164044E+03  0.23950164044E+03  0.00000000000E+00 0. -1.
         21   -1    0    0  501  502  0.00000000000E+00 -0.00000000000E+00 -0.10711312450E+04  0.10711312450E+04  0.00000000000E+00 0. -1.
   -9000010    2    1    2    0  502 -0.22763269304E+02  0.43631603897E+02 -0.82852104433E+03  0.12613220591E+04  0.94977067367E+03 0.  0.
         13    1    3    3    0    0 -0.11549091336E+03 -0.29217801314E+03  0.48264188099E+02  0.31786095301E+03  0.10566000000E+00 0. -1.
         -4    1    3    3    0  502  0.92727644058E+02  0.33580961704E+03 -0.87678523243E+03  0.94346110607E+03  0.00000000000E+00 0. -1.
        -13    1    1    2    0    0  0.22763269304E+02 -0.43631603897E+02 -0.31085602676E+01  0.49310826388E+02  0.10566000000E+00 0.  1.
<mgrwt>
<rscale>  1 0.45359696E+03</rscale>
<asrwt>0</asrwt>
<pdfrwt beam="2">  1       21 0.16478942E+00 0.95104480E+03</pdfrwt>
<pdfrwt beam="1">  1       -4 0.36846407E-01 0.95104480E+03</pdfrwt>
<totfact> 0.60340660E+01</totfact>
</mgrwt>
</event>
<event>
 6    2  0.2220137E-005  0.1023384E+04  0.7818608E-02  0.9738789E-01
         -4   -1    0    0    0  501 -0.00000000000E+00  0.00000000000E+00  0.12643535733E+04  0.12643535733E+04  0.00000000000E+00 0. -1.
         21   -1    0    0  501  502  0.00000000000E+00 -0.00000000000E+00 -0.33957109763E+03  0.33957109763E+03  0.00000000000E+00 0. -1.
   -9000010    2    1    2    0  502  0.10345103911E+03 -0.18100191077E+03  0.51841869045E+03  0.11472022757E+04  0.10019238063E+04 0.  0.
         13    1    3    3    0    0  0.41680979182E+03 -0.43513466028E+03  0.41201284191E+03  0.72995011349E+03  0.10566000000E+00 0. -1.
         -4    1    3    3    0  502 -0.31335875271E+03  0.25413274951E+03  0.10640584854E+03  0.41725216222E+03  0.00000000000E+00 0. -1.
        -13    1    1    2    0    0 -0.10345103911E+03  0.18100191077E+03  0.40636378525E+03  0.45672239525E+03  0.10566000000E+00 0.  1.
<mgrwt>
<rscale>  1 0.68753530E+03</rscale>
<asrwt>0</asrwt>
<pdfrwt beam="2">  1       21 0.52241708E-01 0.10233842E+04</pdfrwt>
<pdfrwt beam="1">  1       -4 0.19451593E+00 0.10233842E+04</pdfrwt>
<totfact> 0.19512924E+01</totfact>
</mgrwt>
</event>
<event>
 6    2  0.2220137E-005  0.1106177E+04  0.7818608E-02  0.9425930E-01
         -4   -1    0    0    0  501 -0.00000000000E+00  0.00000000000E+00  0.80497580628E+03  0.80497580628E+03  0.00000000000E+00 0. -1.
         21   -1    0    0  501  502  0.00000000000E+00 -0.00000000000E+00 -0.78650111733E+03  0.78650111733E+03  0.00000000000E+00 0. -1.
   -9000010    2    1    2    0  502  0.12325300604E+03 -0.46817288777E+03 -0.13974667633E+02  0.11062654973E+04  0.99461093036E+03 0.  0.
         13    1    3    3    0    0 -0.41194644627E+03 -0.17893517857E+03 -0.16663827355E+03  0.47904696857E+03  0.10566000000E+00 0. -1.
         -4    1    3    3    0  502  0.53519945231E+03 -0.28923770920E+03  0.15266360592E+03  0.62721852870E+03  0.00000000000E+00 0. -1.
        -13    1    1    2    0    0 -0.12325300604E+03  0.46817288777E+03  0.32449356583E+02  0.48521142633E+03  0.10566000000E+00 0.  1.
<mgrwt>
<rscale>  1 0.89972119E+03</rscale>
<asrwt>0</asrwt>
<pdfrwt beam="2">  1       21 0.12100017E+00 0.11061772E+04</pdfrwt>
<pdfrwt beam="1">  1       -4 0.12384243E+00 0.11061772E+04</pdfrwt>
<totfact> 0.91349353E+00</totfact>
</mgrwt>
</event>
<event>
 6    2  0.2220137E-005  0.1158149E+04  0.7818608E-02  0.9426531E-01
         -4   -1    0    0    0  501 -0.00000000000E+00  0.00000000000E+00  0.44813338264E+03  0.44813338264E+03  0.00000000000E+00 0. -1.
         21   -1    0    0  501  502  0.00000000000E+00 -0.00000000000E+00 -0.15748004215E+04  0.15748004215E+04  0.00000000000E+00 0. -1.
   -9000010    2    1    2    0  502 -0.36126374505E+02  0.41937778002E+03 -0.11061187987E+04  0.16015016285E+04  0.10789466307E+04 0.  0.
         13    1    3    3    0    0  0.19566617752E+03  0.71071204467E+03 -0.50190493209E+03  0.89179898827E+03  0.10566000000E+00 0. -1.
         -4    1    3    3    0  502 -0.23179255202E+03 -0.29133426465E+03 -0.60421386660E+03  0.70970264021E+03  0.00000000000E+00 0. -1.
        -13    1    1    2    0    0  0.36126374505E+02 -0.41937778002E+03 -0.20548240134E+02  0.42143217562E+03  0.10566000000E+00 0.  1.
<mgrwt>
<rscale>  1 0.89924076E+03</rscale>
<asrwt>0</asrwt>
<pdfrwt beam="2">  1       21 0.24227699E+00 0.11581488E+04</pdfrwt>
<pdfrwt beam="1">  1       -4 0.68943598E-01 0.11581488E+04</pdfrwt>
<totfact> 0.45569123E+00</totfact>
</mgrwt>
</event>
<event>
 6    2  0.2220137E-005  0.1019966E+04  0.7818608E-02  0.9896244E-01
         21   -1    0    0  501  502  0.00000000000E+00  0.00000000000E+00  0.46920823684E+03  0.46920823684E+03  0.00000000000E+00 0. -1.
         -4   -1    0    0    0  501 -0.00000000000E+00 -0.00000000000E+00 -0.72471006048E+03  0.72471006048E+03  0.00000000000E+00 0. -1.
   -9000010    2    1    2    0  502 -0.65632289944E+02 -0.10731031086E+03 -0.15242988092E+03  0.10312931552E+04  0.10121796299E+04 0.  0.
         13    1    3    3    0    0  0.29232170814E+03 -0.41103502439E+02 -0.46546740466E+03  0.55118181658E+03  0.10566000000E+00 0. -1.
         -4    1    3    3    0  502 -0.35795399809E+03 -0.66206808424E+02  0.31303752374E+03  0.48011133865E+03  0.00000000000E+00 0. -1.
        -13    1    1    2    0    0  0.65632289944E+02  0.10731031086E+03 -0.10307194272E+03  0.16262514209E+03  0.10566000000E+00 0.  1.
<mgrwt>
<rscale>  1 0.60443662E+03</rscale>
<asrwt>0</asrwt>
<pdfrwt beam="1">  1       21 0.72185883E-01 0.10199660E+04</pdfrwt>
<pdfrwt beam="2">  1       -4 0.11149386E+00 0.10199660E+04</pdfrwt>
<totfact> 0.42347716E+01</totfact>
</mgrwt>
</event>
<event>
 6    2  0.2220137E-005  0.1004813E+04  0.7818608E-02  0.9809036E-01
         -4   -1    0    0    0  501 -0.00000000000E+00  0.00000000000E+00  0.11274429897E+04  0.11274429897E+04  0.00000000000E+00 0. -1.
         21   -1    0    0  501  502  0.00000000000E+00 -0.00000000000E+00 -0.38370797122E+03  0.38370797122E+03  0.00000000000E+00 0. -1.
   -9000010    2    1    2    0  502  0.18604034207E+02  0.17366232229E+03  0.32275269911E+03  0.10553759763E+04  0.98951727333E+03 0.  0.
         13    1    3    3    0    0  0.14285140397E+03  0.73294841244E+01  0.65124818765E+03  0.66677166860E+03  0.10566000000E+00 0. -1.
         -4    1    3    3    0  502 -0.12424736976E+03  0.16633283816E+03 -0.32849548854E+03  0.38860430766E+03  0.00000000000E+00 0. -1.
        -13    1    1    2    0    0 -0.18604034207E+02 -0.17366232229E+03  0.42098231939E+03  0.45577498470E+03  0.10566000000E+00 0.  1.
<mgrwt>
<rscale>  1 0.64879847E+03</rscale>
<asrwt>0</asrwt>
<pdfrwt beam="2">  1       21 0.59031996E-01 0.10048130E+04</pdfrwt>
<pdfrwt beam="1">  1       -4 0.17345277E+00 0.10048130E+04</pdfrwt>
<totfact> 0.20883407E+01</totfact>
</mgrwt>
</event>
<event>
 6    2  0.2220137E-005  0.1030375E+04  0.7818608E-02  0.9624031E-01
         21   -1    0    0  501  502  0.00000000000E+00  0.00000000000E+00  0.11499242710E+04  0.11499242710E+04  0.00000000000E+00 0. -1.
         -4   -1    0    0    0  501 -0.00000000000E+00 -0.00000000000E+00 -0.45009842429E+03  0.45009842429E+03  0.00000000000E+00 0. -1.
   -9000010    2    1    2    0  502 -0.23843681984E+03  0.18305461047E+03  0.77602090175E+03  0.12899149639E+04  0.98555114872E+03 0.  0.
         13    1    3    3    0    0  0.38137793604E+03  0.60557048499E+02  0.39356172205E+03  0.55136841263E+03  0.10566000000E+00 0. -1.
         -4    1    3    3    0  502 -0.61981475588E+03  0.12249756198E+03  0.38245917971E+03  0.73854655130E+03  0.00000000000E+00 0. -1.
        -13    1    1    2    0    0  0.23843681984E+03 -0.18305461047E+03 -0.76195055050E+02  0.31010773136E+03  0.10566000000E+00 0.  1.
<mgrwt>
<rscale>  1 0.75725842E+03</rscale>
<asrwt>0</asrwt>
<pdfrwt beam="1">  1       21 0.17691143E+00 0.10303748E+04</pdfrwt>
<pdfrwt beam="2">  1       -4 0.69245912E-01 0.10303748E+04</pdfrwt>
<totfact> 0.12766638E+01</totfact>
</mgrwt>
</event>
<event>
 6    2  0.2220137E-005  0.1001218E+04  0.7818608E-02  0.1000589E+00
         21   -1    0    0  501  502  0.00000000000E+00  0.00000000000E+00  0.52905353918E+03  0.52905353918E+03  0.00000000000E+00 0. -1.
         -4   -1    0    0    0  501 -0.00000000000E+00 -0.00000000000E+00 -0.57222264683E+03  0.57222264683E+03  0.00000000000E+00 0. -1.
   -9000010    2    1    2    0  502 -0.50101676844E+02  0.79305639798E+02 -0.84578843331E+01  0.10012539749E+04  0.99681413710E+03 0.  0.
         13    1    3    3    0    0 -0.44423506177E+02 -0.45381221984E+03  0.73423042800E+02  0.46185488322E+03  0.10566000000E+00 0. -1.
         -4    1    3    3    0  502 -0.56781706675E+01  0.53311785963E+03 -0.81880927133E+02  0.53939909169E+03  0.00000000000E+00 0. -1.
        -13    1    1    2    0    0  0.50101676844E+02 -0.79305639798E+02 -0.34711223315E+02  0.10002221111E+03  0.10566000000E+00 0.  1.
<mgrwt>
<rscale>  1 0.55392922E+03</rscale>
<asrwt>0</asrwt>
<pdfrwt beam="1">  1       21 0.81392852E-01 0.10012183E+04</pdfrwt>
<pdfrwt beam="2">  1       -4 0.88034254E-01 0.10012183E+04</pdfrwt>
<totfact> 0.56592881E+01</totfact>
</mgrwt>
</event>
<event>
 6    2  0.2220137E-005  0.1025751E+04  0.7818608E-02  0.9743337E-01
         21   -1    0    0  501  502  0.00000000000E+00  0.00000000000E+00  0.21767199808E+04  0.21767199808E+04  0.00000000000E+00 0. -1.
         -4   -1    0    0    0  501 -0.00000000000E+00 -0.00000000000E+00 -0.21069990653E+03  0.21069990653E+03  0.00000000000E+00 0. -1.
   -9000010    2    1    2    0  502  0.15621159965E+03 -0.13109814453E+03  0.19222991228E+04  0.21788525837E+04  0.10052740307E+04 0.  0.
         13    1    3    3    0    0 -0.27646008464E+03  0.30412595909E+03  0.72308361561E+03  0.83172874407E+03  0.10566000000E+00 0. -1.
         -4    1    3    3    0  502  0.43267168429E+03 -0.43522410362E+03  0.11992155071E+04  0.13471238396E+04  0.00000000000E+00 0. -1.
        -13    1    1    2    0    0 -0.15621159965E+03  0.13109814453E+03  0.43720951487E+02  0.20856730359E+03  0.10566000000E+00 0.  1.
<mgrwt>
<rscale>  1 0.68494143E+03</rscale>
<asrwt>0</asrwt>
<pdfrwt beam="1">  1       21 0.33487998E+00 0.10257508E+04</pdfrwt>
<pdfrwt beam="2">  1       -4 0.32415372E-01 0.10257508E+04</pdfrwt>
<totfact> 0.59457650E+00</totfact>
</mgrwt>
</event>
<event>
 6    2  0.2220137E-005  0.1017013E+04  0.7818608E-02  0.9792684E-01
         21   -1    0    0  501  502  0.00000000000E+00  0.00000000000E+00  0.10666928719E+04  0.10666928719E+04  0.00000000000E+00 0. -1.
         -4   -1    0    0    0  501 -0.00000000000E+00 -0.00000000000E+00 -0.39266133439E+03  0.39266133439E+03  0.00000000000E+00 0. -1.
   -9000010    2    1    2    0  502  0.14345760919E+03 -0.10493096528E+03  0.75242883181E+03  0.12650947406E+04  0.10013615544E+04 0.  0.
         13    1    3    3    0    0 -0.39734678797E+03 -0.83628729497E+02  0.10148455310E+03  0.41854194531E+03  0.10566000000E+00 0. -1.
         -4    1    3    3    0  502  0.54080439716E+03 -0.21302235783E+02  0.65094427871E+03  0.84655279529E+03  0.00000000000E+00 0. -1.
        -13    1    1    2    0    0 -0.14345760919E+03  0.10493096528E+03 -0.78397294265E+02  0.19425946572E+03  0.10566000000E+00 0.  1.
<mgrwt>
<rscale>  1 0.65756644E+03</rscale>
<asrwt>0</asrwt>
<pdfrwt beam="1">  1       21 0.16410659E+00 0.10170131E+04</pdfrwt>
<pdfrwt beam="2">  1       -4 0.60409437E-01 0.10170131E+04</pdfrwt>
<totfact> 0.21549468E+01</totfact>
</mgrwt>
</event>
<event>
 6    2  0.2220137E-005  0.1002989E+04  0.7818608E-02  0.9857949E-01
         -4   -1    0    0    0  501 -0.00000000000E+00  0.00000000000E+00  0.38401654775E+04  0.38401654775E+04  0.00000000000E+00 0. -1.
         21   -1    0    0  501  502  0.00000000000E+00 -0.00000000000E+00 -0.90542248785E+02  0.90542248785E+02  0.00000000000E+00 0. -1.
   -9000010    2    1    2    0  502 -0.42044825857E+02  0.14369131390E+03  0.29141059114E+04  0.30818825618E+04  0.99175193528E+03 0.  0.
         13    1    3    3    0    0  0.37235182367E+02 -0.40888178139E+03  0.16443831962E+04  0.16948648551E+04  0.10566000000E+00 0. -1.
         -4    1    3    3    0  502 -0.79280008223E+02  0.55257309529E+03  0.12697227152E+04  0.13870177067E+04  0.00000000000E+00 0. -1.
        -13    1    1    2    0    0  0.42044825857E+02 -0.14369131390E+03  0.83551731731E+03  0.84882516442E+03  0.10566000000E+00 0.  1.
<mgrwt>
<rscale>  1 0.62343243E+03</rscale>
<asrwt>0</asrwt>
<pdfrwt beam="2">  1       21 0.13929580E-01 0.10029890E+04</pdfrwt>
<pdfrwt beam="1">  1       -4 0.59079456E+00 0.10029890E+04</pdfrwt>
<totfact> 0.41098236E-01</totfact>
</mgrwt>
</event>
<event>
 6    2  0.2220137E-005  0.9870505E+03  0.7818608E-02  0.1008571E+00
         21   -1    0    0  501  502  0.00000000000E+00  0.00000000000E+00  0.12033488478E+04  0.12033488478E+04  0.00000000000E+00 0. -1.
         -4   -1    0    0    0  501 -0.00000000000E+00 -0.00000000000E+00 -0.42872292357E+03  0.42872292357E+03  0.00000000000E+00 0. -1.
   -9000010    2    1    2    0  502  0.75442837154E+02 -0.11426792915E+02  0.99338539980E+03  0.14003868289E+04  0.98409680657E+03 0.  0.
         13    1    3    3    0    0  0.28580562648E+03  0.32967687326E+03  0.14106829198E+03  0.45855421823E+03  0.10566000000E+00 0. -1.
         -4    1    3    3    0  502 -0.21036278932E+03 -0.34110366617E+03  0.85231710782E+03  0.94183261066E+03  0.00000000000E+00 0. -1.
        -13    1    1    2    0    0 -0.75442837154E+02  0.11426792915E+02 -0.21875947555E+03  0.23168494250E+03  0.10566000000E+00 0.  1.
<mgrwt>
<rscale>  1 0.52046373E+03</rscale>
<asrwt>0</asrwt>
<pdfrwt beam="1">  1       21 0.18513059E+00 0.98705051E+03</pdfrwt>
<pdfrwt beam="2">  1       -4 0.65957373E-01 0.98705051E+03</pdfrwt>
<totfact> 0.12473089E+01</totfact>
</mgrwt>
</event>
<event>
 6    2  0.2220137E-005  0.9407822E+03  0.7818608E-02  0.9737887E-01
         -4   -1    0    0    0  501 -0.00000000000E+00  0.00000000000E+00  0.43399084744E+03  0.43399084744E+03  0.00000000000E+00 0. -1.
         21   -1    0    0  501  502  0.00000000000E+00 -0.00000000000E+00 -0.87479192042E+03  0.87479192042E+03  0.00000000000E+00 0. -1.
   -9000010    2    1    2    0  502  0.14405389411E+03  0.22737020086E+03 -0.44241156310E+03  0.10396149067E+04  0.90145572847E+03 0.  0.
         13    1    3    3    0    0 -0.33374820052E+03  0.21773017869E+03 -0.39214144074E+03  0.55907889673E+03  0.10566000000E+00 0. -1.
         -4    1    3    3    0  502  0.47780209463E+03  0.96400221669E+01 -0.50270122361E+02  0.48053600996E+03  0.00000000000E+00 0. -1.
        -13    1    1    2    0    0 -0.14405389411E+03 -0.22737020086E+03  0.16104901190E+01  0.26916786117E+03  0.10566000000E+00 0.  1.
<mgrwt>
<rscale>  1 0.68805108E+03</rscale>
<asrwt>0</asrwt>
<pdfrwt beam="2">  1       21 0.13458337E+00 0.94078221E+03</pdfrwt>
<pdfrwt beam="1">  1       -4 0.66767823E-01 0.94078221E+03</pdfrwt>
<totfact> 0.30264174E+01</totfact>
</mgrwt>
</event>
<event>
 6    2  0.2220137E-005  0.1350405E+04  0.7818608E-02  0.9141678E-01
         -4   -1    0    0    0  501 -0.00000000000E+00  0.00000000000E+00  0.23330098375E+04  0.23330098375E+04  0.00000000000E+00 0. -1.
         21   -1    0    0  501  502  0.00000000000E+00 -0.00000000000E+00 -0.55058881944E+03  0.55058881944E+03  0.00000000000E+00 0.  1.
   -9000010    2    1    2    0  502  0.75110619781E+03 -0.74353486544E+02  0.59291585657E+03  0.14748362562E+04  0.11197784639E+04 0.  0.
         13    1    3    3    0    0  0.28972635305E+02  0.13519497381E+03 -0.28630124906E+03  0.31793947682E+03  0.10566000000E+00 0. -1.
         -4    1    3    3    0  502  0.72213356250E+03 -0.20954846036E+03  0.87921710563E+03  0.11568967794E+04  0.00000000000E+00 0. -1.
        -13    1    1    2    0    0 -0.75110619781E+03  0.74353486544E+02  0.11895051615E+04  0.14087624007E+04  0.10566000000E+00 0.  1.
<mgrwt>
<rscale>  1 0.11676231E+04</rscale>
<asrwt>0</asrwt>
<pdfrwt beam="2">  1       21 0.84705974E-01 0.13504047E+04</pdfrwt>
<pdfrwt beam="1">  1       -4 0.35892458E+00 0.13504047E+04</pdfrwt>
<totfact> 0.56658149E-01</totfact>
</mgrwt>
</event>
<event>
 6    2  0.2220137E-005  0.1057400E+04  0.7818608E-02  0.9544366E-01
         21   -1    0    0  501  502  0.00000000000E+00  0.00000000000E+00  0.39179236494E+03  0.39179236494E+03  0.00000000000E+00 0. -1.
         -4   -1    0    0    0  501 -0.00000000000E+00 -0.00000000000E+00 -0.14152629301E+04  0.14152629301E+04  0.00000000000E+00 0. -1.
   -9000010    2    1    2    0  502 -0.36516894511E+03  0.20261404694E+02 -0.50301508652E+03  0.11709477574E+04  0.99213688085E+03 0.  0.
         13    1    3    3    0    0  0.51000649193E+02  0.22603435935E+03  0.21487828933E+03  0.31601469620E+03  0.10566000000E+00 0. -1.
         -4    1    3    3    0  502 -0.41616959430E+03 -0.20577295466E+03 -0.71789337584E+03  0.85493306122E+03  0.00000000000E+00 0. -1.
        -13    1    1    2    0    0  0.36516894511E+03 -0.20261404694E+02 -0.52045547863E+03  0.63610753760E+03  0.10566000000E+00 0.  1.
<mgrwt>
<rscale>  1 0.81090461E+03</rscale>
<asrwt>0</asrwt>
<pdfrwt beam="1">  1       21 0.60275749E-01 0.10573999E+04</pdfrwt>
<pdfrwt beam="2">  1       -4 0.21773276E+00 0.10573999E+04</pdfrwt>
<totfact> 0.99942587E+00</totfact>
</mgrwt>
</event>
<event>
 6    2  0.2220137E-005  0.1017300E+04  0.7818608E-02  0.1006104E+00
         21   -1    0    0  501  502  0.00000000000E+00  0.00000000000E+00  0.14020891779E+04  0.14020891779E+04  0.00000000000E+00 0. -1.
         -4   -1    0    0    0  501 -0.00000000000E+00 -0.00000000000E+00 -0.21850946577E+03  0.21850946577E+03  0.00000000000E+00 0. -1.
   -9000010    2    1    2    0  502 -0.74981698890E+02  0.63094551227E+01  0.11573882708E+04  0.15409238851E+04  0.10145130585E+04 0.  0.
         13    1    3    3    0    0 -0.17456507781E+03  0.43456753631E+03  0.24594848242E+03  0.52897313464E+03  0.10566000000E+00 0. -1.
         -4    1    3    3    0  502  0.99583378923E+02 -0.42825808119E+03  0.91143978839E+03  0.10119507504E+04  0.00000000000E+00 0. -1.
        -13    1    1    2    0    0  0.74981698890E+02 -0.63094551227E+01  0.26191441317E+02  0.79674758579E+02  0.10566000000E+00 0.  1.
<mgrwt>
<rscale>  1 0.53052843E+03</rscale>
<asrwt>0</asrwt>
<pdfrwt beam="1">  1       21 0.21570602E+00 0.10172998E+04</pdfrwt>
<pdfrwt beam="2">  1       -4 0.33616842E-01 0.10172998E+04</pdfrwt>
<totfact> 0.31401973E+01</totfact>
</mgrwt>
</event>
<event>
 6    2  0.2220137E-005  0.1037812E+04  0.7818608E-02  0.9657607E-01
         21   -1    0    0  501  502  0.00000000000E+00  0.00000000000E+00  0.79933835744E+03  0.79933835744E+03  0.00000000000E+00 0.  1.
         -4   -1    0    0    0  501 -0.00000000000E+00 -0.00000000000E+00 -0.53362630830E+03  0.53362630830E+03  0.00000000000E+00 0. -1.
   -9000010    2    1    2    0  502 -0.11884311154E+03  0.23404134615E+03  0.26234322167E+03  0.10704567668E+04  0.10040690647E+04 0.  0.
         13    1    3    3    0    0  0.37626709925E+03 -0.15144657523E+03  0.15310072459E+03  0.43353527903E+03  0.10566000000E+00 0. -1.
         -4    1    3    3    0  502 -0.49511021079E+03  0.38548792139E+03  0.10924249709E+03  0.63692148773E+03  0.00000000000E+00 0. -1.
        -13    1    1    2    0    0  0.11884311154E+03 -0.23404134615E+03  0.33688274685E+01  0.26250789899E+03  0.10566000000E+00 0.  1.
<mgrwt>
<rscale>  1 0.73597941E+03</rscale>
<asrwt>0</asrwt>
<pdfrwt beam="1">  1       21 0.12297513E+00 0.10378120E+04</pdfrwt>
<pdfrwt beam="2">  1       -4 0.82096355E-01 0.10378120E+04</pdfrwt>
<totfact> 0.23836723E+01</totfact>
</mgrwt>
</event>
<event>
 6    2  0.2220137E-005  0.1376091E+04  0.7818608E-02  0.9058363E-01
         21   -1    0    0  501  502  0.00000000000E+00  0.00000000000E+00  0.63890221577E+03  0.63890221577E+03  0.00000000000E+00 0.  1.
         -4   -1    0    0    0  501 -0.00000000000E+00 -0.00000000000E+00 -0.21859908248E+04  0.21859908248E+04  0.00000000000E+00 0. -1.
   -9000010    2    1    2    0  502 -0.11950310447E+03  0.97322261899E+03 -0.79581507587E+03  0.15896379289E+04  0.96549668666E+03 0.  0.
         13    1    3    3    0    0  0.29463803928E+03  0.84506902781E+03 -0.72199278311E+03  0.11498812226E+04  0.10566000000E+00 0. -1.
         -4    1    3    3    0  502 -0.41414114375E+03  0.12815359118E+03 -0.73822292763E+02  0.43975670636E+03  0.00000000000E+00 0. -1.
        -13    1    1    2    0    0  0.11950310447E+03 -0.97322261899E+03 -0.75127353314E+03  0.12352551116E+04  0.10566000000E+00 0.  1.
<mgrwt>
<rscale>  1 0.12643022E+04</rscale>
<asrwt>0</asrwt>
<pdfrwt beam="1">  1       21 0.98292649E-01 0.13760912E+04</pdfrwt>
<pdfrwt beam="2">  1       -4 0.33630628E+00 0.13760912E+04</pdfrwt>
<totfact> 0.55116463E-01</totfact>
</mgrwt>
</event>
<event>
 6    2  0.2220137E-005  0.1022941E+04  0.7818608E-02  0.9747182E-01
         21   -1    0    0  501  502  0.00000000000E+00  0.00000000000E+00  0.21585663027E+03  0.21585663027E+03  0.00000000000E+00 0. -1.
         -4   -1    0    0    0  501 -0.00000000000E+00 -0.00000000000E+00 -0.21692765013E+04  0.21692765013E+04  0.00000000000E+00 0. -1.
   -9000010    2    1    2    0  502 -0.19848186399E+03  0.42633302986E+02 -0.10764611095E+04  0.14849835166E+04  0.10025940730E+04 0.  0.
         13    1    3    3    0    0 -0.33767931061E+03 -0.91250937963E+02  0.39881201276E+02  0.35205762579E+03  0.10566000000E+00 0. -1.
         -4    1    3    3    0  502  0.13919744662E+03  0.13388424095E+03 -0.11163423108E+04  0.11329258908E+04  0.00000000000E+00 0. -1.
        -13    1    1    2    0    0  0.19848186399E+03 -0.42633302986E+02 -0.87695876150E+03  0.90014961501E+03  0.10566000000E+00 0.  1.
<mgrwt>
<rscale>  1 0.68275777E+03</rscale>
<asrwt>0</asrwt>
<pdfrwt beam="1">  1       21 0.33208713E-01 0.10229406E+04</pdfrwt>
<pdfrwt beam="2">  1       -4 0.33373484E+00 0.10229406E+04</pdfrwt>
<totfact> 0.67680326E+00</totfact>
</mgrwt>
</event>
<event>
 6    2  0.2220137E-005  0.9920886E+03  0.7818608E-02  0.1016049E+00
         -4   -1    0    0    0  501 -0.00000000000E+00  0.00000000000E+00  0.28085414702E+03  0.28085414702E+03  0.00000000000E+00 0. -1.
         21   -1    0    0  501  502  0.00000000000E+00 -0.00000000000E+00 -0.13435660863E+04  0.13435660863E+04  0.00000000000E+00 0. -1.
   -9000010    2    1    2    0  502 -0.53649702712E+02 -0.26219065163E+02 -0.11499152031E+04  0.15187313012E+04  0.99028988737E+03 0.  0.
         13    1    3    3    0    0  0.29912475468E+03  0.33352078030E+03 -0.75762640791E+03  0.88017584316E+03  0.10566000000E+00 0. -1.
         -4    1    3    3    0  502 -0.35277445739E+03 -0.35973984546E+03 -0.39228879519E+03  0.63855545807E+03  0.00000000000E+00 0. -1.
        -13    1    1    2    0    0  0.53649702712E+02  0.26219065163E+02  0.87203263829E+02  0.10568893209E+03  0.10566000000E+00 0.  1.
<mgrwt>
<rscale>  1 0.49139595E+03</rscale>
<asrwt>0</asrwt>
<pdfrwt beam="2">  1       21 0.20670248E+00 0.99208860E+03</pdfrwt>
<pdfrwt beam="1">  1       -4 0.43208330E-01 0.99208860E+03</pdfrwt>
<totfact> 0.21782474E+01</totfact>
</mgrwt>
</event>
<event>
 6    2  0.2220137E-005  0.1025815E+04  0.7818608E-02  0.9892318E-01
         21   -1    0    0  501  502  0.00000000000E+00  0.00000000000E+00  0.68936553229E+03  0.68936553229E+03  0.00000000000E+00 0. -1.
         -4   -1    0    0    0  501 -0.00000000000E+00 -0.00000000000E+00 -0.67628451812E+03  0.67628451812E+03  0.00000000000E+00 0. -1.
   -9000010    2    1    2    0  502  0.12517184714E+03 -0.35975706085E+01  0.28636999835E+03  0.10650376523E+04  0.10181436496E+04 0.  0.
         13    1    3    3    0    0  0.35707034593E+03 -0.37679705228E+03  0.34274978887E+03  0.62205520614E+03  0.10566000000E+00 0. -1.
         -4    1    3    3    0  502 -0.23189849879E+03  0.37319948168E+03 -0.56379790520E+02  0.44298244620E+03  0.00000000000E+00 0. -1.
        -13    1    1    2    0    0 -0.12517184714E+03  0.35975706085E+01 -0.27328898418E+03  0.30061239807E+03  0.10566000000E+00 0.  1.
<mgrwt>
<rscale>  1 0.60635012E+03</rscale>
<asrwt>0</asrwt>
<pdfrwt beam="1">  1       21 0.10605624E+00 0.10258155E+04</pdfrwt>
<pdfrwt beam="2">  1       -4 0.10404377E+00 0.10258155E+04</pdfrwt>
<totfact> 0.19885877E+01</totfact>
</mgrwt>
</event>
<event>
 6    2  0.2220137E-005  0.1108849E+04  0.7818608E-02  0.9377924E-01
         21   -1    0    0  501  502  0.00000000000E+00  0.00000000000E+00  0.80074651470E+03  0.80074651470E+03  0.00000000000E+00 0. -1.
         -4   -1    0    0    0  501 -0.00000000000E+00 -0.00000000000E+00 -0.88060354468E+03  0.88060354468E+03  0.00000000000E+00 0. -1.
   -9000010    2    1    2    0  502  0.42092886928E+03  0.38521156814E+03 -0.49114488731E+02  0.11099358661E+04  0.95077669762E+03 0.  0.
         13    1    3    3    0    0  0.39238199044E+03 -0.18718587564E+03 -0.25137091021E+03  0.50218475099E+03  0.10566000000E+00 0. -1.
         -4    1    3    3    0  502  0.28546878835E+02  0.57239744379E+03  0.20225642148E+03  0.60775111516E+03  0.00000000000E+00 0. -1.
        -13    1    1    2    0    0 -0.42092886928E+03 -0.38521156814E+03 -0.30742541242E+02  0.57141419323E+03  0.10566000000E+00 0.  1.
<mgrwt>
<rscale>  1 0.93914923E+03</rscale>
<asrwt>0</asrwt>
<pdfrwt beam="1">  1       21 0.12319177E+00 0.11088487E+04</pdfrwt>
<pdfrwt beam="2">  1       -4 0.13547747E+00 0.11088487E+04</pdfrwt>
<totfact> 0.69162005E+00</totfact>
</mgrwt>
</event>
<event>
 6    2  0.2220137E-005  0.1013659E+04  0.7818608E-02  0.9682788E-01
         -4   -1    0    0    0  501 -0.00000000000E+00  0.00000000000E+00  0.46134545580E+03  0.46134545580E+03  0.00000000000E+00 0. -1.
         21   -1    0    0  501  502  0.00000000000E+00 -0.00000000000E+00 -0.98329892099E+03  0.98329892099E+03  0.00000000000E+00 0. -1.
   -9000010    2    1    2    0  502 -0.42295301384E+02 -0.25527071716E+03 -0.59550822483E+03  0.11756418761E+04  0.98007741704E+03 0.  0.
         13    1    3    3    0    0  0.14446397558E+03  0.31140963126E+03 -0.15668093201E+02  0.34364414587E+03  0.10566000000E+00 0. -1.
         -4    1    3    3    0  502 -0.18675927697E+03 -0.56668034842E+03 -0.57984013163E+03  0.83199773021E+03  0.00000000000E+00 0. -1.
        -13    1    1    2    0    0  0.42295301384E+02  0.25527071716E+03  0.73554759647E+02  0.26900250071E+03  0.10566000000E+00 0.  1.
<mgrwt>
<rscale>  1 0.72050876E+03</rscale>
<asrwt>0</asrwt>
<pdfrwt beam="2">  1       21 0.15127676E+00 0.10136586E+04</pdfrwt>
<pdfrwt beam="1">  1       -4 0.70976225E-01 0.10136586E+04</pdfrwt>
<totfact> 0.19019454E+01</totfact>
</mgrwt>
</event>
<event>
 6    2  0.2220137E-005  0.1024022E+04  0.7818608E-02  0.9773854E-01
         -4   -1    0    0    0  501 -0.00000000000E+00  0.00000000000E+00  0.70409403078E+03  0.70409403078E+03  0.00000000000E+00 0. -1.
         21   -1    0    0  501  502  0.00000000000E+00 -0.00000000000E+00 -0.52162848896E+03  0.52162848896E+03  0.00000000000E+00 0. -1.
   -9000010    2    1    2    0  502  0.59537822462E+02 -0.17543277331E+03  0.12425743798E+03  0.10315329094E+04  0.10071240351E+04 0.  0.
         13    1    3    3    0    0 -0.59928117500E+02  0.54664490711E+02 -0.42048690856E+03  0.42823922899E+03  0.10566000000E+00 0. -1.
         -4    1    3    3    0  502  0.11946593996E+03 -0.23009726402E+03  0.54474434654E+03  0.60329368039E+03  0.00000000000E+00 0. -1.
        -13    1    1    2    0    0 -0.59537822462E+02  0.17543277331E+03  0.58208103846E+02  0.19418961036E+03  0.10566000000E+00 0.  1.
<mgrwt>
<rscale>  1 0.66784779E+03</rscale>
<asrwt>0</asrwt>
<pdfrwt beam="2">  1       21 0.80250536E-01 0.10240216E+04</pdfrwt>
<pdfrwt beam="1">  1       -4 0.10832216E+00 0.10240216E+04</pdfrwt>
<totfact> 0.35511225E+01</totfact>
</mgrwt>
</event>
<event>
 6    2  0.2220137E-005  0.1027989E+04  0.7818608E-02  0.9896216E-01
         21   -1    0    0  501  502  0.00000000000E+00  0.00000000000E+00  0.42819298410E+03  0.42819298410E+03  0.00000000000E+00 0. -1.
         -4   -1    0    0    0  501 -0.00000000000E+00 -0.00000000000E+00 -0.82640944285E+03  0.82640944285E+03  0.00000000000E+00 0. -1.
   -9000010    2    1    2    0  502  0.11095521287E+03 -0.52802854930E+02 -0.24243259396E+03  0.10561891601E+04  0.10206188214E+04 0.  0.
         13    1    3    3    0    0  0.31645314724E+03 -0.23556630305E+03  0.26762477723E+03  0.47671491489E+03  0.10566000000E+00 0. -1.
         -4    1    3    3    0  502 -0.20549793437E+03  0.18276344812E+03 -0.51005737120E+03  0.57947424525E+03  0.00000000000E+00 0. -1.
        -13    1    1    2    0    0 -0.11095521287E+03  0.52802854930E+02 -0.15578386478E+03  0.19841326680E+03  0.10566000000E+00 0.  1.
<mgrwt>
<rscale>  1 0.60445048E+03</rscale>
<asrwt>0</asrwt>
<pdfrwt beam="1">  1       21 0.65875845E-01 0.10279893E+04</pdfrwt>
<pdfrwt beam="2">  1       -4 0.12713991E+00 0.10279893E+04</pdfrwt>
<totfact> 0.37511555E+01</totfact>
</mgrwt>
</event>
<event>
 6    2  0.2220137E-005  0.1204022E+04  0.7818608E-02  0.9277816E-01
         -4   -1    0    0    0  501 -0.00000000000E+00  0.00000000000E+00  0.38638672039E+04  0.38638672039E+04  0.00000000000E+00 0. -1.
         21   -1    0    0  501  502  0.00000000000E+00 -0.00000000000E+00 -0.22470526774E+03  0.22470526774E+03  0.00000000000E+00 0.  1.
   -9000010    2    1    2    0  502  0.21015953997E+03 -0.60568455276E+03  0.26372902949E+04  0.28991324326E+04  0.10191407913E+04 0.  0.
         13    1    3    3    0    0  0.50059865448E+03 -0.68999920809E+03  0.15318892801E+04  0.17531065848E+04  0.10566000000E+00 0. -1.
         -4    1    3    3    0  502 -0.29043911451E+03  0.84314655335E+02  0.11054010147E+04  0.11460258477E+04  0.00000000000E+00 0. -1.
        -13    1    1    2    0    0 -0.21015953997E+03  0.60568455276E+03  0.10018716413E+04  0.11894400390E+04  0.10566000000E+00 0.  1.
<mgrwt>
<rscale>  1 0.10285107E+04</rscale>
<asrwt>0</asrwt>
<pdfrwt beam="2">  1       21 0.34570044E-01 0.12040219E+04</pdfrwt>
<pdfrwt beam="1">  1       -4 0.59444106E+00 0.12040219E+04</pdfrwt>
<totfact> 0.62040019E-02</totfact>
</mgrwt>
</event>
<event>
 6    2  0.2220137E-005  0.1071635E+04  0.7818608E-02  0.9540407E-01
         21   -1    0    0  501  502  0.00000000000E+00  0.00000000000E+00  0.83646317374E+03  0.83646317374E+03  0.00000000000E+00 0. -1.
         -4   -1    0    0    0  501 -0.00000000000E+00 -0.00000000000E+00 -0.81152244491E+03  0.81152244491E+03  0.00000000000E+00 0. -1.
   -9000010    2    1    2    0  502 -0.35528182571E+03 -0.25630050462E+02 -0.35334690964E+03  0.11283861347E+04  0.10107023079E+04 0.  0.
         13    1    3    3    0    0 -0.21183529818E+03  0.48512667248E+03 -0.93141732739E+02  0.53749183756E+03  0.10566000000E+00 0. -1.
         -4    1    3    3    0  502 -0.14344652752E+03 -0.51075672294E+03 -0.26020517690E+03  0.59089429712E+03  0.00000000000E+00 0. -1.
        -13    1    1    2    0    0  0.35528182571E+03  0.25630050462E+02  0.37828763846E+03  0.51959948397E+03  0.10566000000E+00 0.  1.
<mgrwt>
<rscale>  1 0.81369231E+03</rscale>
<asrwt>0</asrwt>
<pdfrwt beam="1">  1       21 0.12868664E+00 0.10716348E+04</pdfrwt>
<pdfrwt beam="2">  1       -4 0.12484961E+00 0.10716348E+04</pdfrwt>
<totfact> 0.76364600E+00</totfact>
</mgrwt>
</event>
<event>
 6    2  0.2220137E-005  0.1014267E+04  0.7818608E-02  0.9730772E-01
         -4   -1    0    0    0  501 -0.00000000000E+00  0.00000000000E+00  0.42794148755E+03  0.42794148755E+03  0.00000000000E+00 0. -1.
         21   -1    0    0  501  502  0.00000000000E+00 -0.00000000000E+00 -0.10786738880E+04  0.10786738880E+04  0.00000000000E+00 0. -1.
   -9000010    2    1    2    0  502  0.18530501349E+03 -0.11848158098E+03 -0.75381268215E+03  0.12637133609E+04  0.99013234760E+03 0.  0.
         13    1    3    3    0    0  0.58157704231E+03 -0.11658921018E+03 -0.58461770364E+03  0.83282817594E+03  0.10566000000E+00 0. -1.
         -4    1    3    3    0  502 -0.39627202881E+03 -0.18923707940E+01 -0.16919497851E+03  0.43088518499E+03  0.00000000000E+00 0. -1.
        -13    1    1    2    0    0 -0.18530501349E+03  0.11848158098E+03  0.10308028172E+03  0.24290201461E+03  0.10566000000E+00 0.  1.
<mgrwt>
<rscale>  1 0.69213824E+03</rscale>
<asrwt>0</asrwt>
<pdfrwt beam="2">  1       21 0.16594983E+00 0.10142672E+04</pdfrwt>
<pdfrwt beam="1">  1       -4 0.65837153E-01 0.10142672E+04</pdfrwt>
<totfact> 0.17274448E+01</totfact>
</mgrwt>
</event>
<event>
 6    2  0.2220137E-005  0.1005152E+04  0.7818608E-02  0.9806720E-01
         21   -1    0    0  501  502  0.00000000000E+00  0.00000000000E+00  0.44487598247E+03  0.44487598247E+03  0.00000000000E+00 0. -1.
         -4   -1    0    0    0  501 -0.00000000000E+00 -0.00000000000E+00 -0.79376043690E+03  0.79376043690E+03  0.00000000000E+00 0. -1.
   -9000010    2    1    2    0  502 -0.30418614968E+02 -0.17315840310E+03 -0.24556014630E+03  0.10347122950E+04  0.98965682092E+03 0.  0.
         13    1    3    3    0    0 -0.31621891503E+03  0.25392006794E+03  0.97162692368E+02  0.41702566237E+03  0.10566000000E+00 0. -1.
         -4    1    3    3    0  502  0.28580030006E+03 -0.42707847104E+03 -0.34272283866E+03  0.61768663259E+03  0.00000000000E+00 0. -1.
        -13    1    1    2    0    0  0.30418614968E+02  0.17315840310E+03 -0.10332430814E+03  0.20392412441E+03  0.10566000000E+00 0.  1.
<mgrwt>
<rscale>  1 0.65003170E+03</rscale>
<asrwt>0</asrwt>
<pdfrwt beam="1">  1       21 0.68442459E-01 0.10051516E+04</pdfrwt>
<pdfrwt beam="2">  1       -4 0.12211699E+00 0.10051516E+04</pdfrwt>
<totfact> 0.38176250E+01</totfact>
</mgrwt>
</event>
<event>
 6    2  0.2220137E-005  0.1030337E+04  0.7818608E-02  0.9473605E-01
         21   -1    0    0  501  502  0.00000000000E+00  0.00000000000E+00  0.11927234079E+04  0.11927234079E+04  0.00000000000E+00 0. -1.
         -4   -1    0    0    0  501 -0.00000000000E+00 -0.00000000000E+00 -0.53359535325E+03  0.53359535325E+03  0.00000000000E+00 0. -1.
   -9000010    2    1    2    0  502 -0.25916276799E+02  0.50546509884E+03  0.65360087161E+03  0.12201595170E+04  0.89745669979E+03 0.  0.
         13    1    3    3    0    0  0.24613760458E+03 -0.14411472991E+03  0.35457369379E+03  0.45505526177E+03  0.10566000000E+00 0. -1.
         -4    1    3    3    0  502 -0.27205388138E+03  0.64957982875E+03  0.29902717782E+03  0.76510425523E+03  0.00000000000E+00 0. -1.
        -13    1    1    2    0    0  0.25916276799E+02 -0.50546509884E+03  0.55271830573E+01  0.50615924417E+03  0.10566000000E+00 0.  1.
<mgrwt>
<rscale>  1 0.86258106E+03</rscale>
<asrwt>0</asrwt>
<pdfrwt beam="1">  1       21 0.18349591E+00 0.10303374E+04</pdfrwt>
<pdfrwt beam="2">  1       -4 0.82091593E-01 0.10303374E+04</pdfrwt>
<totfact> 0.77681288E+00</totfact>
</mgrwt>
</event>
<event>
 6    2  0.2220137E-005  0.8867068E+03  0.7818608E-02  0.9906709E-01
         21   -1    0    0  501  502  0.00000000000E+00  0.00000000000E+00  0.31952933136E+03  0.31952933136E+03  0.00000000000E+00 0. -1.
         -4   -1    0    0    0  501 -0.00000000000E+00 -0.00000000000E+00 -0.94151622064E+03  0.94151622064E+03  0.00000000000E+00 0. -1.
   -9000010    2    1    2    0  502 -0.91683798407E+01  0.18488973227E+03 -0.40212143584E+03  0.97362756185E+03  0.86716821190E+03 0.  0.
         13    1    3    3    0    0  0.14731643672E+03  0.49690490180E+03 -0.33792429393E+03  0.61871597164E+03  0.10566000000E+00 0. -1.
         -4    1    3    3    0  502 -0.15648481656E+03 -0.31201516954E+03 -0.64197141912E+02  0.35491159021E+03  0.00000000000E+00 0. -1.
        -13    1    1    2    0    0  0.91683798407E+01 -0.18488973227E+03 -0.21986545344E+03  0.28741799016E+03  0.10566000000E+00 0.  1.
<mgrwt>
<rscale>  1 0.59937218E+03</rscale>
<asrwt>0</asrwt>
<pdfrwt beam="1">  1       21 0.49158358E-01 0.88670682E+03</pdfrwt>
<pdfrwt beam="2">  1       -4 0.14484865E+00 0.88670682E+03</pdfrwt>
<totfact> 0.51617073E+01</totfact>
</mgrwt>
</event>
<event>
 6    2  0.2220137E-005  0.9773968E+03  0.7818608E-02  0.9966029E-01
         -4   -1    0    0    0  501 -0.00000000000E+00  0.00000000000E+00  0.56678776425E+03  0.56678776425E+03  0.00000000000E+00 0. -1.
         21   -1    0    0  501  502  0.00000000000E+00 -0.00000000000E+00 -0.61958069631E+03  0.61958069631E+03  0.00000000000E+00 0. -1.
   -9000010    2    1    2    0  502 -0.87168565730E+02 -0.74042386735E+02 -0.20231885155E+03  0.99811691169E+03  0.97068214047E+03 0.  0.
         13    1    3    3    0    0 -0.43053059414E+03 -0.25849710269E+03 -0.31449691514E+03  0.59252482259E+03  0.10566000000E+00 0. -1.
         -4    1    3    3    0  502  0.34336202841E+03  0.18445471595E+03  0.11217806359E+03  0.40559208910E+03  0.00000000000E+00 0. -1.
        -13    1    1    2    0    0  0.87168565730E+02  0.74042386735E+02  0.14952591949E+03  0.18825154886E+03  0.10566000000E+00 0.  1.
<mgrwt>
<rscale>  1 0.57165212E+03</rscale>
<asrwt>0</asrwt>
<pdfrwt beam="2">  1       21 0.95320107E-01 0.97739677E+03</pdfrwt>
<pdfrwt beam="1">  1       -4 0.87198117E-01 0.97739677E+03</pdfrwt>
<totfact> 0.39674870E+01</totfact>
</mgrwt>
</event>
<event>
 6    2  0.2220137E-005  0.1072987E+04  0.7818608E-02  0.9515318E-01
         -4   -1    0    0    0  501 -0.00000000000E+00  0.00000000000E+00  0.41899195732E+03  0.41899195732E+03  0.00000000000E+00 0. -1.
         21   -1    0    0  501  502  0.00000000000E+00 -0.00000000000E+00 -0.15121537417E+04  0.15121537417E+04  0.00000000000E+00 0. -1.
   -9000010    2    1    2    0  502 -0.35559850753E+03  0.15325480952E+03 -0.11096525486E+04  0.15435772642E+04  0.10006820957E+04 0.  0.
         13    1    3    3    0    0 -0.22280797834E+03  0.34828744314E+03 -0.12162958232E+04  0.12846490100E+04  0.10566000000E+00 0. -1.
         -4    1    3    3    0  502 -0.13279052920E+03 -0.19503263362E+03  0.10664327455E+03  0.25892825421E+03  0.00000000000E+00 0. -1.
        -13    1    1    2    0    0  0.35559850753E+03 -0.15325480952E+03  0.16490764230E+02  0.38756843482E+03  0.10566000000E+00 0.  1.
<mgrwt>
<rscale>  1 0.83163871E+03</rscale>
<asrwt>0</asrwt>
<pdfrwt beam="2">  1       21 0.23263904E+00 0.10729874E+04</pdfrwt>
<pdfrwt beam="1">  1       -4 0.64460300E-01 0.10729874E+04</pdfrwt>
<totfact> 0.61811850E+00</totfact>
</mgrwt>
</event>
<event>
 6    2  0.2220137E-005  0.1010309E+04  0.7818608E-02  0.9752853E-01
         -4   -1    0    0    0  501 -0.00000000000E+00  0.00000000000E+00  0.71113963623E+03  0.71113963623E+03  0.00000000000E+00 0. -1.
         21   -1    0    0  501  502  0.00000000000E+00 -0.00000000000E+00 -0.52602285658E+03  0.52602285658E+03  0.00000000000E+00 0. -1.
   -9000010    2    1    2    0  502  0.15703108428E+03  0.13454902722E+03  0.10639791686E+03  0.10158959732E+04  0.98891956679E+03 0.  0.
         13    1    3    3    0    0  0.32145242961E+03  0.45443178717E+03  0.27246835393E+03  0.61974101748E+03  0.10566000000E+00 0. -1.
         -4    1    3    3    0  502 -0.16442134532E+03 -0.31988275994E+03 -0.16607043708E+03  0.39615495577E+03  0.00000000000E+00 0. -1.
        -13    1    1    2    0    0 -0.15703108428E+03 -0.13454902722E+03  0.78718862798E+02  0.22126651957E+03  0.10566000000E+00 0.  1.
<mgrwt>
<rscale>  1 0.67955273E+03</rscale>
<asrwt>0</asrwt>
<pdfrwt beam="2">  1       21 0.80926593E-01 0.10103089E+04</pdfrwt>
<pdfrwt beam="1">  1       -4 0.10940610E+00 0.10103089E+04</pdfrwt>
<totfact> 0.34014504E+01</totfact>
</mgrwt>
</event>
<event>
 6    2  0.2220137E-005  0.1002552E+04  0.7818608E-02  0.1000251E+00
         21   -1    0    0  501  502  0.00000000000E+00  0.00000000000E+00  0.79481942429E+03  0.79481942429E+03  0.00000000000E+00 0. -1.
         -4   -1    0    0    0  501 -0.00000000000E+00 -0.00000000000E+00 -0.37875219096E+03  0.37875219096E+03  0.00000000000E+00 0. -1.
   -9000010    2    1    2    0  502  0.21469373198E+02  0.91957931612E+02  0.38856230035E+03  0.10752165052E+04  0.99809452290E+03 0.  0.
         13    1    3    3    0    0  0.49021373619E+02  0.12067600340E+03 -0.33040298880E+03  0.35515058643E+03  0.10566000000E+00 0. -1.
         -4    1    3    3    0  502 -0.27552000421E+02 -0.28718071792E+02  0.71896528915E+03  0.72006591877E+03  0.00000000000E+00 0. -1.
        -13    1    1    2    0    0 -0.21469373198E+02 -0.91957931612E+02  0.27504932982E+02  0.98355110057E+02  0.10566000000E+00 0.  1.
<mgrwt>
<rscale>  1 0.55540359E+03</rscale>
<asrwt>0</asrwt>
<pdfrwt beam="1">  1       21 0.12227991E+00 0.10025517E+04</pdfrwt>
<pdfrwt beam="2">  1       -4 0.58269568E-01 0.10025517E+04</pdfrwt>
<totfact> 0.52247634E+01</totfact>
</mgrwt>
</event>
<event>
 6    2  0.2220137E-005  0.9663480E+03  0.7818608E-02  0.9796885E-01
         -4   -1    0    0    0  501 -0.00000000000E+00  0.00000000000E+00  0.98785992805E+03  0.98785992805E+03  0.00000000000E+00 0. -1.
         21   -1    0    0  501  502  0.00000000000E+00 -0.00000000000E+00 -0.36872284435E+03  0.36872284435E+03  0.00000000000E+00 0. -1.
   -9000010    2    1    2    0  502  0.20412344341E+03 -0.94688890862E+01  0.37095680308E+03  0.10351025975E+04  0.94449584306E+03 0.  0.
         13    1    3    3    0    0  0.76075622580E+02 -0.12823132022E+03 -0.30363657598E+03  0.33826905456E+03  0.10566000000E+00 0. -1.
         -4    1    3    3    0  502  0.12804782083E+03  0.11876243113E+03  0.67459337907E+03  0.69683354293E+03  0.00000000000E+00 0. -1.
        -13    1    1    2    0    0 -0.20412344341E+03  0.94688890862E+01  0.24818028062E+03  0.32148017491E+03  0.10566000000E+00 0.  1.
<mgrwt>
<rscale>  1 0.65529988E+03</rscale>
<asrwt>0</asrwt>
<pdfrwt beam="2">  1       21 0.56726592E-01 0.96634799E+03</pdfrwt>
<pdfrwt beam="1">  1       -4 0.15197845E+00 0.96634799E+03</pdfrwt>
<totfact> 0.32999904E+01</totfact>
</mgrwt>
</event>
<event>
 6    2  0.2220137E-005  0.1006256E+04  0.7818608E-02  0.1012904E+00
         21   -1    0    0  501  502  0.00000000000E+00  0.00000000000E+00  0.74960778178E+03  0.74960778178E+03  0.00000000000E+00 0. -1.
         -4   -1    0    0    0  501 -0.00000000000E+00 -0.00000000000E+00 -0.38456965736E+03  0.38456965736E+03  0.00000000000E+00 0. -1.
   -9000010    2    1    2    0  502 -0.65166429190E+01  0.62671723984E+02  0.36711740332E+03  0.10711334371E+04  0.10042815545E+04 0.  0.
         13    1    3    3    0    0 -0.39187750278E+03  0.34501293863E+03  0.13126165798E+03  0.53836004590E+03  0.10566000000E+00 0. -1.
         -4    1    3    3    0  502  0.38536085987E+03 -0.28234121464E+03  0.23585574535E+03  0.53277339124E+03  0.00000000000E+00 0. -1.
        -13    1    1    2    0    0  0.65166429190E+01 -0.62671723984E+02 -0.20792789075E+01  0.63044001990E+02  0.10566000000E+00 0.  1.
<mgrwt>
<rscale>  1 0.50336534E+03</rscale>
<asrwt>0</asrwt>
<pdfrwt beam="1">  1       21 0.11532427E+00 0.10062563E+04</pdfrwt>
<pdfrwt beam="2">  1       -4 0.59164563E-01 0.10062563E+04</pdfrwt>
<totfact> 0.58797479E+01</totfact>
</mgrwt>
</event>
<event>
 6    2  0.2220137E-005  0.8946281E+03  0.7818608E-02  0.9887085E-01
         -4   -1    0    0    0  501 -0.00000000000E+00  0.00000000000E+00  0.49028007868E+03  0.49028007868E+03  0.00000000000E+00 0. -1.
         21   -1    0    0  501  502  0.00000000000E+00 -0.00000000000E+00 -0.73890948278E+03  0.73890948278E+03  0.00000000000E+00 0. -1.
   -9000010    2    1    2    0  502  0.18575327113E+03 -0.48562628244E+02 -0.40456040712E+03  0.98184952131E+03  0.87378301247E+03 0.  0.
         13    1    3    3    0    0 -0.22380448775E+03 -0.41573183659E+02 -0.51033026882E+03  0.55879671865E+03  0.10566000000E+00 0. -1.
         -4    1    3    3    0  502  0.40955775888E+03 -0.69894445845E+01  0.10576986169E+03  0.42305280266E+03  0.00000000000E+00 0. -1.
        -13    1    1    2    0    0 -0.18575327113E+03  0.48562628244E+02  0.15593100302E+03  0.24734004015E+03  0.10566000000E+00 0.  1.
<mgrwt>
<rscale>  1 0.60891288E+03</rscale>
<asrwt>0</asrwt>
<pdfrwt beam="2">  1       21 0.11367838E+00 0.89462806E+03</pdfrwt>
<pdfrwt beam="1">  1       -4 0.75427704E-01 0.89462806E+03</pdfrwt>
<totfact> 0.35951625E+01</totfact>
</mgrwt>
</event>
<event>
 6    2  0.2220137E-005  0.1009294E+04  0.7818608E-02  0.9663181E-01
         -4   -1    0    0    0  501 -0.00000000000E+00  0.00000000000E+00  0.25204210014E+04  0.25204210014E+04  0.00000000000E+00 0. -1.
         21   -1    0    0  501  502  0.00000000000E+00 -0.00000000000E+00 -0.18853019890E+03  0.18853019890E+03  0.00000000000E+00 0. -1.
   -9000010    2    1    2    0  502 -0.18107132432E+03  0.21362721710E+03  0.13357017711E+04  0.16741487989E+04  0.96966569875E+03 0.  0.
         13    1    3    3    0    0  0.37212607269E+03  0.16726743337E+03  0.32733945691E+03  0.52307488895E+03  0.10566000000E+00 0. -1.
         -4    1    3    3    0  502 -0.55319739701E+03  0.46359783730E+02  0.10083623142E+04  0.11510739100E+04  0.00000000000E+00 0. -1.
        -13    1    1    2    0    0  0.18107132432E+03 -0.21362721710E+03  0.99618903141E+03  0.10348024013E+04  0.10566000000E+00 0.  1.
<mgrwt>
<rscale>  1 0.73251933E+03</rscale>
<asrwt>0</asrwt>
<pdfrwt beam="2">  1       21 0.29004648E-01 0.10092943E+04</pdfrwt>
<pdfrwt beam="1">  1       -4 0.38775705E+00 0.10092943E+04</pdfrwt>
<totfact> 0.39423323E+00</totfact>
</mgrwt>
</event>
<event>
 6    2  0.2220137E-005  0.1026045E+04  0.7818608E-02  0.9542276E-01
         -4   -1    0    0    0  501 -0.00000000000E+00  0.00000000000E+00  0.38372948806E+03  0.38372948806E+03  0.00000000000E+00 0. -1.
         21   -1    0    0  501  502  0.00000000000E+00 -0.00000000000E+00 -0.13390529027E+04  0.13390529027E+04  0.00000000000E+00 0.  1.
   -9000010    2    1    2    0  502 -0.18178671753E+03  0.35990054410E+03 -0.74524107715E+03  0.12681293230E+04  0.94350034687E+03 0.  0.
         13    1    3    3    0    0 -0.19968178471E+03 -0.22202247354E+02 -0.84846239069E+03  0.87192556707E+03  0.10566000000E+00 0. -1.
         -4    1    3    3    0  502  0.17895067174E+02  0.38210279145E+03  0.10322131354E+03  0.39620375596E+03  0.00000000000E+00 0. -1.
        -13    1    1    2    0    0  0.18178671753E+03 -0.35990054410E+03 -0.21008233751E+03  0.45465306775E+03  0.10566000000E+00 0.  1.
<mgrwt>
<rscale>  1 0.81237467E+03</rscale>
<asrwt>0</asrwt>
<pdfrwt beam="2">  1       21 0.20600814E+00 0.10260447E+04</pdfrwt>
<pdfrwt beam="1">  1       -4 0.59035305E-01 0.10260447E+04</pdfrwt>
<totfact> 0.11327214E+01</totfact>
</mgrwt>
</event>
<event>
 6    2  0.2220137E-005  0.1015403E+04  0.7818608E-02  0.9765272E-01
         -4   -1    0    0    0  501 -0.00000000000E+00  0.00000000000E+00  0.93305196268E+03  0.93305196268E+03  0.00000000000E+00 0. -1.
         21   -1    0    0  501  502  0.00000000000E+00 -0.00000000000E+00 -0.41679526158E+03  0.41679526158E+03  0.00000000000E+00 0. -1.
   -9000010    2    1    2    0  502 -0.13936386921E+03  0.13708382564E+03  0.30100831713E+03  0.10590790326E+04  0.99640761093E+03 0.  0.
         13    1    3    3    0    0 -0.70013597596E+02  0.51472587447E+03  0.40795164584E+03  0.66050676470E+03  0.10566000000E+00 0. -1.
         -4    1    3    3    0  502 -0.69350271611E+02 -0.37764204884E+03 -0.10694332871E+03  0.39857226795E+03  0.00000000000E+00 0. -1.
        -13    1    1    2    0    0  0.13936386921E+03 -0.13708382564E+03  0.21524838396E+03  0.29076819162E+03  0.10566000000E+00 0.  1.
<mgrwt>
<rscale>  1 0.67260005E+03</rscale>
<asrwt>0</asrwt>
<pdfrwt beam="2">  1       21 0.64122348E-01 0.10154026E+04</pdfrwt>
<pdfrwt beam="1">  1       -4 0.14354646E+00 0.10154026E+04</pdfrwt>
<totfact> 0.29113117E+01</totfact>
</mgrwt>
</event>
<event>
 6    2  0.2220137E-005  0.1010366E+04  0.7818608E-02  0.9802847E-01
         -4   -1    0    0    0  501 -0.00000000000E+00  0.00000000000E+00  0.23694260364E+03  0.23694260364E+03  0.00000000000E+00 0. -1.
         21   -1    0    0  501  502  0.00000000000E+00 -0.00000000000E+00 -0.17825255301E+04  0.17825255301E+04  0.00000000000E+00 0. -1.
   -9000010    2    1    2    0  502 -0.17083144838E+03 -0.39396215969E+02 -0.15427164235E+04  0.18441293942E+04  0.99503960400E+03 0.  0.
         13    1    3    3    0    0 -0.58367010616E+03  0.54637972960E+02 -0.93018518221E+03  0.10995001525E+04  0.10566000000E+00 0. -1.
         -4    1    3    3    0  502  0.41283865778E+03 -0.94034188930E+02 -0.61253124133E+03  0.74462924174E+03  0.00000000000E+00 0. -1.
        -13    1    1    2    0    0  0.17083144838E+03  0.39396215969E+02 -0.28665029546E+01  0.17533873957E+03  0.10566000000E+00 0.  1.
<mgrwt>
<rscale>  1 0.65209965E+03</rscale>
<asrwt>0</asrwt>
<pdfrwt beam="2">  1       21 0.27423468E+00 0.10103659E+04</pdfrwt>
<pdfrwt beam="1">  1       -4 0.36452710E-01 0.10103659E+04</pdfrwt>
<totfact> 0.11265951E+01</totfact>
</mgrwt>
</event>
<event>
 6    2  0.2220137E-005  0.1044359E+04  0.7818608E-02  0.9563910E-01
         21   -1    0    0  501  502  0.00000000000E+00  0.00000000000E+00  0.96088277834E+03  0.96088277834E+03  0.00000000000E+00 0. -1.
         -4   -1    0    0    0  501 -0.00000000000E+00 -0.00000000000E+00 -0.78177264908E+03  0.78177264908E+03  0.00000000000E+00 0. -1.
   -9000010    2    1    2    0  502 -0.32473815161E+03  0.14290565571E+03  0.59023346860E+03  0.11996091082E+04  0.98224720483E+03 0.  0.
         13    1    3    3    0    0  0.34896623893E+03  0.12339633403E+03  0.22136694908E+03  0.43128578515E+03  0.10566000000E+00 0. -1.
         -4    1    3    3    0  502 -0.67370439054E+03  0.19509321682E+02  0.36886651952E+03  0.76832332301E+03  0.00000000000E+00 0. -1.
        -13    1    1    2    0    0  0.32473815161E+03 -0.14290565571E+03 -0.41112333934E+03  0.54304631926E+03  0.10566000000E+00 0.  1.
<mgrwt>
<rscale>  1 0.79731646E+03</rscale>
<asrwt>0</asrwt>
<pdfrwt beam="1">  1       21 0.14782812E+00 0.10443594E+04</pdfrwt>
<pdfrwt beam="2">  1       -4 0.12027272E+00 0.10443594E+04</pdfrwt>
<totfact> 0.57818455E+00</totfact>
</mgrwt>
</event>
<event>
 6    2  0.2220137E-005  0.1053648E+04  0.7818608E-02  0.9587357E-01
         21   -1    0    0  501  502  0.00000000000E+00  0.00000000000E+00  0.53746639542E+03  0.53746639542E+03  0.00000000000E+00 0. -1.
         -4   -1    0    0    0  501 -0.00000000000E+00 -0.00000000000E+00 -0.89903372054E+03  0.89903372054E+03  0.00000000000E+00 0. -1.
   -9000010    2    1    2    0  502  0.35947162100E+02 -0.31666289928E+03 -0.17758144789E+03  0.10685077187E+04  0.10042937738E+04 0.  0.
         13    1    3    3    0    0  0.42205153249E+03 -0.38899505484E+03  0.10644667855E+03  0.58375984386E+03  0.10566000000E+00 0. -1.
         -4    1    3    3    0  502 -0.38610437039E+03  0.72332155563E+02 -0.28402812644E+03  0.48474787485E+03  0.00000000000E+00 0. -1.
        -13    1    1    2    0    0 -0.35947162100E+02  0.31666289928E+03 -0.18398587724E+03  0.36799239724E+03  0.10566000000E+00 0.  1.
<mgrwt>
<rscale>  1 0.78138664E+03</rscale>
<asrwt>0</asrwt>
<pdfrwt beam="1">  1       21 0.82687138E-01 0.10536477E+04</pdfrwt>
<pdfrwt beam="2">  1       -4 0.13831288E+00 0.10536477E+04</pdfrwt>
<totfact> 0.17777793E+01</totfact>
</mgrwt>
</event>
<event>
 6    2  0.2220137E-005  0.1202905E+04  0.7818608E-02  0.9273546E-01
         21   -1    0    0  501  502  0.00000000000E+00  0.00000000000E+00  0.58185742289E+03  0.58185742289E+03  0.00000000000E+00 0. -1.
         -4   -1    0    0    0  501 -0.00000000000E+00 -0.00000000000E+00 -0.14801302106E+04  0.14801302106E+04  0.00000000000E+00 0. -1.
   -9000010    2    1    2    0  502  0.37228359919E+03 -0.53655417407E+03 -0.57304377820E+03  0.13324265464E+04  0.10101959562E+04 0.  0.
         13    1    3    3    0    0 -0.22694091302E+03 -0.15804907946E+03 -0.55884245854E+03  0.62352754081E+03  0.10566000000E+00 0. -1.
         -4    1    3    3    0  502  0.59922451221E+03 -0.37850509461E+03 -0.14201319661E+02  0.70889900561E+03  0.00000000000E+00 0. -1.
        -13    1    1    2    0    0 -0.37228359919E+03  0.53655417407E+03 -0.32522900948E+03  0.72956108704E+03  0.10566000000E+00 0.  1.
<mgrwt>
<rscale>  1 0.10325513E+04</rscale>
<asrwt>0</asrwt>
<pdfrwt beam="1">  1       21 0.89516528E-01 0.12029054E+04</pdfrwt>
<pdfrwt beam="2">  1       -4 0.22771234E+00 0.12029054E+04</pdfrwt>
<totfact> 0.33900511E+00</totfact>
</mgrwt>
</event>
<event>
 6    2  0.2220137E-005  0.1018822E+04  0.7818608E-02  0.9771897E-01
         21   -1    0    0  501  502  0.00000000000E+00  0.00000000000E+00  0.64169182297E+03  0.64169182297E+03  0.00000000000E+00 0. -1.
         -4   -1    0    0    0  501 -0.00000000000E+00 -0.00000000000E+00 -0.62020184518E+03  0.62020184518E+03  0.00000000000E+00 0. -1.
   -9000010    2    1    2    0  502  0.17083685712E+03  0.81614901810E+02  0.15455721471E+03  0.10304781876E+04  0.10010749914E+04 0.  0.
         13    1    3    3    0    0 -0.33036348357E+03 -0.38837867103E+02 -0.21513121948E+03  0.39614374153E+03  0.10566000000E+00 0. -1.
         -4    1    3    3    0  502  0.50120034069E+03  0.12045276891E+03  0.36968843419E+03  0.63433444603E+03  0.00000000000E+00 0. -1.
        -13    1    1    2    0    0 -0.17083685712E+03 -0.81614901810E+02 -0.13306723692E+03  0.23141548058E+03  0.10566000000E+00 0.  1.
<mgrwt>
<rscale>  1 0.66892748E+03</rscale>
<asrwt>0</asrwt>
<pdfrwt beam="1">  1       21 0.98721818E-01 0.10188216E+04</pdfrwt>
<pdfrwt beam="2">  1       -4 0.95415669E-01 0.10188216E+04</pdfrwt>
<totfact> 0.29323540E+01</totfact>
</mgrwt>
</event>
<event>
 6    2  0.2220137E-005  0.1069521E+04  0.7818608E-02  0.9541273E-01
         -4   -1    0    0    0  501 -0.00000000000E+00  0.00000000000E+00  0.10918991502E+04  0.10918991502E+04  0.00000000000E+00 0. -1.
         21   -1    0    0  501  502  0.00000000000E+00 -0.00000000000E+00 -0.85846096726E+03  0.85846096726E+03  0.00000000000E+00 0. -1.
   -9000010    2    1    2    0  502 -0.21306184502E+03  0.28675683373E+03 -0.46471022445E+03  0.11661177816E+04  0.10080923848E+04 0.  0.
         13    1    3    3    0    0  0.37732852878E+03  0.15233976754E+03 -0.37621582288E+03  0.55418641264E+03  0.10566000000E+00 0. -1.
         -4    1    3    3    0  502 -0.59039037380E+03  0.13441706619E+03 -0.88494401568E+02  0.61193136892E+03  0.00000000000E+00 0. -1.
        -13    1    1    2    0    0  0.21306184502E+03 -0.28675683373E+03  0.69814840737E+03  0.78424233588E+03  0.10566000000E+00 0.  1.
<mgrwt>
<rscale>  1 0.81308112E+03</rscale>
<asrwt>0</asrwt>
<pdfrwt beam="2">  1       21 0.13207092E+00 0.10695210E+04</pdfrwt>
<pdfrwt beam="1">  1       -4 0.16798449E+00 0.10695210E+04</pdfrwt>
<totfact> 0.32320435E+00</totfact>
</mgrwt>
</event>
<event>
 6    2  0.2220137E-005  0.1039417E+04  0.7818608E-02  0.9649266E-01
         -4   -1    0    0    0  501 -0.00000000000E+00  0.00000000000E+00  0.31547816032E+03  0.31547816032E+03  0.00000000000E+00 0. -1.
         21   -1    0    0  501  502  0.00000000000E+00 -0.00000000000E+00 -0.15420046296E+04  0.15420046296E+04  0.00000000000E+00 0. -1.
   -9000010    2    1    2    0  502  0.20990492974E+03  0.16784097316E+03 -0.11997660359E+04  0.15873961302E+04  0.10040703470E+04 0.  0.
         13    1    3    3    0    0 -0.37727559500E+03  0.21671627312E+03 -0.64560726320E+03  0.77853167378E+03  0.10566000000E+00 0. -1.
         -4    1    3    3    0  502  0.58718052474E+03 -0.48875299958E+02 -0.55415877268E+03  0.80886445645E+03  0.00000000000E+00 0. -1.
        -13    1    1    2    0    0 -0.20990492974E+03 -0.16784097316E+03 -0.26760433443E+02  0.27008665973E+03  0.10566000000E+00 0.  1.
<mgrwt>
<rscale>  1 0.74119522E+03</rscale>
<asrwt>0</asrwt>
<pdfrwt beam="2">  1       21 0.23723147E+00 0.10394171E+04</pdfrwt>
<pdfrwt beam="1">  1       -4 0.48535103E-01 0.10394171E+04</pdfrwt>
<totfact> 0.10685123E+01</totfact>
</mgrwt>
</event>
<event>
 6    2  0.2220137E-005  0.1105106E+04  0.7818608E-02  0.9573920E-01
         -4   -1    0    0    0  501 -0.00000000000E+00  0.00000000000E+00  0.11438747093E+04  0.11438747093E+04  0.00000000000E+00 0. -1.
         21   -1    0    0  501  502  0.00000000000E+00 -0.00000000000E+00 -0.11633887905E+04  0.11633887905E+04  0.00000000000E+00 0. -1.
   -9000010    2    1    2    0  502  0.25232659546E+03 -0.14147644458E+03 -0.87156835685E+03  0.14074408535E+04  0.10665711698E+04 0.  0.
         13    1    3    3    0    0  0.56627666594E+03 -0.23067517946E+03 -0.17153466534E+03  0.63506255864E+03  0.10566000000E+00 0. -1.
         -4    1    3    3    0  502 -0.31395007048E+03  0.89198734879E+02 -0.70003369151E+03  0.77237829482E+03  0.00000000000E+00 0. -1.
        -13    1    1    2    0    0 -0.25232659546E+03  0.14147644458E+03  0.85205427559E+03  0.89982264634E+03  0.10566000000E+00 0.  1.
<mgrwt>
<rscale>  1 0.79046625E+03</rscale>
<asrwt>0</asrwt>
<pdfrwt beam="2">  1       21 0.17898289E+00 0.11051056E+04</pdfrwt>
<pdfrwt beam="1">  1       -4 0.17598072E+00 0.11051056E+04</pdfrwt>
<totfact> 0.11931912E+00</totfact>
</mgrwt>
</event>
<event>
 6    2  0.2220137E-005  0.1003453E+04  0.7818608E-02  0.9784366E-01
         -4   -1    0    0    0  501 -0.00000000000E+00  0.00000000000E+00  0.49483434465E+03  0.49483434465E+03  0.00000000000E+00 0. -1.
         21   -1    0    0  501  502  0.00000000000E+00 -0.00000000000E+00 -0.12370243924E+04  0.12370243924E+04  0.00000000000E+00 0. -1.
   -9000010    2    1    2    0  502  0.18396224879E+03  0.48221752471E+02 -0.99657642375E+03  0.14142427962E+04  0.98526680239E+03 0.  0.
         13    1    3    3    0    0  0.11722171627E+03 -0.36652586720E+01  0.19074522406E+03  0.22391542277E+03  0.10566000000E+00 0. -1.
         -4    1    3    3    0  502  0.66740532513E+02  0.51887011143E+02 -0.11873216478E+04  0.11903273734E+04  0.00000000000E+00 0. -1.
        -13    1    1    2    0    0 -0.18396224879E+03 -0.48221752471E+02  0.25438637602E+03  0.31761594081E+03  0.10566000000E+00 0.  1.
<mgrwt>
<rscale>  1 0.66208318E+03</rscale>
<asrwt>0</asrwt>
<pdfrwt beam="2">  1       21 0.19031144E+00 0.10034531E+04</pdfrwt>
<pdfrwt beam="1">  1       -4 0.76128361E-01 0.10034531E+04</pdfrwt>
<totfact> 0.82892842E+00</totfact>
</mgrwt>
</event>
<event>
 6    2  0.2220137E-005  0.9953162E+03  0.7818608E-02  0.9873912E-01
         -4   -1    0    0    0  501 -0.00000000000E+00  0.00000000000E+00  0.24077500010E+04  0.24077500010E+04  0.00000000000E+00 0. -1.
         21   -1    0    0  501  502  0.00000000000E+00 -0.00000000000E+00 -0.15476684348E+03  0.15476684348E+03  0.00000000000E+00 0. -1.
   -9000010    2    1    2    0  502 -0.92563371892E+02  0.11223932285E+03  0.21868637527E+04  0.24027124945E+04  0.98462612954E+03 0.  0.
         13    1    3    3    0    0  0.42886758190E+03  0.14009784787E+03  0.12675382887E+04  0.13454397550E+04  0.10566000000E+00 0. -1.
         -4    1    3    3    0  502 -0.52143095379E+03 -0.27858525020E+02  0.91932546396E+03  0.10572727395E+04  0.00000000000E+00 0. -1.
        -13    1    1    2    0    0  0.92563371892E+02 -0.11223932285E+03  0.66119404812E+02  0.15980434996E+03  0.10566000000E+00 0.  1.
<mgrwt>
<rscale>  1 0.61542454E+03</rscale>
<asrwt>0</asrwt>
<pdfrwt beam="2">  1       21 0.23810285E-01 0.99531616E+03</pdfrwt>
<pdfrwt beam="1">  1       -4 0.37042305E+00 0.99531616E+03</pdfrwt>
<totfact> 0.76465748E+00</totfact>
</mgrwt>
</event>
<event>
 6    2  0.2220137E-005  0.1080462E+04  0.7818608E-02  0.9524099E-01
         21   -1    0    0  501  502  0.00000000000E+00  0.00000000000E+00  0.20350528118E+04  0.20350528118E+04  0.00000000000E+00 0. -1.
         -4   -1    0    0    0  501 -0.00000000000E+00 -0.00000000000E+00 -0.49739188769E+03  0.49739188769E+03  0.00000000000E+00 0. -1.
   -9000010    2    1    2    0  502  0.29118697394E+03  0.22470696991E+03  0.17868889353E+04  0.20881501026E+04  0.10159309563E+04 0.  0.
         13    1    3    3    0    0  0.42015017501E+03  0.55077456891E+03  0.90936802469E+03  0.11431662219E+04  0.10566000000E+00 0. -1.
         -4    1    3    3    0  502 -0.12896320108E+03 -0.32606759900E+03  0.87752091056E+03  0.94498388072E+03  0.00000000000E+00 0. -1.
        -13    1    1    2    0    0 -0.29118697394E+03 -0.22470696991E+03 -0.24922801116E+03  0.44429459689E+03  0.10566000000E+00 0.  1.
<mgrwt>
<rscale>  1 0.82530153E+03</rscale>
<asrwt>0</asrwt>
<pdfrwt beam="1">  1       21 0.31308504E+00 0.10804623E+04</pdfrwt>
<pdfrwt beam="2">  1       -4 0.76521830E-01 0.10804623E+04</pdfrwt>
<totfact> 0.13068633E+00</totfact>
</mgrwt>
</event>
<event>
 6    2  0.2220137E-005  0.1022663E+04  0.7818608E-02  0.1013190E+00
         -4   -1    0    0    0  501 -0.00000000000E+00  0.00000000000E+00  0.28342342534E+03  0.28342342534E+03  0.00000000000E+00 0. -1.
         21   -1    0    0  501  502  0.00000000000E+00 -0.00000000000E+00 -0.10329951080E+04  0.10329951080E+04  0.00000000000E+00 0. -1.
   -9000010    2    1    2    0  502  0.58174225158E+02 -0.12491448416E+02 -0.70965042337E+03  0.12447666327E+04  0.10209309329E+04 0.  0.
         13    1    3    3    0    0  0.60376295581E+02 -0.21410132205E+03 -0.92405436199E+03  0.95045312785E+03  0.10566000000E+00 0. -1.
         -4    1    3    3    0  502 -0.22020704229E+01  0.20160987363E+03  0.21440393861E+03  0.29431350488E+03  0.00000000000E+00 0. -1.
        -13    1    1    2    0    0 -0.58174225158E+02  0.12491448416E+02 -0.39921259316E+02  0.71651900642E+02  0.10566000000E+00 0.  1.
<mgrwt>
<rscale>  1 0.50226085E+03</rscale>
<asrwt>0</asrwt>
<pdfrwt beam="2">  1       21 0.15892232E+00 0.10226633E+04</pdfrwt>
<pdfrwt beam="1">  1       -4 0.43603604E-01 0.10226633E+04</pdfrwt>
<totfact> 0.47167651E+01</totfact>
</mgrwt>
</event>
<event>
 6    2  0.2220137E-005  0.1023310E+04  0.7818608E-02  0.9887459E-01
         21   -1    0    0  501  502  0.00000000000E+00  0.00000000000E+00  0.17468828924E+03  0.17468828924E+03  0.00000000000E+00 0. -1.
         -4   -1    0    0    0  501 -0.00000000000E+00 -0.00000000000E+00 -0.20149155327E+04  0.20149155327E+04  0.00000000000E+00 0. -1.
   -9000010    2    1    2    0  502 -0.12779611755E+03  0.93426638513E+01 -0.14202023723E+04  0.17504682659E+04  0.10152562428E+04 0.  0.
         13    1    3    3    0    0  0.45765679367E+02 -0.33789771016E+03 -0.73344940122E+02  0.34878195387E+03  0.10566000000E+00 0. -1.
         -4    1    3    3    0  502 -0.17356179691E+03  0.34724037401E+03 -0.13468574322E+04  0.14016863120E+04  0.00000000000E+00 0. -1.
        -13    1    1    2    0    0  0.12779611755E+03 -0.93426638513E+01 -0.42002487116E+03  0.43913555605E+03  0.10566000000E+00 0.  1.
<mgrwt>
<rscale>  1 0.60872955E+03</rscale>
<asrwt>0</asrwt>
<pdfrwt beam="1">  1       21 0.26875122E-01 0.10233105E+04</pdfrwt>
<pdfrwt beam="2">  1       -4 0.30998700E+00 0.10233105E+04</pdfrwt>
<totfact> 0.14634402E+01</totfact>
</mgrwt>
</event>
<event>
 6    2  0.2220137E-005  0.1032767E+04  0.7818608E-02  0.9657745E-01
         -4   -1    0    0    0  501 -0.00000000000E+00  0.00000000000E+00  0.15927215033E+04  0.15927215033E+04  0.00000000000E+00 0. -1.
         21   -1    0    0  501  502  0.00000000000E+00 -0.00000000000E+00 -0.90527708049E+03  0.90527708049E+03  0.00000000000E+00 0. -1.
   -9000010    2    1    2    0  502  0.23054846775E+03 -0.13313363569E+03 -0.59250213468E+03  0.11906576328E+04  0.99786254466E+03 0.  0.
         13    1    3    3    0    0  0.53517566901E+03  0.82538476565E+02 -0.66336711749E+02  0.54555125085E+03  0.10566000000E+00 0. -1.
         -4    1    3    3    0  502 -0.30462720126E+03 -0.21567211226E+03 -0.52616542293E+03  0.64510638196E+03  0.00000000000E+00 0. -1.
        -13    1    1    2    0    0 -0.23054846775E+03  0.13313363569E+03  0.12799465574E+04  0.13073409509E+04  0.10566000000E+00 0.  1.
<mgrwt>
<rscale>  1 0.73589344E+03</rscale>
<asrwt>0</asrwt>
<pdfrwt beam="2">  1       21 0.13927340E+00 0.10327666E+04</pdfrwt>
<pdfrwt beam="1">  1       -4 0.24503408E+00 0.10327666E+04</pdfrwt>
<totfact> 0.87265840E-01</totfact>
</mgrwt>
</event>
<event>
 6    2  0.2220137E-005  0.1036528E+04  0.7818608E-02  0.9668697E-01
         -4   -1    0    0    0  501 -0.00000000000E+00  0.00000000000E+00  0.17058084638E+04  0.17058084638E+04  0.00000000000E+00 0. -1.
         21   -1    0    0  501  502  0.00000000000E+00 -0.00000000000E+00 -0.25491178605E+03  0.25491178605E+03  0.00000000000E+00 0. -1.
   -9000010    2    1    2    0  502 -0.78892389358E+02 -0.24119599141E+03  0.13099445945E+04  0.16704324335E+04  0.10049826660E+04 0.  0.
         13    1    3    3    0    0 -0.52947909860E+03 -0.16485480007E+03  0.53370924584E+03  0.76965628121E+03  0.10566000000E+00 0. -1.
         -4    1    3    3    0  502  0.45058670924E+03 -0.76341191344E+02  0.77623534869E+03  0.90077615232E+03  0.00000000000E+00 0. -1.
        -13    1    1    2    0    0  0.78892389358E+02  0.24119599141E+03  0.14095208321E+03  0.29028781631E+03  0.10566000000E+00 0.  1.
<mgrwt>
<rscale>  1 0.72911507E+03</rscale>
<asrwt>0</asrwt>
<pdfrwt beam="2">  1       21 0.39217199E-01 0.10365277E+04</pdfrwt>
<pdfrwt beam="1">  1       -4 0.26243206E+00 0.10365277E+04</pdfrwt>
<totfact> 0.13297609E+01</totfact>
</mgrwt>
</event>
<event>
 6    2  0.2220137E-005  0.9888653E+03  0.7818608E-02  0.9767070E-01
         21   -1    0    0  501  502  0.00000000000E+00  0.00000000000E+00  0.68552420355E+03  0.68552420355E+03  0.00000000000E+00 0. -1.
         -4   -1    0    0    0  501 -0.00000000000E+00 -0.00000000000E+00 -0.55146586564E+03  0.55146586564E+03  0.00000000000E+00 0. -1.
   -9000010    2    1    2    0  502  0.91781673240E+02  0.18931962076E+03  0.21428892554E+03  0.10118173517E+04  0.96622399850E+03 0.  0.
         13    1    3    3    0    0 -0.10394150818E+03  0.40938419707E+03  0.46273058913E+03  0.62651326180E+03  0.10566000000E+00 0. -1.
         -4    1    3    3    0  502  0.19572318142E+03 -0.22006457632E+03 -0.24844166359E+03  0.38530408991E+03  0.00000000000E+00 0. -1.
        -13    1    1    2    0    0 -0.91781673240E+02 -0.18931962076E+03 -0.80230587625E+02  0.22517271749E+03  0.10566000000E+00 0.  1.
<mgrwt>
<rscale>  1 0.67160111E+03</rscale>
<asrwt>0</asrwt>
<pdfrwt beam="1">  1       21 0.10546526E+00 0.98886531E+03</pdfrwt>
<pdfrwt beam="2">  1       -4 0.84840902E-01 0.98886531E+03</pdfrwt>
<totfact> 0.32873234E+01</totfact>
</mgrwt>
</event>
<event>
 6    2  0.2220137E-005  0.9890703E+03  0.7818608E-02  0.1010442E+00
         -4   -1    0    0    0  501 -0.00000000000E+00  0.00000000000E+00  0.63913811280E+03  0.63913811280E+03  0.00000000000E+00 0. -1.
         21   -1    0    0  501  502  0.00000000000E+00 -0.00000000000E+00 -0.77108117646E+03  0.77108117646E+03  0.00000000000E+00 0. -1.
   -9000010    2    1    2    0  502  0.71560514846E+02  0.14708183000E+01 -0.44825785146E+03  0.10859075153E+04  0.98647704473E+03 0.  0.
         13    1    3    3    0    0 -0.16479723566E+03  0.26416913764E+03 -0.61941195198E+03  0.69326375903E+03  0.10566000000E+00 0. -1.
         -4    1    3    3    0  502  0.23635775050E+03 -0.26269831934E+03  0.17115410052E+03  0.39264375626E+03  0.00000000000E+00 0. -1.
        -13    1    1    2    0    0 -0.71560514846E+02 -0.14708183000E+01  0.31631478780E+03  0.32431177397E+03  0.10566000000E+00 0.  1.
<mgrwt>
<rscale>  1 0.51299340E+03</rscale>
<asrwt>0</asrwt>
<pdfrwt beam="2">  1       21 0.11862787E+00 0.98907029E+03</pdfrwt>
<pdfrwt beam="1">  1       -4 0.98328940E-01 0.98907029E+03</pdfrwt>
<totfact> 0.17211671E+01</totfact>
</mgrwt>
</event>
<event>
 6    2  0.2220137E-005  0.1032361E+04  0.7818608E-02  0.9732049E-01
         -4   -1    0    0    0  501 -0.00000000000E+00  0.00000000000E+00  0.16432295293E+04  0.16432295293E+04  0.00000000000E+00 0. -1.
         21   -1    0    0  501  502  0.00000000000E+00 -0.00000000000E+00 -0.30433788411E+03  0.30433788411E+03  0.00000000000E+00 0.  1.
   -9000010    2    1    2    0  502  0.11998391565E+03  0.16953397248E+03  0.63121493672E+03  0.12100416561E+04  0.10112519989E+04 0.  0.
         13    1    3    3    0    0  0.10331377164E+03 -0.35503239398E+03  0.57306220864E+03  0.68199856475E+03  0.10566000000E+00 0. -1.
         -4    1    3    3    0  502  0.16670144007E+02  0.52456636645E+03  0.58152728076E+02  0.52804309133E+03  0.00000000000E+00 0. -1.
        -13    1    1    2    0    0 -0.11998391565E+03 -0.16953397248E+03  0.70767670843E+03  0.73752575728E+03  0.10566000000E+00 0.  1.
<mgrwt>
<rscale>  1 0.69140256E+03</rscale>
<asrwt>0</asrwt>
<pdfrwt beam="2">  1       21 0.46821214E-01 0.10323607E+04</pdfrwt>
<pdfrwt beam="1">  1       -4 0.25280454E+00 0.10323607E+04</pdfrwt>
<totfact> 0.10485327E+01</totfact>
</mgrwt>
</event>
<event>
 6    2  0.2220137E-005  0.1187532E+04  0.7818608E-02  0.9302281E-01
         21   -1    0    0  501  502  0.00000000000E+00  0.00000000000E+00  0.10405368868E+04  0.10405368868E+04  0.00000000000E+00 0.  1.
         -4   -1    0    0    0  501 -0.00000000000E+00 -0.00000000000E+00 -0.81845502763E+03  0.81845502763E+03  0.00000000000E+00 0. -1.
   -9000010    2    1    2    0  502  0.50920637822E+03 -0.33755969569E+03 -0.53597841347E+02  0.11887404749E+04  0.10183287801E+04 0.  0.
         13    1    3    3    0    0 -0.24701706544E+03  0.12713752728E+03 -0.11128882094E+03  0.29927678542E+03  0.10566000000E+00 0. -1.
         -4    1    3    3    0  502  0.75622344366E+03 -0.46469722297E+03  0.57690979597E+02  0.88946368948E+03  0.00000000000E+00 0. -1.
        -13    1    1    2    0    0 -0.50920637822E+03  0.33755969569E+03  0.27567970056E+03  0.67025143956E+03  0.10566000000E+00 0.  1.
<mgrwt>
<rscale>  1 0.10057316E+04</rscale>
<asrwt>0</asrwt>
<pdfrwt beam="1">  1       21 0.16008260E+00 0.11875316E+04</pdfrwt>
<pdfrwt beam="2">  1       -4 0.12591616E+00 0.11875316E+04</pdfrwt>
<totfact> 0.40391085E+00</totfact>
</mgrwt>
</event>
<event>
 6    2  0.2220137E-005  0.1006805E+04  0.7818608E-02  0.9924155E-01
         -4   -1    0    0    0  501 -0.00000000000E+00  0.00000000000E+00  0.90152009127E+03  0.90152009127E+03  0.00000000000E+00 0. -1.
         21   -1    0    0  501  502  0.00000000000E+00 -0.00000000000E+00 -0.71413322648E+03  0.71413322648E+03  0.00000000000E+00 0. -1.
   -9000010    2    1    2    0  502 -0.11399886432E+03  0.36101841443E+02 -0.34939937009E+03  0.10657091777E+04  0.99967847213E+03 0.  0.
         13    1    3    3    0    0  0.35636132199E+03  0.22100022166E+03  0.48981310024E+02  0.42217729650E+03  0.10566000000E+00 0. -1.
         -4    1    3    3    0  502 -0.47036018631E+03 -0.18489838022E+03 -0.39838068011E+03  0.64353188123E+03  0.00000000000E+00 0. -1.
        -13    1    1    2    0    0  0.11399886432E+03 -0.36101841443E+02  0.53678623488E+03  0.54994414002E+03  0.10566000000E+00 0.  1.
<mgrwt>
<rscale>  1 0.59104774E+03</rscale>
<asrwt>0</asrwt>
<pdfrwt beam="2">  1       21 0.10986665E+00 0.10068049E+04</pdfrwt>
<pdfrwt beam="1">  1       -4 0.13869540E+00 0.10068049E+04</pdfrwt>
<totfact> 0.88353349E+00</totfact>
</mgrwt>
</event>
<event>
 6    2  0.2220137E-005  0.9793348E+03  0.7818608E-02  0.9888020E-01
         -4   -1    0    0    0  501 -0.00000000000E+00  0.00000000000E+00  0.69766642112E+03  0.69766642112E+03  0.00000000000E+00 0. -1.
         21   -1    0    0  501  502  0.00000000000E+00 -0.00000000000E+00 -0.47991169743E+03  0.47991169743E+03  0.00000000000E+00 0. -1.
   -9000010    2    1    2    0  502 -0.10144890812E+03  0.10488571775E+03  0.89695648560E+02  0.98343375825E+03  0.96840268109E+03 0.  0.
         13    1    3    3    0    0 -0.37798148368E+03  0.34912680854E+03  0.26065259621E+03  0.57680093405E+03  0.10566000000E+00 0. -1.
         -4    1    3    3    0  502  0.27653257555E+03 -0.24424109078E+03 -0.17095694765E+03  0.40663282420E+03  0.00000000000E+00 0. -1.
        -13    1    1    2    0    0  0.10144890812E+03 -0.10488571775E+03  0.12805907513E+03  0.19414436030E+03  0.10566000000E+00 0.  1.
<mgrwt>
<rscale>  1 0.60845401E+03</rscale>
<asrwt>0</asrwt>
<pdfrwt beam="2">  1       21 0.73832569E-01 0.97933480E+03</pdfrwt>
<pdfrwt beam="1">  1       -4 0.10733330E+00 0.97933480E+03</pdfrwt>
<totfact> 0.44286591E+01</totfact>
</mgrwt>
</event>
<event>
 6    2  0.2220137E-005  0.1178399E+04  0.7818608E-02  0.9304265E-01
         -4   -1    0    0    0  501 -0.00000000000E+00  0.00000000000E+00  0.81811777714E+03  0.81811777714E+03  0.00000000000E+00 0. -1.
         21   -1    0    0  501  502  0.00000000000E+00 -0.00000000000E+00 -0.99053530579E+03  0.99053530579E+03  0.00000000000E+00 0.  1.
   -9000010    2    1    2    0  502  0.58432440366E+03 -0.20946094503E+03 -0.80415139780E+02  0.11811394600E+04  0.10016560952E+04 0.  0.
         13    1    3    3    0    0  0.24369444507E+03 -0.22980384927E+03 -0.52374132485E+03  0.62169267184E+03  0.10566000000E+00 0. -1.
         -4    1    3    3    0  502  0.34062995859E+03  0.20342904238E+02  0.44332618507E+03  0.55944678819E+03  0.00000000000E+00 0. -1.
        -13    1    1    2    0    0 -0.58432440366E+03  0.20946094503E+03 -0.92002388867E+02  0.62751362290E+03  0.10566000000E+00 0.  1.
<mgrwt>
<rscale>  1 0.10039115E+04</rscale>
<asrwt>0</asrwt>
<pdfrwt beam="2">  1       21 0.15239005E+00 0.11783988E+04</pdfrwt>
<pdfrwt beam="1">  1       -4 0.12586427E+00 0.11783988E+04</pdfrwt>
<totfact> 0.46567356E+00</totfact>
</mgrwt>
</event>
<event>
 6    2  0.2220137E-005  0.1069373E+04  0.7818608E-02  0.9588100E-01
         21   -1    0    0  501  502  0.00000000000E+00  0.00000000000E+00  0.10767113994E+04  0.10767113994E+04  0.00000000000E+00 0. -1.
         -4   -1    0    0    0  501 -0.00000000000E+00 -0.00000000000E+00 -0.46744065741E+03  0.46744065741E+03  0.00000000000E+00 0. -1.
   -9000010    2    1    2    0  502  0.18399283866E+03  0.24208059901E+03  0.30048581334E+03  0.11107878631E+04  0.10252324476E+04 0.  0.
         13    1    3    3    0    0  0.49159571915E+03  0.92198593902E+02  0.50612972795E+03  0.71157167207E+03  0.10566000000E+00 0. -1.
         -4    1    3    3    0  502 -0.30760288049E+03  0.14988200510E+03 -0.20564391462E+03  0.39921619100E+03  0.00000000000E+00 0. -1.
        -13    1    1    2    0    0 -0.18399283866E+03 -0.24208059901E+03  0.30878492864E+03  0.43336419374E+03  0.10566000000E+00 0.  1.
<mgrwt>
<rscale>  1 0.78088843E+03</rscale>
<asrwt>0</asrwt>
<pdfrwt beam="1">  1       21 0.16564791E+00 0.10693727E+04</pdfrwt>
<pdfrwt beam="2">  1       -4 0.71913947E-01 0.10693727E+04</pdfrwt>
<totfact> 0.14169286E+01</totfact>
</mgrwt>
</event>
<event>
 6    2  0.2220137E-005  0.9311847E+03  0.7818608E-02  0.1003669E+00
         21   -1    0    0  501  502  0.00000000000E+00  0.00000000000E+00  0.16924873230E+03  0.16924873230E+03  0.00000000000E+00 0. -1.
         -4   -1    0    0    0  501 -0.00000000000E+00 -0.00000000000E+00 -0.15887162341E+04  0.15887162341E+04  0.00000000000E+00 0. -1.
   -9000010    2    1    2    0  502 -0.68610672307E+02 -0.80615917625E+02 -0.12794186025E+04  0.15824085485E+04  0.92514782777E+03 0.  0.
         13    1    3    3    0    0 -0.40186855613E+03 -0.17144462313E+03 -0.26546947619E+03  0.51123932669E+03  0.10566000000E+00 0. -1.
         -4    1    3    3    0  502  0.33325788382E+03  0.90828705503E+02 -0.10139491264E+04  0.10711692218E+04  0.00000000000E+00 0. -1.
        -13    1    1    2    0    0  0.68610672307E+02  0.80615917625E+02 -0.14004889925E+03  0.17555641792E+03  0.10566000000E+00 0.  1.
<mgrwt>
<rscale>  1 0.54070451E+03</rscale>
<asrwt>0</asrwt>
<pdfrwt beam="1">  1       21 0.26038266E-01 0.93118465E+03</pdfrwt>
<pdfrwt beam="2">  1       -4 0.24441788E+00 0.93118465E+03</pdfrwt>
<totfact> 0.39971413E+01</totfact>
</mgrwt>
</event>
<event>
 6    2  0.2220137E-005  0.1264628E+04  0.7818608E-02  0.9187469E-01
         21   -1    0    0  501  502  0.00000000000E+00  0.00000000000E+00  0.83208890905E+03  0.83208890905E+03  0.00000000000E+00 0.  1.
         -4   -1    0    0    0  501 -0.00000000000E+00 -0.00000000000E+00 -0.13737562066E+04  0.13737562066E+04  0.00000000000E+00 0. -1.
   -9000010    2    1    2    0  502  0.38263248080E+03  0.67222048546E+03 -0.54017128417E+01  0.12646390888E+04  0.10004973014E+04 0.  0.
         13    1    3    3    0    0  0.19131969804E+03  0.15591345628E+03  0.47410776178E+03  0.53450015309E+03  0.10566000000E+00 0. -1.
         -4    1    3    3    0  502  0.19131278276E+03  0.51630702918E+03 -0.47950947462E+03  0.73013893574E+03  0.00000000000E+00 0. -1.
        -13    1    1    2    0    0 -0.38263248080E+03 -0.67222048546E+03 -0.53626558472E+03  0.94120602683E+03  0.10566000000E+00 0.  1.
<mgrwt>
<rscale>  1 0.11183707E+04</rscale>
<asrwt>0</asrwt>
<pdfrwt beam="1">  1       21 0.12801368E+00 0.12646276E+04</pdfrwt>
<pdfrwt beam="2">  1       -4 0.21134711E+00 0.12646276E+04</pdfrwt>
<totfact> 0.17311112E+00</totfact>
</mgrwt>
</event>
<event>
 6    2  0.2220137E-005  0.1004929E+04  0.7818608E-02  0.1039374E+00
         -4   -1    0    0    0  501 -0.00000000000E+00  0.00000000000E+00  0.12555179185E+04  0.12555179185E+04  0.00000000000E+00 0. -1.
         21   -1    0    0  501  502  0.00000000000E+00 -0.00000000000E+00 -0.22145130085E+03  0.22145130085E+03  0.00000000000E+00 0. -1.
   -9000010    2    1    2    0  502 -0.15267916511E+02 -0.24258267021E+02  0.93070183564E+03  0.13697038376E+04  0.10045203448E+04 0.  0.
         13    1    3    3    0    0 -0.40183488871E+03 -0.26637627607E+03  0.23133388152E+03  0.53473635948E+03  0.10566000000E+00 0. -1.
         -4    1    3    3    0  502  0.38656697220E+03  0.24211800905E+03  0.69936795411E+03  0.83496747814E+03  0.00000000000E+00 0. -1.
        -13    1    1    2    0    0  0.15267916511E+02  0.24258267021E+02  0.10336478197E+03  0.10726538169E+03  0.10566000000E+00 0.  1.
<mgrwt>
<rscale>  1 0.41298387E+03</rscale>
<asrwt>0</asrwt>
<pdfrwt beam="2">  1       21 0.34069431E-01 0.10049292E+04</pdfrwt>
<pdfrwt beam="1">  1       -4 0.19315660E+00 0.10049292E+04</pdfrwt>
<totfact> 0.49215429E+01</totfact>
</mgrwt>
</event>
<event>
 6    2  0.2220137E-005  0.1034521E+04  0.7818608E-02  0.9634872E-01
         -4   -1    0    0    0  501 -0.00000000000E+00  0.00000000000E+00  0.96874260067E+03  0.96874260067E+03  0.00000000000E+00 0. -1.
         21   -1    0    0  501  502  0.00000000000E+00 -0.00000000000E+00 -0.63322099075E+03  0.63322099075E+03  0.00000000000E+00 0. -1.
   -9000010    2    1    2    0  502 -0.94656795055E+02 -0.27013818410E+03 -0.14300606326E+03  0.10443586304E+04  0.99413262065E+03 0.  0.
         13    1    3    3    0    0  0.16974993102E+03 -0.32783464496E+03 -0.48418885913E+03  0.60887556692E+03  0.10566000000E+00 0. -1.
         -4    1    3    3    0  502 -0.26440672608E+03  0.57696460860E+02  0.34118279587E+03  0.43548306349E+03  0.00000000000E+00 0. -1.
        -13    1    1    2    0    0  0.94656795055E+02  0.27013818410E+03  0.47852767319E+03  0.55760496100E+03  0.10566000000E+00 0.  1.
<mgrwt>
<rscale>  1 0.75030519E+03</rscale>
<asrwt>0</asrwt>
<pdfrwt beam="2">  1       21 0.97418614E-01 0.10345212E+04</pdfrwt>
<pdfrwt beam="1">  1       -4 0.14903732E+00 0.10345212E+04</pdfrwt>
<totfact> 0.98324140E+00</totfact>
</mgrwt>
</event>
<event>
 6    2  0.2220137E-005  0.1010020E+04  0.7818608E-02  0.9778439E-01
         21   -1    0    0  501  502  0.00000000000E+00  0.00000000000E+00  0.14274311458E+03  0.14274311458E+03  0.00000000000E+00 0. -1.
         -4   -1    0    0    0  501 -0.00000000000E+00 -0.00000000000E+00 -0.28500571413E+04  0.28500571413E+04  0.00000000000E+00 0. -1.
   -9000010    2    1    2    0  502  0.18924569657E+03  0.18749854583E+02 -0.17837014636E+04  0.20498126267E+04  0.99195534320E+03 0.  0.
         13    1    3    3    0    0  0.14757552932E+03  0.16544355036E+03  0.35247120836E+02  0.22448268508E+03  0.10566000000E+00 0. -1.
         -4    1    3    3    0  502  0.41670167257E+02 -0.14669369578E+03 -0.18189485844E+04  0.18253299417E+04  0.00000000000E+00 0. -1.
        -13    1    1    2    0    0 -0.18924569657E+03 -0.18749854583E+02 -0.92361256311E+03  0.94298762909E+03  0.10566000000E+00 0.  1.
<mgrwt>
<rscale>  1 0.66532581E+03</rscale>
<asrwt>0</asrwt>
<pdfrwt beam="1">  1       21 0.21960477E-01 0.10100202E+04</pdfrwt>
<pdfrwt beam="2">  1       -4 0.43847037E+00 0.10100202E+04</pdfrwt>
<totfact> 0.29984391E+00</totfact>
</mgrwt>
</event>
<event>
 6    2  0.2220137E-005  0.1015960E+04  0.7818608E-02  0.9991093E-01
         21   -1    0    0  501  502  0.00000000000E+00  0.00000000000E+00  0.36840186404E+03  0.36840186404E+03  0.00000000000E+00 0. -1.
         -4   -1    0    0    0  501 -0.00000000000E+00 -0.00000000000E+00 -0.84367371021E+03  0.84367371021E+03  0.00000000000E+00 0. -1.
   -9000010    2    1    2    0  502  0.65781336974E+02 -0.67242339194E+02 -0.40105044276E+03  0.10922526033E+04  0.10115955592E+04 0.  0.
         13    1    3    3    0    0  0.46034500143E+02 -0.27186568673E+03 -0.68688916465E+03  0.74016678019E+03  0.10566000000E+00 0. -1.
         -4    1    3    3    0  502  0.19746836831E+02  0.20462334753E+03  0.28583872188E+03  0.35208582313E+03  0.00000000000E+00 0. -1.
        -13    1    1    2    0    0 -0.65781336974E+02  0.67242339194E+02 -0.74221403411E+02  0.11982297093E+03  0.10566000000E+00 0.  1.
<mgrwt>
<rscale>  1 0.56042499E+03</rscale>
<asrwt>0</asrwt>
<pdfrwt beam="1">  1       21 0.56677210E-01 0.10159598E+04</pdfrwt>
<pdfrwt beam="2">  1       -4 0.12979595E+00 0.10159598E+04</pdfrwt>
<totfact> 0.49855987E+01</totfact>
</mgrwt>
</event>
<event>
 6    2  0.2220137E-005  0.1033845E+04  0.7818608E-02  0.9647670E-01
         21   -1    0    0  501  502  0.00000000000E+00  0.00000000000E+00  0.21440565529E+04  0.21440565529E+04  0.00000000000E+00 0. -1.
         -4   -1    0    0    0  501 -0.00000000000E+00 -0.00000000000E+00 -0.19995342153E+03  0.19995342153E+03  0.00000000000E+00 0. -1.
   -9000010    2    1    2    0  502  0.84517059085E+02 -0.26127853683E+03  0.14966065383E+04  0.18189739575E+04  0.99670733946E+03 0.  0.
         13    1    3    3    0    0 -0.28027937742E+03 -0.70580231119E+02  0.13522007424E+04  0.13827454420E+04  0.10566000000E+00 0. -1.
         -4    1    3    3    0  502  0.36479643650E+03 -0.19069830572E+03  0.14440579594E+03  0.43622851556E+03  0.00000000000E+00 0. -1.
        -13    1    1    2    0    0 -0.84517059085E+02  0.26127853683E+03  0.44749659301E+03  0.52503601687E+03  0.10566000000E+00 0.  1.
<mgrwt>
<rscale>  1 0.74219823E+03</rscale>
<asrwt>0</asrwt>
<pdfrwt beam="1">  1       21 0.32985484E+00 0.10338448E+04</pdfrwt>
<pdfrwt beam="2">  1       -4 0.30762066E-01 0.10338448E+04</pdfrwt>
<totfact> 0.70774721E+00</totfact>
</mgrwt>
</event>
<event>
 6    2  0.2220137E-005  0.1040489E+04  0.7818608E-02  0.9694951E-01
         21   -1    0    0  501  502  0.00000000000E+00  0.00000000000E+00  0.90514580882E+03  0.90514580882E+03  0.00000000000E+00 0. -1.
         -4   -1    0    0    0  501 -0.00000000000E+00 -0.00000000000E+00 -0.47212687923E+03  0.47212687923E+03  0.00000000000E+00 0. -1.
   -9000010    2    1    2    0  502 -0.11602222615E+03  0.19820085649E+03  0.47503476230E+03  0.11437987541E+04  0.10148265014E+04 0.  0.
         13    1    3    3    0    0 -0.18847577783E+03  0.57550945906E+03  0.11328198888E+03  0.61609015287E+03  0.10566000000E+00 0. -1.
         -4    1    3    3    0  502  0.72453551673E+02 -0.37730860257E+03  0.36175277343E+03  0.52770860122E+03  0.00000000000E+00 0. -1.
        -13    1    1    2    0    0  0.11602222615E+03 -0.19820085649E+03 -0.42015832712E+02  0.23347393396E+03  0.10566000000E+00 0.  1.
<mgrwt>
<rscale>  1 0.71318230E+03</rscale>
<asrwt>0</asrwt>
<pdfrwt beam="1">  1       21 0.13925320E+00 0.10404891E+04</pdfrwt>
<pdfrwt beam="2">  1       -4 0.72634905E-01 0.10404891E+04</pdfrwt>
<totfact> 0.22627698E+01</totfact>
</mgrwt>
</event>
<event>
 6    2  0.2220137E-005  0.9885029E+03  0.7818608E-02  0.9863806E-01
         21   -1    0    0  501  502  0.00000000000E+00  0.00000000000E+00  0.57519869881E+03  0.57519869881E+03  0.00000000000E+00 0. -1.
         -4   -1    0    0    0  501 -0.00000000000E+00 -0.00000000000E+00 -0.73720091984E+03  0.73720091984E+03  0.00000000000E+00 0. -1.
   -9000010    2    1    2    0  502 -0.33417037754E+02  0.14977024827E+03  0.11556785974E+03  0.99523564437E+03  0.97651944781E+03 0.  0.
         13    1    3    3    0    0 -0.26842637880E+03 -0.34284158285E+03  0.11129135696E+03  0.44942057036E+03  0.10566000000E+00 0. -1.
         -4    1    3    3    0  502  0.23500934105E+03  0.49261183112E+03  0.42765027812E+01  0.54581507401E+03  0.00000000000E+00 0. -1.
        -13    1    1    2    0    0  0.33417037754E+02 -0.14977024827E+03 -0.27757008077E+03  0.31716397428E+03  0.10566000000E+00 0.  1.
<mgrwt>
<rscale>  1 0.62047938E+03</rscale>
<asrwt>0</asrwt>
<pdfrwt beam="1">  1       21 0.88492109E-01 0.98850294E+03</pdfrwt>
<pdfrwt beam="2">  1       -4 0.11341552E+00 0.98850294E+03</pdfrwt>
<totfact> 0.25208202E+01</totfact>
</mgrwt>
</event>
<event>
 6    2  0.2220137E-005  0.1120587E+04  0.7818608E-02  0.9397971E-01
         -4   -1    0    0    0  501 -0.00000000000E+00  0.00000000000E+00  0.72517066799E+03  0.72517066799E+03  0.00000000000E+00 0. -1.
         21   -1    0    0  501  502  0.00000000000E+00 -0.00000000000E+00 -0.93120920876E+03  0.93120920876E+03  0.00000000000E+00 0. -1.
   -9000010    2    1    2    0  502 -0.40303584021E+03 -0.31981579154E+03 -0.21863238878E+03  0.11417162534E+04  0.99548774622E+03 0.  0.
         13    1    3    3    0    0  0.72179528676E+02 -0.26896524817E+03  0.31827515654E+03  0.42290811711E+03  0.10566000000E+00 0. -1.
         -4    1    3    3    0  502 -0.47521536889E+03 -0.50850543366E+02 -0.53690754533E+03  0.71880813630E+03  0.00000000000E+00 0. -1.
        -13    1    1    2    0    0  0.40303584021E+03  0.31981579154E+03  0.12593848013E+02  0.51466362333E+03  0.10566000000E+00 0.  1.
<mgrwt>
<rscale>  1 0.92242831E+03</rscale>
<asrwt>0</asrwt>
<pdfrwt beam="2">  1       21 0.14326295E+00 0.11205873E+04</pdfrwt>
<pdfrwt beam="1">  1       -4 0.11156472E+00 0.11205873E+04</pdfrwt>
<totfact> 0.75370647E+00</totfact>
</mgrwt>
</event>
<event>
 6    2  0.2220137E-005  0.1009179E+04  0.7818608E-02  0.9964819E-01
         -4   -1    0    0    0  501 -0.00000000000E+00  0.00000000000E+00  0.28430305731E+03  0.28430305731E+03  0.00000000000E+00 0. -1.
         21   -1    0    0  501  502  0.00000000000E+00 -0.00000000000E+00 -0.10907569368E+04  0.10907569368E+04  0.00000000000E+00 0. -1.
   -9000010    2    1    2    0  502 -0.28396973907E+01  0.10426278754E+03 -0.72207092331E+03  0.12408985719E+04  0.10037749024E+04 0.  0.
         13    1    3    3    0    0 -0.42365698363E+02  0.55501051888E+03 -0.40590181389E+03  0.68890334747E+03  0.10566000000E+00 0. -1.
         -4    1    3    3    0  502  0.39526000972E+02 -0.45074773135E+03 -0.31616910942E+03  0.55199522445E+03  0.00000000000E+00 0. -1.
        -13    1    1    2    0    0  0.28396973907E+01 -0.10426278754E+03 -0.84382956164E+02  0.13416142218E+03  0.10566000000E+00 0.  1.
<mgrwt>
<rscale>  1 0.57220144E+03</rscale>
<asrwt>0</asrwt>
<pdfrwt beam="2">  1       21 0.16780876E+00 0.10091793E+04</pdfrwt>
<pdfrwt beam="1">  1       -4 0.43738931E-01 0.10091793E+04</pdfrwt>
<totfact> 0.40113151E+01</totfact>
</mgrwt>
</event>
<event>
 6    2  0.2220137E-005  0.1132456E+04  0.7818608E-02  0.9370599E-01
         -4   -1    0    0    0  501 -0.00000000000E+00  0.00000000000E+00  0.25382601095E+04  0.25382601095E+04  0.00000000000E+00 0. -1.
         21   -1    0    0  501  502  0.00000000000E+00 -0.00000000000E+00 -0.28702687474E+03  0.28702687474E+03  0.00000000000E+00 0. -1.
   -9000010    2    1    2    0  502 -0.21442303176E+03 -0.50641109450E+03  0.12790473333E+04  0.17083380725E+04  0.98996336096E+03 0.  0.
         13    1    3    3    0    0 -0.41647505255E+03 -0.67395180651E+03  0.11930284786E+04  0.14321241108E+04  0.10566000000E+00 0. -1.
         -4    1    3    3    0  502  0.20205202079E+03  0.16754071201E+03  0.86018854725E+02  0.27621396173E+03  0.00000000000E+00 0. -1.
        -13    1    1    2    0    0  0.21442303176E+03  0.50641109450E+03  0.97218590142E+03  0.11169489117E+04  0.10566000000E+00 0.  1.
<mgrwt>
<rscale>  1 0.94535309E+03</rscale>
<asrwt>0</asrwt>
<pdfrwt beam="2">  1       21 0.44157982E-01 0.11324561E+04</pdfrwt>
<pdfrwt beam="1">  1       -4 0.39050154E+00 0.11324561E+04</pdfrwt>
<totfact> 0.15548890E+00</totfact>
</mgrwt>
</event>
<event>
 6    2  0.2220137E-005  0.1001212E+04  0.7818608E-02  0.9985683E-01
         -4   -1    0    0    0  501 -0.00000000000E+00  0.00000000000E+00  0.98321779333E+03  0.98321779333E+03  0.00000000000E+00 0. -1.
         21   -1    0    0  501  502  0.00000000000E+00 -0.00000000000E+00 -0.37079661091E+03  0.37079661091E+03  0.00000000000E+00 0. -1.
   -9000010    2    1    2    0  502  0.99460597000E+02  0.10179628522E+02  0.32964444719E+03  0.10540831982E+04  0.99620775544E+03 0.  0.
         13    1    3    3    0    0  0.26204816714E+03  0.42623802508E+03  0.34393438257E+03  0.60715645974E+03  0.10566000000E+00 0. -1.
         -4    1    3    3    0  502 -0.16258757014E+03 -0.41605839656E+03 -0.14289935377E+02  0.44692673848E+03  0.00000000000E+00 0. -1.
        -13    1    1    2    0    0 -0.99460597000E+02 -0.10179628522E+02  0.28277673524E+03  0.29993120602E+03  0.10566000000E+00 0.  1.
<mgrwt>
<rscale>  1 0.56282469E+03</rscale>
<asrwt>0</asrwt>
<pdfrwt beam="2">  1       21 0.57045633E-01 0.10012122E+04</pdfrwt>
<pdfrwt beam="1">  1       -4 0.15126428E+00 0.10012122E+04</pdfrwt>
<totfact> 0.32906675E+01</totfact>
</mgrwt>
</event>
<event>
 6    2  0.2220137E-005  0.1001422E+04  0.7818608E-02  0.1040084E+00
         -4   -1    0    0    0  501 -0.00000000000E+00  0.00000000000E+00  0.11336492962E+04  0.11336492962E+04  0.00000000000E+00 0. -1.
         21   -1    0    0  501  502  0.00000000000E+00 -0.00000000000E+00 -0.23417210330E+03  0.23417210330E+03  0.00000000000E+00 0. -1.
   -9000010    2    1    2    0  502 -0.28372599007E+02  0.20229973568E+00  0.88230349504E+03  0.13346552668E+04  0.10010195695E+04 0.  0.
         13    1    3    3    0    0 -0.11853271900E+03 -0.10950081969E+03  0.10795879334E+04  0.10915816745E+04  0.10566000000E+00 0. -1.
         -4    1    3    3    0  502  0.90160119989E+02  0.10970311942E+03 -0.19728443835E+03  0.24307359228E+03  0.00000000000E+00 0. -1.
        -13    1    1    2    0    0  0.28372599007E+02 -0.20229973568E+00  0.17173697906E+02  0.33166132777E+02  0.10566000000E+00 0.  1.
<mgrwt>
<rscale>  1 0.41085735E+03</rscale>
<asrwt>0</asrwt>
<pdfrwt beam="2">  1       21 0.36026478E-01 0.10014216E+04</pdfrwt>
<pdfrwt beam="1">  1       -4 0.17440758E+00 0.10014216E+04</pdfrwt>
<totfact> 0.59125548E+01</totfact>
</mgrwt>
</event>
<event>
 6    2  0.2220137E-005  0.1001785E+04  0.7818608E-02  0.9856071E-01
         -4   -1    0    0    0  501 -0.00000000000E+00  0.00000000000E+00  0.56767287082E+03  0.56767287082E+03  0.00000000000E+00 0. -1.
         21   -1    0    0  501  502  0.00000000000E+00 -0.00000000000E+00 -0.84527122428E+03  0.84527122428E+03  0.00000000000E+00 0. -1.
   -9000010    2    1    2    0  502 -0.91531295190E+02  0.12031700417E+03 -0.51889993783E+03  0.11281974967E+04  0.99031221678E+03 0.  0.
         13    1    3    3    0    0 -0.36590879166E+02  0.17942775218E+03  0.27489901339E+03  0.33030696241E+03  0.10566000000E+00 0. -1.
         -4    1    3    3    0  502 -0.54940416025E+02 -0.59110748005E+02 -0.79379895122E+03  0.79789053434E+03  0.00000000000E+00 0. -1.
        -13    1    1    2    0    0  0.91531295190E+02 -0.12031700417E+03  0.24130158436E+03  0.28474659835E+03  0.10566000000E+00 0.  1.
<mgrwt>
<rscale>  1 0.62438356E+03</rscale>
<asrwt>0</asrwt>
<pdfrwt beam="2">  1       21 0.13004173E+00 0.10017846E+04</pdfrwt>
<pdfrwt beam="1">  1       -4 0.87334288E-01 0.10017846E+04</pdfrwt>
<totfact> 0.17880459E+01</totfact>
</mgrwt>
</event>
<event>
 6    2  0.2220137E-005  0.9993650E+03  0.7818608E-02  0.9860352E-01
         -4   -1    0    0    0  501 -0.00000000000E+00  0.00000000000E+00  0.99602336444E+03  0.99602336444E+03  0.00000000000E+00 0. -1.
         21   -1    0    0  501  502  0.00000000000E+00 -0.00000000000E+00 -0.34488021782E+03  0.34488021782E+03  0.00000000000E+00 0. -1.
   -9000010    2    1    2    0  502 -0.96950679026E+02  0.11468829171E+03  0.46645536969E+03  0.11028648784E+04  0.98801694808E+03 0.  0.
         13    1    3    3    0    0  0.27450137468E+03 -0.23260135131E+03 -0.66875670590E+02  0.36596005221E+03  0.10566000000E+00 0. -1.
         -4    1    3    3    0  502 -0.37145205370E+03  0.34728964302E+03  0.53333104028E+03  0.73690482620E+03  0.00000000000E+00 0. -1.
        -13    1    1    2    0    0  0.96950679026E+02 -0.11468829171E+03  0.18468777693E+03  0.23803870385E+03  0.10566000000E+00 0.  1.
<mgrwt>
<rscale>  1 0.62221900E+03</rscale>
<asrwt>0</asrwt>
<pdfrwt beam="2">  1       21 0.53058495E-01 0.99936496E+03</pdfrwt>
<pdfrwt beam="1">  1       -4 0.15323436E+00 0.99936496E+03</pdfrwt>
<totfact> 0.37262329E+01</totfact>
</mgrwt>
</event>
<event>
 6    2  0.2220137E-005  0.1129095E+04  0.7818608E-02  0.9377408E-01
         -4   -1    0    0    0  501 -0.00000000000E+00  0.00000000000E+00  0.10592474527E+04  0.10592474527E+04  0.00000000000E+00 0. -1.
         21   -1    0    0  501  502  0.00000000000E+00 -0.00000000000E+00 -0.79249072805E+03  0.79249072805E+03  0.00000000000E+00 0. -1.
   -9000010    2    1    2    0  502  0.49493726741E+03  0.21953794590E+03  0.53276891534E+03  0.12484784480E+04  0.99080568716E+03 0.  0.
         13    1    3    3    0    0  0.62135375185E+02  0.55800249969E+03  0.38083277338E+03  0.67842553530E+03  0.10566000000E+00 0. -1.
         -4    1    3    3    0  502  0.43280189222E+03 -0.33846455379E+03  0.15193614196E+03  0.57005291274E+03  0.00000000000E+00 0. -1.
        -13    1    1    2    0    0 -0.49493726741E+03 -0.21953794590E+03 -0.26601219069E+03  0.60325973271E+03  0.10566000000E+00 0.  1.
<mgrwt>
<rscale>  1 0.93958483E+03</rscale>
<asrwt>0</asrwt>
<pdfrwt beam="2">  1       21 0.12192165E+00 0.11290951E+04</pdfrwt>
<pdfrwt beam="1">  1       -4 0.16296115E+00 0.11290951E+04</pdfrwt>
<totfact> 0.43152384E+00</totfact>
</mgrwt>
</event>
<event>
 6    2  0.2220137E-005  0.9883812E+03  0.7818608E-02  0.9920360E-01
         -4   -1    0    0    0  501 -0.00000000000E+00  0.00000000000E+00  0.43602698628E+03  0.43602698628E+03  0.00000000000E+00 0. -1.
         21   -1    0    0  501  502  0.00000000000E+00 -0.00000000000E+00 -0.11701082645E+04  0.11701082645E+04  0.00000000000E+00 0. -1.
   -9000010    2    1    2    0  502 -0.47135248235E+02 -0.11893707372E+03 -0.93981075837E+03  0.13638701288E+04  0.98006617507E+03 0.  0.
         13    1    3    3    0    0 -0.35351158851E+03 -0.39777567384E+03 -0.32841073179E+03  0.62533954763E+03  0.10566000000E+00 0. -1.
         -4    1    3    3    0  502  0.30637634028E+03  0.27883860012E+03 -0.61140002658E+03  0.73853058116E+03  0.00000000000E+00 0. -1.
        -13    1    1    2    0    0  0.47135248235E+02  0.11893707372E+03  0.20572948019E+03  0.24226512195E+03  0.10566000000E+00 0.  1.
<mgrwt>
<rscale>  1 0.59284623E+03</rscale>
<asrwt>0</asrwt>
<pdfrwt beam="2">  1       21 0.18001665E+00 0.98838124E+03</pdfrwt>
<pdfrwt beam="1">  1       -4 0.67081076E-01 0.98838124E+03</pdfrwt>
<totfact> 0.13074541E+01</totfact>
</mgrwt>
</event>
<event>
 6    2  0.2220137E-005  0.1357434E+04  0.7818608E-02  0.9080340E-01
         -4   -1    0    0    0  501 -0.00000000000E+00  0.00000000000E+00  0.11123621791E+04  0.11123621791E+04  0.00000000000E+00 0. -1.
         21   -1    0    0  501  502  0.00000000000E+00 -0.00000000000E+00 -0.12434858906E+04  0.12434858906E+04  0.00000000000E+00 0.  1.
   -9000010    2    1    2    0  502  0.72451779575E+03 -0.59690641330E+03  0.17452388071E+03  0.13686075902E+04  0.98051254372E+03 0.  0.
         13    1    3    3    0    0 -0.70532104882E+02  0.20757652927E+03 -0.22978476140E+02  0.22043324353E+03  0.10566000000E+00 0. -1.
         -4    1    3    3    0  502  0.79504990063E+03 -0.80448294257E+03  0.19750235685E+03  0.11481743467E+04  0.00000000000E+00 0. -1.
        -13    1    1    2    0    0 -0.72451779575E+03  0.59690641330E+03 -0.30564759220E+03  0.98724047951E+03  0.10566000000E+00 0.  1.
<mgrwt>
<rscale>  1 0.12378697E+04</rscale>
<asrwt>0</asrwt>
<pdfrwt beam="2">  1       21 0.19130552E+00 0.13574344E+04</pdfrwt>
<pdfrwt beam="1">  1       -4 0.17113264E+00 0.13574344E+04</pdfrwt>
<totfact> 0.10173215E+00</totfact>
</mgrwt>
</event>
<event>
 6    2  0.2220137E-005  0.1042179E+04  0.7818608E-02  0.9764268E-01
         -4   -1    0    0    0  501 -0.00000000000E+00  0.00000000000E+00  0.70283582540E+03  0.70283582540E+03  0.00000000000E+00 0. -1.
         21   -1    0    0  501  502  0.00000000000E+00 -0.00000000000E+00 -0.54291344070E+03  0.54291344070E+03  0.00000000000E+00 0. -1.
   -9000010    2    1    2    0  502  0.82398519999E+02 -0.16160830513E+03  0.19690040222E+03  0.10606164885E+04  0.10262703382E+04 0.  0.
         13    1    3    3    0    0 -0.16167605132E+03 -0.43289933772E+03 -0.21554761863E+03  0.50990368623E+03  0.10566000000E+00 0. -1.
         -4    1    3    3    0  502  0.24407457132E+03  0.27129103259E+03  0.41244802085E+03  0.55071280231E+03  0.00000000000E+00 0. -1.
        -13    1    1    2    0    0 -0.82398519999E+02  0.16160830513E+03 -0.36978017522E+02  0.18513277756E+03  0.10566000000E+00 0.  1.
<mgrwt>
<rscale>  1 0.67315880E+03</rscale>
<asrwt>0</asrwt>
<pdfrwt beam="2">  1       21 0.83525145E-01 0.10421792E+04</pdfrwt>
<pdfrwt beam="1">  1       -4 0.10812859E+00 0.10421792E+04</pdfrwt>
<totfact> 0.32397445E+01</totfact>
</mgrwt>
</event>
<event>
 6    2  0.2220137E-005  0.9360442E+03  0.7818608E-02  0.1012675E+00
         21   -1    0    0  501  502  0.00000000000E+00  0.00000000000E+00  0.12495087576E+04  0.12495087576E+04  0.00000000000E+00 0. -1.
         -4   -1    0    0    0  501 -0.00000000000E+00 -0.00000000000E+00 -0.22295630770E+03  0.22295630770E+03  0.00000000000E+00 0. -1.
   -9000010    2    1    2    0  502 -0.29132541335E+02 -0.73250679040E+02  0.10322160658E+04  0.13934305498E+04  0.93271878053E+03 0.  0.
         13    1    3    3    0    0  0.35801073488E+03 -0.22081704609E+03  0.20427559513E+03  0.46761136007E+03  0.10566000000E+00 0. -1.
         -4    1    3    3    0  502 -0.38714327622E+03  0.14756636706E+03  0.82794047069E+03  0.92581918970E+03  0.00000000000E+00 0. -1.
        -13    1    1    2    0    0  0.29132541335E+02  0.73250679040E+02 -0.56636158744E+01  0.79034515582E+02  0.10566000000E+00 0.  1.
<mgrwt>
<rscale>  1 0.50425123E+03</rscale>
<asrwt>0</asrwt>
<pdfrwt beam="1">  1       21 0.19223211E+00 0.93604417E+03</pdfrwt>
<pdfrwt beam="2">  1       -4 0.34300971E-01 0.93604417E+03</pdfrwt>
<totfact> 0.44035166E+01</totfact>
</mgrwt>
</event>
<event>
 6    2  0.2220137E-005  0.1046926E+04  0.7818608E-02  0.9590294E-01
         21   -1    0    0  501  502  0.00000000000E+00  0.00000000000E+00  0.30947506444E+03  0.30947506444E+03  0.00000000000E+00 0. -1.
         -4   -1    0    0    0  501 -0.00000000000E+00 -0.00000000000E+00 -0.18324097259E+04  0.18324097259E+04  0.00000000000E+00 0. -1.
   -9000010    2    1    2    0  502 -0.30713908961E+03 -0.95406903620E+02 -0.70280329375E+03  0.12609464445E+04  0.99630144468E+03 0.  0.
         13    1    3    3    0    0 -0.17194936329E+03 -0.52830348214E+03 -0.55157159160E+03  0.78288082401E+03  0.10566000000E+00 0. -1.
         -4    1    3    3    0  502 -0.13518972631E+03  0.43289657852E+03 -0.15123170214E+03  0.47806562053E+03  0.00000000000E+00 0. -1.
        -13    1    1    2    0    0  0.30713908961E+03  0.95406903620E+02 -0.82013136769E+03  0.88093834577E+03  0.10566000000E+00 0.  1.
<mgrwt>
<rscale>  1 0.77941964E+03</rscale>
<asrwt>0</asrwt>
<pdfrwt beam="1">  1       21 0.47611549E-01 0.10469257E+04</pdfrwt>
<pdfrwt beam="2">  1       -4 0.28190919E+00 0.10469257E+04</pdfrwt>
<totfact> 0.66800087E+00</totfact>
</mgrwt>
</event>
<event>
 6    2  0.2220137E-005  0.1020108E+04  0.7818608E-02  0.9740476E-01
         21   -1    0    0  501  502  0.00000000000E+00  0.00000000000E+00  0.22874750373E+03  0.22874750373E+03  0.00000000000E+00 0. -1.
         -4   -1    0    0    0  501 -0.00000000000E+00 -0.00000000000E+00 -0.16967597102E+04  0.16967597102E+04  0.00000000000E+00 0. -1.
   -9000010    2    1    2    0  502 -0.19745209501E+03 -0.69472462769E+02 -0.10864336004E+04  0.14902877329E+04  0.99840162549E+03 0.  0.
         13    1    3    3    0    0  0.29511872843E+03  0.45412574198E+01 -0.44472883379E-01  0.29515368883E+03  0.10566000000E+00 0. -1.
         -4    1    3    3    0  502 -0.49257082344E+03 -0.74013720189E+02 -0.10863891275E+04  0.11951340440E+04  0.00000000000E+00 0. -1.
        -13    1    1    2    0    0  0.19745209501E+03  0.69472462769E+02 -0.38157860606E+03  0.43521948103E+03  0.10566000000E+00 0.  1.
<mgrwt>
<rscale>  1 0.68657157E+03</rscale>
<asrwt>0</asrwt>
<pdfrwt beam="1">  1       21 0.35191924E-01 0.10201076E+04</pdfrwt>
<pdfrwt beam="2">  1       -4 0.26103995E+00 0.10201076E+04</pdfrwt>
<totfact> 0.17007731E+01</totfact>
</mgrwt>
</event>
<event>
 6    2  0.2220137E-005  0.1033520E+04  0.7818608E-02  0.9664373E-01
         21   -1    0    0  501  502  0.00000000000E+00  0.00000000000E+00  0.32471924476E+03  0.32471924476E+03  0.00000000000E+00 0. -1.
         -4   -1    0    0    0  501 -0.00000000000E+00 -0.00000000000E+00 -0.14031922535E+04  0.14031922535E+04  0.00000000000E+00 0. -1.
   -9000010    2    1    2    0  502  0.23748041656E+03 -0.10525098884E+03 -0.63219795200E+03  0.12115432611E+04  0.10003439929E+04 0.  0.
         13    1    3    3    0    0  0.14450348726E+03  0.37985198790E+03  0.36045246754E+01  0.40642563195E+03  0.10566000000E+00 0. -1.
         -4    1    3    3    0  502  0.92976929307E+02 -0.48510297674E+03 -0.63580247667E+03  0.80511762915E+03  0.00000000000E+00 0. -1.
        -13    1    1    2    0    0 -0.23748041656E+03  0.10525098884E+03 -0.44627505674E+03  0.51636823715E+03  0.10566000000E+00 0.  1.
<mgrwt>
<rscale>  1 0.73178195E+03</rscale>
<asrwt>0</asrwt>
<pdfrwt beam="1">  1       21 0.49956806E-01 0.10335196E+04</pdfrwt>
<pdfrwt beam="2">  1       -4 0.21587574E+00 0.10335196E+04</pdfrwt>
<totfact> 0.15558147E+01</totfact>
</mgrwt>
</event>
<event>
 6    2  0.2220137E-005  0.1015932E+04  0.7818608E-02  0.9629561E-01
         -4   -1    0    0    0  501 -0.00000000000E+00  0.00000000000E+00  0.74136911084E+03  0.74136911084E+03  0.00000000000E+00 0. -1.
         21   -1    0    0  501  502  0.00000000000E+00 -0.00000000000E+00 -0.59765470486E+03  0.59765470486E+03  0.00000000000E+00 0. -1.
   -9000010    2    1    2    0  502  0.80945567590E+02  0.29691854037E+03  0.49359803093E+02  0.10171300339E+04  0.96819642176E+03 0.  0.
         13    1    3    3    0    0 -0.14123963741E+03 -0.86807531602E+02 -0.37086226479E+03  0.40623024669E+03  0.10566000000E+00 0. -1.
         -4    1    3    3    0  502  0.22218520500E+03  0.38372607197E+03  0.42022206788E+03  0.61089978718E+03  0.00000000000E+00 0. -1.
        -13    1    1    2    0    0 -0.80945567590E+02 -0.29691854037E+03  0.94354602895E+02  0.32189378183E+03  0.10566000000E+00 0.  1.
<mgrwt>
<rscale>  1 0.75370164E+03</rscale>
<asrwt>0</asrwt>
<pdfrwt beam="2">  1       21 0.91946877E-01 0.10159316E+04</pdfrwt>
<pdfrwt beam="1">  1       -4 0.11405679E+00 0.10159316E+04</pdfrwt>
<totfact> 0.22603241E+01</totfact>
</mgrwt>
</event>
<event>
 6    2  0.2220137E-005  0.1076162E+04  0.7818608E-02  0.9494017E-01
         21   -1    0    0  501  502  0.00000000000E+00  0.00000000000E+00  0.11188517697E+04  0.11188517697E+04  0.00000000000E+00 0. -1.
         -4   -1    0    0    0  501 -0.00000000000E+00 -0.00000000000E+00 -0.67814835685E+03  0.67814835685E+03  0.00000000000E+00 0. -1.
   -9000010    2    1    2    0  502 -0.31405393537E+03 -0.26893401613E+03  0.72288944622E+03  0.12964161196E+04  0.99356440375E+03 0.  0.
         13    1    3    3    0    0 -0.31734858779E+03  0.31938032223E+03  0.14824145935E+03  0.47401419581E+03  0.10566000000E+00 0. -1.
         -4    1    3    3    0  502  0.32946524184E+01 -0.58831433836E+03  0.57464798687E+03  0.82240192380E+03  0.00000000000E+00 0. -1.
        -13    1    1    2    0    0  0.31405393537E+03  0.26893401613E+03 -0.28218603340E+03  0.50058400690E+03  0.10566000000E+00 0.  1.
<mgrwt>
<rscale>  1 0.84726394E+03</rscale>
<asrwt>0</asrwt>
<pdfrwt beam="1">  1       21 0.17213104E+00 0.10761624E+04</pdfrwt>
<pdfrwt beam="2">  1       -4 0.10433052E+00 0.10761624E+04</pdfrwt>
<totfact> 0.52970804E+00</totfact>
</mgrwt>
</event>
<event>
 6    2  0.2220137E-005  0.1130307E+04  0.7818608E-02  0.9382185E-01
         21   -1    0    0  501  502  0.00000000000E+00  0.00000000000E+00  0.96130169855E+03  0.96130169855E+03  0.00000000000E+00 0. -1.
         -4   -1    0    0    0  501 -0.00000000000E+00 -0.00000000000E+00 -0.94808055943E+03  0.94808055943E+03  0.00000000000E+00 0. -1.
   -9000010    2    1    2    0  502  0.48493627955E+03 -0.21515659285E+03  0.45554528120E+03  0.12186535033E+04  0.99806778491E+03 0.  0.
         13    1    3    3    0    0  0.42833329751E+03  0.31570932107E+03  0.43005490797E+03  0.68417031812E+03  0.10566000000E+00 0. -1.
         -4    1    3    3    0  502  0.56602982044E+02 -0.53086591392E+03  0.25490373226E+02  0.53448318520E+03  0.00000000000E+00 0. -1.
        -13    1    1    2    0    0 -0.48493627955E+03  0.21515659285E+03 -0.44232414208E+03  0.69072875465E+03  0.10566000000E+00 0.  1.
<mgrwt>
<rscale>  1 0.93556435E+03</rscale>
<asrwt>0</asrwt>
<pdfrwt beam="1">  1       21 0.14789257E+00 0.11303074E+04</pdfrwt>
<pdfrwt beam="2">  1       -4 0.14585855E+00 0.11303074E+04</pdfrwt>
<totfact> 0.34662896E+00</totfact>
</mgrwt>
</event>
<event>
 6    2  0.2220137E-005  0.1021009E+04  0.7818608E-02  0.9854846E-01
         21   -1    0    0  501  502  0.00000000000E+00  0.00000000000E+00  0.22944689926E+03  0.22944689926E+03  0.00000000000E+00 0. -1.
         -4   -1    0    0    0  501 -0.00000000000E+00 -0.00000000000E+00 -0.14784961602E+04  0.14784961602E+04  0.00000000000E+00 0. -1.
   -9000010    2    1    2    0  502 -0.14251115607E+03 -0.15625165295E+02 -0.10783112938E+04  0.14849967880E+04  0.10108939798E+04 0.  0.
         13    1    3    3    0    0  0.37998579734E+03  0.22016994626E+03 -0.37357335196E+03  0.57655968631E+03  0.10566000000E+00 0. -1.
         -4    1    3    3    0  502 -0.52249695341E+03 -0.23579511155E+03 -0.70473794188E+03  0.90843710166E+03  0.00000000000E+00 0. -1.
        -13    1    1    2    0    0  0.14251115607E+03  0.15625165295E+02 -0.17073796706E+03  0.22294627146E+03  0.10566000000E+00 0.  1.
<mgrwt>
<rscale>  1 0.62500467E+03</rscale>
<asrwt>0</asrwt>
<pdfrwt beam="1">  1       21 0.35299523E-01 0.10210094E+04</pdfrwt>
<pdfrwt beam="2">  1       -4 0.22746095E+00 0.10210094E+04</pdfrwt>
<totfact> 0.27347931E+01</totfact>
</mgrwt>
</event>
<event>
 6    2  0.2220137E-005  0.1025535E+04  0.7818608E-02  0.9789328E-01
         -4   -1    0    0    0  501 -0.00000000000E+00  0.00000000000E+00  0.83339818777E+03  0.83339818777E+03  0.00000000000E+00 0. -1.
         21   -1    0    0  501  502  0.00000000000E+00 -0.00000000000E+00 -0.66061303280E+03  0.66061303280E+03  0.00000000000E+00 0. -1.
   -9000010    2    1    2    0  502  0.13837116912E+03  0.10757445744E+03 -0.23328228313E+03  0.10517334574E+04  0.10104473254E+04 0.  0.
         13    1    3    3    0    0 -0.38040104985E+03  0.21065641547E+03 -0.28559836509E+03  0.52023794692E+03  0.10566000000E+00 0. -1.
         -4    1    3    3    0  502  0.51877221897E+03 -0.10308195803E+03  0.52316081960E+02  0.53149551050E+03  0.00000000000E+00 0. -1.
        -13    1    1    2    0    0 -0.13837116912E+03 -0.10757445744E+03  0.40606743809E+03  0.44227776316E+03  0.10566000000E+00 0.  1.
<mgrwt>
<rscale>  1 0.65938428E+03</rscale>
<asrwt>0</asrwt>
<pdfrwt beam="2">  1       21 0.10163277E+00 0.10255353E+04</pdfrwt>
<pdfrwt beam="1">  1       -4 0.12821511E+00 0.10255353E+04</pdfrwt>
<totfact> 0.13143160E+01</totfact>
</mgrwt>
</event>
<event>
 6    2  0.2220137E-005  0.9055210E+03  0.7818608E-02  0.9915090E-01
         -4   -1    0    0    0  501 -0.00000000000E+00  0.00000000000E+00  0.20594419643E+04  0.20594419643E+04  0.00000000000E+00 0. -1.
         21   -1    0    0  501  502  0.00000000000E+00 -0.00000000000E+00 -0.14022130419E+03  0.14022130419E+03  0.00000000000E+00 0. -1.
   -9000010    2    1    2    0  502  0.91288164404E+02  0.14246455198E+03  0.16104042679E+04  0.18475308321E+04  0.88957213975E+03 0.  0.
         13    1    3    3    0    0  0.40072714774E+03 -0.13387238424E+01  0.13769858916E+04  0.14341109427E+04  0.10566000000E+00 0. -1.
         -4    1    3    3    0  502 -0.30943898333E+03  0.14380327582E+03  0.23341837634E+03  0.41341988941E+03  0.00000000000E+00 0. -1.
        -13    1    1    2    0    0 -0.91288164404E+02 -0.14246455198E+03  0.30881639220E+03  0.35213243643E+03  0.10566000000E+00 0.  1.
<mgrwt>
<rscale>  1 0.59535495E+03</rscale>
<asrwt>0</asrwt>
<pdfrwt beam="2">  1       21 0.21572510E-01 0.90552099E+03</pdfrwt>
<pdfrwt beam="1">  1       -4 0.31683720E+00 0.90552099E+03</pdfrwt>
<totfact> 0.20742038E+01</totfact>
</mgrwt>
</event>
<event>
 6    2  0.2220137E-005  0.1357381E+04  0.7818608E-02  0.9081131E-01
         -4   -1    0    0    0  501 -0.00000000000E+00  0.00000000000E+00  0.24057396658E+04  0.24057396658E+04  0.00000000000E+00 0. -1.
         21   -1    0    0  501  502  0.00000000000E+00 -0.00000000000E+00 -0.56416408476E+03  0.56416408476E+03  0.00000000000E+00 0.  1.
   -9000010    2    1    2    0  502 -0.89345264930E+03  0.27899738377E+03  0.13426229270E+04  0.19092195662E+04  0.98304926189E+03 0.  0.
         13    1    3    3    0    0 -0.82165645354E+03  0.40858727673E+03  0.14571122836E+04  0.17219869653E+04  0.10566000000E+00 0. -1.
         -4    1    3    3    0  502 -0.71796195764E+02 -0.12958989296E+03 -0.11448935662E+03  0.18723260096E+03  0.00000000000E+00 0. -1.
        -13    1    1    2    0    0  0.89345264930E+03 -0.27899738377E+03  0.49895265403E+03  0.10606841843E+04  0.10566000000E+00 0.  1.
<mgrwt>
<rscale>  1 0.12369308E+04</rscale>
<asrwt>0</asrwt>
<pdfrwt beam="2">  1       21 0.86794476E-01 0.13573809E+04</pdfrwt>
<pdfrwt beam="1">  1       -4 0.37011379E+00 0.13573809E+04</pdfrwt>
<totfact> 0.44993396E-01</totfact>
</mgrwt>
</event>
<event>
 6    2  0.2220137E-005  0.1283714E+04  0.7818608E-02  0.9181161E-01
         -4   -1    0    0    0  501 -0.00000000000E+00  0.00000000000E+00  0.65648545391E+03  0.65648545391E+03  0.00000000000E+00 0. -1.
         21   -1    0    0  501  502  0.00000000000E+00 -0.00000000000E+00 -0.18933441471E+04  0.18933441471E+04  0.00000000000E+00 0.  1.
   -9000010    2    1    2    0  502  0.25903451902E+03 -0.71150683290E+03 -0.12510583385E+04  0.17925037158E+04  0.10366203497E+04 0.  0.
         13    1    3    3    0    0 -0.19808876000E+03 -0.46420617685E+03 -0.11597540652E+04  0.12648146245E+04  0.10566000000E+00 0. -1.
         -4    1    3    3    0  502  0.45712327902E+03 -0.24730065606E+03 -0.91304273326E+02  0.52768909126E+03  0.00000000000E+00 0. -1.
        -13    1    1    2    0    0 -0.25903451902E+03  0.71150683290E+03  0.14199645361E+02  0.75732588521E+03  0.10566000000E+00 0.  1.
<mgrwt>
<rscale>  1 0.11250010E+04</rscale>
<asrwt>0</asrwt>
<pdfrwt beam="2">  1       21 0.29128371E+00 0.12837144E+04</pdfrwt>
<pdfrwt beam="1">  1       -4 0.10099776E+00 0.12837144E+04</pdfrwt>
<totfact> 0.90024787E-01</totfact>
</mgrwt>
</event>
<event>
 6    2  0.2220137E-005  0.8904870E+03  0.7818608E-02  0.9871870E-01
         -4   -1    0    0    0  501 -0.00000000000E+00  0.00000000000E+00  0.90344947068E+03  0.90344947068E+03  0.00000000000E+00 0. -1.
         21   -1    0    0  501  502  0.00000000000E+00 -0.00000000000E+00 -0.36364627708E+03  0.36364627708E+03  0.00000000000E+00 0. -1.
   -9000010    2    1    2    0  502 -0.96868697835E+02  0.18009789348E+03  0.27391629725E+03  0.93166371490E+03  0.86668814686E+03 0.  0.
         13    1    3    3    0    0  0.21363776158E+03 -0.26933978286E+03  0.12006906280E+03  0.36414502992E+03  0.10566000000E+00 0. -1.
         -4    1    3    3    0  502 -0.31050645942E+03  0.44943767635E+03  0.15384723446E+03  0.56751868499E+03  0.00000000000E+00 0. -1.
        -13    1    1    2    0    0  0.96868697835E+02 -0.18009789348E+03  0.26588689634E+03  0.33543203286E+03  0.10566000000E+00 0.  1.
<mgrwt>
<rscale>  1 0.61644190E+03</rscale>
<asrwt>0</asrwt>
<pdfrwt beam="2">  1       21 0.55945582E-01 0.89048702E+03</pdfrwt>
<pdfrwt beam="1">  1       -4 0.13899223E+00 0.89048702E+03</pdfrwt>
<totfact> 0.43431998E+01</totfact>
</mgrwt>
</event>
<event>
 6    2  0.2220137E-005  0.1129209E+04  0.7818608E-02  0.9379349E-01
         -4   -1    0    0    0  501 -0.00000000000E+00  0.00000000000E+00  0.76041475608E+03  0.76041475608E+03  0.00000000000E+00 0. -1.
         21   -1    0    0  501  502  0.00000000000E+00 -0.00000000000E+00 -0.91348786536E+03  0.91348786536E+03  0.00000000000E+00 0. -1.
   -9000010    2    1    2    0  502 -0.93136995503E+02  0.52938658499E+03 -0.11463443737E+03  0.11350128378E+04  0.99307020465E+03 0.  0.
         13    1    3    3    0    0  0.11667157884E+03  0.78757797299E+03 -0.68017978101E+02  0.79907307385E+03  0.10566000000E+00 0. -1.
         -4    1    3    3    0  502 -0.20980857434E+03 -0.25819138800E+03 -0.46616459267E+02  0.33593976391E+03  0.00000000000E+00 0. -1.
        -13    1    1    2    0    0  0.93136995503E+02 -0.52938658499E+03 -0.38438671913E+02  0.53888978368E+03  0.10566000000E+00 0.  1.
<mgrwt>
<rscale>  1 0.93794817E+03</rscale>
<asrwt>0</asrwt>
<pdfrwt beam="2">  1       21 0.14053659E+00 0.11292091E+04</pdfrwt>
<pdfrwt beam="1">  1       -4 0.11698689E+00 0.11292091E+04</pdfrwt>
<totfact> 0.70561452E+00</totfact>
</mgrwt>
</event>
<event>
 6    2  0.2220137E-005  0.1013829E+04  0.7818608E-02  0.9863749E-01
         -4   -1    0    0    0  501 -0.00000000000E+00  0.00000000000E+00  0.39541998531E+03  0.39541998531E+03  0.00000000000E+00 0. -1.
         21   -1    0    0  501  502  0.00000000000E+00 -0.00000000000E+00 -0.86024663449E+03  0.86024663449E+03  0.00000000000E+00 0. -1.
   -9000010    2    1    2    0  502 -0.10698335402E+03  0.93774506878E+02 -0.46004002767E+03  0.11133219006E+04  0.10037976545E+04 0.  0.
         13    1    3    3    0    0  0.22589973977E+03  0.70001978596E+02  0.24053090776E+03  0.33732195035E+03  0.10566000000E+00 0. -1.
         -4    1    3    3    0  502 -0.33288309378E+03  0.23772528282E+02 -0.70057093543E+03  0.77599995025E+03  0.00000000000E+00 0. -1.
        -13    1    1    2    0    0  0.10698335402E+03 -0.93774506878E+02 -0.47866215128E+01  0.14234471921E+03  0.10566000000E+00 0.  1.
<mgrwt>
<rscale>  1 0.62050800E+03</rscale>
<asrwt>0</asrwt>
<pdfrwt beam="2">  1       21 0.13234564E+00 0.10138288E+04</pdfrwt>
<pdfrwt beam="1">  1       -4 0.60833843E-01 0.10138288E+04</pdfrwt>
<totfact> 0.38563542E+01</totfact>
</mgrwt>
</event>
<event>
 6    2  0.2220137E-005  0.9779657E+03  0.7818608E-02  0.1029877E+00
         -4   -1    0    0    0  501 -0.00000000000E+00  0.00000000000E+00  0.73673193212E+03  0.73673193212E+03  0.00000000000E+00 0. -1.
         21   -1    0    0  501  502  0.00000000000E+00 -0.00000000000E+00 -0.35817085459E+03  0.35817085459E+03  0.00000000000E+00 0. -1.
   -9000010    2    1    2    0  502  0.39168525106E+02  0.12514009395E+02  0.38898044363E+03  0.10524840627E+04  0.97710088680E+03 0.  0.
         13    1    3    3    0    0 -0.40202218260E+03  0.11981309210E+03 -0.48099937628E+02  0.42224474835E+03  0.10566000000E+00 0. -1.
         -4    1    3    3    0  502  0.44119070771E+03 -0.10729908271E+03  0.43708038125E+03  0.63023931438E+03  0.00000000000E+00 0. -1.
        -13    1    1    2    0    0 -0.39168525106E+02 -0.12514009395E+02 -0.10419366099E+02  0.42418723980E+02  0.10566000000E+00 0.  1.
<mgrwt>
<rscale>  1 0.44284711E+03</rscale>
<asrwt>0</asrwt>
<pdfrwt beam="2">  1       21 0.55103209E-01 0.97796570E+03</pdfrwt>
<pdfrwt beam="1">  1       -4 0.11334337E+00 0.97796570E+03</pdfrwt>
<totfact> 0.74878516E+01</totfact>
</mgrwt>
</event>
<event>
 6    2  0.2220137E-005  0.7685349E+03  0.7818608E-02  0.9895790E-01
         -4   -1    0    0    0  501 -0.00000000000E+00  0.00000000000E+00  0.23958614147E+04  0.23958614147E+04  0.00000000000E+00 0. -1.
         21   -1    0    0  501  502  0.00000000000E+00 -0.00000000000E+00 -0.19935086265E+03  0.19935086265E+03  0.00000000000E+00 0. -1.
   -9000010    2    1    2    0  502  0.49106427793E+02  0.29035058671E+03  0.60887208601E+03  0.98049533174E+03  0.70988095761E+03 0.  0.
         13    1    3    3    0    0 -0.29788904198E+03  0.75704180202E+01  0.36349238910E+03  0.47002331927E+03  0.10566000000E+00 0. -1.
         -4    1    3    3    0  502  0.34699546978E+03  0.28278016869E+03  0.24537969692E+03  0.51047201247E+03  0.00000000000E+00 0. -1.
        -13    1    1    2    0    0 -0.49106427793E+02 -0.29035058671E+03  0.15876384661E+04  0.16147169457E+04  0.10566000000E+00 0.  1.
<mgrwt>
<rscale>  1 0.60465746E+03</rscale>
<asrwt>0</asrwt>
<pdfrwt beam="2">  1       21 0.30669365E-01 0.76853489E+03</pdfrwt>
<pdfrwt beam="1">  1       -4 0.36859404E+00 0.76853489E+03</pdfrwt>
<totfact> 0.49358961E+00</totfact>
</mgrwt>
</event>
<event>
 6    2  0.2220137E-005  0.1045505E+04  0.7818608E-02  0.9625533E-01
         -4   -1    0    0    0  501 -0.00000000000E+00  0.00000000000E+00  0.41001086108E+03  0.41001086108E+03  0.00000000000E+00 0. -1.
         21   -1    0    0  501  502  0.00000000000E+00 -0.00000000000E+00 -0.11080961932E+04  0.11080961932E+04  0.00000000000E+00 0. -1.
   -9000010    2    1    2    0  502 -0.24198564574E+03  0.15294980671E+03 -0.64050639774E+03  0.12261035595E+04  0.10055499973E+04 0.  0.
         13    1    3    3    0    0 -0.48647545270E+03  0.29712560696E+03 -0.73210258131E+03  0.92785569628E+03  0.10566000000E+00 0. -1.
         -4    1    3    3    0  502  0.24448980697E+03 -0.14417580025E+03  0.91596183572E+02  0.29824786325E+03  0.00000000000E+00 0. -1.
        -13    1    1    2    0    0  0.24198564574E+03 -0.15294980671E+03 -0.57578934422E+02  0.29200349479E+03  0.10566000000E+00 0.  1.
<mgrwt>
<rscale>  1 0.75629075E+03</rscale>
<asrwt>0</asrwt>
<pdfrwt beam="2">  1       21 0.17047634E+00 0.10455054E+04</pdfrwt>
<pdfrwt beam="1">  1       -4 0.63078594E-01 0.10455054E+04</pdfrwt>
<totfact> 0.17489609E+01</totfact>
</mgrwt>
</event>
<event>
 6    2  0.2220137E-005  0.1091682E+04  0.7818608E-02  0.9494483E-01
         -4   -1    0    0    0  501 -0.00000000000E+00  0.00000000000E+00  0.60984902477E+03  0.60984902477E+03  0.00000000000E+00 0. -1.
         21   -1    0    0  501  502  0.00000000000E+00 -0.00000000000E+00 -0.90767619814E+03  0.90767619814E+03  0.00000000000E+00 0. -1.
   -9000010    2    1    2    0  502 -0.35861624327E+03  0.16662582469E+03 -0.24179639157E+03  0.11181391502E+04  0.10175460132E+04 0.  0.
         13    1    3    3    0    0  0.24266221956E+03 -0.16486324130E+03  0.14802142069E+03  0.32859579011E+03  0.10566000000E+00 0. -1.
         -4    1    3    3    0  502 -0.60127846283E+03  0.33148906599E+03 -0.38981781226E+03  0.78954336010E+03  0.00000000000E+00 0. -1.
        -13    1    1    2    0    0  0.35861624327E+03 -0.16662582469E+03 -0.56030781801E+02  0.39938607270E+03  0.10566000000E+00 0.  1.
<mgrwt>
<rscale>  1 0.84691774E+03</rscale>
<asrwt>0</asrwt>
<pdfrwt beam="2">  1       21 0.13964249E+00 0.10916820E+04</pdfrwt>
<pdfrwt beam="1">  1       -4 0.93822927E-01 0.10916820E+04</pdfrwt>
<totfact> 0.12351485E+01</totfact>
</mgrwt>
</event>
<event>
 6    2  0.2220137E-005  0.1514377E+04  0.7818608E-02  0.8945408E-01
         -4   -1    0    0    0  501 -0.00000000000E+00  0.00000000000E+00  0.11683692797E+04  0.11683692797E+04  0.00000000000E+00 0. -1.
         21   -1    0    0  501  502  0.00000000000E+00 -0.00000000000E+00 -0.19942093509E+04  0.19942093509E+04  0.00000000000E+00 0.  1.
   -9000010    2    1    2    0  502 -0.98314818435E+03  0.58399157100E+03 -0.12287373301E+04  0.19501625635E+04  0.99283034318E+03 0.  0.
         13    1    3    3    0    0 -0.11852084849E+04  0.55628747433E+03 -0.10885419380E+04  0.17026739173E+04  0.10566000000E+00 0. -1.
         -4    1    3    3    0  502  0.20206030054E+03  0.27704096676E+02 -0.14019539207E+03  0.24748864618E+03  0.00000000000E+00 0. -1.
        -13    1    1    2    0    0  0.98314818435E+03 -0.58399157100E+03  0.40289725894E+03  0.12124160671E+04  0.10566000000E+00 0.  1.
<mgrwt>
<rscale>  1 0.14116793E+04</rscale>
<asrwt>0</asrwt>
<pdfrwt beam="2">  1       21 0.30680143E+00 0.15143773E+04</pdfrwt>
<pdfrwt beam="1">  1       -4 0.17974912E+00 0.15143773E+04</pdfrwt>
<totfact> 0.15199991E-01</totfact>
</mgrwt>
</event>
<event>
 6    2  0.2220137E-005  0.1001944E+04  0.7818608E-02  0.1004738E+00
         21   -1    0    0  501  502  0.00000000000E+00  0.00000000000E+00  0.97465041289E+03  0.97465041289E+03  0.00000000000E+00 0. -1.
         -4   -1    0    0    0  501 -0.00000000000E+00 -0.00000000000E+00 -0.30626402216E+03  0.30626402216E+03  0.00000000000E+00 0. -1.
   -9000010    2    1    2    0  502 -0.65567370118E+02  0.49551123290E+02  0.65651989451E+03  0.11978769812E+04  0.99856722177E+03 0.  0.
         13    1    3    3    0    0 -0.56648781615E+02  0.31014129732E+03  0.82787085123E+03  0.88587068257E+03  0.10566000000E+00 0. -1.
         -4    1    3    3    0  502 -0.89185885029E+01 -0.26059017403E+03 -0.17135095672E+03  0.31200629864E+03  0.00000000000E+00 0. -1.
        -13    1    1    2    0    0  0.65567370118E+02 -0.49551123290E+02  0.11866496220E+02  0.83037453839E+02  0.10566000000E+00 0.  1.
<mgrwt>
<rscale>  1 0.53620496E+03</rscale>
<asrwt>0</asrwt>
<pdfrwt beam="1">  1       21 0.14994622E+00 0.10019436E+04</pdfrwt>
<pdfrwt beam="2">  1       -4 0.47117542E-01 0.10019436E+04</pdfrwt>
<totfact> 0.47392604E+01</totfact>
</mgrwt>
</event>
<event>
 6    2  0.2220137E-005  0.1020930E+04  0.7818608E-02  0.9857250E-01
         21   -1    0    0  501  502  0.00000000000E+00  0.00000000000E+00  0.41647697226E+03  0.41647697226E+03  0.00000000000E+00 0. -1.
         -4   -1    0    0    0  501 -0.00000000000E+00 -0.00000000000E+00 -0.93923546789E+03  0.93923546789E+03  0.00000000000E+00 0. -1.
   -9000010    2    1    2    0  502  0.87764652892E+01 -0.14201270992E+03 -0.25468326919E+03  0.10522178367E+04  0.10109669491E+04 0.  0.
         13    1    3    3    0    0 -0.18306241098E+03 -0.20894701205E+03  0.33109819607E+03  0.43219986900E+03  0.10566000000E+00 0. -1.
         -4    1    3    3    0  502  0.19183887627E+03  0.66934302128E+02 -0.58578146526E+03  0.62001796772E+03  0.00000000000E+00 0. -1.
        -13    1    1    2    0    0 -0.87764652892E+01  0.14201270992E+03 -0.26807522644E+03  0.30349460344E+03  0.10566000000E+00 0.  1.
<mgrwt>
<rscale>  1 0.62378635E+03</rscale>
<asrwt>0</asrwt>
<pdfrwt beam="1">  1       21 0.64073381E-01 0.10209304E+04</pdfrwt>
<pdfrwt beam="2">  1       -4 0.14449776E+00 0.10209304E+04</pdfrwt>
<totfact> 0.28642312E+01</totfact>
</mgrwt>
</event>
<event>
 6    2  0.2220137E-005  0.1014465E+04  0.7818608E-02  0.9904175E-01
         -4   -1    0    0    0  501 -0.00000000000E+00  0.00000000000E+00  0.13685430856E+04  0.13685430856E+04  0.00000000000E+00 0. -1.
         21   -1    0    0  501  502  0.00000000000E+00 -0.00000000000E+00 -0.23793546327E+03  0.23793546327E+03  0.00000000000E+00 0. -1.
   -9000010    2    1    2    0  502  0.12441036560E+03 -0.73407004099E+01  0.10362915885E+04  0.14501860335E+04  0.10067807360E+04 0.  0.
         13    1    3    3    0    0  0.43906735898E+03  0.23708117034E+03  0.22713116485E+03  0.54824830530E+03  0.10566000000E+00 0. -1.
         -4    1    3    3    0  502 -0.31465699338E+03 -0.24442187075E+03  0.80916042362E+03  0.90193772819E+03  0.00000000000E+00 0. -1.
        -13    1    1    2    0    0 -0.12441036560E+03  0.73407004099E+01  0.94316033810E+02  0.15629251534E+03  0.10566000000E+00 0.  1.
<mgrwt>
<rscale>  1 0.60059362E+03</rscale>
<asrwt>0</asrwt>
<pdfrwt beam="2">  1       21 0.36605457E-01 0.10144650E+04</pdfrwt>
<pdfrwt beam="1">  1       -4 0.21054509E+00 0.10144650E+04</pdfrwt>
<totfact> 0.32569934E+01</totfact>
</mgrwt>
</event>
<event>
 6    2  0.2220137E-005  0.1003074E+04  0.7818608E-02  0.9930181E-01
         -4   -1    0    0    0  501 -0.00000000000E+00  0.00000000000E+00  0.61930797620E+03  0.61930797620E+03  0.00000000000E+00 0. -1.
         21   -1    0    0  501  502  0.00000000000E+00 -0.00000000000E+00 -0.55864589789E+03  0.55864589789E+03  0.00000000000E+00 0. -1.
   -9000010    2    1    2    0  502  0.10687008632E+03 -0.51448441714E+02 -0.64971915019E+02  0.10051763612E+04  0.99603715288E+03 0.  0.
         13    1    3    3    0    0 -0.24153982301E+03 -0.37943247152E+03 -0.22196898742E+03  0.50157823825E+03  0.10566000000E+00 0. -1.
         -4    1    3    3    0  502  0.34840990934E+03  0.32798402980E+03  0.15699707240E+03  0.50359812298E+03  0.00000000000E+00 0. -1.
        -13    1    1    2    0    0 -0.10687008632E+03  0.51448441714E+02  0.12563399333E+03  0.17277751286E+03  0.10566000000E+00 0.  1.
<mgrwt>
<rscale>  1 0.58820612E+03</rscale>
<asrwt>0</asrwt>
<pdfrwt beam="2">  1       21 0.85945523E-01 0.10030744E+04</pdfrwt>
<pdfrwt beam="1">  1       -4 0.95278150E-01 0.10030744E+04</pdfrwt>
<totfact> 0.41252153E+01</totfact>
</mgrwt>
</event>
<event>
 6    2  0.2220137E-005  0.1141380E+04  0.7818608E-02  0.9381028E-01
         -4   -1    0    0    0  501 -0.00000000000E+00  0.00000000000E+00  0.73410007673E+03  0.73410007673E+03  0.00000000000E+00 0. -1.
         21   -1    0    0  501  502  0.00000000000E+00 -0.00000000000E+00 -0.93707099322E+03  0.93707099322E+03  0.00000000000E+00 0. -1.
   -9000010    2    1    2    0  502 -0.51324100336E+03 -0.65275133077E+02 -0.13403046137E+03  0.11492228273E+04  0.10173847707E+04 0.  0.
         13    1    3    3    0    0  0.21477590316E+03  0.26229766167E+03  0.41328661701E+01  0.33903664056E+03  0.10566000000E+00 0. -1.
         -4    1    3    3    0  502 -0.72801690652E+03 -0.32757279475E+03 -0.13816332754E+03  0.81018618669E+03  0.00000000000E+00 0. -1.
        -13    1    1    2    0    0  0.51324100336E+03  0.65275133077E+02 -0.68940455128E+02  0.52194824269E+03  0.10566000000E+00 0.  1.
<mgrwt>
<rscale>  1 0.93653551E+03</rscale>
<asrwt>0</asrwt>
<pdfrwt beam="2">  1       21 0.14416477E+00 0.11413803E+04</pdfrwt>
<pdfrwt beam="1">  1       -4 0.11293847E+00 0.11413803E+04</pdfrwt>
<totfact> 0.71702860E+00</totfact>
</mgrwt>
</event>
<event>
 6    2  0.2220137E-005  0.1026973E+04  0.7818608E-02  0.9715776E-01
         21   -1    0    0  501  502  0.00000000000E+00  0.00000000000E+00  0.12047656820E+04  0.12047656820E+04  0.00000000000E+00 0. -1.
         -4   -1    0    0    0  501 -0.00000000000E+00 -0.00000000000E+00 -0.72520168632E+03  0.72520168632E+03  0.00000000000E+00 0. -1.
   -9000010    2    1    2    0  502 -0.10851926424E+03  0.19453382611E+03  0.95660314049E+03  0.14034826134E+04  0.10025238339E+04 0.  0.
         13    1    3    3    0    0 -0.46503196565E+03  0.39738720012E+03  0.50323832899E+03  0.79209856889E+03  0.10566000000E+00 0. -1.
         -4    1    3    3    0  502  0.35651270142E+03 -0.20285337401E+03  0.45336481150E+03  0.61138404455E+03  0.00000000000E+00 0. -1.
        -13    1    1    2    0    0  0.10851926424E+03 -0.19453382611E+03 -0.47703914485E+03  0.52648475485E+03  0.10566000000E+00 0.  1.
<mgrwt>
<rscale>  1 0.70085190E+03</rscale>
<asrwt>0</asrwt>
<pdfrwt beam="1">  1       21 0.18534857E+00 0.10269732E+04</pdfrwt>
<pdfrwt beam="2">  1       -4 0.11156949E+00 0.10269732E+04</pdfrwt>
<totfact> 0.36218632E+00</totfact>
</mgrwt>
</event>
<event>
 6    2  0.2220137E-005  0.1058971E+04  0.7818608E-02  0.9579011E-01
         21   -1    0    0  501  502  0.00000000000E+00  0.00000000000E+00  0.84637609480E+03  0.84637609480E+03  0.00000000000E+00 0.  1.
         -4   -1    0    0    0  501 -0.00000000000E+00 -0.00000000000E+00 -0.62078748448E+03  0.62078748448E+03  0.00000000000E+00 0. -1.
   -9000010    2    1    2    0  502 -0.28644933483E+03 -0.14936022664E+03  0.35825983692E+03  0.11179310432E+04  0.10084929389E+04 0.  0.
         13    1    3    3    0    0 -0.55905904230E+03 -0.25831090243E+03 -0.46851279169E+02  0.61762981519E+03  0.10566000000E+00 0. -1.
         -4    1    3    3    0  502  0.27260970747E+03  0.10895067579E+03  0.40511111609E+03  0.50030122800E+03  0.00000000000E+00 0. -1.
        -13    1    1    2    0    0  0.28644933483E+03  0.14936022664E+03 -0.13267122659E+03  0.34923253608E+03  0.10566000000E+00 0.  1.
<mgrwt>
<rscale>  1 0.78701085E+03</rscale>
<asrwt>0</asrwt>
<pdfrwt beam="1">  1       21 0.13021171E+00 0.10589711E+04</pdfrwt>
<pdfrwt beam="2">  1       -4 0.95505767E-01 0.10589711E+04</pdfrwt>
<totfact> 0.14339230E+01</totfact>
</mgrwt>
</event>
<event>
 6    2  0.2220137E-005  0.1015133E+04  0.7818608E-02  0.9779307E-01
         -4   -1    0    0    0  501 -0.00000000000E+00  0.00000000000E+00  0.85802913144E+03  0.85802913144E+03  0.00000000000E+00 0. -1.
         21   -1    0    0  501  502  0.00000000000E+00 -0.00000000000E+00 -0.66247846854E+03  0.66247846854E+03  0.00000000000E+00 0. -1.
   -9000010    2    1    2    0  502 -0.16840765759E+03  0.80775348314E+02 -0.24302322084E+03  0.10438181217E+04  0.99780268056E+03 0.  0.
         13    1    3    3    0    0 -0.52600498423E+02 -0.44432627480E+03 -0.23643518862E+03  0.50605756638E+03  0.10566000000E+00 0. -1.
         -4    1    3    3    0  502 -0.11580715916E+03  0.52510162311E+03 -0.65880322137E+01  0.53776055534E+03  0.00000000000E+00 0. -1.
        -13    1    1    2    0    0  0.16840765759E+03 -0.80775348314E+02  0.43857388374E+03  0.47668947827E+03  0.10566000000E+00 0.  1.
<mgrwt>
<rscale>  1 0.66484968E+03</rscale>
<asrwt>0</asrwt>
<pdfrwt beam="2">  1       21 0.10191976E+00 0.10151335E+04</pdfrwt>
<pdfrwt beam="1">  1       -4 0.13200448E+00 0.10151335E+04</pdfrwt>
<totfact> 0.12123531E+01</totfact>
</mgrwt>
</event>
<event>
 6    2  0.2220137E-005  0.9978187E+03  0.7818608E-02  0.1026765E+00
         21   -1    0    0  501  502  0.00000000000E+00  0.00000000000E+00  0.63796938746E+03  0.63796938746E+03  0.00000000000E+00 0. -1.
         -4   -1    0    0    0  501 -0.00000000000E+00 -0.00000000000E+00 -0.53362376822E+03  0.53362376822E+03  0.00000000000E+00 0. -1.
   -9000010    2    1    2    0  502  0.17695737849E+02 -0.38608533090E+02  0.24266328984E+03  0.10269019427E+04  0.99691442442E+03 0.  0.
         13    1    3    3    0    0 -0.24234185600E+03 -0.14203104271E+03  0.54610739982E+03  0.61411374807E+03  0.10566000000E+00 0. -1.
         -4    1    3    3    0  502  0.26003759385E+03  0.10342250962E+03 -0.30344410998E+03  0.41278819459E+03  0.00000000000E+00 0. -1.
        -13    1    1    2    0    0 -0.17695737849E+02  0.38608533090E+02 -0.13831767059E+03  0.14469121303E+03  0.10566000000E+00 0.  1.
<mgrwt>
<rscale>  1 0.45322238E+03</rscale>
<asrwt>0</asrwt>
<pdfrwt beam="1">  1       21 0.98149137E-01 0.99781868E+03</pdfrwt>
<pdfrwt beam="2">  1       -4 0.82095964E-01 0.99781868E+03</pdfrwt>
<totfact> 0.42401783E+01</totfact>
</mgrwt>
</event>
<event>
 6    2  0.2220137E-005  0.1071723E+04  0.7818608E-02  0.9542917E-01
         21   -1    0    0  501  502  0.00000000000E+00  0.00000000000E+00  0.55171951809E+03  0.55171951809E+03  0.00000000000E+00 0. -1.
         -4   -1    0    0    0  501 -0.00000000000E+00 -0.00000000000E+00 -0.11405075221E+04  0.11405075221E+04  0.00000000000E+00 0. -1.
   -9000010    2    1    2    0  502  0.26792657212E+02  0.35201346805E+03 -0.82345498010E+02  0.10748816335E+04  0.10119083045E+04 0.  0.
         13    1    3    3    0    0  0.10153781353E+03  0.34670042124E+03 -0.51871748861E+03  0.63212257816E+03  0.10566000000E+00 0. -1.
         -4    1    3    3    0  502 -0.74745156315E+02  0.53130468061E+01  0.43637199060E+03  0.44275905529E+03  0.00000000000E+00 0. -1.
        -13    1    1    2    0    0 -0.26792657212E+02 -0.35201346805E+03 -0.50644250600E+03  0.61734540673E+03  0.10566000000E+00 0.  1.
<mgrwt>
<rscale>  1 0.81192377E+03</rscale>
<asrwt>0</asrwt>
<pdfrwt beam="1">  1       21 0.84879927E-01 0.10717228E+04</pdfrwt>
<pdfrwt beam="2">  1       -4 0.17546269E+00 0.10717228E+04</pdfrwt>
<totfact> 0.87035018E+00</totfact>
</mgrwt>
</event>
<event>
 6    2  0.2220137E-005  0.1014803E+04  0.7818608E-02  0.9932377E-01
         -4   -1    0    0    0  501 -0.00000000000E+00  0.00000000000E+00  0.83806843730E+03  0.83806843730E+03  0.00000000000E+00 0. -1.
         21   -1    0    0  501  502  0.00000000000E+00 -0.00000000000E+00 -0.38688248656E+03  0.38688248656E+03  0.00000000000E+00 0. -1.
   -9000010    2    1    2    0  502  0.62301524254E+02 -0.95163247599E+02  0.35224889866E+03  0.10741992239E+04  0.10084082320E+04 0.  0.
         13    1    3    3    0    0  0.66066564737E+02 -0.25043293259E+03 -0.30425948161E+03  0.39956887769E+03  0.10566000000E+00 0. -1.
         -4    1    3    3    0  502 -0.37650404824E+01  0.15526968499E+03  0.65650838027E+03  0.67463034617E+03  0.00000000000E+00 0. -1.
        -13    1    1    2    0    0 -0.62301524254E+02  0.95163247599E+02  0.98937052078E+02  0.15075170001E+03  0.10566000000E+00 0.  1.
<mgrwt>
<rscale>  1 0.58717516E+03</rscale>
<asrwt>0</asrwt>
<pdfrwt beam="2">  1       21 0.59520383E-01 0.10148028E+04</pdfrwt>
<pdfrwt beam="1">  1       -4 0.12893361E+00 0.10148028E+04</pdfrwt>
<totfact> 0.45504433E+01</totfact>
</mgrwt>
</event>
<event>
 6    2  0.2220137E-005  0.1019223E+04  0.7818608E-02  0.9949029E-01
         -4   -1    0    0    0  501 -0.00000000000E+00  0.00000000000E+00  0.45352526537E+03  0.45352526537E+03  0.00000000000E+00 0. -1.
         21   -1    0    0  501  502  0.00000000000E+00 -0.00000000000E+00 -0.69855424089E+03  0.69855424089E+03  0.00000000000E+00 0. -1.
   -9000010    2    1    2    0  502 -0.38979602162E+02 -0.99068672504E+02 -0.22456237805E+03  0.10436686948E+04  0.10136479032E+04 0.  0.
         13    1    3    3    0    0 -0.50245297798E+03 -0.14176404114E+03 -0.24729702892E+03  0.57767799864E+03  0.10566000000E+00 0. -1.
         -4    1    3    3    0  502  0.46347337581E+03  0.42695368634E+02  0.22734650870E+02  0.46599069620E+03  0.00000000000E+00 0. -1.
        -13    1    1    2    0    0  0.38979602162E+02  0.99068672504E+02 -0.20466597463E+02  0.10841081142E+03  0.10566000000E+00 0.  1.
<mgrwt>
<rscale>  1 0.57942871E+03</rscale>
<asrwt>0</asrwt>
<pdfrwt beam="2">  1       21 0.10746988E+00 0.10192233E+04</pdfrwt>
<pdfrwt beam="1">  1       -4 0.69773118E-01 0.10192233E+04</pdfrwt>
<totfact> 0.48835835E+01</totfact>
</mgrwt>
</event>
<event>
 6    2  0.2220137E-005  0.9991997E+03  0.7818608E-02  0.9959836E-01
         21   -1    0    0  501  502  0.00000000000E+00  0.00000000000E+00  0.45093703370E+03  0.45093703370E+03  0.00000000000E+00 0. -1.
         -4   -1    0    0    0  501 -0.00000000000E+00 -0.00000000000E+00 -0.97897771144E+03  0.97897771144E+03  0.00000000000E+00 0. -1.
   -9000010    2    1    2    0  502  0.80050525594E+02 -0.74232331748E+02 -0.11865236452E+03  0.10062198928E+04  0.99321778243E+03 0.  0.
         13    1    3    3    0    0 -0.30626480463E+03 -0.22675404917E+03  0.24595566088E+03  0.45355234279E+03  0.10566000000E+00 0. -1.
         -4    1    3    3    0  502  0.38631533023E+03  0.15252171742E+03 -0.36460802539E+03  0.55266755001E+03  0.00000000000E+00 0. -1.
        -13    1    1    2    0    0 -0.80050525594E+02  0.74232331748E+02 -0.40938831322E+03  0.42369485233E+03  0.10566000000E+00 0.  1.
<mgrwt>
<rscale>  1 0.57446966E+03</rscale>
<asrwt>0</asrwt>
<pdfrwt beam="1">  1       21 0.69374928E-01 0.99919972E+03</pdfrwt>
<pdfrwt beam="2">  1       -4 0.15061196E+00 0.99919972E+03</pdfrwt>
<totfact> 0.21447290E+01</totfact>
</mgrwt>
</event>
<event>
 6    2  0.2220137E-005  0.7399789E+03  0.7818608E-02  0.1040317E+00
         21   -1    0    0  501  502  0.00000000000E+00  0.00000000000E+00  0.22825944721E+03  0.22825944721E+03  0.00000000000E+00 0. -1.
         -4   -1    0    0    0  501 -0.00000000000E+00 -0.00000000000E+00 -0.71854465105E+03  0.71854465105E+03  0.00000000000E+00 0. -1.
   -9000010    2    1    2    0  502  0.40512751908E+02 -0.56899821029E+02 -0.45297979998E+03  0.86761712319E+03  0.73667489476E+03 0.  0.
         13    1    3    3    0    0 -0.28689686278E+03  0.13547445859E+03 -0.35362120061E+03  0.47509062661E+03  0.10566000000E+00 0. -1.
         -4    1    3    3    0  502  0.32740961469E+03 -0.19237427962E+03 -0.99358599378E+02  0.39252649659E+03  0.00000000000E+00 0. -1.
        -13    1    1    2    0    0 -0.40512751908E+02  0.56899821029E+02 -0.37305403855E+02  0.79186975072E+02  0.10566000000E+00 0.  1.
<mgrwt>
<rscale>  1 0.41016124E+03</rscale>
<asrwt>0</asrwt>
<pdfrwt beam="1">  1       21 0.35116838E-01 0.73997890E+03</pdfrwt>
<pdfrwt beam="2">  1       -4 0.11054533E+00 0.73997890E+03</pdfrwt>
<totfact> 0.21015239E+02</totfact>
</mgrwt>
</event>
<event>
 6    2  0.2220137E-005  0.9882893E+03  0.7818608E-02  0.1032224E+00
         -4   -1    0    0    0  501 -0.00000000000E+00  0.00000000000E+00  0.22544255582E+03  0.22544255582E+03  0.00000000000E+00 0. -1.
         21   -1    0    0  501  502  0.00000000000E+00 -0.00000000000E+00 -0.11996087115E+04  0.11996087115E+04  0.00000000000E+00 0. -1.
   -9000010    2    1    2    0  502  0.21900108050E+02  0.30032013668E+02 -0.87806035470E+03  0.13220082049E+04  0.98759008228E+03 0.  0.
         13    1    3    3    0    0  0.24268189278E+03  0.56010946444E+02  0.13606355452E+03  0.28380456169E+03  0.10566000000E+00 0. -1.
         -4    1    3    3    0  502 -0.22078178473E+03 -0.25978932776E+02 -0.10141239092E+04  0.10382036432E+04  0.00000000000E+00 0. -1.
        -13    1    1    2    0    0 -0.21900108050E+02 -0.30032013668E+02 -0.96105800965E+02  0.10304306246E+03  0.10566000000E+00 0.  1.
<mgrwt>
<rscale>  1 0.43522001E+03</rscale>
<asrwt>0</asrwt>
<pdfrwt beam="2">  1       21 0.18455519E+00 0.98828928E+03</pdfrwt>
<pdfrwt beam="1">  1       -4 0.34683469E-01 0.98828928E+03</pdfrwt>
<totfact> 0.48517301E+01</totfact>
</mgrwt>
</event>
<event>
 6    2  0.2220137E-005  0.9961121E+03  0.7818608E-02  0.9813004E-01
         21   -1    0    0  501  502  0.00000000000E+00  0.00000000000E+00  0.33609875452E+03  0.33609875452E+03  0.00000000000E+00 0. -1.
         -4   -1    0    0    0  501 -0.00000000000E+00 -0.00000000000E+00 -0.14721851690E+04  0.14721851690E+04  0.00000000000E+00 0. -1.
   -9000010    2    1    2    0  502 -0.16187508374E+03 -0.71486490863E+02 -0.43806640991E+03  0.10881826813E+04  0.98026807929E+03 0.  0.
         13    1    3    3    0    0 -0.17122597742E+03 -0.35428661757E+03 -0.63246616518E+03  0.74488308076E+03  0.10566000000E+00 0. -1.
         -4    1    3    3    0  502  0.93508936773E+01  0.28280012671E+03  0.19439975527E+03  0.34329960054E+03  0.00000000000E+00 0. -1.
        -13    1    1    2    0    0  0.16187508374E+03  0.71486490863E+02 -0.69802000455E+03  0.72010124220E+03  0.10566000000E+00 0.  1.
<mgrwt>
<rscale>  1 0.64669316E+03</rscale>
<asrwt>0</asrwt>
<pdfrwt beam="1">  1       21 0.51707501E-01 0.99611213E+03</pdfrwt>
<pdfrwt beam="2">  1       -4 0.22649003E+00 0.99611213E+03</pdfrwt>
<totfact> 0.12408053E+01</totfact>
</mgrwt>
</event>
<event>
 6    2  0.2220137E-005  0.1342538E+04  0.7818608E-02  0.9103131E-01
         21   -1    0    0  501  502  0.00000000000E+00  0.00000000000E+00  0.62662918630E+03  0.62662918630E+03  0.00000000000E+00 0.  1.
         -4   -1    0    0    0  501 -0.00000000000E+00 -0.00000000000E+00 -0.19874066171E+04  0.19874066171E+04  0.00000000000E+00 0. -1.
   -9000010    2    1    2    0  502  0.24301233260E+03 -0.85544840592E+03 -0.82978586555E+03  0.15782756851E+04  0.10057646776E+04 0.  0.
         13    1    3    3    0    0  0.55354230096E+03 -0.77871537503E+03 -0.38419964647E+03  0.10297650673E+04  0.10566000000E+00 0. -1.
         -4    1    3    3    0  502 -0.31052996836E+03 -0.76733030891E+02 -0.44558621907E+03  0.54851061786E+03  0.00000000000E+00 0. -1.
        -13    1    1    2    0    0 -0.24301233260E+03  0.85544840592E+03 -0.53099156521E+03  0.10357601182E+04  0.10566000000E+00 0.  1.
<mgrwt>
<rscale>  1 0.12111744E+04</rscale>
<asrwt>0</asrwt>
<pdfrwt beam="1">  1       21 0.96404490E-01 0.13425385E+04</pdfrwt>
<pdfrwt beam="2">  1       -4 0.30575486E+00 0.13425385E+04</pdfrwt>
<totfact> 0.90710303E-01</totfact>
</mgrwt>
</event>
<event>
 6    2  0.2220137E-005  0.1034696E+04  0.7818608E-02  0.9705403E-01
         -4   -1    0    0    0  501 -0.00000000000E+00  0.00000000000E+00  0.11334589223E+04  0.11334589223E+04  0.00000000000E+00 0. -1.
         21   -1    0    0  501  502  0.00000000000E+00 -0.00000000000E+00 -0.35424082831E+03  0.35424082831E+03  0.00000000000E+00 0. -1.
   -9000010    2    1    2    0  502 -0.14992346759E+03 -0.16843991795E+03  0.57641105313E+03  0.11844181008E+04  0.10098254717E+04 0.  0.
         13    1    3    3    0    0  0.69081909089E+02  0.39663767394E+03  0.10348669515E+03  0.41569611712E+03  0.10566000000E+00 0. -1.
         -4    1    3    3    0  502 -0.21900537668E+03 -0.56507759189E+03  0.47292435798E+03  0.76872198371E+03  0.00000000000E+00 0. -1.
        -13    1    1    2    0    0  0.14992346759E+03  0.16843991795E+03  0.20280704083E+03  0.30328164973E+03  0.10566000000E+00 0.  1.
<mgrwt>
<rscale>  1 0.70696035E+03</rscale>
<asrwt>0</asrwt>
<pdfrwt beam="2">  1       21 0.54498589E-01 0.10346963E+04</pdfrwt>
<pdfrwt beam="1">  1       -4 0.17437829E+00 0.10346963E+04</pdfrwt>
<totfact> 0.24466789E+01</totfact>
</mgrwt>
</event>
<event>
 6    2  0.2220137E-005  0.1149116E+04  0.7818608E-02  0.9365126E-01
         -4   -1    0    0    0  501 -0.00000000000E+00  0.00000000000E+00  0.11964803450E+04  0.11964803450E+04  0.00000000000E+00 0. -1.
         21   -1    0    0  501  502  0.00000000000E+00 -0.00000000000E+00 -0.70395595057E+03  0.70395595057E+03  0.00000000000E+00 0. -1.
   -9000010    2    1    2    0  502 -0.13396250285E+02  0.53666896488E+03 -0.32452839146E+02  0.11495740284E+04  0.10160089677E+04 0.  0.
         13    1    3    3    0    0  0.30877359156E+03 -0.25893885078E+02 -0.31548367747E+03  0.44220084356E+03  0.10566000000E+00 0. -1.
         -4    1    3    3    0  502 -0.32216984185E+03  0.56256284995E+03  0.28303083832E+03  0.70737318481E+03  0.00000000000E+00 0. -1.
        -13    1    1    2    0    0  0.13396250285E+02 -0.53666896488E+03  0.52497723361E+03  0.75086226723E+03  0.10566000000E+00 0.  1.
<mgrwt>
<rscale>  1 0.95002121E+03</rscale>
<asrwt>0</asrwt>
<pdfrwt beam="2">  1       21 0.10830091E+00 0.11491159E+04</pdfrwt>
<pdfrwt beam="1">  1       -4 0.18407390E+00 0.11491159E+04</pdfrwt>
<totfact> 0.41239471E+00</totfact>
</mgrwt>
</event>
<event>
 6    2  0.2220137E-005  0.1027802E+04  0.7818608E-02  0.9595155E-01
         -4   -1    0    0    0  501 -0.00000000000E+00  0.00000000000E+00  0.72260744624E+03  0.72260744624E+03  0.00000000000E+00 0. -1.
         21   -1    0    0  501  502  0.00000000000E+00 -0.00000000000E+00 -0.74846958144E+03  0.74846958144E+03  0.00000000000E+00 0. -1.
   -9000010    2    1    2    0  502  0.29243729474E+03  0.16194319201E+03 -0.26337083208E+03  0.10610092759E+04  0.97192145749E+03 0.  0.
         13    1    3    3    0    0  0.47516175944E+03  0.65002420519E+02 -0.53571242126E+03  0.71902143345E+03  0.10566000000E+00 0. -1.
         -4    1    3    3    0  502 -0.18272446469E+03  0.96940771495E+02  0.27234158918E+03  0.34198784244E+03  0.00000000000E+00 0. -1.
        -13    1    1    2    0    0 -0.29243729474E+03 -0.16194319201E+03  0.23750869688E+03  0.41006775179E+03  0.10566000000E+00 0.  1.
<mgrwt>
<rscale>  1 0.77617674E+03</rscale>
<asrwt>0</asrwt>
<pdfrwt beam="2">  1       21 0.11514917E+00 0.10278018E+04</pdfrwt>
<pdfrwt beam="1">  1       -4 0.11117038E+00 0.10278018E+04</pdfrwt>
<totfact> 0.13716167E+01</totfact>
</mgrwt>
</event>
<event>
 6    2  0.2220137E-005  0.1021498E+04  0.7818608E-02  0.9752552E-01
         21   -1    0    0  501  502  0.00000000000E+00  0.00000000000E+00  0.68727142940E+03  0.68727142940E+03  0.00000000000E+00 0. -1.
         -4   -1    0    0    0  501 -0.00000000000E+00 -0.00000000000E+00 -0.54498100290E+03  0.54498100290E+03  0.00000000000E+00 0. -1.
   -9000010    2    1    2    0  502 -0.19900575482E+03 -0.22454599054E+02  0.91146794261E+02  0.10255565645E+04  0.10016741134E+04 0.  0.
         13    1    3    3    0    0  0.10957156305E+01 -0.15184570702E+03 -0.42810487826E+03  0.45423795228E+03  0.10566000000E+00 0. -1.
         -4    1    3    3    0  502 -0.20010147045E+03  0.12939110797E+03  0.51925167252E+03  0.57131861226E+03  0.00000000000E+00 0. -1.
        -13    1    1    2    0    0  0.19900575482E+03  0.22454599054E+02  0.51143632243E+02  0.20669586777E+03  0.10566000000E+00 0.  1.
<mgrwt>
<rscale>  1 0.67972222E+03</rscale>
<asrwt>0</asrwt>
<pdfrwt beam="1">  1       21 0.10573407E+00 0.10214982E+04</pdfrwt>
<pdfrwt beam="2">  1       -4 0.83843231E-01 0.10214982E+04</pdfrwt>
<totfact> 0.33472990E+01</totfact>
</mgrwt>
</event>
<event>
 6    2  0.2220137E-005  0.1009667E+04  0.7818608E-02  0.9678775E-01
         -4   -1    0    0    0  501 -0.00000000000E+00  0.00000000000E+00  0.30076483300E+03  0.30076483300E+03  0.00000000000E+00 0. -1.
         21   -1    0    0  501  502  0.00000000000E+00 -0.00000000000E+00 -0.13966956094E+04  0.13966956094E+04  0.00000000000E+00 0. -1.
   -9000010    2    1    2    0  502  0.62007317641E+02 -0.25804810229E+03 -0.98262002638E+03  0.14088897097E+04  0.97416341926E+03 0.  0.
         13    1    3    3    0    0  0.50563266582E+03 -0.43636452721E+02 -0.59449427898E+03  0.78165976720E+03  0.10566000000E+00 0. -1.
         -4    1    3    3    0  502 -0.44362534818E+03 -0.21441164957E+03 -0.38812574740E+03  0.62722994254E+03  0.00000000000E+00 0. -1.
        -13    1    1    2    0    0 -0.62007317641E+02  0.25804810229E+03 -0.11331075005E+03  0.28857073271E+03  0.10566000000E+00 0.  1.
<mgrwt>
<rscale>  1 0.72294677E+03</rscale>
<asrwt>0</asrwt>
<pdfrwt beam="2">  1       21 0.21487625E+00 0.10096673E+04</pdfrwt>
<pdfrwt beam="1">  1       -4 0.46271512E-01 0.10096673E+04</pdfrwt>
<totfact> 0.16614621E+01</totfact>
</mgrwt>
</event>
<event>
 6    2  0.2220137E-005  0.1042119E+04  0.7818608E-02  0.9622772E-01
         21   -1    0    0  501  502  0.00000000000E+00  0.00000000000E+00  0.50363730061E+03  0.50363730061E+03  0.00000000000E+00 0. -1.
         -4   -1    0    0    0  501 -0.00000000000E+00 -0.00000000000E+00 -0.13166351142E+04  0.13166351142E+04  0.00000000000E+00 0. -1.
   -9000010    2    1    2    0  502  0.21082304440E+03 -0.20174847744E+03 -0.96433259561E+02  0.10465711964E+04  0.10004314526E+04 0.  0.
         13    1    3    3    0    0  0.44159074922E+03 -0.97787936038E+02  0.32362975858E+03  0.55614845323E+03  0.10566000000E+00 0. -1.
         -4    1    3    3    0  502 -0.23076770482E+03 -0.10396054141E+03 -0.42006301814E+03  0.49042274312E+03  0.00000000000E+00 0. -1.
        -13    1    1    2    0    0 -0.21082304440E+03  0.20174847744E+03 -0.71656455407E+03  0.77370121850E+03  0.10566000000E+00 0.  1.
<mgrwt>
<rscale>  1 0.75807172E+03</rscale>
<asrwt>0</asrwt>
<pdfrwt beam="1">  1       21 0.77482662E-01 0.10421189E+04</pdfrwt>
<pdfrwt beam="2">  1       -4 0.20255925E+00 0.10421189E+04</pdfrwt>
<totfact> 0.70780650E+00</totfact>
</mgrwt>
</event>
<event>
 6    2  0.2220137E-005  0.1091894E+04  0.7818608E-02  0.9603003E-01
         21   -1    0    0  501  502  0.00000000000E+00  0.00000000000E+00  0.25728510987E+03  0.25728510987E+03  0.00000000000E+00 0. -1.
         -4   -1    0    0    0  501 -0.00000000000E+00 -0.00000000000E+00 -0.18203918433E+04  0.18203918433E+04  0.00000000000E+00 0. -1.
   -9000010    2    1    2    0  502 -0.14945077737E+03  0.22655589284E+03 -0.11741821481E+04  0.16034138915E+04  0.10576243582E+04 0.  0.
         13    1    3    3    0    0 -0.17817330028E+03  0.14988895089E+03 -0.13707991411E+04  0.13904325654E+04  0.10566000000E+00 0. -1.
         -4    1    3    3    0  502  0.28722522907E+02  0.76666941953E+02  0.19661699302E+03  0.21298132607E+03  0.00000000000E+00 0. -1.
        -13    1    1    2    0    0  0.14945077737E+03 -0.22655589284E+03 -0.38892458533E+03  0.47426306168E+03  0.10566000000E+00 0.  1.
<mgrwt>
<rscale>  1 0.77097733E+03</rscale>
<asrwt>0</asrwt>
<pdfrwt beam="1">  1       21 0.39582326E-01 0.10918939E+04</pdfrwt>
<pdfrwt beam="2">  1       -4 0.28006027E+00 0.10918939E+04</pdfrwt>
<totfact> 0.10091454E+01</totfact>
</mgrwt>
</event>
<event>
 6    2  0.2220137E-005  0.7238652E+03  0.7818608E-02  0.1051925E+00
         -4   -1    0    0    0  501 -0.00000000000E+00  0.00000000000E+00  0.17055998895E+03  0.17055998895E+03  0.00000000000E+00 0. -1.
         21   -1    0    0  501  502  0.00000000000E+00 -0.00000000000E+00 -0.88645045291E+03  0.88645045291E+03  0.00000000000E+00 0. -1.
   -9000010    2    1    2    0  502  0.16147650752E+02  0.50947954421E+02 -0.67452838142E+03  0.98942883400E+03  0.72188949261E+03 0.  0.
         13    1    3    3    0    0  0.78342071562E+02  0.10709454941E+03 -0.81507301822E+03  0.82580309934E+03  0.10566000000E+00 0. -1.
         -4    1    3    3    0  502 -0.62194420810E+02 -0.56146594987E+02  0.14054463680E+03  0.16362573466E+03  0.00000000000E+00 0. -1.
        -13    1    1    2    0    0 -0.16147650752E+02 -0.50947954421E+02 -0.41362082546E+02  0.67581607861E+02  0.10566000000E+00 0.  1.
<mgrwt>
<rscale>  1 0.37733028E+03</rscale>
<asrwt>0</asrwt>
<pdfrwt beam="2">  1       21 0.13637699E+00 0.72386524E+03</pdfrwt>
<pdfrwt beam="1">  1       -4 0.26239998E-01 0.72386524E+03</pdfrwt>
<totfact> 0.20314371E+02</totfact>
</mgrwt>
</event>
<event>
 6    2  0.2220137E-005  0.1473466E+04  0.7818608E-02  0.8981890E-01
         21   -1    0    0  501  502  0.00000000000E+00  0.00000000000E+00  0.15682145245E+04  0.15682145245E+04  0.00000000000E+00 0.  1.
         -4   -1    0    0    0  501 -0.00000000000E+00 -0.00000000000E+00 -0.10380825076E+04  0.10380825076E+04  0.00000000000E+00 0. -1.
   -9000010    2    1    2    0  502  0.86815685162E+03  0.63446121319E+03  0.24334702086E+03  0.14934255232E+04  0.10074049190E+04 0.  0.
         13    1    3    3    0    0  0.10594487694E+04  0.32394862946E+03  0.16059195050E+03  0.11194481655E+04  0.10566000000E+00 0. -1.
         -4    1    3    3    0  502 -0.19129191775E+03  0.31051258373E+03  0.82755070355E+02  0.37397735777E+03  0.00000000000E+00 0. -1.
        -13    1    1    2    0    0 -0.86815685162E+03 -0.63446121319E+03  0.28678499613E+03  0.11128715089E+04  0.10566000000E+00 0.  1.
<mgrwt>
<rscale>  1 0.13618711E+04</rscale>
<asrwt>0</asrwt>
<pdfrwt beam="1">  1       21 0.24126377E+00 0.14734660E+04</pdfrwt>
<pdfrwt beam="2">  1       -4 0.15970500E+00 0.14734660E+04</pdfrwt>
<totfact> 0.55927245E-01</totfact>
</mgrwt>
</event>
<event>
 6    2  0.2220137E-005  0.9752701E+03  0.7818608E-02  0.9779980E-01
         21   -1    0    0  501  502  0.00000000000E+00  0.00000000000E+00  0.24864207214E+03  0.24864207214E+03  0.00000000000E+00 0. -1.
         -4   -1    0    0    0  501 -0.00000000000E+00 -0.00000000000E+00 -0.15484630872E+04  0.15484630872E+04  0.00000000000E+00 0. -1.
   -9000010    2    1    2    0  502 -0.18069136359E+03  0.10732543883E+03 -0.82335632108E+03  0.12763492333E+04  0.95235687390E+03 0.  0.
         13    1    3    3    0    0 -0.50883240136E+03  0.29859743462E+03 -0.56584334230E+03  0.81746531415E+03  0.10566000000E+00 0. -1.
         -4    1    3    3    0  502  0.32814103778E+03 -0.19127199579E+03 -0.25751297878E+03  0.45888391919E+03  0.00000000000E+00 0. -1.
        -13    1    1    2    0    0  0.18069136359E+03 -0.10732543883E+03 -0.47646469397E+03  0.52075592600E+03  0.10566000000E+00 0.  1.
<mgrwt>
<rscale>  1 0.66448060E+03</rscale>
<asrwt>0</asrwt>
<pdfrwt beam="1">  1       21 0.38252626E-01 0.97527008E+03</pdfrwt>
<pdfrwt beam="2">  1       -4 0.23822509E+00 0.97527008E+03</pdfrwt>
<totfact> 0.19917322E+01</totfact>
</mgrwt>
</event>
<event>
 6    2  0.2220137E-005  0.1061551E+04  0.7818608E-02  0.9747191E-01
         21   -1    0    0  501  502  0.00000000000E+00  0.00000000000E+00  0.31796573440E+03  0.31796573440E+03  0.00000000000E+00 0. -1.
         -4   -1    0    0    0  501 -0.00000000000E+00 -0.00000000000E+00 -0.12152073845E+04  0.12152073845E+04  0.00000000000E+00 0. -1.
   -9000010    2    1    2    0  502 -0.25722700554E+02  0.17981750516E+03 -0.76869244960E+03  0.13106401986E+04  0.10458937115E+04 0.  0.
         13    1    3    3    0    0 -0.42772199688E+03  0.40055291739E+03 -0.54549774754E+03  0.80059762052E+03  0.10566000000E+00 0. -1.
         -4    1    3    3    0  502  0.40199929633E+03 -0.22073541223E+03 -0.22319470206E+03  0.51004257811E+03  0.00000000000E+00 0. -1.
        -13    1    1    2    0    0  0.25722700554E+02 -0.17981750516E+03 -0.12854920048E+03  0.22253292025E+03  0.10566000000E+00 0.  1.
<mgrwt>
<rscale>  1 0.68275241E+03</rscale>
<asrwt>0</asrwt>
<pdfrwt beam="1">  1       21 0.48917803E-01 0.10615506E+04</pdfrwt>
<pdfrwt beam="2">  1       -4 0.18695499E+00 0.10615506E+04</pdfrwt>
<totfact> 0.25225942E+01</totfact>
</mgrwt>
</event>
<event>
 6    2  0.2220137E-005  0.1323253E+04  0.7818608E-02  0.9120643E-01
         -4   -1    0    0    0  501 -0.00000000000E+00  0.00000000000E+00  0.46511076557E+03  0.46511076557E+03  0.00000000000E+00 0. -1.
         21   -1    0    0  501  502  0.00000000000E+00 -0.00000000000E+00 -0.27444788419E+04  0.27444788419E+04  0.00000000000E+00 0.  1.
   -9000010    2    1    2    0  502  0.40419007524E+03 -0.76907615947E+03 -0.98050148194E+03  0.16469309124E+04  0.99807340325E+03 0.  0.
         13    1    3    3    0    0  0.59391446688E+03 -0.64890260827E+03 -0.29854207695E+03  0.92894368606E+03  0.10566000000E+00 0. -1.
         -4    1    3    3    0  502 -0.18972439164E+03 -0.12017355119E+03 -0.68195940499E+03  0.71798722638E+03  0.00000000000E+00 0. -1.
        -13    1    1    2    0    0 -0.40419007524E+03  0.76907615947E+03 -0.12988665944E+04  0.15626586950E+04  0.10566000000E+00 0.  1.
<mgrwt>
<rscale>  1 0.11911450E+04</rscale>
<asrwt>0</asrwt>
<pdfrwt beam="2">  1       21 0.42222752E+00 0.13232529E+04</pdfrwt>
<pdfrwt beam="1">  1       -4 0.71555502E-01 0.13232529E+04</pdfrwt>
<totfact> 0.28796232E-01</totfact>
</mgrwt>
</event>
<event>
 6    2  0.2220137E-005  0.1001693E+04  0.7818608E-02  0.9944034E-01
         21   -1    0    0  501  502  0.00000000000E+00  0.00000000000E+00  0.33629381191E+03  0.33629381191E+03  0.00000000000E+00 0. -1.
         -4   -1    0    0    0  501 -0.00000000000E+00 -0.00000000000E+00 -0.12313059375E+04  0.12313059375E+04  0.00000000000E+00 0. -1.
   -9000010    2    1    2    0  502 -0.69579992971E+02 -0.90237459535E+02 -0.43218225197E+03  0.10909492720E+04  0.99519075591E+03 0.  0.
         13    1    3    3    0    0  0.21436799277E+03 -0.31682476027E+03 -0.58325966529E+03  0.69751230338E+03  0.10566000000E+00 0. -1.
         -4    1    3    3    0  502 -0.28394798574E+03  0.22658730074E+03  0.15107741333E+03  0.39343696862E+03  0.00000000000E+00 0. -1.
        -13    1    1    2    0    0  0.69579992971E+02  0.90237459535E+02 -0.46282987359E+03  0.47665047737E+03  0.10566000000E+00 0.  1.
<mgrwt>
<rscale>  1 0.58173851E+03</rscale>
<asrwt>0</asrwt>
<pdfrwt beam="1">  1       21 0.51737510E-01 0.10016930E+04</pdfrwt>
<pdfrwt beam="2">  1       -4 0.18943168E+00 0.10016930E+04</pdfrwt>
<totfact> 0.21614293E+01</totfact>
</mgrwt>
</event>
<event>
 6    2  0.2220137E-005  0.1254683E+04  0.7818608E-02  0.9191987E-01
         21   -1    0    0  501  502  0.00000000000E+00  0.00000000000E+00  0.41395245560E+03  0.41395245560E+03  0.00000000000E+00 0.  1.
         -4   -1    0    0    0  501 -0.00000000000E+00 -0.00000000000E+00 -0.25043577947E+04  0.25043577947E+04  0.00000000000E+00 0. -1.
   -9000010    2    1    2    0  502 -0.54819313361E+03 -0.55310959638E+03 -0.12131179155E+04  0.17452462400E+04  0.98375984069E+03 0.  0.
         13    1    3    3    0    0  0.19385021041E+03 -0.45386336736E+03 -0.36412987603E+03  0.61331919755E+03  0.10566000000E+00 0. -1.
         -4    1    3    3    0  502 -0.74204334402E+03 -0.99246229024E+02 -0.84898803943E+03  0.11319270425E+04  0.00000000000E+00 0. -1.
        -13    1    1    2    0    0  0.54819313361E+03  0.55310959638E+03 -0.87728742360E+03  0.11730640102E+04  0.10566000000E+00 0.  1.
<mgrwt>
<rscale>  1 0.11136520E+04</rscale>
<asrwt>0</asrwt>
<pdfrwt beam="1">  1       21 0.63684995E-01 0.12546830E+04</pdfrwt>
<pdfrwt beam="2">  1       -4 0.38528580E+00 0.12546830E+04</pdfrwt>
<totfact> 0.74270664E-01</totfact>
</mgrwt>
</event>
<event>
 6    2  0.2220137E-005  0.1349200E+04  0.7818608E-02  0.9088033E-01
         21   -1    0    0  501  502  0.00000000000E+00  0.00000000000E+00  0.13622203940E+04  0.13622203940E+04  0.00000000000E+00 0.  1.
         -4   -1    0    0    0  501 -0.00000000000E+00 -0.00000000000E+00 -0.95677673899E+03  0.95677673899E+03  0.00000000000E+00 0. -1.
   -9000010    2    1    2    0  502 -0.67538288457E+03  0.63679247459E+03  0.15861907955E+03  0.13584925371E+04  0.97912985072E+03 0.  0.
         13    1    3    3    0    0 -0.49727512002E+03 -0.78393585897E+02  0.32982204661E+03  0.60183942451E+03  0.10566000000E+00 0. -1.
         -4    1    3    3    0  502 -0.17810776455E+03  0.71518606049E+03 -0.17120296705E+03  0.75665311262E+03  0.00000000000E+00 0. -1.
        -13    1    1    2    0    0  0.67538288457E+03 -0.63679247459E+03  0.24682457547E+03  0.96050459587E+03  0.10566000000E+00 0.  1.
<mgrwt>
<rscale>  1 0.12287784E+04</rscale>
<asrwt>0</asrwt>
<pdfrwt beam="1">  1       21 0.20957237E+00 0.13492005E+04</pdfrwt>
<pdfrwt beam="2">  1       -4 0.14719642E+00 0.13492005E+04</pdfrwt>
<totfact> 0.11529327E+00</totfact>
</mgrwt>
</event>
<event>
 6    2  0.2220137E-005  0.1088836E+04  0.7818608E-02  0.9493618E-01
         -4   -1    0    0    0  501 -0.00000000000E+00  0.00000000000E+00  0.72865039256E+03  0.72865039256E+03  0.00000000000E+00 0. -1.
         21   -1    0    0  501  502  0.00000000000E+00 -0.00000000000E+00 -0.78931046828E+03  0.78931046828E+03  0.00000000000E+00 0. -1.
   -9000010    2    1    2    0  502 -0.32927979082E+03  0.22667039079E+03  0.85821728200E+02  0.10922126057E+04  0.10127972948E+04 0.  0.
         13    1    3    3    0    0 -0.33143496460E+03  0.60539837609E+03 -0.44666735882E+02  0.69162956703E+03  0.10566000000E+00 0. -1.
         -4    1    3    3    0  502  0.21551737812E+01 -0.37872798530E+03  0.13048846408E+03  0.40058303868E+03  0.00000000000E+00 0. -1.
        -13    1    1    2    0    0  0.32927979082E+03 -0.22667039079E+03 -0.14648180392E+03  0.42574825513E+03  0.10566000000E+00 0.  1.
<mgrwt>
<rscale>  1 0.84756004E+03</rscale>
<asrwt>0</asrwt>
<pdfrwt beam="2">  1       21 0.12143238E+00 0.10888356E+04</pdfrwt>
<pdfrwt beam="1">  1       -4 0.11210006E+00 0.10888356E+04</pdfrwt>
<totfact> 0.11637976E+01</totfact>
</mgrwt>
</event>
<event>
 6    2  0.2220137E-005  0.9973088E+03  0.7818608E-02  0.9749840E-01
         -4   -1    0    0    0  501 -0.00000000000E+00  0.00000000000E+00  0.48003788670E+03  0.48003788670E+03  0.00000000000E+00 0. -1.
         21   -1    0    0  501  502  0.00000000000E+00 -0.00000000000E+00 -0.10216271925E+04  0.10216271925E+04  0.00000000000E+00 0. -1.
   -9000010    2    1    2    0  502 -0.19829713944E+03  0.88481798897E+02 -0.71221145618E+03  0.12255080341E+04  0.97338276079E+03 0.  0.
         13    1    3    3    0    0  0.31671864842E+03  0.26127567992E+03 -0.13340329290E+03  0.43170838873E+03  0.10566000000E+00 0. -1.
         -4    1    3    3    0  502 -0.51501578786E+03 -0.17279388102E+03 -0.57880816328E+03  0.79379964534E+03  0.00000000000E+00 0. -1.
        -13    1    1    2    0    0  0.19829713944E+03 -0.88481798897E+02  0.17062215034E+03  0.27615704517E+03  0.10566000000E+00 0.  1.
<mgrwt>
<rscale>  1 0.68125289E+03</rscale>
<asrwt>0</asrwt>
<pdfrwt beam="2">  1       21 0.15717341E+00 0.99730877E+03</pdfrwt>
<pdfrwt beam="1">  1       -4 0.73851982E-01 0.99730877E+03</pdfrwt>
<totfact> 0.15644669E+01</totfact>
</mgrwt>
</event>
<event>
 6    2  0.2220137E-005  0.1122555E+04  0.7818608E-02  0.9409858E-01
         21   -1    0    0  501  502  0.00000000000E+00  0.00000000000E+00  0.87057928989E+03  0.87057928989E+03  0.00000000000E+00 0.  1.
         -4   -1    0    0    0  501 -0.00000000000E+00 -0.00000000000E+00 -0.76289391351E+03  0.76289391351E+03  0.00000000000E+00 0. -1.
   -9000010    2    1    2    0  502 -0.18873605541E+02 -0.49016784349E+03 -0.33414306162E+02  0.11230519466E+04  0.10097071017E+04 0.  0.
         13    1    3    3    0    0  0.39058022292E+03  0.84415629009E+02  0.82552685331E+02  0.40803659882E+03  0.10566000000E+00 0. -1.
         -4    1    3    3    0  502 -0.40945382846E+03 -0.57458347250E+03 -0.11596699149E+03  0.71501534783E+03  0.00000000000E+00 0. -1.
        -13    1    1    2    0    0  0.18873605541E+02  0.49016784349E+03  0.14109968254E+03  0.51042125676E+03  0.10566000000E+00 0.  1.
<mgrwt>
<rscale>  1 0.91268799E+03</rscale>
<asrwt>0</asrwt>
<pdfrwt beam="1">  1       21 0.13393528E+00 0.11225547E+04</pdfrwt>
<pdfrwt beam="2">  1       -4 0.11736829E+00 0.11225547E+04</pdfrwt>
<totfact> 0.79804742E+00</totfact>
</mgrwt>
</event>
<event>
 6    2  0.2220137E-005  0.1005096E+04  0.7818608E-02  0.1006393E+00
         21   -1    0    0  501  502  0.00000000000E+00  0.00000000000E+00  0.53452180133E+03  0.53452180133E+03  0.00000000000E+00 0. -1.
         -4   -1    0    0    0  501 -0.00000000000E+00 -0.00000000000E+00 -0.71232796627E+03  0.71232796627E+03  0.00000000000E+00 0. -1.
   -9000010    2    1    2    0  502 -0.70337917222E+02  0.32117129219E+02  0.49939575855E+02  0.10063355971E+04  0.10021169793E+04 0.  0.
         13    1    3    3    0    0 -0.44620994813E+03 -0.21487489438E+02  0.31209481312E+03  0.54494789985E+03  0.10566000000E+00 0. -1.
         -4    1    3    3    0  502  0.37587203091E+03  0.53604618657E+02 -0.26215523726E+03  0.46138769726E+03  0.00000000000E+00 0. -1.
        -13    1    1    2    0    0  0.70337917222E+02 -0.32117129219E+02 -0.22774574080E+03  0.24051417048E+03  0.10566000000E+00 0.  1.
<mgrwt>
<rscale>  1 0.52933867E+03</rscale>
<asrwt>0</asrwt>
<pdfrwt beam="1">  1       21 0.82234123E-01 0.10050957E+04</pdfrwt>
<pdfrwt beam="2">  1       -4 0.10958892E+00 0.10050957E+04</pdfrwt>
<totfact> 0.32631382E+01</totfact>
</mgrwt>
</event>
<event>
 6    2  0.2220137E-005  0.1096042E+04  0.7818608E-02  0.9463438E-01
         -4   -1    0    0    0  501 -0.00000000000E+00  0.00000000000E+00  0.54321448390E+03  0.54321448390E+03  0.00000000000E+00 0. -1.
         21   -1    0    0  501  502  0.00000000000E+00 -0.00000000000E+00 -0.12552407177E+04  0.12552407177E+04  0.00000000000E+00 0.  1.
   -9000010    2    1    2    0  502 -0.26326264776E+03 -0.34727734903E+03 -0.79607680626E+03  0.13546384728E+04  0.10056830175E+04 0.  0.
         13    1    3    3    0    0 -0.48040386784E+03 -0.57502492619E+03 -0.40193428176E+03  0.85028978589E+03  0.10566000000E+00 0. -1.
         -4    1    3    3    0  502  0.21714122008E+03  0.22774757715E+03 -0.39414252450E+03  0.50434868690E+03  0.00000000000E+00 0. -1.
        -13    1    1    2    0    0  0.26326264776E+03  0.34727734903E+03  0.84050572485E+02  0.44381672879E+03  0.10566000000E+00 0.  1.
<mgrwt>
<rscale>  1 0.87033891E+03</rscale>
<asrwt>0</asrwt>
<pdfrwt beam="2">  1       21 0.19311396E+00 0.10960416E+04</pdfrwt>
<pdfrwt beam="1">  1       -4 0.83571459E-01 0.10960416E+04</pdfrwt>
<totfact> 0.63164141E+00</totfact>
</mgrwt>
</event>
<event>
 6    2  0.2220137E-005  0.1354373E+04  0.7818608E-02  0.9093075E-01
         21   -1    0    0  501  502  0.00000000000E+00  0.00000000000E+00  0.11345018610E+04  0.11345018610E+04  0.00000000000E+00 0. -1.
         -4   -1    0    0    0  501 -0.00000000000E+00 -0.00000000000E+00 -0.11216018317E+04  0.11216018317E+04  0.00000000000E+00 0. -1.
   -9000010    2    1    2    0  502  0.81783819126E+03 -0.37596305652E+03  0.49069870687E+02  0.13552619777E+04  0.10119879688E+04 0.  0.
         13    1    3    3    0    0  0.31876781545E+03 -0.41897848178E+03 -0.41658030959E+03  0.67133825592E+03  0.10566000000E+00 0. -1.
         -4    1    3    3    0  502  0.49907037581E+03  0.43015425253E+02  0.46565018027E+03  0.68392372178E+03  0.00000000000E+00 0. -1.
        -13    1    1    2    0    0 -0.81783819126E+03  0.37596305652E+03 -0.36169841403E+02  0.90084171503E+03  0.10566000000E+00 0.  1.
<mgrwt>
<rscale>  1 0.12228645E+04</rscale>
<asrwt>0</asrwt>
<pdfrwt beam="1">  1       21 0.17453875E+00 0.13543734E+04</pdfrwt>
<pdfrwt beam="2">  1       -4 0.17255413E+00 0.13543734E+04</pdfrwt>
<totfact> 0.13159241E+00</totfact>
</mgrwt>
</event>
<event>
 6    2  0.2220137E-005  0.1056415E+04  0.7818608E-02  0.9542854E-01
         21   -1    0    0  501  502  0.00000000000E+00  0.00000000000E+00  0.11007251869E+04  0.11007251869E+04  0.00000000000E+00 0. -1.
         -4   -1    0    0    0  501 -0.00000000000E+00 -0.00000000000E+00 -0.46136594165E+03  0.46136594165E+03  0.00000000000E+00 0. -1.
   -9000010    2    1    2    0  502 -0.17795454191E+03 -0.32289089007E+03  0.48408062890E+03  0.11620438742E+04  0.98999270924E+03 0.  0.
         13    1    3    3    0    0  0.31845630901E+02  0.13710740925E+03 -0.24040948910E+03  0.27858449255E+03  0.10566000000E+00 0. -1.
         -4    1    3    3    0  502 -0.20980017282E+03 -0.45999829931E+03  0.72449011800E+03  0.88345938162E+03  0.00000000000E+00 0. -1.
        -13    1    1    2    0    0  0.17795454191E+03  0.32289089007E+03  0.15527861636E+03  0.40004725438E+03  0.10566000000E+00 0.  1.
<mgrwt>
<rscale>  1 0.81196773E+03</rscale>
<asrwt>0</asrwt>
<pdfrwt beam="1">  1       21 0.16934234E+00 0.10564146E+04</pdfrwt>
<pdfrwt beam="2">  1       -4 0.70979376E-01 0.10564146E+04</pdfrwt>
<totfact> 0.13703356E+01</totfact>
</mgrwt>
</event>
<event>
 6    2  0.2220137E-005  0.1002008E+04  0.7818608E-02  0.1032667E+00
         21   -1    0    0  501  502  0.00000000000E+00  0.00000000000E+00  0.11549194069E+04  0.11549194069E+04  0.00000000000E+00 0. -1.
         -4   -1    0    0    0  501 -0.00000000000E+00 -0.00000000000E+00 -0.24174959224E+03  0.24174959224E+03  0.00000000000E+00 0. -1.
   -9000010    2    1    2    0  502  0.34587801849E+02  0.65336642618E+01  0.92058470990E+03  0.13606968344E+04  0.10013893659E+04 0.  0.
         13    1    3    3    0    0  0.55416293441E+02  0.43459492831E+03  0.12265647918E+03  0.45495971288E+03  0.10566000000E+00 0. -1.
         -4    1    3    3    0  502 -0.20828491592E+02 -0.42806126405E+03  0.79792823072E+03  0.90573712148E+03  0.00000000000E+00 0. -1.
        -13    1    1    2    0    0 -0.34587801849E+02 -0.65336642618E+01 -0.74148952173E+01  0.35972164802E+02  0.10566000000E+00 0.  1.
<mgrwt>
<rscale>  1 0.43379840E+03</rscale>
<asrwt>0</asrwt>
<pdfrwt beam="1">  1       21 0.17767991E+00 0.10020078E+04</pdfrwt>
<pdfrwt beam="2">  1       -4 0.37192246E-01 0.10020078E+04</pdfrwt>
<totfact> 0.47220272E+01</totfact>
</mgrwt>
</event>
<event>
 6    2  0.2220137E-005  0.1008324E+04  0.7818608E-02  0.1006410E+00
         -4   -1    0    0    0  501 -0.00000000000E+00  0.00000000000E+00  0.40185850095E+03  0.40185850095E+03  0.00000000000E+00 0. -1.
         21   -1    0    0  501  502  0.00000000000E+00 -0.00000000000E+00 -0.96524057113E+03  0.96524057113E+03  0.00000000000E+00 0. -1.
   -9000010    2    1    2    0  502 -0.20113188014E+02 -0.73853155178E+02 -0.68812024337E+03  0.12207486301E+04  0.10054147998E+04 0.  0.
         13    1    3    3    0    0  0.21251216823E+03 -0.48415413775E+03 -0.43963989236E+03  0.68764081966E+03  0.10566000000E+00 0. -1.
         -4    1    3    3    0  502 -0.23262535625E+03  0.41030098258E+03 -0.24848035101E+03  0.53310781040E+03  0.00000000000E+00 0. -1.
        -13    1    1    2    0    0  0.20113188014E+02  0.73853155178E+02  0.12473817319E+03  0.14635044201E+03  0.10566000000E+00 0.  1.
<mgrwt>
<rscale>  1 0.52926918E+03</rscale>
<asrwt>0</asrwt>
<pdfrwt beam="2">  1       21 0.14849855E+00 0.10083242E+04</pdfrwt>
<pdfrwt beam="1">  1       -4 0.61824385E-01 0.10083242E+04</pdfrwt>
<totfact> 0.27214542E+01</totfact>
</mgrwt>
</event>
<event>
 6    2  0.2220137E-005  0.1008793E+04  0.7818608E-02  0.1010783E+00
         21   -1    0    0  501  502  0.00000000000E+00  0.00000000000E+00  0.34556958922E+03  0.34556958922E+03  0.00000000000E+00 0. -1.
         -4   -1    0    0    0  501 -0.00000000000E+00 -0.00000000000E+00 -0.85978457401E+03  0.85978457401E+03  0.00000000000E+00 0. -1.
   -9000010    2    1    2    0  502 -0.66536567717E+02 -0.53664330126E+01 -0.42679240458E+03  0.10953603810E+04  0.10065816877E+04 0.  0.
         13    1    3    3    0    0 -0.40205288745E+03  0.19585349775E+03  0.80834397797E+02  0.45446598104E+03  0.10566000000E+00 0. -1.
         -4    1    3    3    0  502  0.33551631973E+03 -0.20121993076E+03 -0.50762680238E+03  0.64089439991E+03  0.00000000000E+00 0. -1.
        -13    1    1    2    0    0  0.66536567717E+02  0.53664330126E+01 -0.87422580200E+02  0.10999378228E+03  0.10566000000E+00 0.  1.
<mgrwt>
<rscale>  1 0.51164491E+03</rscale>
<asrwt>0</asrwt>
<pdfrwt beam="1">  1       21 0.53164552E-01 0.10087926E+04</pdfrwt>
<pdfrwt beam="2">  1       -4 0.13227455E+00 0.10087926E+04</pdfrwt>
<totfact> 0.54676870E+01</totfact>
</mgrwt>
</event>
<event>
 6    2  0.2220137E-005  0.9447842E+03  0.7818608E-02  0.9838179E-01
         21   -1    0    0  501  502  0.00000000000E+00  0.00000000000E+00  0.66305877202E+03  0.66305877202E+03  0.00000000000E+00 0. -1.
         -4   -1    0    0    0  501 -0.00000000000E+00 -0.00000000000E+00 -0.49264041074E+03  0.49264041074E+03  0.00000000000E+00 0. -1.
   -9000010    2    1    2    0  502 -0.34994440106E+02  0.18778681977E+03  0.18992881284E+03  0.96368572126E+03  0.92527223826E+03 0.  0.
         13    1    3    3    0    0  0.25089763544E+03  0.45538599396E+03  0.23296729169E+03  0.56973660329E+03  0.10566000000E+00 0. -1.
         -4    1    3    3    0  502 -0.28589207554E+03 -0.26759917420E+03 -0.43038478859E+02  0.39394911797E+03  0.00000000000E+00 0. -1.
        -13    1    1    2    0    0  0.34994440106E+02 -0.18778681977E+03 -0.19510451556E+02  0.19201346151E+03  0.10566000000E+00 0.  1.
<mgrwt>
<rscale>  1 0.63353263E+03</rscale>
<asrwt>0</asrwt>
<pdfrwt beam="1">  1       21 0.10200904E+00 0.94478422E+03</pdfrwt>
<pdfrwt beam="2">  1       -4 0.75790832E-01 0.94478422E+03</pdfrwt>
<totfact> 0.46490724E+01</totfact>
</mgrwt>
</event>
<event>
 6    2  0.2220137E-005  0.9909679E+03  0.7818608E-02  0.9793799E-01
         21   -1    0    0  501  502  0.00000000000E+00  0.00000000000E+00  0.27782764326E+03  0.27782764326E+03  0.00000000000E+00 0. -1.
         -4   -1    0    0    0  501 -0.00000000000E+00 -0.00000000000E+00 -0.13904168428E+04  0.13904168428E+04  0.00000000000E+00 0. -1.
   -9000010    2    1    2    0  502 -0.16077710012E+03 -0.10388564838E+03 -0.69955785359E+03  0.12130122291E+04  0.97230446549E+03 0.  0.
         13    1    3    3    0    0  0.19454809462E+03 -0.45177333952E+03 -0.38453238052E+03  0.62435028170E+03  0.10566000000E+00 0. -1.
         -4    1    3    3    0  502 -0.35532519474E+03  0.34788769114E+03 -0.31502547306E+03  0.58866194742E+03  0.00000000000E+00 0. -1.
        -13    1    1    2    0    0  0.16077710012E+03  0.10388564838E+03 -0.41303134597E+03  0.45523225696E+03  0.10566000000E+00 0.  1.
<mgrwt>
<rscale>  1 0.65696372E+03</rscale>
<asrwt>0</asrwt>
<pdfrwt beam="1">  1       21 0.42742714E-01 0.99096795E+03</pdfrwt>
<pdfrwt beam="2">  1       -4 0.21391028E+00 0.99096795E+03</pdfrwt>
<totfact> 0.22456793E+01</totfact>
</mgrwt>
</event>
<event>
 6    2  0.2220137E-005  0.1066204E+04  0.7818608E-02  0.9527526E-01
         21   -1    0    0  501  502  0.00000000000E+00  0.00000000000E+00  0.39987904522E+03  0.39987904522E+03  0.00000000000E+00 0. -1.
         -4   -1    0    0    0  501 -0.00000000000E+00 -0.00000000000E+00 -0.13112169760E+04  0.13112169760E+04  0.00000000000E+00 0. -1.
   -9000010    2    1    2    0  502  0.73879317318E+02  0.37093982897E+03 -0.72593472681E+03  0.12898729575E+04  0.99686333493E+03 0.  0.
         13    1    3    3    0    0 -0.32368138715E+03 -0.29731083261E+02  0.51549070451E+02  0.32910620706E+03  0.10566000000E+00 0. -1.
         -4    1    3    3    0  502  0.39756070447E+03  0.40067091223E+03 -0.77748379727E+03  0.96076675039E+03  0.00000000000E+00 0. -1.
        -13    1    1    2    0    0 -0.73879317318E+02 -0.37093982897E+03 -0.18540320395E+03  0.42122306376E+03  0.10566000000E+00 0.  1.
<mgrwt>
<rscale>  1 0.82284492E+03</rscale>
<asrwt>0</asrwt>
<pdfrwt beam="1">  1       21 0.61519852E-01 0.10662040E+04</pdfrwt>
<pdfrwt beam="2">  1       -4 0.20172569E+00 0.10662040E+04</pdfrwt>
<totfact> 0.12121917E+01</totfact>
</mgrwt>
</event>
<event>
 6    2  0.2220137E-005  0.9927943E+03  0.7818608E-02  0.1009534E+00
         -4   -1    0    0    0  501 -0.00000000000E+00  0.00000000000E+00  0.14752028345E+03  0.14752028345E+03  0.00000000000E+00 0. -1.
         21   -1    0    0  501  502  0.00000000000E+00 -0.00000000000E+00 -0.19690224720E+04  0.19690224720E+04  0.00000000000E+00 0. -1.
   -9000010    2    1    2    0  502  0.66638917622E+02 -0.29276129501E+02 -0.15960458161E+04  0.18796283739E+04  0.99012258841E+03 0.  0.
         13    1    3    3    0    0  0.43140237988E+03  0.27078407146E+03 -0.96766418640E+03  0.10935291562E+04  0.10566000000E+00 0. -1.
         -4    1    3    3    0  502 -0.36476346226E+03 -0.30006020096E+03 -0.62838162967E+03  0.78609921772E+03  0.00000000000E+00 0. -1.
        -13    1    1    2    0    0 -0.66638917622E+02  0.29276129501E+02 -0.22545637248E+03  0.23691438149E+03  0.10566000000E+00 0.  1.
<mgrwt>
<rscale>  1 0.51660304E+03</rscale>
<asrwt>0</asrwt>
<pdfrwt beam="2">  1       21 0.30292651E+00 0.99279433E+03</pdfrwt>
<pdfrwt beam="1">  1       -4 0.22695430E-01 0.99279433E+03</pdfrwt>
<totfact> 0.18846186E+01</totfact>
</mgrwt>
</event>
<event>
 6    2  0.2220137E-005  0.9974415E+03  0.7818608E-02  0.9668724E-01
         -4   -1    0    0    0  501 -0.00000000000E+00  0.00000000000E+00  0.13683590648E+04  0.13683590648E+04  0.00000000000E+00 0. -1.
         21   -1    0    0  501  502  0.00000000000E+00 -0.00000000000E+00 -0.36298536501E+03  0.36298536501E+03  0.00000000000E+00 0. -1.
   -9000010    2    1    2    0  502  0.20610951392E+03 -0.19649065834E+03  0.42369083548E+03  0.10836989432E+04  0.95592874467E+03 0.  0.
         13    1    3    3    0    0 -0.27317627555E+03  0.14217437356E+03  0.38853889010E+03  0.49578353170E+03  0.10566000000E+00 0. -1.
         -4    1    3    3    0  502  0.47928578947E+03 -0.33866503190E+03  0.35151945382E+02  0.58791541150E+03  0.00000000000E+00 0. -1.
        -13    1    1    2    0    0 -0.20610951392E+03  0.19649065834E+03  0.58168286434E+03  0.64764548664E+03  0.10566000000E+00 0.  1.
<mgrwt>
<rscale>  1 0.72909864E+03</rscale>
<asrwt>0</asrwt>
<pdfrwt beam="2">  1       21 0.55843903E-01 0.99744146E+03</pdfrwt>
<pdfrwt beam="1">  1       -4 0.21051678E+00 0.99744146E+03</pdfrwt>
<totfact> 0.13265671E+01</totfact>
</mgrwt>
</event>
<event>
 6    2  0.2220137E-005  0.1426116E+04  0.7818608E-02  0.9020196E-01
         21   -1    0    0  501  502  0.00000000000E+00  0.00000000000E+00  0.14440166300E+04  0.14440166300E+04  0.00000000000E+00 0.  1.
         -4   -1    0    0    0  501 -0.00000000000E+00 -0.00000000000E+00 -0.10722652648E+04  0.10722652648E+04  0.00000000000E+00 0. -1.
   -9000010    2    1    2    0  502 -0.22462614425E+03 -0.99619635798E+03  0.44095739168E+03  0.14927323974E+04  0.99546094888E+03 0.  0.
         13    1    3    3    0    0 -0.13764212013E+03 -0.10499697642E+04  0.66222983490E+03  0.12489716668E+04  0.10566000000E+00 0. -1.
         -4    1    3    3    0  502 -0.86984024121E+02  0.53773406266E+02 -0.22127244322E+03  0.24376073064E+03  0.00000000000E+00 0. -1.
        -13    1    1    2    0    0  0.22462614425E+03  0.99619635798E+03 -0.69206026474E+02  0.10235494974E+04  0.10566000000E+00 0.  1.
<mgrwt>
<rscale>  1 0.13118814E+04</rscale>
<asrwt>0</asrwt>
<pdfrwt beam="1">  1       21 0.22215640E+00 0.14261159E+04</pdfrwt>
<pdfrwt beam="2">  1       -4 0.16496389E+00 0.14261159E+04</pdfrwt>
<totfact> 0.68676542E-01</totfact>
</mgrwt>
</event>
<event>
 6    2  0.2220137E-005  0.1109529E+04  0.7818608E-02  0.9424991E-01
         -4   -1    0    0    0  501 -0.00000000000E+00  0.00000000000E+00  0.12832664499E+04  0.12832664499E+04  0.00000000000E+00 0. -1.
         21   -1    0    0  501  502  0.00000000000E+00 -0.00000000000E+00 -0.52191415276E+03  0.52191415276E+03  0.00000000000E+00 0.  1.
   -9000010    2    1    2    0  502 -0.27443739735E+03 -0.39545649538E+03  0.71865182641E+03  0.13219362895E+04  0.99967663829E+03 0.  0.
         13    1    3    3    0    0  0.37044214252E+03 -0.20932917808E+03  0.37841571704E+03  0.56942475518E+03  0.10566000000E+00 0. -1.
         -4    1    3    3    0  502 -0.64487953987E+03 -0.18612731730E+03  0.34023610938E+03  0.75251153434E+03  0.00000000000E+00 0. -1.
        -13    1    1    2    0    0  0.27443739735E+03  0.39545649538E+03  0.42700470701E+02  0.48324431312E+03  0.10566000000E+00 0.  1.
<mgrwt>
<rscale>  1 0.90047213E+03</rscale>
<asrwt>0</asrwt>
<pdfrwt beam="2">  1       21 0.80294485E-01 0.11095292E+04</pdfrwt>
<pdfrwt beam="1">  1       -4 0.19742561E+00 0.11095292E+04</pdfrwt>
<totfact> 0.69866260E+00</totfact>
</mgrwt>
</event>
<event>
 6    2  0.2220137E-005  0.1007892E+04  0.7818608E-02  0.9740523E-01
         21   -1    0    0  501  502  0.00000000000E+00  0.00000000000E+00  0.71097307482E+03  0.71097307482E+03  0.00000000000E+00 0. -1.
         -4   -1    0    0    0  501 -0.00000000000E+00 -0.00000000000E+00 -0.55053201817E+03  0.55053201817E+03  0.00000000000E+00 0. -1.
   -9000010    2    1    2    0  502  0.18526845350E+03  0.11295510508E+03  0.22969621209E+03  0.10337342798E+04  0.98425756576E+03 0.  0.
         13    1    3    3    0    0 -0.28950256132E+02 -0.32294657983E+02  0.58917868734E+03  0.59077288279E+03  0.10566000000E+00 0. -1.
         -4    1    3    3    0  502  0.21421870963E+03  0.14524976306E+03 -0.35948247525E+03  0.44296139701E+03  0.00000000000E+00 0. -1.
        -13    1    1    2    0    0 -0.18526845350E+03 -0.11295510508E+03 -0.69255155432E+02  0.22777081319E+03  0.10566000000E+00 0.  1.
<mgrwt>
<rscale>  1 0.68654469E+03</rscale>
<asrwt>0</asrwt>
<pdfrwt beam="1">  1       21 0.10938047E+00 0.10078920E+04</pdfrwt>
<pdfrwt beam="2">  1       -4 0.84697233E-01 0.10078920E+04</pdfrwt>
<totfact> 0.30050368E+01</totfact>
</mgrwt>
</event>
<event>
 6    2  0.2220137E-005  0.1408336E+04  0.7818608E-02  0.9042198E-01
         -4   -1    0    0    0  501 -0.00000000000E+00  0.00000000000E+00  0.71525110492E+03  0.71525110492E+03  0.00000000000E+00 0. -1.
         21   -1    0    0  501  502  0.00000000000E+00 -0.00000000000E+00 -0.20176117616E+04  0.20176117616E+04  0.00000000000E+00 0.  1.
   -9000010    2    1    2    0  502 -0.73974002455E+03 -0.63305303791E+03 -0.59235192612E+03  0.15278384429E+04  0.10175647648E+04 0.  0.
         13    1    3    3    0    0  0.30757258170E+02 -0.58936903916E+03 -0.45216394039E+03  0.74347435289E+03  0.10566000000E+00 0. -1.
         -4    1    3    3    0  502 -0.77049728272E+03 -0.43683998747E+02 -0.14018798574E+03  0.78436409006E+03  0.00000000000E+00 0. -1.
        -13    1    1    2    0    0  0.73974002455E+03  0.63305303791E+03 -0.71000873051E+03  0.12050244235E+04  0.10566000000E+00 0.  1.
<mgrwt>
<rscale>  1 0.12841895E+04</rscale>
<asrwt>0</asrwt>
<pdfrwt beam="2">  1       21 0.31040181E+00 0.14083357E+04</pdfrwt>
<pdfrwt beam="1">  1       -4 0.11003863E+00 0.14083357E+04</pdfrwt>
<totfact> 0.54271021E-01</totfact>
</mgrwt>
</event>
<event>
 6    2  0.2220137E-005  0.1105844E+04  0.7818608E-02  0.9427624E-01
         -4   -1    0    0    0  501 -0.00000000000E+00  0.00000000000E+00  0.99763026001E+03  0.99763026001E+03  0.00000000000E+00 0. -1.
         21   -1    0    0  501  502  0.00000000000E+00 -0.00000000000E+00 -0.69898135584E+03  0.69898135584E+03  0.00000000000E+00 0. -1.
   -9000010    2    1    2    0  502 -0.47813563484E+03  0.58116906413E+02 -0.42044322401E+02  0.11066428490E+04  0.99543930503E+03 0.  0.
         13    1    3    3    0    0  0.55267457067E+02  0.44359340081E+03 -0.36460230556E+02  0.44850747667E+03  0.10566000000E+00 0. -1.
         -4    1    3    3    0  502 -0.53340309191E+03 -0.38547649439E+03 -0.55840918459E+01  0.65813537229E+03  0.00000000000E+00 0. -1.
        -13    1    1    2    0    0  0.47813563484E+03 -0.58116906413E+02  0.34069322657E+03  0.58996876689E+03  0.10566000000E+00 0.  1.
<mgrwt>
<rscale>  1 0.89836809E+03</rscale>
<asrwt>0</asrwt>
<pdfrwt beam="2">  1       21 0.10753559E+00 0.11058439E+04</pdfrwt>
<pdfrwt beam="1">  1       -4 0.15348158E+00 0.11058439E+04</pdfrwt>
<totfact> 0.70410527E+00</totfact>
</mgrwt>
</event>
<event>
 6    2  0.2220137E-005  0.1135475E+04  0.7818608E-02  0.9367058E-01
         -4   -1    0    0    0  501 -0.00000000000E+00  0.00000000000E+00  0.10300108400E+04  0.10300108400E+04  0.00000000000E+00 0. -1.
         21   -1    0    0  501  502  0.00000000000E+00 -0.00000000000E+00 -0.13378590049E+04  0.13378590049E+04  0.00000000000E+00 0. -1.
   -9000010    2    1    2    0  502 -0.41533687496E+03  0.36444032909E+03 -0.97849038793E+03  0.14989150269E+04  0.99195833853E+03 0.  0.
         13    1    3    3    0    0  0.13084775511E+03 -0.49557951598E+02  0.13304350720E+03  0.19307436794E+03  0.10566000000E+00 0. -1.
         -4    1    3    3    0  502 -0.54618463007E+03  0.41399828069E+03 -0.11115338951E+04  0.13058406589E+04  0.00000000000E+00 0. -1.
        -13    1    1    2    0    0  0.41533687496E+03 -0.36444032909E+03  0.67064222311E+03  0.86895481801E+03  0.10566000000E+00 0.  1.
<mgrwt>
<rscale>  1 0.94836992E+03</rscale>
<asrwt>0</asrwt>
<pdfrwt beam="2">  1       21 0.20582446E+00 0.11354747E+04</pdfrwt>
<pdfrwt beam="1">  1       -4 0.15846321E+00 0.11354747E+04</pdfrwt>
<totfact> 0.10314705E+00</totfact>
</mgrwt>
</event>
<event>
 6    2  0.2220137E-005  0.1004638E+04  0.7818608E-02  0.9985230E-01
         21   -1    0    0  501  502  0.00000000000E+00  0.00000000000E+00  0.59632999308E+03  0.59632999308E+03  0.00000000000E+00 0. -1.
         -4   -1    0    0    0  501 -0.00000000000E+00 -0.00000000000E+00 -0.56385922301E+03  0.56385922301E+03  0.00000000000E+00 0. -1.
   -9000010    2    1    2    0  502  0.89098112836E+02 -0.43392110347E+02  0.13955371979E+03  0.10142847328E+04  0.99973843059E+03 0.  0.
         13    1    3    3    0    0  0.40337851134E+03 -0.16963142620E+03  0.39544235267E+03  0.58979971992E+03  0.10566000000E+00 0. -1.
         -4    1    3    3    0  502 -0.31428039850E+03  0.12623931586E+03 -0.25588863288E+03  0.42448501291E+03  0.00000000000E+00 0. -1.
        -13    1    1    2    0    0 -0.89098112836E+02  0.43392110347E+02 -0.10708294972E+03  0.14590448327E+03  0.10566000000E+00 0.  1.
<mgrwt>
<rscale>  1 0.56302643E+03</rscale>
<asrwt>0</asrwt>
<pdfrwt beam="1">  1       21 0.91743076E-01 0.10046384E+04</pdfrwt>
<pdfrwt beam="2">  1       -4 0.86747573E-01 0.10046384E+04</pdfrwt>
<totfact> 0.43973656E+01</totfact>
</mgrwt>
</event>
<event>
 6    2  0.2220137E-005  0.1040717E+04  0.7818608E-02  0.9563550E-01
         -4   -1    0    0    0  501 -0.00000000000E+00  0.00000000000E+00  0.21759953328E+04  0.21759953328E+04  0.00000000000E+00 0. -1.
         21   -1    0    0  501  502  0.00000000000E+00 -0.00000000000E+00 -0.22787815298E+03  0.22787815298E+03  0.00000000000E+00 0. -1.
   -9000010    2    1    2    0  502  0.46665554799E+01 -0.35894385651E+03  0.13262353370E+04  0.16858209066E+04  0.97684670815E+03 0.  0.
         13    1    3    3    0    0  0.18714080093E+03 -0.58595521759E+03  0.12365060870E+04  0.13810548543E+04  0.10566000000E+00 0. -1.
         -4    1    3    3    0  502 -0.18247424545E+03  0.22701136109E+03  0.89729250029E+02  0.30476605228E+03  0.00000000000E+00 0. -1.
        -13    1    1    2    0    0 -0.46665554799E+01  0.35894385651E+03  0.62188184285E+03  0.71805257920E+03  0.10566000000E+00 0.  1.
<mgrwt>
<rscale>  1 0.79756357E+03</rscale>
<asrwt>0</asrwt>
<pdfrwt beam="2">  1       21 0.35058179E-01 0.10407170E+04</pdfrwt>
<pdfrwt beam="1">  1       -4 0.33476850E+00 0.10407170E+04</pdfrwt>
<totfact> 0.59504105E+00</totfact>
</mgrwt>
</event>
<event>
 6    2  0.2220137E-005  0.1035885E+04  0.7818608E-02  0.9659242E-01
         -4   -1    0    0    0  501 -0.00000000000E+00  0.00000000000E+00  0.64561912812E+03  0.64561912812E+03  0.00000000000E+00 0. -1.
         21   -1    0    0  501  502  0.00000000000E+00 -0.00000000000E+00 -0.72549983822E+03  0.72549983822E+03  0.00000000000E+00 0. -1.
   -9000010    2    1    2    0  502 -0.25113736015E+03 -0.76388204590E+02 -0.24042260844E+03  0.10634196915E+04  0.10020744873E+04 0.  0.
         13    1    3    3    0    0  0.17525191081E+03 -0.41988508984E+03 -0.24312598829E+03  0.51587496379E+03  0.10566000000E+00 0. -1.
         -4    1    3    3    0  502 -0.42638927096E+03  0.34349688525E+03  0.27033798562E+01  0.54754472770E+03  0.00000000000E+00 0. -1.
        -13    1    1    2    0    0  0.25113736015E+03  0.76388204590E+02  0.16054189834E+03  0.30769927486E+03  0.10566000000E+00 0.  1.
<mgrwt>
<rscale>  1 0.73496256E+03</rscale>
<asrwt>0</asrwt>
<pdfrwt beam="2">  1       21 0.11161536E+00 0.10358853E+04</pdfrwt>
<pdfrwt beam="1">  1       -4 0.99326020E-01 0.10358853E+04</pdfrwt>
<totfact> 0.19537324E+01</totfact>
</mgrwt>
</event>
<event>
 6    2  0.2220137E-005  0.1305482E+04  0.7818608E-02  0.9138785E-01
         -4   -1    0    0    0  501 -0.00000000000E+00  0.00000000000E+00  0.64587273972E+03  0.64587273972E+03  0.00000000000E+00 0. -1.
         21   -1    0    0  501  502  0.00000000000E+00 -0.00000000000E+00 -0.21299711369E+04  0.21299711369E+04  0.00000000000E+00 0. -1.
   -9000010    2    1    2    0  502  0.44770372322E+03 -0.71618520822E+03 -0.14198512532E+04  0.19287974889E+04  0.99545080019E+03 0.  0.
         13    1    3    3    0    0  0.49636286964E+03 -0.45481841562E+02 -0.20239562661E+03  0.53796718962E+03  0.10566000000E+00 0. -1.
         -4    1    3    3    0  502 -0.48659146428E+02 -0.67070336665E+03 -0.12174556266E+04  0.13908302993E+04  0.00000000000E+00 0. -1.
        -13    1    1    2    0    0 -0.44770372322E+03  0.71618520822E+03 -0.64247143927E+02  0.84704638770E+03  0.10566000000E+00 0.  1.
<mgrwt>
<rscale>  1 0.11708241E+04</rscale>
<asrwt>0</asrwt>
<pdfrwt beam="2">  1       21 0.32768787E+00 0.13054816E+04</pdfrwt>
<pdfrwt beam="1">  1       -4 0.99365036E-01 0.13054816E+04</pdfrwt>
<totfact> 0.55125762E-01</totfact>
</mgrwt>
</event>
<event>
 6    2  0.2220137E-005  0.1007959E+04  0.7818608E-02  0.9938227E-01
         -4   -1    0    0    0  501 -0.00000000000E+00  0.00000000000E+00  0.54974875390E+03  0.54974875390E+03  0.00000000000E+00 0. -1.
         21   -1    0    0  501  502  0.00000000000E+00 -0.00000000000E+00 -0.57733630567E+03  0.57733630567E+03  0.00000000000E+00 0. -1.
   -9000010    2    1    2    0  502 -0.11161866770E+03  0.22818932416E+02 -0.56517746957E+02  0.10095418845E+04  0.10014994409E+04 0.  0.
         13    1    3    3    0    0 -0.26314033026E+03 -0.97530299887E+01  0.42707129477E+03  0.50172488177E+03  0.10566000000E+00 0. -1.
         -4    1    3    3    0  502  0.15152166256E+03  0.32571962405E+02 -0.48358904173E+03  0.50781700271E+03  0.00000000000E+00 0. -1.
        -13    1    1    2    0    0  0.11161866770E+03 -0.22818932416E+02  0.28930195185E+02  0.11754317510E+03  0.10566000000E+00 0.  1.
<mgrwt>
<rscale>  1 0.58443878E+03</rscale>
<asrwt>0</asrwt>
<pdfrwt beam="2">  1       21 0.88820970E-01 0.10079586E+04</pdfrwt>
<pdfrwt beam="1">  1       -4 0.84576731E-01 0.10079586E+04</pdfrwt>
<totfact> 0.50428061E+01</totfact>
</mgrwt>
</event>
<event>
 6    2  0.2220137E-005  0.1029587E+04  0.7818608E-02  0.9643378E-01
         21   -1    0    0  501  502  0.00000000000E+00  0.00000000000E+00  0.10980978439E+04  0.10980978439E+04  0.00000000000E+00 0. -1.
         -4   -1    0    0    0  501 -0.00000000000E+00 -0.00000000000E+00 -0.39539161572E+03  0.39539161572E+03  0.00000000000E+00 0. -1.
   -9000010    2    1    2    0  502  0.24018482856E+03 -0.14797167359E+03  0.60905728145E+03  0.11962446036E+04  0.99018483698E+03 0.  0.
         13    1    3    3    0    0 -0.11595712213E+02 -0.40649404036E+03  0.71290046409E+03  0.82073074041E+03  0.10566000000E+00 0. -1.
         -4    1    3    3    0  502  0.25178054077E+03  0.25852236677E+03 -0.10384318264E+03  0.37551386314E+03  0.00000000000E+00 0. -1.
        -13    1    1    2    0    0 -0.24018482856E+03  0.14797167359E+03  0.93648946681E+02  0.29724485602E+03  0.10566000000E+00 0.  1.
<mgrwt>
<rscale>  1 0.74490505E+03</rscale>
<asrwt>0</asrwt>
<pdfrwt beam="1">  1       21 0.16893813E+00 0.10295875E+04</pdfrwt>
<pdfrwt beam="2">  1       -4 0.60829480E-01 0.10295875E+04</pdfrwt>
<totfact> 0.19482317E+01</totfact>
</mgrwt>
</event>
<event>
 6    2  0.2220137E-005  0.1168498E+04  0.7818608E-02  0.9330964E-01
         21   -1    0    0  501  502  0.00000000000E+00  0.00000000000E+00  0.53470101500E+03  0.53470101500E+03  0.00000000000E+00 0. -1.
         -4   -1    0    0    0  501 -0.00000000000E+00 -0.00000000000E+00 -0.14438891719E+04  0.14438891719E+04  0.00000000000E+00 0. -1.
   -9000010    2    1    2    0  502  0.10282192697E+03  0.56846414652E+03 -0.71120034723E+03  0.13679159542E+04  0.10157087620E+04 0.  0.
         13    1    3    3    0    0 -0.34905006701E+03 -0.79962946044E+02 -0.34355383761E+03  0.49624517380E+03  0.10566000000E+00 0. -1.
         -4    1    3    3    0  502  0.45187199398E+03  0.64842709256E+03 -0.36764650962E+03  0.87167078037E+03  0.00000000000E+00 0. -1.
        -13    1    1    2    0    0 -0.10282192697E+03 -0.56846414652E+03 -0.19798780962E+03  0.61067423268E+03  0.10566000000E+00 0.  1.
<mgrwt>
<rscale>  1 0.97981595E+03</rscale>
<asrwt>0</asrwt>
<pdfrwt beam="1">  1       21 0.82261695E-01 0.11684982E+04</pdfrwt>
<pdfrwt beam="2">  1       -4 0.22213679E+00 0.11684982E+04</pdfrwt>
<totfact> 0.45229986E+00</totfact>
</mgrwt>
</event>
<event>
 6    2  0.2220137E-005  0.1033585E+04  0.7818608E-02  0.9967692E-01
         21   -1    0    0  501  502  0.00000000000E+00  0.00000000000E+00  0.47484019486E+03  0.47484019486E+03  0.00000000000E+00 0. -1.
         -4   -1    0    0    0  501 -0.00000000000E+00 -0.00000000000E+00 -0.68353964711E+03  0.68353964711E+03  0.00000000000E+00 0. -1.
   -9000010    2    1    2    0  502 -0.20109668944E+02 -0.94079788322E+02 -0.14674020263E+03  0.10439492292E+04  0.10290976148E+04 0.  0.
         13    1    3    3    0    0  0.10956698659E+03 -0.48032015280E+03 -0.33435051926E+03  0.59540125515E+03  0.10566000000E+00 0. -1.
         -4    1    3    3    0  502 -0.12967665553E+03  0.38624036448E+03  0.18761031663E+03  0.44854797408E+03  0.00000000000E+00 0. -1.
        -13    1    1    2    0    0  0.20109668944E+02  0.94079788322E+02 -0.61959249619E+02  0.11443061274E+03  0.10566000000E+00 0.  1.
<mgrwt>
<rscale>  1 0.57089869E+03</rscale>
<asrwt>0</asrwt>
<pdfrwt beam="1">  1       21 0.73052338E-01 0.10335847E+04</pdfrwt>
<pdfrwt beam="2">  1       -4 0.10515995E+00 0.10335847E+04</pdfrwt>
<totfact> 0.47508476E+01</totfact>
</mgrwt>
</event>
<event>
 6    2  0.2220137E-005  0.9860343E+03  0.7818608E-02  0.9860006E-01
         -4   -1    0    0    0  501 -0.00000000000E+00  0.00000000000E+00  0.86261117947E+03  0.86261117947E+03  0.00000000000E+00 0. -1.
         21   -1    0    0  501  502  0.00000000000E+00 -0.00000000000E+00 -0.37866633718E+03  0.37866633718E+03  0.00000000000E+00 0. -1.
   -9000010    2    1    2    0  502 -0.14134805726E+03  0.67236637764E+02  0.40496180430E+03  0.10659539010E+04  0.97353151843E+03 0.  0.
         13    1    3    3    0    0  0.15040292250E+01 -0.24420165923E+03 -0.23571525712E+03  0.33940890689E+03  0.10566000000E+00 0. -1.
         -4    1    3    3    0  502 -0.14285208648E+03  0.31143829699E+03  0.64067706142E+03  0.72654499411E+03  0.00000000000E+00 0. -1.
        -13    1    1    2    0    0  0.14134805726E+03 -0.67236637764E+02  0.78983037999E+02  0.17532361565E+03  0.10566000000E+00 0.  1.
<mgrwt>
<rscale>  1 0.62239327E+03</rscale>
<asrwt>0</asrwt>
<pdfrwt beam="2">  1       21 0.58256360E-01 0.98603431E+03</pdfrwt>
<pdfrwt beam="1">  1       -4 0.13270941E+00 0.98603431E+03</pdfrwt>
<totfact> 0.44418040E+01</totfact>
</mgrwt>
</event>
<event>
 6    2  0.2220137E-005  0.8606592E+03  0.7818608E-02  0.1036336E+00
         -4   -1    0    0    0  501 -0.00000000000E+00  0.00000000000E+00  0.65115705296E+03  0.65115705296E+03  0.00000000000E+00 0. -1.
         21   -1    0    0  501  502  0.00000000000E+00 -0.00000000000E+00 -0.37194257309E+03  0.37194257309E+03  0.00000000000E+00 0. -1.
   -9000010    2    1    2    0  502  0.14663459101E+02  0.47659494775E+02  0.13585504867E+03  0.87131562771E+03  0.85921352665E+03 0.  0.
         13    1    3    3    0    0  0.11972621670E+03 -0.20248715633E+03  0.41815115620E+03  0.47977683983E+03  0.10566000000E+00 0. -1.
         -4    1    3    3    0  502 -0.10506275760E+03  0.25014665110E+03 -0.28229610753E+03  0.39153878788E+03  0.00000000000E+00 0. -1.
        -13    1    1    2    0    0 -0.14663459101E+02 -0.47659494775E+02  0.14335943120E+03  0.15178399835E+03  0.10566000000E+00 0.  1.
<mgrwt>
<rscale>  1 0.42225132E+03</rscale>
<asrwt>0</asrwt>
<pdfrwt beam="2">  1       21 0.57221934E-01 0.86065924E+03</pdfrwt>
<pdfrwt beam="1">  1       -4 0.10017801E+00 0.86065924E+03</pdfrwt>
<totfact> 0.94014154E+01</totfact>
</mgrwt>
</event>
<event>
 6    2  0.2220137E-005  0.1037528E+04  0.7818608E-02  0.9815594E-01
         21   -1    0    0  501  502  0.00000000000E+00  0.00000000000E+00  0.14488985406E+04  0.14488985406E+04  0.00000000000E+00 0. -1.
         -4   -1    0    0    0  501 -0.00000000000E+00 -0.00000000000E+00 -0.25245218586E+03  0.25245218586E+03  0.00000000000E+00 0. -1.
   -9000010    2    1    2    0  502  0.64178993676E+02 -0.14139420427E+03  0.11251122506E+04  0.15304711495E+04  0.10258426287E+04 0.  0.
         13    1    3    3    0    0 -0.19357301890E+03 -0.41409178606E+03  0.10536001996E+04  0.11484841805E+04  0.10566000000E+00 0. -1.
         -4    1    3    3    0  502  0.25775201257E+03  0.27269758179E+03  0.71512050993E+02  0.38198696906E+03  0.00000000000E+00 0. -1.
        -13    1    1    2    0    0 -0.64178993676E+02  0.14139420427E+03  0.71334104074E+02  0.17087957689E+03  0.10566000000E+00 0.  1.
<mgrwt>
<rscale>  1 0.64532337E+03</rscale>
<asrwt>0</asrwt>
<pdfrwt beam="1">  1       21 0.22290746E+00 0.10375280E+04</pdfrwt>
<pdfrwt beam="2">  1       -4 0.38838799E-01 0.10375280E+04</pdfrwt>
<totfact> 0.20997835E+01</totfact>
</mgrwt>
</event>
<event>
 6    2  0.2220137E-005  0.1006051E+04  0.7818608E-02  0.9709988E-01
         21   -1    0    0  501  502  0.00000000000E+00  0.00000000000E+00  0.49720688652E+03  0.49720688652E+03  0.00000000000E+00 0. -1.
         -4   -1    0    0    0  501 -0.00000000000E+00 -0.00000000000E+00 -0.12629505653E+04  0.12629505653E+04  0.00000000000E+00 0. -1.
   -9000010    2    1    2    0  502 -0.23487096503E+03  0.56519770720E+02 -0.52842160363E+02  0.10074374236E+04  0.97661610367E+03 0.  0.
         13    1    3    3    0    0  0.83813307309E+02 -0.41532627036E+03 -0.10241065484E+03  0.43589968424E+03  0.10566000000E+00 0. -1.
         -4    1    3    3    0  502 -0.31868427234E+03  0.47184604108E+03  0.49568494474E+02  0.57153773940E+03  0.00000000000E+00 0. -1.
        -13    1    1    2    0    0  0.23487096503E+03 -0.56519770720E+02 -0.71290151840E+03  0.75272002816E+03  0.10566000000E+00 0.  1.
<mgrwt>
<rscale>  1 0.70425223E+03</rscale>
<asrwt>0</asrwt>
<pdfrwt beam="1">  1       21 0.76493367E-01 0.10060506E+04</pdfrwt>
<pdfrwt beam="2">  1       -4 0.19430009E+00 0.10060506E+04</pdfrwt>
<totfact> 0.83127497E+00</totfact>
</mgrwt>
</event>
<event>
 6    2  0.2220137E-005  0.1125088E+04  0.7818608E-02  0.9550502E-01
         21   -1    0    0  501  502  0.00000000000E+00  0.00000000000E+00  0.20061798583E+04  0.20061798583E+04  0.00000000000E+00 0. -1.
         -4   -1    0    0    0  501 -0.00000000000E+00 -0.00000000000E+00 -0.27018748385E+03  0.27018748385E+03  0.00000000000E+00 0. -1.
   -9000010    2    1    2    0  502 -0.21262612991E+02 -0.29646634443E+03  0.15829603087E+04  0.19420572818E+04  0.10851169315E+04 0.  0.
         13    1    3    3    0    0 -0.44146337574E+03 -0.16258841545E+03  0.23918310978E+03  0.52776270816E+03  0.10566000000E+00 0. -1.
         -4    1    3    3    0  502  0.42020076275E+03 -0.13387792898E+03  0.13437771989E+04  0.14142945737E+04  0.00000000000E+00 0. -1.
        -13    1    1    2    0    0  0.21262612991E+02  0.29646634443E+03  0.15303206573E+03  0.33431006027E+03  0.10566000000E+00 0.  1.
<mgrwt>
<rscale>  1 0.80660752E+03</rscale>
<asrwt>0</asrwt>
<pdfrwt beam="1">  1       21 0.30864305E+00 0.11250881E+04</pdfrwt>
<pdfrwt beam="2">  1       -4 0.41567307E-01 0.11250881E+04</pdfrwt>
<totfact> 0.51682332E+00</totfact>
</mgrwt>
</event>
<event>
 6    2  0.2220137E-005  0.1022182E+04  0.7818608E-02  0.1015265E+00
         -4   -1    0    0    0  501 -0.00000000000E+00  0.00000000000E+00  0.41160799899E+03  0.41160799899E+03  0.00000000000E+00 0. -1.
         21   -1    0    0  501  502  0.00000000000E+00 -0.00000000000E+00 -0.10423904799E+04  0.10423904799E+04  0.00000000000E+00 0. -1.
   -9000010    2    1    2    0  502 -0.55905504763E+02 -0.10885048953E+01 -0.78572743116E+03  0.12892727704E+04  0.10206517869E+04 0.  0.
         13    1    3    3    0    0  0.21523757580E+03  0.44108245129E+03 -0.28100913527E+03  0.56555025253E+03  0.10566000000E+00 0. -1.
         -4    1    3    3    0  502 -0.27114308056E+03 -0.44217095618E+03 -0.50471829589E+03  0.72372251784E+03  0.00000000000E+00 0. -1.
        -13    1    1    2    0    0  0.55905504763E+02  0.10885048953E+01  0.15494495020E+03  0.16472570856E+03  0.10566000000E+00 0.  1.
<mgrwt>
<rscale>  1 0.49434561E+03</rscale>
<asrwt>0</asrwt>
<pdfrwt beam="2">  1       21 0.16036776E+00 0.10221823E+04</pdfrwt>
<pdfrwt beam="1">  1       -4 0.63324308E-01 0.10221823E+04</pdfrwt>
<totfact> 0.20757259E+01</totfact>
</mgrwt>
</event>
<event>
 6    2  0.2220137E-005  0.1074129E+04  0.7818608E-02  0.9505795E-01
         -4   -1    0    0    0  501 -0.00000000000E+00  0.00000000000E+00  0.47537946156E+03  0.47537946156E+03  0.00000000000E+00 0. -1.
         21   -1    0    0  501  502  0.00000000000E+00 -0.00000000000E+00 -0.21577514312E+04  0.21577514312E+04  0.00000000000E+00 0. -1.
   -9000010    2    1    2    0  502 -0.40070292943E+02 -0.39701474718E+03 -0.18970360196E+04  0.21800227342E+04  0.99725980761E+03 0.  0.
         13    1    3    3    0    0 -0.53575441915E+02  0.27397045091E+03 -0.11153861736E+04  0.11497897475E+04  0.10566000000E+00 0. -1.
         -4    1    3    3    0  502  0.13505148973E+02 -0.67098519809E+03 -0.78164984604E+03  0.10302329867E+04  0.00000000000E+00 0. -1.
        -13    1    1    2    0    0  0.40070292943E+02  0.39701474718E+03  0.21466405000E+03  0.45310815859E+03  0.10566000000E+00 0.  1.
<mgrwt>
<rscale>  1 0.83857951E+03</rscale>
<asrwt>0</asrwt>
<pdfrwt beam="2">  1       21 0.33196176E+00 0.10741292E+04</pdfrwt>
<pdfrwt beam="1">  1       -4 0.73135301E-01 0.10741292E+04</pdfrwt>
<totfact> 0.11048625E+00</totfact>
</mgrwt>
</event>
<event>
 6    2  0.2220137E-005  0.9582646E+03  0.7818608E-02  0.9752923E-01
         -4   -1    0    0    0  501 -0.00000000000E+00  0.00000000000E+00  0.80283373189E+03  0.80283373189E+03  0.00000000000E+00 0. -1.
         21   -1    0    0  501  502  0.00000000000E+00 -0.00000000000E+00 -0.54959178633E+03  0.54959178633E+03  0.00000000000E+00 0. -1.
   -9000010    2    1    2    0  502 -0.91881422301E+02 -0.22419268296E+03 -0.55610570817E+02  0.95987686786E+03  0.92712809849E+03 0.  0.
         13    1    3    3    0    0 -0.17631243588E+03 -0.41392276133E+03 -0.37039581646E+03  0.58276170036E+03  0.10566000000E+00 0. -1.
         -4    1    3    3    0  502  0.84431013579E+02  0.18973007836E+03  0.31478524564E+03  0.37711516750E+03  0.00000000000E+00 0. -1.
        -13    1    1    2    0    0  0.91881422301E+02  0.22419268296E+03  0.30885251638E+03  0.39254865035E+03  0.10566000000E+00 0.  1.
<mgrwt>
<rscale>  1 0.67951347E+03</rscale>
<asrwt>0</asrwt>
<pdfrwt beam="2">  1       21 0.84552583E-01 0.95826461E+03</pdfrwt>
<pdfrwt beam="1">  1       -4 0.12351288E+00 0.95826461E+03</pdfrwt>
<totfact> 0.22771300E+01</totfact>
</mgrwt>
</event>
<event>
 6    2  0.2220137E-005  0.1036518E+04  0.7818608E-02  0.9653694E-01
         -4   -1    0    0    0  501 -0.00000000000E+00  0.00000000000E+00  0.28530026044E+03  0.28530026044E+03  0.00000000000E+00 0. -1.
         21   -1    0    0  501  502  0.00000000000E+00 -0.00000000000E+00 -0.26374422443E+04  0.26374422443E+04  0.00000000000E+00 0. -1.
   -9000010    2    1    2    0  502 -0.24253691952E+03 -0.11160619117E+03 -0.24323325308E+04  0.26439762331E+04  0.10015431501E+04 0.  0.
         13    1    3    3    0    0 -0.29284776504E+03 -0.27825890933E+03 -0.29659311156E+03  0.50115398742E+03  0.10566000000E+00 0. -1.
         -4    1    3    3    0  502  0.50310845521E+02  0.16665271816E+03 -0.21357394193E+04  0.21428222457E+04  0.00000000000E+00 0. -1.
        -13    1    1    2    0    0  0.24253691952E+03  0.11160619117E+03  0.80190546920E+02  0.27876627166E+03  0.10566000000E+00 0.  1.
<mgrwt>
<rscale>  1 0.73842019E+03</rscale>
<asrwt>0</asrwt>
<pdfrwt beam="2">  1       21 0.40576037E+00 0.10365176E+04</pdfrwt>
<pdfrwt beam="1">  1       -4 0.43892345E-01 0.10365176E+04</pdfrwt>
<totfact> 0.11274113E+00</totfact>
</mgrwt>
</event>
<event>
 6    2  0.2220137E-005  0.9773144E+03  0.7818608E-02  0.1004933E+00
         -4   -1    0    0    0  501 -0.00000000000E+00  0.00000000000E+00  0.42265792137E+03  0.42265792137E+03  0.00000000000E+00 0. -1.
         21   -1    0    0  501  502  0.00000000000E+00 -0.00000000000E+00 -0.18884569034E+04  0.18884569034E+04  0.00000000000E+00 0. -1.
   -9000010    2    1    2    0  502  0.17798843884E+02  0.86200783732E+02 -0.17550235295E+04  0.20087934329E+04  0.97334274179E+03 0.  0.
         13    1    3    3    0    0  0.86089747142E+02 -0.21717749847E+03 -0.74175443101E+01  0.23373605099E+03  0.10566000000E+00 0. -1.
         -4    1    3    3    0  502 -0.68290903258E+02  0.30337828220E+03 -0.17476059852E+04  0.17750573819E+04  0.00000000000E+00 0. -1.
        -13    1    1    2    0    0 -0.17798843884E+02 -0.86200783732E+02  0.28922454747E+03  0.30232139187E+03  0.10566000000E+00 0.  1.
<mgrwt>
<rscale>  1 0.53538984E+03</rscale>
<asrwt>0</asrwt>
<pdfrwt beam="2">  1       21 0.29053183E+00 0.97731442E+03</pdfrwt>
<pdfrwt beam="1">  1       -4 0.65024295E-01 0.97731442E+03</pdfrwt>
<totfact> 0.26532304E+00</totfact>
</mgrwt>
</event>
<event>
 6    2  0.2220137E-005  0.9733321E+03  0.7818608E-02  0.9588594E-01
         -4   -1    0    0    0  501 -0.00000000000E+00  0.00000000000E+00  0.80947025330E+03  0.80947025330E+03  0.00000000000E+00 0. -1.
         21   -1    0    0  501  502  0.00000000000E+00 -0.00000000000E+00 -0.76849648065E+03  0.76849648065E+03  0.00000000000E+00 0. -1.
   -9000010    2    1    2    0  502 -0.16892965259E+03 -0.36540529489E+03 -0.33278023998E+03  0.10286486747E+04  0.88618121785E+03 0.  0.
         13    1    3    3    0    0 -0.28030050238E+02 -0.64579285443E+03 -0.14334816635E+03  0.66210482743E+03  0.10566000000E+00 0. -1.
         -4    1    3    3    0  502 -0.14089960235E+03  0.28038755953E+03 -0.18943207363E+03  0.36654384731E+03  0.00000000000E+00 0. -1.
        -13    1    1    2    0    0  0.16892965259E+03  0.36540529489E+03  0.37375401262E+03  0.54931805921E+03  0.10566000000E+00 0.  1.
<mgrwt>
<rscale>  1 0.78055712E+03</rscale>
<asrwt>0</asrwt>
<pdfrwt beam="2">  1       21 0.11823023E+00 0.97333212E+03</pdfrwt>
<pdfrwt beam="1">  1       -4 0.12453388E+00 0.97333212E+03</pdfrwt>
<totfact> 0.97096495E+00</totfact>
</mgrwt>
</event>
<event>
 6    2  0.2220137E-005  0.1038201E+04  0.7818608E-02  0.9691652E-01
         21   -1    0    0  501  502  0.00000000000E+00  0.00000000000E+00  0.39898969579E+03  0.39898969579E+03  0.00000000000E+00 0. -1.
         -4   -1    0    0    0  501 -0.00000000000E+00 -0.00000000000E+00 -0.10141154621E+04  0.10141154621E+04  0.00000000000E+00 0. -1.
   -9000010    2    1    2    0  502 -0.11411200833E+03 -0.20401353491E+03 -0.49142971118E+03  0.11486362598E+04  0.10115428925E+04 0.  0.
         13    1    3    3    0    0 -0.33965330425E+03 -0.39129285408E+02  0.20472817982E+03  0.39850860323E+03  0.10566000000E+00 0. -1.
         -4    1    3    3    0  502  0.22554129592E+03 -0.16488424950E+03 -0.69615789100E+03  0.75012765654E+03  0.00000000000E+00 0. -1.
        -13    1    1    2    0    0  0.11411200833E+03  0.20401353491E+03 -0.12369605517E+03  0.26446889817E+03  0.10566000000E+00 0.  1.
<mgrwt>
<rscale>  1 0.71515981E+03</rscale>
<asrwt>0</asrwt>
<pdfrwt beam="1">  1       21 0.61383031E-01 0.10382014E+04</pdfrwt>
<pdfrwt beam="2">  1       -4 0.15601776E+00 0.10382014E+04</pdfrwt>
<totfact> 0.25624892E+01</totfact>
</mgrwt>
</event>
<event>
 6    2  0.2220137E-005  0.9203160E+03  0.7818608E-02  0.1011980E+00
         -4   -1    0    0    0  501 -0.00000000000E+00  0.00000000000E+00  0.15058454954E+04  0.15058454954E+04  0.00000000000E+00 0. -1.
         21   -1    0    0  501  502  0.00000000000E+00 -0.00000000000E+00 -0.16983986002E+03  0.16983986002E+03  0.00000000000E+00 0. -1.
   -9000010    2    1    2    0  502 -0.59483770056E+02  0.60343431881E+02  0.12693623523E+04  0.15678846735E+04  0.91640707080E+03 0.  0.
         13    1    3    3    0    0 -0.16909016013E+03  0.15635546507E+03  0.13710122065E+04  0.13902204844E+04  0.10566000000E+00 0. -1.
         -4    1    3    3    0  502  0.10960639008E+03 -0.96012033185E+02 -0.10164985417E+03  0.17766418917E+03  0.00000000000E+00 0. -1.
        -13    1    1    2    0    0  0.59483770056E+02 -0.60343431881E+02  0.66643283082E+02  0.10780068189E+03  0.10566000000E+00 0.  1.
<mgrwt>
<rscale>  1 0.50695075E+03</rscale>
<asrwt>0</asrwt>
<pdfrwt beam="2">  1       21 0.26129210E-01 0.92031602E+03</pdfrwt>
<pdfrwt beam="1">  1       -4 0.23166853E+00 0.92031602E+03</pdfrwt>
<totfact> 0.47716949E+01</totfact>
</mgrwt>
</event>
<event>
 6    2  0.2220137E-005  0.9981441E+03  0.7818608E-02  0.9784194E-01
         -4   -1    0    0    0  501 -0.00000000000E+00  0.00000000000E+00  0.13639249617E+04  0.13639249617E+04  0.00000000000E+00 0. -1.
         21   -1    0    0  501  502  0.00000000000E+00 -0.00000000000E+00 -0.26535461703E+03  0.26535461703E+03  0.00000000000E+00 0. -1.
   -9000010    2    1    2    0  502 -0.18876084572E+03 -0.41818154205E+02  0.99743442586E+03  0.14110872321E+04  0.97924068938E+03 0.  0.
         13    1    3    3    0    0 -0.19090576359E+03  0.33500300816E+03  0.95741456448E+03  0.10321408264E+04  0.10566000000E+00 0. -1.
         -4    1    3    3    0  502  0.21449178669E+01 -0.37682116236E+03  0.40019861377E+02  0.37894640569E+03  0.00000000000E+00 0. -1.
        -13    1    1    2    0    0  0.18876084572E+03  0.41818154205E+02  0.10113591878E+03  0.21819234663E+03  0.10566000000E+00 0.  1.
<mgrwt>
<rscale>  1 0.66217698E+03</rscale>
<asrwt>0</asrwt>
<pdfrwt beam="2">  1       21 0.40823788E-01 0.99814415E+03</pdfrwt>
<pdfrwt beam="1">  1       -4 0.20983461E+00 0.99814415E+03</pdfrwt>
<totfact> 0.26267483E+01</totfact>
</mgrwt>
</event>
<event>
 6    2  0.2220137E-005  0.1012314E+04  0.7818608E-02  0.9783458E-01
         21   -1    0    0  501  502  0.00000000000E+00  0.00000000000E+00  0.21575164616E+03  0.21575164616E+03  0.00000000000E+00 0. -1.
         -4   -1    0    0    0  501 -0.00000000000E+00 -0.00000000000E+00 -0.18033387098E+04  0.18033387098E+04  0.00000000000E+00 0. -1.
   -9000010    2    1    2    0  502  0.18568940141E+03 -0.58900384420E+01 -0.10881576028E+04  0.14862254164E+04  0.99511997937E+03 0.  0.
         13    1    3    3    0    0  0.51256720181E+03 -0.14236607126E+02 -0.10348545197E+04  0.11549249783E+04  0.10566000000E+00 0. -1.
         -4    1    3    3    0  502 -0.32687780040E+03  0.83465686838E+01 -0.53303083115E+02  0.33130043808E+03  0.00000000000E+00 0. -1.
        -13    1    1    2    0    0 -0.18568940141E+03  0.58900384420E+01 -0.49942946085E+03  0.53286493962E+03  0.10566000000E+00 0.  1.
<mgrwt>
<rscale>  1 0.66257909E+03</rscale>
<asrwt>0</asrwt>
<pdfrwt beam="1">  1       21 0.33192562E-01 0.10123137E+04</pdfrwt>
<pdfrwt beam="2">  1       -4 0.27743672E+00 0.10123137E+04</pdfrwt>
<totfact> 0.15211784E+01</totfact>
</mgrwt>
</event>
<event>
 6    2  0.2220137E-005  0.1011569E+04  0.7818608E-02  0.9807357E-01
         -4   -1    0    0    0  501 -0.00000000000E+00  0.00000000000E+00  0.86768787234E+03  0.86768787234E+03  0.00000000000E+00 0. -1.
         21   -1    0    0  501  502  0.00000000000E+00 -0.00000000000E+00 -0.44609581224E+03  0.44609581224E+03  0.00000000000E+00 0. -1.
   -9000010    2    1    2    0  502 -0.86859651366E+02 -0.14860113957E+03  0.49556626060E+03  0.11264361700E+04  0.99681775100E+03 0.  0.
         13    1    3    3    0    0 -0.20325837756E+03 -0.52427030335E+03  0.10471012503E+03  0.57195938708E+03  0.10566000000E+00 0. -1.
         -4    1    3    3    0  502  0.11639872620E+03  0.37566916378E+03  0.39085613557E+03  0.55447678291E+03  0.00000000000E+00 0. -1.
        -13    1    1    2    0    0  0.86859651366E+02  0.14860113957E+03 -0.73974200504E+02  0.18734751459E+03  0.10566000000E+00 0.  1.
<mgrwt>
<rscale>  1 0.64969211E+03</rscale>
<asrwt>0</asrwt>
<pdfrwt beam="2">  1       21 0.68630125E-01 0.10115693E+04</pdfrwt>
<pdfrwt beam="1">  1       -4 0.13349044E+00 0.10115693E+04</pdfrwt>
<totfact> 0.30192653E+01</totfact>
</mgrwt>
</event>
<event>
 6    2  0.2220137E-005  0.9962240E+03  0.7818608E-02  0.1002150E+00
         -4   -1    0    0    0  501 -0.00000000000E+00  0.00000000000E+00  0.10752649453E+04  0.10752649453E+04  0.00000000000E+00 0. -1.
         21   -1    0    0  501  502  0.00000000000E+00 -0.00000000000E+00 -0.28944302303E+03  0.28944302303E+03  0.00000000000E+00 0. -1.
   -9000010    2    1    2    0  502 -0.69045792803E+02  0.58756449989E+02  0.61345768810E+03  0.11699540664E+04  0.99208998611E+03 0.  0.
         13    1    3    3    0    0 -0.14447978990E+03  0.48344496288E+03  0.12800087745E+03  0.52055516290E+03  0.10566000000E+00 0. -1.
         -4    1    3    3    0  502  0.75433997099E+02 -0.42468851289E+03  0.48545681066E+03  0.64939890354E+03  0.00000000000E+00 0. -1.
        -13    1    1    2    0    0  0.69045792803E+02 -0.58756449989E+02  0.17236423414E+03  0.19475390187E+03  0.10566000000E+00 0.  1.
<mgrwt>
<rscale>  1 0.54717270E+03</rscale>
<asrwt>0</asrwt>
<pdfrwt beam="2">  1       21 0.44529696E-01 0.99622396E+03</pdfrwt>
<pdfrwt beam="1">  1       -4 0.16542537E+00 0.99622396E+03</pdfrwt>
<totfact> 0.44046333E+01</totfact>
</mgrwt>
</event>
<event>
 6    2  0.2220137E-005  0.1058434E+04  0.7818608E-02  0.9572236E-01
         -4   -1    0    0    0  501 -0.00000000000E+00  0.00000000000E+00  0.32196043586E+03  0.32196043586E+03  0.00000000000E+00 0. -1.
         21   -1    0    0  501  502  0.00000000000E+00 -0.00000000000E+00 -0.15985860551E+04  0.15985860551E+04  0.00000000000E+00 0. -1.
   -9000010    2    1    2    0  502 -0.10683761310E+03 -0.31347124494E+03 -0.11578208641E+04  0.15687040859E+04  0.10052884457E+04 0.  0.
         13    1    3    3    0    0  0.17984096961E+03  0.77405921893E+01 -0.11223669623E+04  0.11367102975E+04  0.10566000000E+00 0. -1.
         -4    1    3    3    0  502 -0.28667858270E+03 -0.32121183713E+03 -0.35453901707E+02  0.43199378843E+03  0.00000000000E+00 0. -1.
        -13    1    1    2    0    0  0.10683761310E+03  0.31347124494E+03 -0.11880475522E+03  0.35184240507E+03  0.10566000000E+00 0.  1.
<mgrwt>
<rscale>  1 0.79161342E+03</rscale>
<asrwt>0</asrwt>
<pdfrwt beam="2">  1       21 0.24593631E+00 0.10584344E+04</pdfrwt>
<pdfrwt beam="1">  1       -4 0.49532376E-01 0.10584344E+04</pdfrwt>
<totfact> 0.89769421E+00</totfact>
</mgrwt>
</event>
<event>
 6    2  0.2220137E-005  0.9796040E+03  0.7818608E-02  0.9596142E-01
         -4   -1    0    0    0  501 -0.00000000000E+00  0.00000000000E+00  0.69574326061E+03  0.69574326061E+03  0.00000000000E+00 0. -1.
         21   -1    0    0  501  502  0.00000000000E+00 -0.00000000000E+00 -0.18544491079E+04  0.18544491079E+04  0.00000000000E+00 0. -1.
   -9000010    2    1    2    0  502  0.19203895362E+03  0.33344134205E+03 -0.16544040458E+04  0.19226743978E+04  0.90086736248E+03 0.  0.
         13    1    3    3    0    0 -0.99643709375E+02 -0.13494362607E+03  0.11133636780E+02  0.16811490138E+03  0.10566000000E+00 0. -1.
         -4    1    3    3    0  502  0.29168266299E+03  0.46838496812E+03 -0.16655376826E+04  0.17545594964E+04  0.00000000000E+00 0. -1.
        -13    1    1    2    0    0 -0.19203895362E+03 -0.33344134205E+03  0.49569819858E+03  0.62751797068E+03  0.10566000000E+00 0.  1.
<mgrwt>
<rscale>  1 0.77552074E+03</rscale>
<asrwt>0</asrwt>
<pdfrwt beam="2">  1       21 0.28529986E+00 0.97960405E+03</pdfrwt>
<pdfrwt beam="1">  1       -4 0.10703743E+00 0.97960405E+03</pdfrwt>
<totfact> 0.89919123E-01</totfact>
</mgrwt>
</event>
<event>
 6    2  0.2220137E-005  0.1123031E+04  0.7818608E-02  0.9423463E-01
         21   -1    0    0  501  502  0.00000000000E+00  0.00000000000E+00  0.72100073016E+03  0.72100073016E+03  0.00000000000E+00 0.  1.
         -4   -1    0    0    0  501 -0.00000000000E+00 -0.00000000000E+00 -0.87659662609E+03  0.87659662609E+03  0.00000000000E+00 0. -1.
   -9000010    2    1    2    0  502 -0.44629712828E+03 -0.13658895809E+03 -0.97242926496E+02  0.11272328695E+04  0.10214499915E+04 0.  0.
         13    1    3    3    0    0 -0.48093107559E+03 -0.47006192017E+03 -0.29896657064E+03  0.73595783152E+03  0.10566000000E+00 0. -1.
         -4    1    3    3    0  502  0.34633947307E+02  0.33347296207E+03  0.20172364414E+03  0.39127503798E+03  0.00000000000E+00 0. -1.
        -13    1    1    2    0    0  0.44629712828E+03  0.13658895809E+03 -0.58352969435E+02  0.47036448674E+03  0.10566000000E+00 0.  1.
<mgrwt>
<rscale>  1 0.90169637E+03</rscale>
<asrwt>0</asrwt>
<pdfrwt beam="1">  1       21 0.11092319E+00 0.11230306E+04</pdfrwt>
<pdfrwt beam="2">  1       -4 0.13486102E+00 0.11230306E+04</pdfrwt>
<totfact> 0.91609006E+00</totfact>
</mgrwt>
</event>
<event>
 6    2  0.2220137E-005  0.1207021E+04  0.7818608E-02  0.9265627E-01
         -4   -1    0    0    0  501 -0.00000000000E+00  0.00000000000E+00  0.11840938617E+04  0.11840938617E+04  0.00000000000E+00 0. -1.
         21   -1    0    0  501  502  0.00000000000E+00 -0.00000000000E+00 -0.86509954453E+03  0.86509954453E+03  0.00000000000E+00 0. -1.
   -9000010    2    1    2    0  502  0.40870208898E+03 -0.52522697352E+03 -0.17599804506E+03  0.12197850502E+04  0.10069754146E+04 0.  0.
         13    1    3    3    0    0  0.37975548455E+03 -0.28842509102E+03 -0.57983832253E+03  0.75074346658E+03  0.10566000000E+00 0. -1.
         -4    1    3    3    0  502  0.28946604429E+02 -0.23680188250E+03  0.40384027747E+03  0.46904158363E+03  0.00000000000E+00 0. -1.
        -13    1    1    2    0    0 -0.40870208898E+03  0.52522697352E+03  0.49499236227E+03  0.82940835607E+03  0.10566000000E+00 0.  1.
<mgrwt>
<rscale>  1 0.10400985E+04</rscale>
<asrwt>0</asrwt>
<pdfrwt beam="2">  1       21 0.13309224E+00 0.12070212E+04</pdfrwt>
<pdfrwt beam="1">  1       -4 0.18216829E+00 0.12070212E+04</pdfrwt>
<totfact> 0.24670751E+00</totfact>
</mgrwt>
</event>
<event>
 6    2  0.2220137E-005  0.1008019E+04  0.7818608E-02  0.9984548E-01
         21   -1    0    0  501  502  0.00000000000E+00  0.00000000000E+00  0.27827703663E+03  0.27827703663E+03  0.00000000000E+00 0. -1.
         -4   -1    0    0    0  501 -0.00000000000E+00 -0.00000000000E+00 -0.11679873065E+04  0.11679873065E+04  0.00000000000E+00 0. -1.
   -9000010    2    1    2    0  502  0.94023639452E+02 -0.28750132260E+02 -0.68374489082E+03  0.12180347144E+04  0.10032120788E+04 0.  0.
         13    1    3    3    0    0 -0.11140480477E+03 -0.11850865809E+03 -0.89520317498E+03  0.90985936728E+03  0.10566000000E+00 0. -1.
         -4    1    3    3    0  502  0.20542844423E+03  0.89758525827E+02  0.21145828416E+03  0.30817534716E+03  0.00000000000E+00 0. -1.
        -13    1    1    2    0    0 -0.94023639452E+02  0.28750132260E+02 -0.20596537904E+03  0.22822962868E+03  0.10566000000E+00 0.  1.
<mgrwt>
<rscale>  1 0.56333018E+03</rscale>
<asrwt>0</asrwt>
<pdfrwt beam="1">  1       21 0.42811852E-01 0.10080186E+04</pdfrwt>
<pdfrwt beam="2">  1       -4 0.17969035E+00 0.10080186E+04</pdfrwt>
<totfact> 0.37827730E+01</totfact>
</mgrwt>
</event>
<event>
 6    2  0.2220137E-005  0.1026791E+04  0.7818608E-02  0.9743275E-01
         -4   -1    0    0    0  501 -0.00000000000E+00  0.00000000000E+00  0.94310545045E+03  0.94310545045E+03  0.00000000000E+00 0. -1.
         21   -1    0    0  501  502  0.00000000000E+00 -0.00000000000E+00 -0.45078912148E+03  0.45078912148E+03  0.00000000000E+00 0. -1.
   -9000010    2    1    2    0  502  0.67776865994E+02 -0.19172862285E+03  0.21342526297E+03  0.10487369178E+04  0.10064517929E+04 0.  0.
         13    1    3    3    0    0 -0.22680073848E+03  0.12792247101E+03  0.47480368169E+03  0.54151757208E+03  0.10566000000E+00 0. -1.
         -4    1    3    3    0  502  0.29457760447E+03 -0.31965109385E+03 -0.26137841871E+03  0.50721934568E+03  0.00000000000E+00 0. -1.
        -13    1    1    2    0    0 -0.67776865994E+02  0.19172862285E+03  0.27889106599E+03  0.34515765418E+03  0.10566000000E+00 0.  1.
<mgrwt>
<rscale>  1 0.68497627E+03</rscale>
<asrwt>0</asrwt>
<pdfrwt beam="2">  1       21 0.69352173E-01 0.10267905E+04</pdfrwt>
<pdfrwt beam="1">  1       -4 0.14509315E+00 0.10267905E+04</pdfrwt>
<totfact> 0.23654095E+01</totfact>
</mgrwt>
</event>
<event>
 6    2  0.2220137E-005  0.1046160E+04  0.7818608E-02  0.9623929E-01
         21   -1    0    0  501  502  0.00000000000E+00  0.00000000000E+00  0.12976744987E+04  0.12976744987E+04  0.00000000000E+00 0.  1.
         -4   -1    0    0    0  501 -0.00000000000E+00 -0.00000000000E+00 -0.34834256530E+03  0.34834256530E+03  0.00000000000E+00 0. -1.
   -9000010    2    1    2    0  502 -0.18219525120E+03  0.22213834926E+03  0.65275198522E+03  0.12331003259E+04  0.10059377236E+04 0.  0.
         13    1    3    3    0    0 -0.38097122676E+03 -0.27458918374E+03  0.13513998081E+03  0.48867281592E+03  0.10566000000E+00 0. -1.
         -4    1    3    3    0  502  0.19877597556E+03  0.49672753300E+03  0.51761200441E+03  0.74442750998E+03  0.00000000000E+00 0. -1.
        -13    1    1    2    0    0  0.18219525120E+03 -0.22213834926E+03  0.29657994814E+03  0.41291673807E+03  0.10566000000E+00 0.  1.
<mgrwt>
<rscale>  1 0.75732474E+03</rscale>
<asrwt>0</asrwt>
<pdfrwt beam="1">  1       21 0.19964223E+00 0.10461602E+04</pdfrwt>
<pdfrwt beam="2">  1       -4 0.53591164E-01 0.10461602E+04</pdfrwt>
<totfact> 0.15384394E+01</totfact>
</mgrwt>
</event>
<event>
 6    2  0.2220137E-005  0.1167405E+04  0.7818608E-02  0.9318712E-01
         21   -1    0    0  501  502  0.00000000000E+00  0.00000000000E+00  0.92414110606E+03  0.92414110606E+03  0.00000000000E+00 0.  1.
         -4   -1    0    0    0  501 -0.00000000000E+00 -0.00000000000E+00 -0.11541454278E+04  0.11541454278E+04  0.00000000000E+00 0. -1.
   -9000010    2    1    2    0  502 -0.59095345627E+03  0.13278854352E+03  0.37108007368E+03  0.12249628870E+04  0.99798540500E+03 0.  0.
         13    1    3    3    0    0 -0.65732130070E+03  0.46674412550E+03  0.15283891374E+03  0.82053708982E+03  0.10566000000E+00 0. -1.
         -4    1    3    3    0  502  0.66367844437E+02 -0.33395558197E+03  0.21824115994E+03  0.40442579715E+03  0.00000000000E+00 0. -1.
        -13    1    1    2    0    0  0.59095345627E+03 -0.13278854352E+03 -0.60108439538E+03  0.85332364686E+03  0.10566000000E+00 0.  1.
<mgrwt>
<rscale>  1 0.99078275E+03</rscale>
<asrwt>0</asrwt>
<pdfrwt beam="1">  1       21 0.14217556E+00 0.11674047E+04</pdfrwt>
<pdfrwt beam="2">  1       -4 0.17756083E+00 0.11674047E+04</pdfrwt>
<totfact> 0.22319644E+00</totfact>
</mgrwt>
</event>
<event>
 6    2  0.2220137E-005  0.1025053E+04  0.7818608E-02  0.9784699E-01
         21   -1    0    0  501  502  0.00000000000E+00  0.00000000000E+00  0.27322667882E+03  0.27322667882E+03  0.00000000000E+00 0. -1.
         -4   -1    0    0    0  501 -0.00000000000E+00 -0.00000000000E+00 -0.15763188122E+04  0.15763188122E+04  0.00000000000E+00 0. -1.
   -9000010    2    1    2    0  502 -0.98870861701E+02 -0.14826920684E+03 -0.75467022146E+03  0.12728949819E+04  0.10094430578E+04 0.  0.
         13    1    3    3    0    0 -0.31819140651E+03 -0.50889059297E+03 -0.48898419758E+03  0.77415822894E+03  0.10566000000E+00 0. -1.
         -4    1    3    3    0  502  0.21932054481E+03  0.36062138613E+03 -0.26568602388E+03  0.49873675301E+03  0.00000000000E+00 0. -1.
        -13    1    1    2    0    0  0.98870861701E+02  0.14826920684E+03 -0.54842191189E+03  0.57665050905E+03  0.10566000000E+00 0.  1.
<mgrwt>
<rscale>  1 0.66190185E+03</rscale>
<asrwt>0</asrwt>
<pdfrwt beam="1">  1       21 0.42034873E-01 0.10250534E+04</pdfrwt>
<pdfrwt beam="2">  1       -4 0.24251059E+00 0.10250534E+04</pdfrwt>
<totfact> 0.15289181E+01</totfact>
</mgrwt>
</event>
<event>
 6    2  0.2220137E-005  0.1010387E+04  0.7818608E-02  0.9683116E-01
         21   -1    0    0  501  502  0.00000000000E+00  0.00000000000E+00  0.20302739665E+04  0.20302739665E+04  0.00000000000E+00 0. -1.
         -4   -1    0    0    0  501 -0.00000000000E+00 -0.00000000000E+00 -0.27525532311E+03  0.27525532311E+03  0.00000000000E+00 0. -1.
   -9000010    2    1    2    0  502 -0.25228610923E+03 -0.66816470729E+02  0.17764283896E+04  0.20436684295E+04  0.97609943370E+03 0.  0.
         13    1    3    3    0    0 -0.26418625437E+03  0.75677918825E+02  0.13703329339E+02  0.27515326056E+03  0.10566000000E+00 0. -1.
         -4    1    3    3    0  502  0.11900145142E+02 -0.14249438955E+03  0.17627250603E+04  0.17685151689E+04  0.00000000000E+00 0. -1.
        -13    1    1    2    0    0  0.25228610923E+03  0.66816470729E+02 -0.21409746246E+02  0.26186086013E+03  0.10566000000E+00 0.  1.
<mgrwt>
<rscale>  1 0.72031009E+03</rscale>
<asrwt>0</asrwt>
<pdfrwt beam="1">  1       21 0.31234983E+00 0.10103875E+04</pdfrwt>
<pdfrwt beam="2">  1       -4 0.42346974E-01 0.10103875E+04</pdfrwt>
<totfact> 0.48092224E+00</totfact>
</mgrwt>
</event>
<event>
 6    2  0.2220137E-005  0.9004689E+03  0.7818608E-02  0.9835053E-01
         -4   -1    0    0    0  501 -0.00000000000E+00  0.00000000000E+00  0.95981276989E+03  0.95981276989E+03  0.00000000000E+00 0. -1.
         21   -1    0    0  501  502  0.00000000000E+00 -0.00000000000E+00 -0.33165287182E+03  0.33165287182E+03  0.00000000000E+00 0. -1.
   -9000010    2    1    2    0  502 -0.25234138720E+02 -0.22145920692E+03  0.55060240623E+03  0.10554653922E+04  0.87244669878E+03 0.  0.
         13    1    3    3    0    0  0.35206269565E+03 -0.15777319246E+03  0.10179719434E+01  0.38579990845E+03  0.10566000000E+00 0. -1.
         -4    1    3    3    0  502 -0.37729683437E+03 -0.63686014458E+02  0.54958443428E+03  0.66966548371E+03  0.00000000000E+00 0. -1.
        -13    1    1    2    0    0  0.25234138720E+02  0.22145920692E+03  0.77557491849E+02  0.23600024956E+03  0.10566000000E+00 0.  1.
<mgrwt>
<rscale>  1 0.63514857E+03</rscale>
<asrwt>0</asrwt>
<pdfrwt beam="2">  1       21 0.51023519E-01 0.90046887E+03</pdfrwt>
<pdfrwt beam="1">  1       -4 0.14766350E+00 0.90046887E+03</pdfrwt>
<totfact> 0.45199487E+01</totfact>
</mgrwt>
</event>
<event>
 6    2  0.2220137E-005  0.1033372E+04  0.7818608E-02  0.9632823E-01
         21   -1    0    0  501  502  0.00000000000E+00  0.00000000000E+00  0.13392004562E+04  0.13392004562E+04  0.00000000000E+00 0. -1.
         -4   -1    0    0    0  501 -0.00000000000E+00 -0.00000000000E+00 -0.32655447017E+03  0.32655447017E+03  0.00000000000E+00 0. -1.
   -9000010    2    1    2    0  502  0.18688765579E+03 -0.22071095778E+03  0.78669158585E+03  0.12987457645E+04  0.99207690564E+03 0.  0.
         13    1    3    3    0    0 -0.11633242220E+03 -0.36223317089E+03  0.87374833826E+03  0.95298597699E+03  0.10566000000E+00 0. -1.
         -4    1    3    3    0  502  0.30322007799E+03  0.14152221311E+03 -0.87056752410E+02  0.34575978749E+03  0.00000000000E+00 0. -1.
        -13    1    1    2    0    0 -0.18688765579E+03  0.22071095778E+03  0.22595440014E+03  0.36700916185E+03  0.10566000000E+00 0.  1.
<mgrwt>
<rscale>  1 0.75161324E+03</rscale>
<asrwt>0</asrwt>
<pdfrwt beam="1">  1       21 0.20603084E+00 0.10333716E+04</pdfrwt>
<pdfrwt beam="2">  1       -4 0.50239150E-01 0.10333716E+04</pdfrwt>
<totfact> 0.15983846E+01</totfact>
</mgrwt>
</event>
<event>
 6    2  0.2220137E-005  0.1025232E+04  0.7818608E-02  0.9607346E-01
         21   -1    0    0  501  502  0.00000000000E+00  0.00000000000E+00  0.13601817405E+04  0.13601817405E+04  0.00000000000E+00 0. -1.
         -4   -1    0    0    0  501 -0.00000000000E+00 -0.00000000000E+00 -0.35412489908E+03  0.35412489908E+03  0.00000000000E+00 0. -1.
   -9000010    2    1    2    0  502 -0.21143414704E+03  0.24422579775E+03  0.92597290857E+03  0.13814942506E+04  0.97301073899E+03 0.  0.
         13    1    3    3    0    0 -0.12056235002E+03  0.92329688348E+02  0.11133940561E+04  0.11237020899E+04  0.10566000000E+00 0. -1.
         -4    1    3    3    0  502 -0.90871797021E+02  0.15189610940E+03 -0.18742114754E+03  0.25779216065E+03  0.00000000000E+00 0. -1.
        -13    1    1    2    0    0  0.21143414704E+03 -0.24422579775E+03  0.80083932900E+02  0.33281238903E+03  0.10566000000E+00 0.  1.
<mgrwt>
<rscale>  1 0.76811897E+03</rscale>
<asrwt>0</asrwt>
<pdfrwt beam="1">  1       21 0.20925873E+00 0.10252319E+04</pdfrwt>
<pdfrwt beam="2">  1       -4 0.54480755E-01 0.10252319E+04</pdfrwt>
<totfact> 0.12805712E+01</totfact>
</mgrwt>
</event>
<event>
 6    2  0.2220137E-005  0.1170101E+04  0.7818608E-02  0.9310582E-01
         21   -1    0    0  501  502  0.00000000000E+00  0.00000000000E+00  0.17208749019E+04  0.17208749019E+04  0.00000000000E+00 0.  1.
         -4   -1    0    0    0  501 -0.00000000000E+00 -0.00000000000E+00 -0.62186637765E+03  0.62186637765E+03  0.00000000000E+00 0. -1.
   -9000010    2    1    2    0  502 -0.42578485700E+03  0.45010703136E+03  0.10944083767E+03  0.11752082815E+04  0.99259665713E+03 0.  0.
         13    1    3    3    0    0  0.92597384924E+02 -0.90623845332E+02  0.36217176181E+03  0.38464965001E+03  0.10566000000E+00 0. -1.
         -4    1    3    3    0  502 -0.51838224193E+03  0.54073087669E+03 -0.25273092414E+03  0.79055863146E+03  0.00000000000E+00 0. -1.
        -13    1    1    2    0    0  0.42578485700E+03 -0.45010703136E+03  0.98956768662E+03  0.11675329981E+04  0.10566000000E+00 0.  1.
<mgrwt>
<rscale>  1 0.99814444E+03</rscale>
<asrwt>0</asrwt>
<pdfrwt beam="1">  1       21 0.26474998E+00 0.11701014E+04</pdfrwt>
<pdfrwt beam="2">  1       -4 0.95671751E-01 0.11701014E+04</pdfrwt>
<totfact> 0.15339027E+00</totfact>
</mgrwt>
</event>
<event>
 6    2  0.2220137E-005  0.1030424E+04  0.7818608E-02  0.9938121E-01
         21   -1    0    0  501  502  0.00000000000E+00  0.00000000000E+00  0.83234683237E+03  0.83234683237E+03  0.00000000000E+00 0. -1.
         -4   -1    0    0    0  501 -0.00000000000E+00 -0.00000000000E+00 -0.53960292000E+03  0.53960292000E+03  0.00000000000E+00 0. -1.
   -9000010    2    1    2    0  502 -0.98381215125E+02 -0.41234932321E+02  0.49510161996E+03  0.11431969685E+04  0.10248875605E+04 0.  0.
         13    1    3    3    0    0  0.19929479720E+03  0.42941626725E+03  0.21855619230E+03  0.52142455555E+03  0.10566000000E+00 0. -1.
         -4    1    3    3    0  502 -0.29767601232E+03 -0.47065119957E+03  0.27654542766E+03  0.62177241297E+03  0.00000000000E+00 0. -1.
        -13    1    1    2    0    0  0.98381215125E+02  0.41234932321E+02 -0.20235770759E+03  0.22875278385E+03  0.10566000000E+00 0.  1.
<mgrwt>
<rscale>  1 0.58448844E+03</rscale>
<asrwt>0</asrwt>
<pdfrwt beam="1">  1       21 0.12805336E+00 0.10304240E+04</pdfrwt>
<pdfrwt beam="2">  1       -4 0.83015834E-01 0.10304240E+04</pdfrwt>
<totfact> 0.20896058E+01</totfact>
</mgrwt>
</event>
<event>
 6    2  0.2220137E-005  0.1005591E+04  0.7818608E-02  0.1003722E+00
         -4   -1    0    0    0  501 -0.00000000000E+00  0.00000000000E+00  0.76700466300E+03  0.76700466300E+03  0.00000000000E+00 0. -1.
         21   -1    0    0  501  502  0.00000000000E+00 -0.00000000000E+00 -0.41729913205E+03  0.41729913205E+03  0.00000000000E+00 0. -1.
   -9000010    2    1    2    0  502 -0.79846867975E+02  0.25815520865E+02  0.21929160706E+03  0.10292239248E+04  0.10020833873E+04 0.  0.
         13    1    3    3    0    0 -0.25249146393E+03  0.46139831433E+03  0.19187976650E+03  0.55987337835E+03  0.10566000000E+00 0. -1.
         -4    1    3    3    0  502  0.17264459595E+03 -0.43558279347E+03  0.27411840565E+02  0.46935054648E+03  0.00000000000E+00 0. -1.
        -13    1    1    2    0    0  0.79846867975E+02 -0.25815520865E+02  0.13041392388E+03  0.15507987022E+03  0.10566000000E+00 0.  1.
<mgrwt>
<rscale>  1 0.54047774E+03</rscale>
<asrwt>0</asrwt>
<pdfrwt beam="2">  1       21 0.64199867E-01 0.10055909E+04</pdfrwt>
<pdfrwt beam="1">  1       -4 0.11800072E+00 0.10055909E+04</pdfrwt>
<totfact> 0.48126966E+01</totfact>
</mgrwt>
</event>
<event>
 6    2  0.2220137E-005  0.1032940E+04  0.7818608E-02  0.9733731E-01
         -4   -1    0    0    0  501 -0.00000000000E+00  0.00000000000E+00  0.20153474228E+04  0.20153474228E+04  0.00000000000E+00 0. -1.
         21   -1    0    0  501  502  0.00000000000E+00 -0.00000000000E+00 -0.21318561803E+03  0.21318561803E+03  0.00000000000E+00 0. -1.
   -9000010    2    1    2    0  502 -0.15859248245E+03 -0.13176654643E+03  0.11559368494E+04  0.15502110654E+04  0.10121513470E+04 0.  0.
         13    1    3    3    0    0 -0.46901500458E+03  0.12585563409E+03  0.22413764497E+03  0.53483867681E+03  0.10566000000E+00 0. -1.
         -4    1    3    3    0  502  0.31042252212E+03 -0.25762218052E+03  0.93179920442E+03  0.10153723886E+04  0.00000000000E+00 0. -1.
        -13    1    1    2    0    0  0.15859248245E+03  0.13176654643E+03  0.64622495539E+03  0.67832197546E+03  0.10566000000E+00 0.  1.
<mgrwt>
<rscale>  1 0.69043488E+03</rscale>
<asrwt>0</asrwt>
<pdfrwt beam="2">  1       21 0.32797789E-01 0.10329397E+04</pdfrwt>
<pdfrwt beam="1">  1       -4 0.31005344E+00 0.10329397E+04</pdfrwt>
<totfact> 0.97717331E+00</totfact>
</mgrwt>
</event>
<event>
 6    2  0.2220137E-005  0.9078800E+03  0.7818608E-02  0.9822069E-01
         21   -1    0    0  501  502  0.00000000000E+00  0.00000000000E+00  0.15124327791E+03  0.15124327791E+03  0.00000000000E+00 0. -1.
         -4   -1    0    0    0  501 -0.00000000000E+00 -0.00000000000E+00 -0.23878393355E+04  0.23878393355E+04  0.00000000000E+00 0. -1.
   -9000010    2    1    2    0  502 -0.88853576263E+02 -0.20877361128E+03 -0.13718022553E+04  0.16450190192E+04  0.87907039946E+03 0.  0.
         13    1    3    3    0    0  0.20529596843E+03 -0.29957744979E+03 -0.16378764164E+03  0.39839614179E+03  0.10566000000E+00 0. -1.
         -4    1    3    3    0  502 -0.29414954470E+03  0.90803838510E+02 -0.12080146136E+04  0.12466228774E+04  0.00000000000E+00 0. -1.
        -13    1    1    2    0    0  0.88853576263E+02  0.20877361128E+03 -0.86479380234E+03  0.89406359422E+03  0.10566000000E+00 0.  1.
<mgrwt>
<rscale>  1 0.64191516E+03</rscale>
<asrwt>0</asrwt>
<pdfrwt beam="1">  1       21 0.23268198E-01 0.90788003E+03</pdfrwt>
<pdfrwt beam="2">  1       -4 0.36735988E+00 0.90788003E+03</pdfrwt>
<totfact> 0.84917924E+00</totfact>
</mgrwt>
</event>
<event>
 6    2  0.2220137E-005  0.1066888E+04  0.7818608E-02  0.9518445E-01
         21   -1    0    0  501  502  0.00000000000E+00  0.00000000000E+00  0.57008359126E+03  0.57008359126E+03  0.00000000000E+00 0. -1.
         -4   -1    0    0    0  501 -0.00000000000E+00 -0.00000000000E+00 -0.15099726855E+04  0.15099726855E+04  0.00000000000E+00 0. -1.
   -9000010    2    1    2    0  502  0.38051016055E+03  0.83788298008E+02 -0.46452479093E+01  0.10668980836E+04  0.99319760432E+03 0.  0.
         13    1    3    3    0    0  0.67633881365E+03 -0.29447860318E+02  0.17966986991E+03  0.70041604825E+03  0.10566000000E+00 0. -1.
         -4    1    3    3    0  502 -0.29582865311E+03  0.11323615833E+03 -0.18431511781E+03  0.36648203531E+03  0.00000000000E+00 0. -1.
        -13    1    1    2    0    0 -0.38051016055E+03 -0.83788298008E+02 -0.93524384633E+03  0.10131581932E+04  0.10566000000E+00 0.  1.
<mgrwt>
<rscale>  1 0.82937533E+03</rscale>
<asrwt>0</asrwt>
<pdfrwt beam="1">  1       21 0.87705168E-01 0.10668880E+04</pdfrwt>
<pdfrwt beam="2">  1       -4 0.23230349E+00 0.10668880E+04</pdfrwt>
<totfact> 0.33880399E+00</totfact>
</mgrwt>
</event>
<event>
 6    2  0.2220137E-005  0.9560607E+03  0.7818608E-02  0.9753329E-01
         -4   -1    0    0    0  501 -0.00000000000E+00  0.00000000000E+00  0.11446509698E+04  0.11446509698E+04  0.00000000000E+00 0. -1.
         21   -1    0    0  501  502  0.00000000000E+00 -0.00000000000E+00 -0.35893784470E+03  0.35893784470E+03  0.00000000000E+00 0. -1.
   -9000010    2    1    2    0  502  0.19017739541E+03 -0.15229469435E+03  0.37687991625E+03  0.10276626443E+04  0.92449495596E+03 0.  0.
         13    1    3    3    0    0  0.27306027740E+03  0.23391904356E+02 -0.25025639264E+03  0.37112985532E+03  0.10566000000E+00 0. -1.
         -4    1    3    3    0  502 -0.82882881997E+02 -0.17568659871E+03  0.62713630889E+03  0.65653278899E+03  0.00000000000E+00 0. -1.
        -13    1    1    2    0    0 -0.19017739541E+03  0.15229469435E+03  0.40883320886E+03  0.47592617020E+03  0.10566000000E+00 0.  1.
<mgrwt>
<rscale>  1 0.67928475E+03</rscale>
<asrwt>0</asrwt>
<pdfrwt beam="2">  1       21 0.55221208E-01 0.95606069E+03</pdfrwt>
<pdfrwt beam="1">  1       -4 0.17610015E+00 0.95606069E+03</pdfrwt>
<totfact> 0.23288438E+01</totfact>
</mgrwt>
</event>
<event>
 6    2  0.2220137E-005  0.1060264E+04  0.7818608E-02  0.9418583E-01
         21   -1    0    0  501  502  0.00000000000E+00  0.00000000000E+00  0.36445974019E+03  0.36445974019E+03  0.00000000000E+00 0.  1.
         -4   -1    0    0    0  501 -0.00000000000E+00 -0.00000000000E+00 -0.19330949594E+04  0.19330949594E+04  0.00000000000E+00 0. -1.
   -9000010    2    1    2    0  502 -0.45795665590E+02 -0.56248063237E+03 -0.73210310121E+03  0.12884621863E+04  0.89759576086E+03 0.  0.
         13    1    3    3    0    0  0.84318239620E+00 -0.64501855717E+03 -0.10412636746E+03  0.65336969750E+03  0.10566000000E+00 0. -1.
         -4    1    3    3    0  502 -0.46638847986E+02  0.82537924805E+02 -0.62797673375E+03  0.63509248878E+03  0.00000000000E+00 0. -1.
        -13    1    1    2    0    0  0.45795665590E+02  0.56248063237E+03 -0.83653211798E+03  0.10090925133E+04  0.10566000000E+00 0.  1.
<mgrwt>
<rscale>  1 0.90562018E+03</rscale>
<asrwt>0</asrwt>
<pdfrwt beam="1">  1       21 0.56070729E-01 0.10602640E+04</pdfrwt>
<pdfrwt beam="2">  1       -4 0.29739923E+00 0.10602640E+04</pdfrwt>
<totfact> 0.37479539E+00</totfact>
</mgrwt>
</event>
<event>
 6    2  0.2220137E-005  0.1024446E+04  0.7818608E-02  0.9656856E-01
         -4   -1    0    0    0  501 -0.00000000000E+00  0.00000000000E+00  0.81298320281E+03  0.81298320281E+03  0.00000000000E+00 0. -1.
         21   -1    0    0  501  502  0.00000000000E+00 -0.00000000000E+00 -0.76502535566E+03  0.76502535566E+03  0.00000000000E+00 0. -1.
   -9000010    2    1    2    0  502 -0.13078170663E+03 -0.24030574757E+03 -0.36081412655E+03  0.10861292595E+04  0.98723818166E+03 0.  0.
         13    1    3    3    0    0 -0.28739530333E+03 -0.41257951365E+03  0.15004266575E+03  0.52471966626E+03  0.10566000000E+00 0. -1.
         -4    1    3    3    0  502  0.15661359669E+03  0.17227376608E+03 -0.51085679230E+03  0.56140959324E+03  0.00000000000E+00 0. -1.
        -13    1    1    2    0    0  0.13078170663E+03  0.24030574757E+03  0.40877197370E+03  0.49187929897E+03  0.10566000000E+00 0.  1.
<mgrwt>
<rscale>  1 0.73644675E+03</rscale>
<asrwt>0</asrwt>
<pdfrwt beam="2">  1       21 0.11769621E+00 0.10244462E+04</pdfrwt>
<pdfrwt beam="1">  1       -4 0.12507434E+00 0.10244462E+04</pdfrwt>
<totfact> 0.96578679E+00</totfact>
</mgrwt>
</event>
<event>
 6    2  0.2220137E-005  0.1131257E+04  0.7818608E-02  0.9588233E-01
         -4   -1    0    0    0  501 -0.00000000000E+00  0.00000000000E+00  0.15246291338E+04  0.15246291338E+04  0.00000000000E+00 0. -1.
         21   -1    0    0  501  502  0.00000000000E+00 -0.00000000000E+00 -0.33046658185E+03  0.33046658185E+03  0.00000000000E+00 0. -1.
   -9000010    2    1    2    0  502 -0.21966444342E+03 -0.13287920937E+03  0.80328363184E+03  0.13874466022E+04  0.11017414074E+04 0.  0.
         13    1    3    3    0    0 -0.44572391466E+03 -0.49086129931E+03  0.67234154145E+03  0.94427632756E+03  0.10566000000E+00 0. -1.
         -4    1    3    3    0  502  0.22605947125E+03  0.35798208994E+03  0.13094209038E+03  0.44317027460E+03  0.00000000000E+00 0. -1.
        -13    1    1    2    0    0  0.21966444342E+03  0.13287920937E+03  0.39087892010E+03  0.46764911346E+03  0.10566000000E+00 0.  1.
<mgrwt>
<rscale>  1 0.78079943E+03</rscale>
<asrwt>0</asrwt>
<pdfrwt beam="2">  1       21 0.50841013E-01 0.11312575E+04</pdfrwt>
<pdfrwt beam="1">  1       -4 0.23455832E+00 0.11312575E+04</pdfrwt>
<totfact> 0.11281582E+01</totfact>
</mgrwt>
</event>
<event>
 6    2  0.2220137E-005  0.9863119E+03  0.7818608E-02  0.1019426E+00
         -4   -1    0    0    0  501 -0.00000000000E+00  0.00000000000E+00  0.58163653296E+03  0.58163653296E+03  0.00000000000E+00 0. -1.
         21   -1    0    0  501  502  0.00000000000E+00 -0.00000000000E+00 -0.54631407907E+03  0.54631407907E+03  0.00000000000E+00 0. -1.
   -9000010    2    1    2    0  502 -0.17990183924E+02 -0.51804299801E+02 -0.90739553319E+02  0.99047707631E+03  0.98478618998E+03 0.  0.
         13    1    3    3    0    0 -0.31907459453E+03 -0.40776023514E+03 -0.81748325127E+02  0.52417535812E+03  0.10566000000E+00 0. -1.
         -4    1    3    3    0  502  0.30108441060E+03  0.35595593534E+03 -0.89912281924E+01  0.46630171820E+03  0.00000000000E+00 0. -1.
        -13    1    1    2    0    0  0.17990183924E+02  0.51804299801E+02  0.12606200722E+03  0.13747353572E+03  0.10566000000E+00 0.  1.
<mgrwt>
<rscale>  1 0.47894273E+03</rscale>
<asrwt>0</asrwt>
<pdfrwt beam="2">  1       21 0.84048320E-01 0.98631190E+03</pdfrwt>
<pdfrwt beam="1">  1       -4 0.89482543E-01 0.98631190E+03</pdfrwt>
<totfact> 0.50539189E+01</totfact>
</mgrwt>
</event>
<event>
 6    2  0.2220137E-005  0.1114753E+04  0.7818608E-02  0.9397767E-01
         21   -1    0    0  501  502  0.00000000000E+00  0.00000000000E+00  0.86004752625E+03  0.86004752625E+03  0.00000000000E+00 0. -1.
         -4   -1    0    0    0  501 -0.00000000000E+00 -0.00000000000E+00 -0.85548092694E+03  0.85548092694E+03  0.00000000000E+00 0. -1.
   -9000010    2    1    2    0  502  0.52285460511E+03 -0.12810236024E+02  0.24268203190E+03  0.11408633241E+04  0.98444579096E+03 0.  0.
         13    1    3    3    0    0  0.62458267271E+03  0.45989575335E+02 -0.21977221934E+03  0.66371559846E+03  0.10566000000E+00 0. -1.
         -4    1    3    3    0  502 -0.10172806760E+03 -0.58799811359E+02  0.46245425124E+03  0.47714772560E+03  0.00000000000E+00 0. -1.
        -13    1    1    2    0    0 -0.52285460511E+03  0.12810236024E+02 -0.23811543259E+03  0.57466512913E+03  0.10566000000E+00 0.  1.
<mgrwt>
<rscale>  1 0.92259658E+03</rscale>
<asrwt>0</asrwt>
<pdfrwt beam="1">  1       21 0.13231500E+00 0.11147531E+04</pdfrwt>
<pdfrwt beam="2">  1       -4 0.13161245E+00 0.11147531E+04</pdfrwt>
<totfact> 0.61640155E+00</totfact>
</mgrwt>
</event>
<event>
 6    2  0.2220137E-005  0.1022634E+04  0.7818608E-02  0.9695100E-01
         -4   -1    0    0    0  501 -0.00000000000E+00  0.00000000000E+00  0.21439898006E+04  0.21439898006E+04  0.00000000000E+00 0. -1.
         21   -1    0    0  501  502  0.00000000000E+00 -0.00000000000E+00 -0.24970825411E+03  0.24970825411E+03  0.00000000000E+00 0. -1.
   -9000010    2    1    2    0  502  0.13510434821E+02  0.24140419969E+03  0.87423156417E+03  0.13453848872E+04  0.99364035122E+03 0.  0.
         13    1    3    3    0    0  0.44528606108E+03  0.35780664187E+03  0.55045411072E+03  0.79328746891E+03  0.10566000000E+00 0. -1.
         -4    1    3    3    0  502 -0.43177562626E+03 -0.11640244218E+03  0.32377745345E+03  0.55209741834E+03  0.00000000000E+00 0. -1.
        -13    1    1    2    0    0 -0.13510434821E+02 -0.24140419969E+03  0.10200499823E+04  0.10483131674E+04  0.10566000000E+00 0.  1.
<mgrwt>
<rscale>  1 0.71309281E+03</rscale>
<asrwt>0</asrwt>
<pdfrwt beam="2">  1       21 0.38416656E-01 0.10226337E+04</pdfrwt>
<pdfrwt beam="1">  1       -4 0.32984457E+00 0.10226337E+04</pdfrwt>
<totfact> 0.53052310E+00</totfact>
</mgrwt>
</event>
<event>
 6    2  0.2869092E-005  0.8574644E+03  0.7818608E-02  0.1003370E+00
         21   -1    0    0  501  502  0.00000000000E+00  0.00000000000E+00  0.23687558920E+03  0.23687558920E+03  0.00000000000E+00 0. -1.
         -4   -1    0    0    0  501 -0.00000000000E+00 -0.00000000000E+00 -0.11003336845E+04  0.11003336845E+04  0.00000000000E+00 0. -1.
   -9000010    2    1    2    0  502 -0.10293784773E+03 -0.90177397753E+02 -0.62073090260E+03  0.10585613511E+04  0.84647334095E+03 0.  0.
         13    1    3    3    0    0 -0.39225205737E+03 -0.23008985195E+03 -0.57633132522E+03  0.73413951268E+03  0.10566000000E+00 0. -1.
         -4    1    3    3    0  502  0.28931420964E+03  0.13991245420E+03 -0.44399577377E+02  0.32442183837E+03  0.00000000000E+00 0. -1.
        -13    1    1    2    0    0  0.10293784773E+03  0.90177397753E+02 -0.24272719273E+03  0.27864792268E+03  0.10566000000E+00 0.  1.
<mgrwt>
<rscale>  1 0.54196847E+03</rscale>
<asrwt>0</asrwt>
<pdfrwt beam="1">  1       21 0.36442399E-01 0.85746445E+03</pdfrwt>
<pdfrwt beam="2">  1       -4 0.16928210E+00 0.85746445E+03</pdfrwt>
<totfact> 0.63580395E+01</totfact>
</mgrwt>
</event>
<event>
 6    2  0.2220137E-005  0.1276327E+04  0.7818608E-02  0.9173744E-01
         -4   -1    0    0    0  501 -0.00000000000E+00  0.00000000000E+00  0.10212652976E+04  0.10212652976E+04  0.00000000000E+00 0. -1.
         21   -1    0    0  501  502  0.00000000000E+00 -0.00000000000E+00 -0.13812678982E+04  0.13812678982E+04  0.00000000000E+00 0. -1.
   -9000010    2    1    2    0  502  0.78878293357E+03 -0.73170824094E+02 -0.79014743667E+03  0.15011137169E+04  0.10007381943E+04 0.  0.
         13    1    3    3    0    0  0.71148376819E+03  0.38685181942E+03 -0.50061748796E+03  0.95209314828E+03  0.10566000000E+00 0. -1.
         -4    1    3    3    0  502  0.77299165380E+02 -0.46002264351E+03 -0.28952994872E+03  0.54902056858E+03  0.00000000000E+00 0. -1.
        -13    1    1    2    0    0 -0.78878293357E+03  0.73170824094E+02  0.43014483612E+03  0.90141947892E+03  0.10566000000E+00 0.  1.
<mgrwt>
<rscale>  1 0.11328590E+04</rscale>
<asrwt>0</asrwt>
<pdfrwt beam="2">  1       21 0.21250275E+00 0.12763265E+04</pdfrwt>
<pdfrwt beam="1">  1       -4 0.15711774E+00 0.12763265E+04</pdfrwt>
<totfact> 0.93160159E-01</totfact>
</mgrwt>
</event>
<event>
 6    2  0.2220137E-005  0.1031406E+04  0.7818608E-02  0.9797432E-01
         21   -1    0    0  501  502  0.00000000000E+00  0.00000000000E+00  0.17206510164E+03  0.17206510164E+03  0.00000000000E+00 0. -1.
         -4   -1    0    0    0  501 -0.00000000000E+00 -0.00000000000E+00 -0.24163491478E+04  0.24163491478E+04  0.00000000000E+00 0. -1.
   -9000010    2    1    2    0  502  0.35272651994E+02 -0.16401096072E+03 -0.14673587637E+04  0.17935830341E+04  0.10176711667E+04 0.  0.
         13    1    3    3    0    0  0.40148326364E+03 -0.30227201132E+03 -0.12468199644E+04  0.13442905990E+04  0.10566000000E+00 0. -1.
         -4    1    3    3    0  502 -0.36621061165E+03  0.13826105060E+03 -0.22053879927E+03  0.44929243504E+03  0.00000000000E+00 0. -1.
        -13    1    1    2    0    0 -0.35272651994E+02  0.16401096072E+03 -0.77692528248E+03  0.79483121537E+03  0.10566000000E+00 0.  1.
<mgrwt>
<rscale>  1 0.65500561E+03</rscale>
<asrwt>0</asrwt>
<pdfrwt beam="1">  1       21 0.26471556E-01 0.10314060E+04</pdfrwt>
<pdfrwt beam="2">  1       -4 0.37174600E+00 0.10314060E+04</pdfrwt>
<totfact> 0.60455111E+00</totfact>
</mgrwt>
</event>
<event>
 6    2  0.2220137E-005  0.1000162E+04  0.7818608E-02  0.9783624E-01
         21   -1    0    0  501  502  0.00000000000E+00  0.00000000000E+00  0.14944373797E+03  0.14944373797E+03  0.00000000000E+00 0. -1.
         -4   -1    0    0    0  501 -0.00000000000E+00 -0.00000000000E+00 -0.28442010526E+04  0.28442010526E+04  0.00000000000E+00 0. -1.
   -9000010    2    1    2    0  502  0.13889638783E+03 -0.13332736938E+03 -0.16358401105E+04  0.19173669221E+04  0.98145537470E+03 0.  0.
         13    1    3    3    0    0 -0.32729930414E+03 -0.28215669635E+03 -0.11468315521E+04  0.12255447180E+04  0.10566000000E+00 0. -1.
         -4    1    3    3    0  502  0.46619569197E+03  0.14882932696E+03 -0.48900855847E+03  0.69182220407E+03  0.00000000000E+00 0. -1.
        -13    1    1    2    0    0 -0.13889638783E+03  0.13332736938E+03 -0.10589172041E+04  0.10762778685E+04  0.10566000000E+00 0.  1.
<mgrwt>
<rscale>  1 0.66248811E+03</rscale>
<asrwt>0</asrwt>
<pdfrwt beam="1">  1       21 0.22991345E-01 0.10001615E+04</pdfrwt>
<pdfrwt beam="2">  1       -4 0.43756938E+00 0.10001615E+04</pdfrwt>
<totfact> 0.27876750E+00</totfact>
</mgrwt>
</event>
<event>
 6    2  0.2220137E-005  0.1114573E+04  0.7818608E-02  0.9421021E-01
         21   -1    0    0  501  502  0.00000000000E+00  0.00000000000E+00  0.14223589830E+04  0.14223589830E+04  0.00000000000E+00 0. -1.
         -4   -1    0    0    0  501 -0.00000000000E+00 -0.00000000000E+00 -0.89734469647E+03  0.89734469647E+03  0.00000000000E+00 0. -1.
   -9000010    2    1    2    0  502  0.21261972097E+03 -0.43212853507E+03  0.11025141668E+04  0.15677406887E+04  0.10051523081E+04 0.  0.
         13    1    3    3    0    0 -0.43307505843E+02  0.48080401022E+02 -0.17100560587E+03  0.18283925570E+03  0.10566000000E+00 0. -1.
         -4    1    3    3    0  502  0.25592722681E+03 -0.48020893609E+03  0.12735197727E+04  0.13849014330E+04  0.00000000000E+00 0. -1.
        -13    1    1    2    0    0 -0.21261972097E+03  0.43212853507E+03 -0.57749988030E+03  0.75196299076E+03  0.10566000000E+00 0.  1.
<mgrwt>
<rscale>  1 0.90365763E+03</rscale>
<asrwt>0</asrwt>
<pdfrwt beam="1">  1       21 0.21882446E+00 0.11145732E+04</pdfrwt>
<pdfrwt beam="2">  1       -4 0.13805303E+00 0.11145732E+04</pdfrwt>
<totfact> 0.12248190E+00</totfact>
</mgrwt>
</event>
<event>
 6    2  0.2220137E-005  0.1005036E+04  0.7818608E-02  0.1013887E+00
         21   -1    0    0  501  502  0.00000000000E+00  0.00000000000E+00  0.25348009758E+03  0.25348009758E+03  0.00000000000E+00 0. -1.
         -4   -1    0    0    0  501 -0.00000000000E+00 -0.00000000000E+00 -0.12292493041E+04  0.12292493041E+04  0.00000000000E+00 0. -1.
   -9000010    2    1    2    0  502  0.49814498197E+02 -0.35827973928E+02 -0.76457972439E+03  0.12628063777E+04  0.10031613353E+04 0.  0.
         13    1    3    3    0    0  0.20625194116E+03 -0.46765676076E+03 -0.56541286071E+03  0.76219054267E+03  0.10566000000E+00 0. -1.
         -4    1    3    3    0  502 -0.15643744296E+03  0.43182878684E+03 -0.19916686369E+03  0.50061583504E+03  0.00000000000E+00 0. -1.
        -13    1    1    2    0    0 -0.49814498197E+02  0.35827973928E+02 -0.21118948214E+03  0.21992302398E+03  0.10566000000E+00 0.  1.
<mgrwt>
<rscale>  1 0.49958445E+03</rscale>
<asrwt>0</asrwt>
<pdfrwt beam="1">  1       21 0.38996939E-01 0.10050362E+04</pdfrwt>
<pdfrwt beam="2">  1       -4 0.18911527E+00 0.10050362E+04</pdfrwt>
<totfact> 0.39642537E+01</totfact>
</mgrwt>
</event>
<event>
 6    2  0.2220137E-005  0.1071277E+04  0.7818608E-02  0.9541659E-01
         -4   -1    0    0    0  501 -0.00000000000E+00  0.00000000000E+00  0.24230620260E+04  0.24230620260E+04  0.00000000000E+00 0. -1.
         21   -1    0    0  501  502  0.00000000000E+00 -0.00000000000E+00 -0.25733825742E+03  0.25733825742E+03  0.00000000000E+00 0. -1.
   -9000010    2    1    2    0  502  0.26426437344E+03 -0.23706957750E+03  0.10135096995E+04  0.14747324536E+04  0.10107404490E+04 0.  0.
         13    1    3    3    0    0 -0.21510387405E+03 -0.47970041139E+03  0.59283690589E+03  0.79236214540E+03  0.10566000000E+00 0. -1.
         -4    1    3    3    0  502  0.47936824749E+03  0.24263083389E+03  0.42067279361E+03  0.68237030822E+03  0.00000000000E+00 0. -1.
        -13    1    1    2    0    0 -0.26426437344E+03  0.23706957750E+03  0.11522140691E+04  0.12056678298E+04  0.10566000000E+00 0.  1.
<mgrwt>
<rscale>  1 0.81280956E+03</rscale>
<asrwt>0</asrwt>
<pdfrwt beam="2">  1       21 0.39590503E-01 0.10712768E+04</pdfrwt>
<pdfrwt beam="1">  1       -4 0.37277876E+00 0.10712768E+04</pdfrwt>
<totfact> 0.26033563E+00</totfact>
</mgrwt>
</event>
<event>
 6    2  0.2220137E-005  0.9930838E+03  0.7818608E-02  0.9733230E-01
         21   -1    0    0  501  502  0.00000000000E+00  0.00000000000E+00  0.59551811842E+03  0.59551811842E+03  0.00000000000E+00 0. -1.
         -4   -1    0    0    0  501 -0.00000000000E+00 -0.00000000000E+00 -0.90356833061E+03  0.90356833061E+03  0.00000000000E+00 0. -1.
   -9000010    2    1    2    0  502  0.38810309913E+02  0.22914794907E+03  0.13162064037E+03  0.10017681481E+04  0.96550525985E+03 0.  0.
         13    1    3    3    0    0  0.27670967401E+03 -0.12308912229E+03 -0.27826739292E+03  0.41128083938E+03  0.10566000000E+00 0. -1.
         -4    1    3    3    0  502 -0.23789936410E+03  0.35223707136E+03  0.40988803329E+03  0.59048730868E+03  0.00000000000E+00 0. -1.
        -13    1    1    2    0    0 -0.38810309913E+02 -0.22914794907E+03 -0.43967085256E+03  0.49731830096E+03  0.10566000000E+00 0.  1.
<mgrwt>
<rscale>  1 0.69072274E+03</rscale>
<asrwt>0</asrwt>
<pdfrwt beam="1">  1       21 0.91618172E-01 0.99308380E+03</pdfrwt>
<pdfrwt beam="2">  1       -4 0.13901051E+00 0.99308380E+03</pdfrwt>
<totfact> 0.13803741E+01</totfact>
</mgrwt>
</event>
<event>
 6    2  0.2220137E-005  0.1128210E+04  0.7818608E-02  0.9392720E-01
         21   -1    0    0  501  502  0.00000000000E+00  0.00000000000E+00  0.77673888398E+03  0.77673888398E+03  0.00000000000E+00 0. -1.
         -4   -1    0    0    0  501 -0.00000000000E+00 -0.00000000000E+00 -0.90844634481E+03  0.90844634481E+03  0.00000000000E+00 0. -1.
   -9000010    2    1    2    0  502  0.44040580894E+03 -0.26447261329E+03 -0.25546914688E+03  0.11567725058E+04  0.10044675731E+04 0.  0.
         13    1    3    3    0    0  0.13073198066E+03  0.30923235362E+03 -0.36473866718E+03  0.49573158644E+03  0.10566000000E+00 0. -1.
         -4    1    3    3    0  502  0.30967382828E+03 -0.57370496691E+03  0.10926952030E+03  0.66104091935E+03  0.00000000000E+00 0. -1.
        -13    1    1    2    0    0 -0.44040580894E+03  0.26447261329E+03  0.12376168604E+03  0.52841272300E+03  0.10566000000E+00 0.  1.
<mgrwt>
<rscale>  1 0.92677243E+03</rscale>
<asrwt>0</asrwt>
<pdfrwt beam="1">  1       21 0.11949829E+00 0.11282102E+04</pdfrwt>
<pdfrwt beam="2">  1       -4 0.13976098E+00 0.11282102E+04</pdfrwt>
<totfact> 0.68887142E+00</totfact>
</mgrwt>
</event>
<event>
 6    2  0.2220137E-005  0.1005416E+04  0.7818608E-02  0.9672146E-01
         21   -1    0    0  501  502  0.00000000000E+00  0.00000000000E+00  0.10873496220E+04  0.10873496220E+04  0.00000000000E+00 0. -1.
         -4   -1    0    0    0  501 -0.00000000000E+00 -0.00000000000E+00 -0.39178345975E+03  0.39178345975E+03  0.00000000000E+00 0. -1.
   -9000010    2    1    2    0  502 -0.12603727454E+03 -0.24424582485E+03  0.65833074618E+03  0.12017742800E+04  0.96711976050E+03 0.  0.
         13    1    3    3    0    0  0.33187442936E+03  0.38035048750E+02 -0.21647025950E+02  0.33474752679E+03  0.10566000000E+00 0. -1.
         -4    1    3    3    0  502 -0.45791170390E+03 -0.28228087360E+03  0.67997777213E+03  0.86702675320E+03  0.00000000000E+00 0. -1.
        -13    1    1    2    0    0  0.12603727454E+03  0.24424582485E+03  0.37235416039E+02  0.27735880174E+03  0.10566000000E+00 0.  1.
<mgrwt>
<rscale>  1 0.72699698E+03</rscale>
<asrwt>0</asrwt>
<pdfrwt beam="1">  1       21 0.16728456E+00 0.10054164E+04</pdfrwt>
<pdfrwt beam="2">  1       -4 0.60274379E-01 0.10054164E+04</pdfrwt>
<totfact> 0.20510261E+01</totfact>
</mgrwt>
</event>
<event>
 6    2  0.2220137E-005  0.8938003E+03  0.7818608E-02  0.9806378E-01
         -4   -1    0    0    0  501 -0.00000000000E+00  0.00000000000E+00  0.10825104553E+04  0.10825104553E+04  0.00000000000E+00 0. -1.
         21   -1    0    0  501  502  0.00000000000E+00 -0.00000000000E+00 -0.30686684526E+03  0.30686684526E+03  0.00000000000E+00 0. -1.
   -9000010    2    1    2    0  502 -0.96456280088E+02 -0.23099480479E+03  0.67292564320E+03  0.11187975421E+04  0.85803065513E+03 0.  0.
         13    1    3    3    0    0 -0.47830122340E+02 -0.53316770184E+03  0.60015979278E+03  0.80420601025E+03  0.10566000000E+00 0. -1.
         -4    1    3    3    0  502 -0.48626157749E+02  0.30217289705E+03  0.72765850414E+02  0.31459153185E+03  0.00000000000E+00 0. -1.
        -13    1    1    2    0    0  0.96456280088E+02  0.23099480479E+03  0.10271796683E+03  0.27057975845E+03  0.10566000000E+00 0.  1.
<mgrwt>
<rscale>  1 0.65021403E+03</rscale>
<asrwt>0</asrwt>
<pdfrwt beam="2">  1       21 0.47210284E-01 0.89380032E+03</pdfrwt>
<pdfrwt beam="1">  1       -4 0.16654007E+00 0.89380032E+03</pdfrwt>
<totfact> 0.38516803E+01</totfact>
</mgrwt>
</event>
<event>
 6    2  0.2220137E-005  0.1002507E+04  0.7818608E-02  0.9892636E-01
         -4   -1    0    0    0  501 -0.00000000000E+00  0.00000000000E+00  0.68107757920E+03  0.68107757920E+03  0.00000000000E+00 0. -1.
         21   -1    0    0  501  502  0.00000000000E+00 -0.00000000000E+00 -0.51104423972E+03  0.51104423972E+03  0.00000000000E+00 0. -1.
   -9000010    2    1    2    0  502 -0.38347354765E+02 -0.12842252504E+03  0.36862278054E+02  0.10031842437E+04  0.99350739040E+03 0.  0.
         13    1    3    3    0    0 -0.30767417236E+03 -0.23161668117E+03 -0.35016737878E+03  0.52050637620E+03  0.10566000000E+00 0. -1.
         -4    1    3    3    0  502  0.26932681760E+03  0.10319415613E+03  0.38702965683E+03  0.48267786753E+03  0.00000000000E+00 0. -1.
        -13    1    1    2    0    0  0.38347354765E+02  0.12842252504E+03  0.13317106143E+03  0.18893757519E+03  0.10566000000E+00 0.  1.
<mgrwt>
<rscale>  1 0.60619516E+03</rscale>
<asrwt>0</asrwt>
<pdfrwt beam="2">  1       21 0.78622191E-01 0.10025068E+04</pdfrwt>
<pdfrwt beam="1">  1       -4 0.10478117E+00 0.10025068E+04</pdfrwt>
<totfact> 0.40496299E+01</totfact>
</mgrwt>
</event>
<event>
 6    2  0.2220137E-005  0.1022861E+04  0.7818608E-02  0.9780518E-01
         -4   -1    0    0    0  501 -0.00000000000E+00  0.00000000000E+00  0.17268307332E+04  0.17268307332E+04  0.00000000000E+00 0. -1.
         21   -1    0    0  501  502  0.00000000000E+00 -0.00000000000E+00 -0.21859603659E+03  0.21859603659E+03  0.00000000000E+00 0. -1.
   -9000010    2    1    2    0  502 -0.11479140006E+03  0.14103782554E+03  0.11204425816E+04  0.15171144195E+04  0.10065663662E+04 0.  0.
         13    1    3    3    0    0 -0.33188502809E+03  0.24594891359E+03  0.45638838319E+02  0.41559770776E+03  0.10566000000E+00 0. -1.
         -4    1    3    3    0  502  0.21709362803E+03 -0.10491108805E+03  0.10748037433E+04  0.11015167118E+04  0.00000000000E+00 0. -1.
        -13    1    1    2    0    0  0.11479140006E+03 -0.14103782554E+03  0.38779211498E+03  0.42831235024E+03  0.10566000000E+00 0.  1.
<mgrwt>
<rscale>  1 0.66418593E+03</rscale>
<asrwt>0</asrwt>
<pdfrwt beam="2">  1       21 0.33630161E-01 0.10228610E+04</pdfrwt>
<pdfrwt beam="1">  1       -4 0.26566626E+00 0.10228610E+04</pdfrwt>
<totfact> 0.17477562E+01</totfact>
</mgrwt>
</event>
<event>
 6    2  0.2220137E-005  0.1005232E+04  0.7818608E-02  0.1009409E+00
         -4   -1    0    0    0  501 -0.00000000000E+00  0.00000000000E+00  0.37465723256E+03  0.37465723256E+03  0.00000000000E+00 0. -1.
         21   -1    0    0  501  502  0.00000000000E+00 -0.00000000000E+00 -0.78172456259E+03  0.78172456259E+03  0.00000000000E+00 0. -1.
   -9000010    2    1    2    0  502 -0.56729334926E+02 -0.41669322934E+02 -0.34574836447E+03  0.10630298984E+04  0.10027642213E+04 0.  0.
         13    1    3    3    0    0  0.22038268330E+03  0.30340676253E+03  0.14512593035E+03  0.40210165067E+03  0.10566000000E+00 0. -1.
         -4    1    3    3    0  502 -0.27711201823E+03 -0.34507608546E+03 -0.49087429481E+03  0.66092824778E+03  0.00000000000E+00 0. -1.
        -13    1    1    2    0    0  0.56729334926E+02  0.41669322934E+02 -0.61318965567E+02  0.93351896699E+02  0.10566000000E+00 0.  1.
<mgrwt>
<rscale>  1 0.51710092E+03</rscale>
<asrwt>0</asrwt>
<pdfrwt beam="2">  1       21 0.12026532E+00 0.10052316E+04</pdfrwt>
<pdfrwt beam="1">  1       -4 0.57639575E-01 0.10052316E+04</pdfrwt>
<totfact> 0.55850483E+01</totfact>
</mgrwt>
</event>
<event>
 6    2  0.2220137E-005  0.1013805E+04  0.7818608E-02  0.9702082E-01
         -4   -1    0    0    0  501 -0.00000000000E+00  0.00000000000E+00  0.76030695326E+03  0.76030695326E+03  0.00000000000E+00 0. -1.
         21   -1    0    0  501  502  0.00000000000E+00 -0.00000000000E+00 -0.57531879362E+03  0.57531879362E+03  0.00000000000E+00 0. -1.
   -9000010    2    1    2    0  502  0.24139493776E+03  0.22152527197E+02 -0.26172498565E+02  0.10141431110E+04  0.98439778518E+03 0.  0.
         13    1    3    3    0    0 -0.37579772754E+03  0.68009249989E+02  0.68662594665E+02  0.38802545429E+03  0.10566000000E+00 0. -1.
         -4    1    3    3    0  502  0.61719266530E+03 -0.45856722792E+02 -0.94835093230E+02  0.62611765670E+03  0.00000000000E+00 0. -1.
        -13    1    1    2    0    0 -0.24139493776E+03 -0.22152527197E+02  0.21116065820E+03  0.32148263588E+03  0.10566000000E+00 0.  1.
<mgrwt>
<rscale>  1 0.70892981E+03</rscale>
<asrwt>0</asrwt>
<pdfrwt beam="2">  1       21 0.88510584E-01 0.10138053E+04</pdfrwt>
<pdfrwt beam="1">  1       -4 0.11697030E+00 0.10138053E+04</pdfrwt>
<totfact> 0.23283199E+01</totfact>
</mgrwt>
</event>
<event>
 6    2  0.2220137E-005  0.1023920E+04  0.7818608E-02  0.9685832E-01
         21   -1    0    0  501  502  0.00000000000E+00  0.00000000000E+00  0.58989797530E+03  0.58989797530E+03  0.00000000000E+00 0. -1.
         -4   -1    0    0    0  501 -0.00000000000E+00 -0.00000000000E+00 -0.70052638654E+03  0.70052638654E+03  0.00000000000E+00 0. -1.
   -9000010    2    1    2    0  502 -0.78191596185E+02 -0.23586933649E+03 -0.14602485690E+02  0.10240238004E+04  0.99330923761E+03 0.  0.
         13    1    3    3    0    0  0.42575950670E+03  0.23554531064E+02 -0.12960127019E+03  0.44567081335E+03  0.10566000000E+00 0. -1.
         -4    1    3    3    0  502 -0.50395110288E+03 -0.25942386756E+03  0.11499878450E+03  0.57835298701E+03  0.00000000000E+00 0. -1.
        -13    1    1    2    0    0  0.78191596185E+02  0.23586933649E+03 -0.96025925550E+02  0.26640056147E+03  0.10566000000E+00 0.  1.
<mgrwt>
<rscale>  1 0.71866671E+03</rscale>
<asrwt>0</asrwt>
<pdfrwt beam="1">  1       21 0.90753535E-01 0.10239197E+04</pdfrwt>
<pdfrwt beam="2">  1       -4 0.10777329E+00 0.10239197E+04</pdfrwt>
<totfact> 0.26807823E+01</totfact>
</mgrwt>
</event>
<event>
 6    2  0.2220137E-005  0.1034242E+04  0.7818608E-02  0.9863848E-01
         21   -1    0    0  501  502  0.00000000000E+00  0.00000000000E+00  0.63349209417E+03  0.63349209417E+03  0.00000000000E+00 0. -1.
         -4   -1    0    0    0  501 -0.00000000000E+00 -0.00000000000E+00 -0.63027542816E+03  0.63027542816E+03  0.00000000000E+00 0. -1.
   -9000010    2    1    2    0  502  0.40179977661E+02  0.12779464345E+03  0.17182650576E+03  0.10484185248E+04  0.10255296942E+04 0.  0.
         13    1    3    3    0    0 -0.27221418288E+03 -0.26685345321E+03  0.34699977042E+03  0.51548053182E+03  0.10566000000E+00 0. -1.
         -4    1    3    3    0  502  0.31239416054E+03  0.39464809666E+03 -0.17517326465E+03  0.53293799301E+03  0.00000000000E+00 0. -1.
        -13    1    1    2    0    0 -0.40179977661E+02 -0.12779464345E+03 -0.16860983975E+03  0.21534899750E+03  0.10566000000E+00 0.  1.
<mgrwt>
<rscale>  1 0.62045802E+03</rscale>
<asrwt>0</asrwt>
<pdfrwt beam="1">  1       21 0.97460322E-01 0.10342423E+04</pdfrwt>
<pdfrwt beam="2">  1       -4 0.96965450E-01 0.10342423E+04</pdfrwt>
<totfact> 0.29084860E+01</totfact>
</mgrwt>
</event>
<event>
 6    2  0.2220137E-005  0.8005603E+03  0.7818608E-02  0.9862819E-01
         21   -1    0    0  501  502  0.00000000000E+00  0.00000000000E+00  0.87941645644E+03  0.87941645644E+03  0.00000000000E+00 0. -1.
         -4   -1    0    0    0  501 -0.00000000000E+00 -0.00000000000E+00 -0.45773440765E+03  0.45773440765E+03  0.00000000000E+00 0. -1.
   -9000010    2    1    2    0  502  0.18541028448E+03  0.22274244850E+03  0.59680657349E+03  0.99853636016E+03  0.74626108330E+03 0.  0.
         13    1    3    3    0    0  0.37812068092E+03  0.27813648332E+03  0.63974269749E+03  0.79347708401E+03  0.10566000000E+00 0. -1.
         -4    1    3    3    0  502 -0.19271039644E+03 -0.55394034813E+02 -0.42936124005E+02  0.20505927615E+03  0.00000000000E+00 0. -1.
        -13    1    1    2    0    0 -0.18541028448E+03 -0.22274244850E+03 -0.17512452471E+03  0.33861450393E+03  0.10566000000E+00 0.  1.
<mgrwt>
<rscale>  1 0.62097590E+03</rscale>
<asrwt>0</asrwt>
<pdfrwt beam="1">  1       21 0.13529484E+00 0.80056029E+03</pdfrwt>
<pdfrwt beam="2">  1       -4 0.70420678E-01 0.80056029E+03</pdfrwt>
<totfact> 0.26935017E+01</totfact>
</mgrwt>
</event>
<event>
 6    2  0.2220137E-005  0.1044457E+04  0.7818608E-02  0.9616315E-01
         -4   -1    0    0    0  501 -0.00000000000E+00  0.00000000000E+00  0.70980631829E+03  0.70980631829E+03  0.00000000000E+00 0. -1.
         21   -1    0    0  501  502  0.00000000000E+00 -0.00000000000E+00 -0.64313573300E+03  0.64313573300E+03  0.00000000000E+00 0. -1.
   -9000010    2    1    2    0  502  0.72132575688E+02  0.28738677128E+03  0.12187113634E+03  0.10515430188E+04  0.10015467447E+04 0.  0.
         13    1    3    3    0    0  0.53437088656E+03  0.21392951241E+03  0.46540117943E+02  0.57748080005E+03  0.10566000000E+00 0. -1.
         -4    1    3    3    0  502 -0.46223831087E+03  0.73457258871E+02  0.75331018396E+02  0.47406221876E+03  0.00000000000E+00 0. -1.
        -13    1    1    2    0    0 -0.72132575688E+02 -0.28738677128E+03 -0.55200551042E+02  0.30139903248E+03  0.10566000000E+00 0.  1.
<mgrwt>
<rscale>  1 0.76225663E+03</rscale>
<asrwt>0</asrwt>
<pdfrwt beam="2">  1       21 0.98943958E-01 0.10444569E+04</pdfrwt>
<pdfrwt beam="1">  1       -4 0.10920097E+00 0.10444569E+04</pdfrwt>
<totfact> 0.20972240E+01</totfact>
</mgrwt>
</event>
<event>
 6    2  0.2220137E-005  0.1068057E+04  0.7818608E-02  0.9528291E-01
         21   -1    0    0  501  502  0.00000000000E+00  0.00000000000E+00  0.77541883206E+03  0.77541883206E+03  0.00000000000E+00 0.  1.
         -4   -1    0    0    0  501 -0.00000000000E+00 -0.00000000000E+00 -0.72615762821E+03  0.72615762821E+03  0.00000000000E+00 0. -1.
   -9000010    2    1    2    0  502 -0.29966374359E+03  0.22588062353E+03  0.21807524434E+03  0.10900930381E+04  0.99996280139E+03 0.  0.
         13    1    3    3    0    0  0.16876698904E+03 -0.19098699485E+03 -0.21050590554E+03  0.33056175856E+03  0.10566000000E+00 0. -1.
         -4    1    3    3    0  502 -0.46843073263E+03  0.41686761838E+03  0.42858114989E+03  0.75953127951E+03  0.00000000000E+00 0. -1.
        -13    1    1    2    0    0  0.29966374359E+03 -0.22588062353E+03 -0.16881404049E+03  0.41148342219E+03  0.10566000000E+00 0.  1.
<mgrwt>
<rscale>  1 0.82229769E+03</rscale>
<asrwt>0</asrwt>
<pdfrwt beam="1">  1       21 0.11929521E+00 0.10680571E+04</pdfrwt>
<pdfrwt beam="2">  1       -4 0.11171656E+00 0.10680571E+04</pdfrwt>
<totfact> 0.12320350E+01</totfact>
</mgrwt>
</event>
<event>
 6    2  0.2220137E-005  0.1139878E+04  0.7818608E-02  0.9357546E-01
         21   -1    0    0  501  502  0.00000000000E+00  0.00000000000E+00  0.11572857028E+04  0.11572857028E+04  0.00000000000E+00 0.  1.
         -4   -1    0    0    0  501 -0.00000000000E+00 -0.00000000000E+00 -0.63713415188E+03  0.63713415188E+03  0.00000000000E+00 0. -1.
   -9000010    2    1    2    0  502 -0.78510199131E+02 -0.55975231746E+03  0.24559980524E+03  0.11660368659E+04  0.98986675878E+03 0.  0.
         13    1    3    3    0    0 -0.22614373299E+03 -0.76497418153E+03 -0.21868194543E+02  0.79800044829E+03  0.10566000000E+00 0. -1.
         -4    1    3    3    0  502  0.14763353386E+03  0.20522186407E+03  0.26746799979E+03  0.36803641766E+03  0.00000000000E+00 0. -1.
        -13    1    1    2    0    0  0.78510199131E+02  0.55975231746E+03  0.27455174563E+03  0.62838298868E+03  0.10566000000E+00 0.  1.
<mgrwt>
<rscale>  1 0.95653421E+03</rscale>
<asrwt>0</asrwt>
<pdfrwt beam="1">  1       21 0.17804395E+00 0.11398784E+04</pdfrwt>
<pdfrwt beam="2">  1       -4 0.98020639E-01 0.11398784E+04</pdfrwt>
<totfact> 0.55285908E+00</totfact>
</mgrwt>
</event>
<event>
 6    2  0.2220137E-005  0.1164328E+04  0.7818608E-02  0.9327197E-01
         21   -1    0    0  501  502  0.00000000000E+00  0.00000000000E+00  0.77985403170E+03  0.77985403170E+03  0.00000000000E+00 0.  1.
         -4   -1    0    0    0  501 -0.00000000000E+00 -0.00000000000E+00 -0.10563780956E+04  0.10563780956E+04  0.00000000000E+00 0. -1.
   -9000010    2    1    2    0  502 -0.40967501612E+03 -0.42729326674E+03  0.39899253310E+02  0.11650116855E+04  0.10026201286E+04 0.  0.
         13    1    3    3    0    0 -0.30132403363E+01 -0.65124850027E+03  0.18776155980E+03  0.67778175191E+03  0.10566000000E+00 0. -1.
         -4    1    3    3    0  502 -0.40666177578E+03  0.22395523353E+03 -0.14786230649E+03  0.48722993359E+03  0.00000000000E+00 0. -1.
        -13    1    1    2    0    0  0.40967501612E+03  0.42729326674E+03 -0.31642331721E+03  0.67122044179E+03  0.10566000000E+00 0.  1.
<mgrwt>
<rscale>  1 0.98317116E+03</rscale>
<asrwt>0</asrwt>
<pdfrwt beam="1">  1       21 0.11997754E+00 0.11643283E+04</pdfrwt>
<pdfrwt beam="2">  1       -4 0.16251971E+00 0.11643283E+04</pdfrwt>
<totfact> 0.45164161E+00</totfact>
</mgrwt>
</event>
<event>
 6    2  0.2220137E-005  0.1006749E+04  0.7818608E-02  0.9837524E-01
         21   -1    0    0  501  502  0.00000000000E+00  0.00000000000E+00  0.56535334383E+03  0.56535334383E+03  0.00000000000E+00 0. -1.
         -4   -1    0    0    0  501 -0.00000000000E+00 -0.00000000000E+00 -0.60041632122E+03  0.60041632122E+03  0.00000000000E+00 0. -1.
   -9000010    2    1    2    0  502 -0.14086237093E+03 -0.72034015868E+02 -0.21518644717E+02  0.10069787110E+04  0.99423939033E+03 0.  0.
         13    1    3    3    0    0 -0.31873432385E+03 -0.31047625813E+03 -0.34830613192E+03  0.56507012729E+03  0.10566000000E+00 0. -1.
         -4    1    3    3    0  502  0.17787195292E+03  0.23844224226E+03  0.32678748721E+03  0.44190858367E+03  0.00000000000E+00 0. -1.
        -13    1    1    2    0    0  0.14086237093E+03  0.72034015868E+02 -0.13544332675E+02  0.15879095408E+03  0.10566000000E+00 0.  1.
<mgrwt>
<rscale>  1 0.63387097E+03</rscale>
<asrwt>0</asrwt>
<pdfrwt beam="1">  1       21 0.86977437E-01 0.10067488E+04</pdfrwt>
<pdfrwt beam="2">  1       -4 0.92371742E-01 0.10067488E+04</pdfrwt>
<totfact> 0.43136390E+01</totfact>
</mgrwt>
</event>
<event>
 6    2  0.2220137E-005  0.1098501E+04  0.7818608E-02  0.9447884E-01
         21   -1    0    0  501  502  0.00000000000E+00  0.00000000000E+00  0.54611768039E+03  0.54611768039E+03  0.00000000000E+00 0.  1.
         -4   -1    0    0    0  501 -0.00000000000E+00 -0.00000000000E+00 -0.13283829819E+04  0.13283829819E+04  0.00000000000E+00 0. -1.
   -9000010    2    1    2    0  502  0.41820139670E+03  0.18504914681E+03 -0.87921189723E+03  0.14070241939E+04  0.99878322329E+03 0.  0.
         13    1    3    3    0    0 -0.23984130442E+03 -0.19922028076E+03 -0.12820072680E+03  0.33711720378E+03  0.10566000000E+00 0. -1.
         -4    1    3    3    0  502  0.65804270112E+03  0.38426942756E+03 -0.75101117043E+03  0.10699069901E+04  0.00000000000E+00 0. -1.
        -13    1    1    2    0    0 -0.41820139670E+03 -0.18504914681E+03  0.96946595678E+02  0.46747646841E+03  0.10566000000E+00 0.  1.
<mgrwt>
<rscale>  1 0.88237617E+03</rscale>
<asrwt>0</asrwt>
<pdfrwt beam="1">  1       21 0.84018105E-01 0.10985006E+04</pdfrwt>
<pdfrwt beam="2">  1       -4 0.20436661E+00 0.10985006E+04</pdfrwt>
<totfact> 0.56513406E+00</totfact>
</mgrwt>
</event>
<event>
 6    2  0.2220137E-005  0.1011670E+04  0.7818608E-02  0.9937870E-01
         -4   -1    0    0    0  501 -0.00000000000E+00  0.00000000000E+00  0.70683285359E+03  0.70683285359E+03  0.00000000000E+00 0. -1.
         21   -1    0    0  501  502  0.00000000000E+00 -0.00000000000E+00 -0.86251360130E+03  0.86251360130E+03  0.00000000000E+00 0. -1.
   -9000010    2    1    2    0  502  0.11236606008E+03  0.99597904915E+01 -0.55534116344E+03  0.11540708982E+04  0.10053608812E+04 0.  0.
         13    1    3    3    0    0  0.73988013606E+02  0.36187787166E+03 -0.68404359715E+03  0.77739660027E+03  0.10566000000E+00 0. -1.
         -4    1    3    3    0  502  0.38378046475E+02 -0.35191808117E+03  0.12870243371E+03  0.37667429796E+03  0.00000000000E+00 0. -1.
        -13    1    1    2    0    0 -0.11236606008E+03 -0.99597904915E+01  0.39966041573E+03  0.41527555665E+03  0.10566000000E+00 0.  1.
<mgrwt>
<rscale>  1 0.58460533E+03</rscale>
<asrwt>0</asrwt>
<pdfrwt beam="2">  1       21 0.13269440E+00 0.10116698E+04</pdfrwt>
<pdfrwt beam="1">  1       -4 0.10874352E+00 0.10116698E+04</pdfrwt>
<totfact> 0.10006077E+01</totfact>
</mgrwt>
</event>
<event>
 6    2  0.2220137E-005  0.1007254E+04  0.7818608E-02  0.9990515E-01
         -4   -1    0    0    0  501 -0.00000000000E+00  0.00000000000E+00  0.66999922691E+03  0.66999922691E+03  0.00000000000E+00 0. -1.
         21   -1    0    0  501  502  0.00000000000E+00 -0.00000000000E+00 -0.50353750205E+03  0.50353750205E+03  0.00000000000E+00 0. -1.
   -9000010    2    1    2    0  502 -0.22549320180E+02 -0.94038513494E+02  0.31809072504E+02  0.10077565679E+04  0.10026015007E+04 0.  0.
         13    1    3    3    0    0 -0.49229824676E+03  0.76638456395E+02 -0.52184165042E+02  0.50095330621E+03  0.10566000000E+00 0. -1.
         -4    1    3    3    0  502  0.46974892658E+03 -0.17067696989E+03  0.83993237546E+02  0.50680326165E+03  0.00000000000E+00 0. -1.
        -13    1    1    2    0    0  0.22549320180E+02  0.94038513494E+02  0.13465265235E+03  0.16578016109E+03  0.10566000000E+00 0.  1.
<mgrwt>
<rscale>  1 0.56068102E+03</rscale>
<asrwt>0</asrwt>
<pdfrwt beam="2">  1       21 0.77467307E-01 0.10072544E+04</pdfrwt>
<pdfrwt beam="1">  1       -4 0.10307680E+00 0.10072544E+04</pdfrwt>
<totfact> 0.43616012E+01</totfact>
</mgrwt>
</event>
<event>
 6    2  0.2220137E-005  0.1018166E+04  0.7818608E-02  0.9885572E-01
         21   -1    0    0  501  502  0.00000000000E+00  0.00000000000E+00  0.15852926482E+04  0.15852926482E+04  0.00000000000E+00 0. -1.
         -4   -1    0    0    0  501 -0.00000000000E+00 -0.00000000000E+00 -0.23946153684E+03  0.23946153684E+03  0.00000000000E+00 0. -1.
   -9000010    2    1    2    0  502 -0.90564134121E+02  0.94491565009E+02  0.13534356945E+04  0.16936498026E+04  0.10097182560E+04 0.  0.
         13    1    3    3    0    0 -0.23037738697E+03  0.19288306245E+03  0.14610575374E+04  0.14916322452E+04  0.10566000000E+00 0. -1.
         -4    1    3    3    0  502  0.13981325285E+03 -0.98391497437E+02 -0.10762184286E+03  0.20201755741E+03  0.00000000000E+00 0. -1.
        -13    1    1    2    0    0  0.90564134121E+02 -0.94491565009E+02 -0.76045831548E+01  0.13110438244E+03  0.10566000000E+00 0.  1.
<mgrwt>
<rscale>  1 0.60965650E+03</rscale>
<asrwt>0</asrwt>
<pdfrwt beam="1">  1       21 0.24389117E+00 0.10181657E+04</pdfrwt>
<pdfrwt beam="2">  1       -4 0.36840237E-01 0.10181657E+04</pdfrwt>
<totfact> 0.17125477E+01</totfact>
</mgrwt>
</event>
<event>
 6    2  0.2220137E-005  0.9832250E+03  0.7818608E-02  0.9784132E-01
         -4   -1    0    0    0  501 -0.00000000000E+00  0.00000000000E+00  0.39481820486E+03  0.39481820486E+03  0.00000000000E+00 0. -1.
         21   -1    0    0  501  502  0.00000000000E+00 -0.00000000000E+00 -0.14064275163E+04  0.14064275163E+04  0.00000000000E+00 0. -1.
   -9000010    2    1    2    0  502 -0.58216979040E+02 -0.19375744972E+03 -0.11814723823E+04  0.15370778957E+04  0.96218516997E+03 0.  0.
         13    1    3    3    0    0  0.24825078650E+03 -0.36287348994E+03 -0.10899386698E+04  0.11752752604E+04  0.10566000000E+00 0. -1.
         -4    1    3    3    0  502 -0.30646776554E+03  0.16911604022E+03 -0.91533712546E+02  0.36180263530E+03  0.00000000000E+00 0. -1.
        -13    1    1    2    0    0  0.58216979040E+02  0.19375744972E+03  0.16986307091E+03  0.26416782543E+03  0.10566000000E+00 0.  1.
<mgrwt>
<rscale>  1 0.66221113E+03</rscale>
<asrwt>0</asrwt>
<pdfrwt beam="2">  1       21 0.21637346E+00 0.98322503E+03</pdfrwt>
<pdfrwt beam="1">  1       -4 0.60741262E-01 0.98322503E+03</pdfrwt>
<totfact> 0.91230382E+00</totfact>
</mgrwt>
</event>
<event>
 6    2  0.2220137E-005  0.1099800E+04  0.7818608E-02  0.9456404E-01
         21   -1    0    0  501  502  0.00000000000E+00  0.00000000000E+00  0.58106223362E+03  0.58106223362E+03  0.00000000000E+00 0. -1.
         -4   -1    0    0    0  501 -0.00000000000E+00 -0.00000000000E+00 -0.10239604006E+04  0.10239604006E+04  0.00000000000E+00 0. -1.
   -9000010    2    1    2    0  502  0.28108532891E+03  0.34133416413E+03 -0.33814045893E+03  0.11506085474E+04  0.10069970634E+04 0.  0.
         13    1    3    3    0    0  0.49503197507E+03 -0.12833430920E+03 -0.37354272435E+03  0.63329339910E+03  0.10566000000E+00 0. -1.
         -4    1    3    3    0  502 -0.21394664616E+03  0.46966847333E+03  0.35402265421E+02  0.51731514828E+03  0.00000000000E+00 0. -1.
        -13    1    1    2    0    0 -0.28108532891E+03 -0.34133416413E+03 -0.10475770802E+03  0.45441408680E+03  0.10566000000E+00 0.  1.
<mgrwt>
<rscale>  1 0.87575740E+03</rscale>
<asrwt>0</asrwt>
<pdfrwt beam="1">  1       21 0.89394191E-01 0.10998005E+04</pdfrwt>
<pdfrwt beam="2">  1       -4 0.15753237E+00 0.10998005E+04</pdfrwt>
<totfact> 0.10362033E+01</totfact>
</mgrwt>
</event>
<event>
 6    2  0.2220137E-005  0.1109377E+04  0.7818608E-02  0.9410992E-01
         21   -1    0    0  501  502  0.00000000000E+00  0.00000000000E+00  0.51807850770E+03  0.51807850770E+03  0.00000000000E+00 0. -1.
         -4   -1    0    0    0  501 -0.00000000000E+00 -0.00000000000E+00 -0.13298416848E+04  0.13298416848E+04  0.00000000000E+00 0. -1.
   -9000010    2    1    2    0  502 -0.52022799101E+02 -0.50348875606E+03 -0.35137055527E+03  0.11636916660E+04  0.98717259242E+03 0.  0.
         13    1    3    3    0    0 -0.15166571266E+03  0.64098229490E+02 -0.53429334047E+03  0.55908895201E+03  0.10566000000E+00 0. -1.
         -4    1    3    3    0  502  0.99642913555E+02 -0.56758698555E+03  0.18292278520E+03  0.60460271396E+03  0.00000000000E+00 0. -1.
        -13    1    1    2    0    0  0.52022799101E+02  0.50348875606E+03 -0.46039262178E+03  0.68422852648E+03  0.10566000000E+00 0.  1.
<mgrwt>
<rscale>  1 0.91176574E+03</rscale>
<asrwt>0</asrwt>
<pdfrwt beam="1">  1       21 0.79704386E-01 0.11093769E+04</pdfrwt>
<pdfrwt beam="2">  1       -4 0.20459103E+00 0.11093769E+04</pdfrwt>
<totfact> 0.63732676E+00</totfact>
</mgrwt>
</event>
<event>
 6    2  0.2220137E-005  0.1013653E+04  0.7818608E-02  0.9901042E-01
         -4   -1    0    0    0  501 -0.00000000000E+00  0.00000000000E+00  0.83871560438E+03  0.83871560438E+03  0.00000000000E+00 0. -1.
         21   -1    0    0  501  502  0.00000000000E+00 -0.00000000000E+00 -0.41752053115E+03  0.41752053115E+03  0.00000000000E+00 0. -1.
   -9000010    2    1    2    0  502 -0.80812483350E+02 -0.96920657894E+02  0.25083067333E+03  0.10442259676E+04  0.10057671566E+04 0.  0.
         13    1    3    3    0    0  0.30672584092E+02 -0.63921379207E+02  0.63700011861E+03  0.64093362559E+03  0.10566000000E+00 0. -1.
         -4    1    3    3    0  502 -0.11148506744E+03 -0.32999278687E+02 -0.38616944528E+03  0.40329234201E+03  0.00000000000E+00 0. -1.
        -13    1    1    2    0    0  0.80812483350E+02  0.96920657894E+02  0.17036439990E+03  0.21201016794E+03  0.10566000000E+00 0.  1.
<mgrwt>
<rscale>  1 0.60210797E+03</rscale>
<asrwt>0</asrwt>
<pdfrwt beam="2">  1       21 0.64233928E-01 0.10136527E+04</pdfrwt>
<pdfrwt beam="1">  1       -4 0.12903317E+00 0.10136527E+04</pdfrwt>
<totfact> 0.38286179E+01</totfact>
</mgrwt>
</event>
<event>
 6    2  0.2220137E-005  0.1274798E+04  0.7818608E-02  0.9396575E-01
         21   -1    0    0  501  502  0.00000000000E+00  0.00000000000E+00  0.20706103694E+04  0.20706103694E+04  0.00000000000E+00 0. -1.
         -4   -1    0    0    0  501 -0.00000000000E+00 -0.00000000000E+00 -0.36785126736E+03  0.36785126736E+03  0.00000000000E+00 0. -1.
   -9000010    2    1    2    0  502  0.14292798804E+03 -0.32081912120E+03  0.16471998882E+04  0.20828773912E+04  0.12254621319E+04 0.  0.
         13    1    3    3    0    0  0.15653994543E+03 -0.58159362426E+03  0.17111311375E+04  0.18140357436E+04  0.10566000000E+00 0. -1.
         -4    1    3    3    0  502 -0.13611957398E+02  0.26077450306E+03 -0.63931249268E+02  0.26884164757E+03  0.00000000000E+00 0. -1.
        -13    1    1    2    0    0 -0.14292798804E+03  0.32081912120E+03  0.55559213820E+02  0.35558424557E+03  0.10566000000E+00 0.  1.
<mgrwt>
<rscale>  1 0.92358096E+03</rscale>
<asrwt>0</asrwt>
<pdfrwt beam="1">  1       21 0.31855543E+00 0.12747983E+04</pdfrwt>
<pdfrwt beam="2">  1       -4 0.56592504E-01 0.12747983E+04</pdfrwt>
<totfact> 0.22840678E+00</totfact>
</mgrwt>
</event>
<event>
 6    2  0.2220137E-005  0.1150765E+04  0.7818608E-02  0.9393121E-01
         -4   -1    0    0    0  501 -0.00000000000E+00  0.00000000000E+00  0.13337478675E+04  0.13337478675E+04  0.00000000000E+00 0. -1.
         21   -1    0    0  501  502  0.00000000000E+00 -0.00000000000E+00 -0.85331399982E+03  0.85331399982E+03  0.00000000000E+00 0.  1.
   -9000010    2    1    2    0  502  0.47758854933E+03 -0.74741230241E+02 -0.37004862519E+03  0.12087993485E+04  0.10443097270E+04 0.  0.
         13    1    3    3    0    0  0.28110839267E+03  0.48287689373E+03 -0.15724946389E+03  0.58044761003E+03  0.10566000000E+00 0. -1.
         -4    1    3    3    0  502  0.19648015665E+03 -0.55761812397E+03 -0.21279916130E+03  0.62835173843E+03  0.00000000000E+00 0. -1.
        -13    1    1    2    0    0 -0.47758854933E+03  0.74741230241E+02  0.85048249285E+03  0.97826251883E+03  0.10566000000E+00 0.  1.
<mgrwt>
<rscale>  1 0.92643931E+03</rscale>
<asrwt>0</asrwt>
<pdfrwt beam="2">  1       21 0.13127908E+00 0.11507649E+04</pdfrwt>
<pdfrwt beam="1">  1       -4 0.20519198E+00 0.11507649E+04</pdfrwt>
<totfact> 0.18021249E+00</totfact>
</mgrwt>
</event>
<event>
 6    2  0.2220137E-005  0.9865087E+03  0.7818608E-02  0.9737555E-01
         21   -1    0    0  501  502  0.00000000000E+00  0.00000000000E+00  0.79715781124E+03  0.79715781124E+03  0.00000000000E+00 0. -1.
         -4   -1    0    0    0  501 -0.00000000000E+00 -0.00000000000E+00 -0.66327100379E+03  0.66327100379E+03  0.00000000000E+00 0. -1.
   -9000010    2    1    2    0  502 -0.63984431525E+01 -0.23361331855E+03  0.43592765291E+03  0.10785324859E+04  0.95842750482E+03 0.  0.
         13    1    3    3    0    0  0.60080671865E+02  0.32733740975E+03  0.38866352695E+03  0.51168233827E+03  0.10566000000E+00 0. -1.
         -4    1    3    3    0  502 -0.66479115017E+02 -0.56095072830E+03  0.47264125961E+02  0.56685014767E+03  0.00000000000E+00 0. -1.
        -13    1    1    2    0    0  0.63984431525E+01  0.23361331855E+03 -0.30204084546E+03  0.38189632908E+03  0.10566000000E+00 0.  1.
<mgrwt>
<rscale>  1 0.68824142E+03</rscale>
<asrwt>0</asrwt>
<pdfrwt beam="1">  1       21 0.12263966E+00 0.98650869E+03</pdfrwt>
<pdfrwt beam="2">  1       -4 0.10204169E+00 0.98650869E+03</pdfrwt>
<totfact> 0.14435798E+01</totfact>
</mgrwt>
</event>
<event>
 6    2  0.2220137E-005  0.9950863E+03  0.7818608E-02  0.1034687E+00
         -4   -1    0    0    0  501 -0.00000000000E+00  0.00000000000E+00  0.58465551167E+03  0.58465551167E+03  0.00000000000E+00 0. -1.
         21   -1    0    0  501  502  0.00000000000E+00 -0.00000000000E+00 -0.53960769285E+03  0.53960769285E+03  0.00000000000E+00 0. -1.
   -9000010    2    1    2    0  502 -0.31962017260E+02 -0.11183973828E+02 -0.76561633575E+02  0.99802722750E+03  0.99450993523E+03 0.  0.
         13    1    3    3    0    0 -0.20245911394E+03  0.22562157002E+03 -0.43851881398E+03  0.53309806513E+03  0.10566000000E+00 0. -1.
         -4    1    3    3    0  502  0.17049709668E+03 -0.23680554385E+03  0.36195718040E+03  0.46492916236E+03  0.00000000000E+00 0. -1.
        -13    1    1    2    0    0  0.31962017260E+02  0.11183973828E+02  0.12160945239E+03  0.12623597702E+03  0.10566000000E+00 0.  1.
<mgrwt>
<rscale>  1 0.42739065E+03</rscale>
<asrwt>0</asrwt>
<pdfrwt beam="2">  1       21 0.83016568E-01 0.99508626E+03</pdfrwt>
<pdfrwt beam="1">  1       -4 0.89947002E-01 0.99508626E+03</pdfrwt>
<totfact> 0.51377412E+01</totfact>
</mgrwt>
</event>
<event>
 6    2  0.2220137E-005  0.9938962E+03  0.7818608E-02  0.1031600E+00
         -4   -1    0    0    0  501 -0.00000000000E+00  0.00000000000E+00  0.29889549430E+03  0.29889549430E+03  0.00000000000E+00 0. -1.
         21   -1    0    0  501  502  0.00000000000E+00 -0.00000000000E+00 -0.14185932535E+04  0.14185932535E+04  0.00000000000E+00 0. -1.
   -9000010    2    1    2    0  502 -0.21989789188E+02 -0.30033518570E+02 -0.12413819048E+04  0.15902385788E+04  0.99319894322E+03 0.  0.
         13    1    3    3    0    0  0.19141264128E+03  0.37006859364E+03 -0.21652521319E+03  0.46954525059E+03  0.10566000000E+00 0. -1.
         -4    1    3    3    0  502 -0.21340243047E+03 -0.40010211221E+03 -0.10248566916E+04  0.11206933282E+04  0.00000000000E+00 0. -1.
        -13    1    1    2    0    0  0.21989789188E+02  0.30033518570E+02  0.12168414559E+03  0.12725016903E+03  0.10566000000E+00 0.  1.
<mgrwt>
<rscale>  1 0.43722955E+03</rscale>
<asrwt>0</asrwt>
<pdfrwt beam="2">  1       21 0.21824512E+00 0.99389622E+03</pdfrwt>
<pdfrwt beam="1">  1       -4 0.45983922E-01 0.99389622E+03</pdfrwt>
<totfact> 0.16019285E+01</totfact>
</mgrwt>
</event>
<event>
 6    2  0.2220137E-005  0.1002026E+04  0.7818608E-02  0.9796837E-01
         -4   -1    0    0    0  501 -0.00000000000E+00  0.00000000000E+00  0.58160571173E+03  0.58160571173E+03  0.00000000000E+00 0. -1.
         21   -1    0    0  501  502  0.00000000000E+00 -0.00000000000E+00 -0.72263528197E+03  0.72263528197E+03  0.00000000000E+00 0. -1.
   -9000010    2    1    2    0  502  0.16750218977E+03  0.74473929817E+02 -0.31615724776E+03  0.10507196644E+04  0.98511575872E+03 0.  0.
         13    1    3    3    0    0 -0.20489371571E+03  0.29377953443E+03 -0.47093619908E+03  0.59166609194E+03  0.10566000000E+00 0. -1.
         -4    1    3    3    0  502  0.37239590548E+03 -0.21930560461E+03  0.15477895132E+03  0.45905357247E+03  0.00000000000E+00 0. -1.
        -13    1    1    2    0    0 -0.16750218977E+03 -0.74473929817E+02  0.17512767752E+03  0.25352132928E+03  0.10566000000E+00 0.  1.
<mgrwt>
<rscale>  1 0.65532560E+03</rscale>
<asrwt>0</asrwt>
<pdfrwt beam="2">  1       21 0.11117466E+00 0.10020262E+04</pdfrwt>
<pdfrwt beam="1">  1       -4 0.89477802E-01 0.10020262E+04</pdfrwt>
<totfact> 0.25378297E+01</totfact>
</mgrwt>
</event>
<event>
 6    2  0.2220137E-005  0.9392734E+03  0.7818608E-02  0.1007814E+00
         21   -1    0    0  501  502  0.00000000000E+00  0.00000000000E+00  0.30625204102E+03  0.30625204102E+03  0.00000000000E+00 0. -1.
         -4   -1    0    0    0  501 -0.00000000000E+00 -0.00000000000E+00 -0.11870767479E+04  0.11870767479E+04  0.00000000000E+00 0. -1.
   -9000010    2    1    2    0  502  0.33590269855E+02  0.84200409691E+02 -0.42918877345E+03  0.10326846283E+04  0.93488850830E+03 0.  0.
         13    1    3    3    0    0 -0.15815528144E+03  0.23744449583E+03 -0.64535910170E+03  0.70560708822E+03  0.10566000000E+00 0. -1.
         -4    1    3    3    0  502  0.19174555129E+03 -0.15324408614E+03  0.21617032825E+03  0.32707754003E+03  0.00000000000E+00 0. -1.
        -13    1    1    2    0    0 -0.33590269855E+02 -0.84200409691E+02 -0.45163593348E+03  0.46064416071E+03  0.10566000000E+00 0.  1.
<mgrwt>
<rscale>  1 0.52352806E+03</rscale>
<asrwt>0</asrwt>
<pdfrwt beam="1">  1       21 0.47115697E-01 0.93927341E+03</pdfrwt>
<pdfrwt beam="2">  1       -4 0.18262720E+00 0.93927341E+03</pdfrwt>
<totfact> 0.29626096E+01</totfact>
</mgrwt>
</event>
<event>
 6    2  0.2220137E-005  0.9856406E+03  0.7818608E-02  0.9908828E-01
         21   -1    0    0  501  502  0.00000000000E+00  0.00000000000E+00  0.15755007529E+04  0.15755007529E+04  0.00000000000E+00 0. -1.
         -4   -1    0    0    0  501 -0.00000000000E+00 -0.00000000000E+00 -0.21295285639E+03  0.21295285639E+03  0.00000000000E+00 0. -1.
   -9000010    2    1    2    0  502  0.12474039003E+03 -0.48582982606E+02  0.13211926700E+04  0.16483438772E+04  0.97650754999E+03 0.  0.
         13    1    3    3    0    0  0.29014446778E+03 -0.18210916845E+03  0.34594162923E+02  0.34430267018E+03  0.10566000000E+00 0. -1.
         -4    1    3    3    0  502 -0.16540407775E+03  0.13352618584E+03  0.12865985071E+04  0.13040412070E+04  0.00000000000E+00 0. -1.
        -13    1    1    2    0    0 -0.12474039003E+03  0.48582982606E+02  0.41355226544E+02  0.14010973210E+03  0.10566000000E+00 0.  1.
<mgrwt>
<rscale>  1 0.59835326E+03</rscale>
<asrwt>0</asrwt>
<pdfrwt beam="1">  1       21 0.24238472E+00 0.98564064E+03</pdfrwt>
<pdfrwt beam="2">  1       -4 0.32761979E-01 0.98564064E+03</pdfrwt>
<totfact> 0.22234205E+01</totfact>
</mgrwt>
</event>
<event>
 6    2  0.2220137E-005  0.1163927E+04  0.7818608E-02  0.9658044E-01
         -4   -1    0    0    0  501 -0.00000000000E+00  0.00000000000E+00  0.11131712552E+04  0.11131712552E+04  0.00000000000E+00 0. -1.
         21   -1    0    0  501  502  0.00000000000E+00 -0.00000000000E+00 -0.41942233797E+03  0.41942233797E+03  0.00000000000E+00 0. -1.
   -9000010    2    1    2    0  502 -0.25108552219E+02 -0.18409427373E+03  0.67588814711E+03  0.13459384049E+04  0.11490014193E+04 0.  0.
         13    1    3    3    0    0 -0.21995442615E+02  0.29722302878E+03  0.79590269589E+03  0.84987436767E+03  0.10566000000E+00 0. -1.
         -4    1    3    3    0  502 -0.31131096034E+01 -0.48131730251E+03 -0.12001454878E+03  0.49606403726E+03  0.00000000000E+00 0. -1.
        -13    1    1    2    0    0  0.25108552219E+02  0.18409427373E+03  0.17860770096E+02  0.18665518821E+03  0.10566000000E+00 0.  1.
<mgrwt>
<rscale>  1 0.73570709E+03</rscale>
<asrwt>0</asrwt>
<pdfrwt beam="2">  1       21 0.64526514E-01 0.11639267E+04</pdfrwt>
<pdfrwt beam="1">  1       -4 0.17125711E+00 0.11639267E+04</pdfrwt>
<totfact> 0.17472303E+01</totfact>
</mgrwt>
</event>
<event>
 6    2  0.2220137E-005  0.9329853E+03  0.7818608E-02  0.9761040E-01
         21   -1    0    0  501  502  0.00000000000E+00  0.00000000000E+00  0.32652750316E+03  0.32652750316E+03  0.00000000000E+00 0. -1.
         -4   -1    0    0    0  501 -0.00000000000E+00 -0.00000000000E+00 -0.11419976229E+04  0.11419976229E+04  0.00000000000E+00 0. -1.
   -9000010    2    1    2    0  502  0.16244348469E+03 -0.19728404234E+03 -0.48727601394E+03  0.10525680834E+04  0.89730305770E+03 0.  0.
         13    1    3    3    0    0  0.22252100821E+03  0.27433622893E+03  0.24436485513E+02  0.35408066677E+03  0.10566000000E+00 0. -1.
         -4    1    3    3    0  502 -0.60077523515E+02 -0.47162027126E+03 -0.51171249945E+03  0.69848741663E+03  0.00000000000E+00 0. -1.
        -13    1    1    2    0    0 -0.16244348469E+03  0.19728404234E+03 -0.32819410580E+03  0.41595704265E+03  0.10566000000E+00 0.  1.
<mgrwt>
<rscale>  1 0.67495941E+03</rscale>
<asrwt>0</asrwt>
<pdfrwt beam="1">  1       21 0.50235000E-01 0.93298535E+03</pdfrwt>
<pdfrwt beam="2">  1       -4 0.17569194E+00 0.93298535E+03</pdfrwt>
<totfact> 0.28874668E+01</totfact>
</mgrwt>
</event>
<event>
 6    2  0.2220137E-005  0.1051329E+04  0.7818608E-02  0.9585052E-01
         21   -1    0    0  501  502  0.00000000000E+00  0.00000000000E+00  0.63951437116E+03  0.63951437116E+03  0.00000000000E+00 0. -1.
         -4   -1    0    0    0  501 -0.00000000000E+00 -0.00000000000E+00 -0.74470388828E+03  0.74470388828E+03  0.00000000000E+00 0. -1.
   -9000010    2    1    2    0  502 -0.10411215412E+03  0.30614192647E+03 -0.27658190738E+02  0.10516925649E+04  0.10003649613E+04 0.  0.
         13    1    3    3    0    0 -0.37147611415E+03  0.30646492959E+03 -0.37713338192E+03  0.61167381453E+03  0.10566000000E+00 0. -1.
         -4    1    3    3    0  502  0.26736396003E+03 -0.32300312726E+00  0.34947519118E+03  0.44001875040E+03  0.00000000000E+00 0. -1.
        -13    1    1    2    0    0  0.10411215412E+03 -0.30614192647E+03 -0.77531326377E+02  0.33252569451E+03  0.10566000000E+00 0.  1.
<mgrwt>
<rscale>  1 0.78293513E+03</rscale>
<asrwt>0</asrwt>
<pdfrwt beam="1">  1       21 0.98386826E-01 0.10513288E+04</pdfrwt>
<pdfrwt beam="2">  1       -4 0.11456983E+00 0.10513288E+04</pdfrwt>
<totfact> 0.18877049E+01</totfact>
</mgrwt>
</event>
<event>
 6    2  0.2220137E-005  0.1016072E+04  0.7818608E-02  0.9827264E-01
         -4   -1    0    0    0  501 -0.00000000000E+00  0.00000000000E+00  0.77113051397E+03  0.77113051397E+03  0.00000000000E+00 0. -1.
         21   -1    0    0  501  502  0.00000000000E+00 -0.00000000000E+00 -0.52753999423E+03  0.52753999423E+03  0.00000000000E+00 0. -1.
   -9000010    2    1    2    0  502 -0.13473198777E+03  0.84683315797E+02  0.10117594550E+02  0.10161221221E+04  0.10035326746E+04 0.  0.
         13    1    3    3    0    0 -0.10955765736E+03  0.49586753444E+03 -0.20943037072E+03  0.54931646920E+03  0.10566000000E+00 0. -1.
         -4    1    3    3    0  502 -0.25174330416E+02 -0.41118421864E+03  0.21954796527E+03  0.46680565295E+03  0.00000000000E+00 0. -1.
        -13    1    1    2    0    0  0.13473198777E+03 -0.84683315797E+02  0.23347292518E+03  0.28254838605E+03  0.10566000000E+00 0.  1.
<mgrwt>
<rscale>  1 0.63919708E+03</rscale>
<asrwt>0</asrwt>
<pdfrwt beam="2">  1       21 0.81159998E-01 0.10160718E+04</pdfrwt>
<pdfrwt beam="1">  1       -4 0.11863546E+00 0.10160718E+04</pdfrwt>
<totfact> 0.27629636E+01</totfact>
</mgrwt>
</event>
<event>
 6    2  0.2220137E-005  0.1184149E+04  0.7818608E-02  0.9290068E-01
         21   -1    0    0  501  502  0.00000000000E+00  0.00000000000E+00  0.56998196175E+03  0.56998196175E+03  0.00000000000E+00 0. -1.
         -4   -1    0    0    0  501 -0.00000000000E+00 -0.00000000000E+00 -0.14669869967E+04  0.14669869967E+04  0.00000000000E+00 0. -1.
   -9000010    2    1    2    0  502 -0.40282764257E+03 -0.50287659142E+03 -0.60010698940E+03  0.13275301405E+04  0.99350535951E+03 0.  0.
         13    1    3    3    0    0  0.84967850450E+02  0.44415998434E+02 -0.58649279403E+03  0.59427781814E+03  0.10566000000E+00 0. -1.
         -4    1    3    3    0  502 -0.48779549302E+03 -0.54729258985E+03 -0.13614195372E+02  0.73325232235E+03  0.00000000000E+00 0. -1.
        -13    1    1    2    0    0  0.40282764257E+03  0.50287659142E+03 -0.29689804556E+03  0.70943881796E+03  0.10566000000E+00 0.  1.
<mgrwt>
<rscale>  1 0.10170235E+04</rscale>
<asrwt>0</asrwt>
<pdfrwt beam="1">  1       21 0.87689534E-01 0.11841486E+04</pdfrwt>
<pdfrwt beam="2">  1       -4 0.22569030E+00 0.11841486E+04</pdfrwt>
<totfact> 0.36781079E+00</totfact>
</mgrwt>
</event>
<event>
 6    2  0.2220137E-005  0.1131120E+04  0.7818608E-02  0.9372159E-01
         21   -1    0    0  501  502  0.00000000000E+00  0.00000000000E+00  0.73400467750E+03  0.73400467750E+03  0.00000000000E+00 0.  1.
         -4   -1    0    0    0  501 -0.00000000000E+00 -0.00000000000E+00 -0.96122693953E+03  0.96122693953E+03  0.00000000000E+00 0. -1.
   -9000010    2    1    2    0  502 -0.33337548283E+03 -0.43593404732E+03 -0.15664137636E+03  0.11419149096E+04  0.98906796215E+03 0.  0.
         13    1    3    3    0    0  0.31709943613E+03 -0.63580654083E+02  0.11713348261E+03  0.34396920775E+03  0.10566000000E+00 0. -1.
         -4    1    3    3    0  502 -0.65047491897E+03 -0.37235339323E+03 -0.27377485897E+03  0.79794570182E+03  0.00000000000E+00 0. -1.
        -13    1    1    2    0    0  0.33337548283E+03  0.43593404732E+03 -0.70580885680E+02  0.55331670746E+03  0.10566000000E+00 0.  1.
<mgrwt>
<rscale>  1 0.94402720E+03</rscale>
<asrwt>0</asrwt>
<pdfrwt beam="1">  1       21 0.11292380E+00 0.11311203E+04</pdfrwt>
<pdfrwt beam="2">  1       -4 0.14788107E+00 0.11311203E+04</pdfrwt>
<totfact> 0.68545584E+00</totfact>
</mgrwt>
</event>
<event>
 6    2  0.2220137E-005  0.1005476E+04  0.7818608E-02  0.9619593E-01
         21   -1    0    0  501  502  0.00000000000E+00  0.00000000000E+00  0.64658996830E+03  0.64658996830E+03  0.00000000000E+00 0. -1.
         -4   -1    0    0    0  501 -0.00000000000E+00 -0.00000000000E+00 -0.69844767542E+03  0.69844767542E+03  0.00000000000E+00 0. -1.
   -9000010    2    1    2    0  502  0.32529136180E+03  0.45241688547E+02  0.32332850156E+02  0.10059958446E+04  0.95032675736E+03 0.  0.
         13    1    3    3    0    0  0.22177121034E+03 -0.15778419405E+03 -0.41943361508E+03  0.50000289024E+03  0.10566000000E+00 0. -1.
         -4    1    3    3    0  502  0.10352015146E+03  0.20302588259E+03  0.45176646524E+03  0.50599295437E+03  0.00000000000E+00 0. -1.
        -13    1    1    2    0    0 -0.32529136180E+03 -0.45241688547E+02 -0.84190557273E+02  0.33904179911E+03  0.10566000000E+00 0.  1.
<mgrwt>
<rscale>  1 0.76012851E+03</rscale>
<asrwt>0</asrwt>
<pdfrwt beam="1">  1       21 0.99475380E-01 0.10054761E+04</pdfrwt>
<pdfrwt beam="2">  1       -4 0.10745349E+00 0.10054761E+04</pdfrwt>
<totfact> 0.21613977E+01</totfact>
</mgrwt>
</event>
<event>
 6    2  0.2220137E-005  0.1009470E+04  0.7818608E-02  0.9854223E-01
         -4   -1    0    0    0  501 -0.00000000000E+00  0.00000000000E+00  0.81180148747E+03  0.81180148747E+03  0.00000000000E+00 0. -1.
         21   -1    0    0  501  502  0.00000000000E+00 -0.00000000000E+00 -0.51362003686E+03  0.51362003686E+03  0.00000000000E+00 0. -1.
   -9000010    2    1    2    0  502  0.56730676275E+02 -0.13738633154E+03  0.19592267030E+02  0.10096600351E+04  0.99846690269E+03 0.  0.
         13    1    3    3    0    0 -0.35955921932E+03 -0.10417537898E+03 -0.30328628695E+03  0.48178618162E+03  0.10566000000E+00 0. -1.
         -4    1    3    3    0  502  0.41628989559E+03 -0.33210952559E+02  0.32287855398E+03  0.52787385346E+03  0.00000000000E+00 0. -1.
        -13    1    1    2    0    0 -0.56730676275E+02  0.13738633154E+03  0.27858918359E+03  0.31576148926E+03  0.10566000000E+00 0.  1.
<mgrwt>
<rscale>  1 0.62532072E+03</rscale>
<asrwt>0</asrwt>
<pdfrwt beam="2">  1       21 0.79018468E-01 0.10094699E+04</pdfrwt>
<pdfrwt beam="1">  1       -4 0.12489254E+00 0.10094699E+04</pdfrwt>
<totfact> 0.25849230E+01</totfact>
</mgrwt>
</event>
<event>
 6    2  0.2220137E-005  0.1129718E+04  0.7818608E-02  0.9388082E-01
         -4   -1    0    0    0  501 -0.00000000000E+00  0.00000000000E+00  0.66238037817E+03  0.66238037817E+03  0.00000000000E+00 0. -1.
         21   -1    0    0  501  502  0.00000000000E+00 -0.00000000000E+00 -0.10717556939E+04  0.10717556939E+04  0.00000000000E+00 0.  1.
   -9000010    2    1    2    0  502  0.45647085428E+03 -0.24955356588E+03 -0.44147022261E+03  0.12129137421E+04  0.10028066440E+04 0.  0.
         13    1    3    3    0    0  0.56794109435E+03 -0.17947006939E+03 -0.70222051148E+03  0.92080413246E+03  0.10566000000E+00 0. -1.
         -4    1    3    3    0  502 -0.11147024007E+03 -0.70083496483E+02  0.26075028887E+03  0.29210960964E+03  0.00000000000E+00 0. -1.
        -13    1    1    2    0    0 -0.45647085428E+03  0.24955356588E+03  0.32094906869E+02  0.52122232997E+03  0.10566000000E+00 0.  1.
<mgrwt>
<rscale>  1 0.93063031E+03</rscale>
<asrwt>0</asrwt>
<pdfrwt beam="2">  1       21 0.16488549E+00 0.11297185E+04</pdfrwt>
<pdfrwt beam="1">  1       -4 0.10190467E+00 0.11297185E+04</pdfrwt>
<totfact> 0.63206847E+00</totfact>
</mgrwt>
</event>
<event>
 6    2  0.2220137E-005  0.1194248E+04  0.7818608E-02  0.9413477E-01
         -4   -1    0    0    0  501 -0.00000000000E+00  0.00000000000E+00  0.67553966533E+03  0.67553966533E+03  0.00000000000E+00 0. -1.
         21   -1    0    0  501  502  0.00000000000E+00 -0.00000000000E+00 -0.10050260862E+04  0.10050260862E+04  0.00000000000E+00 0. -1.
   -9000010    2    1    2    0  502 -0.10048663192E+03 -0.38940514625E+03 -0.42429262308E+03  0.12673803715E+04  0.11244975967E+04 0.  0.
         13    1    3    3    0    0 -0.42150940642E+03 -0.77418376717E+02  0.22086761226E+03  0.48212684852E+03  0.10566000000E+00 0. -1.
         -4    1    3    3    0  502  0.32102277450E+03 -0.31198676953E+03 -0.64516023534E+03  0.78525352299E+03  0.00000000000E+00 0. -1.
        -13    1    1    2    0    0  0.10048663192E+03  0.38940514625E+03  0.94806202208E+02  0.41318538002E+03  0.10566000000E+00 0.  1.
<mgrwt>
<rscale>  1 0.90974797E+03</rscale>
<asrwt>0</asrwt>
<pdfrwt beam="2">  1       21 0.15461940E+00 0.11942482E+04</pdfrwt>
<pdfrwt beam="1">  1       -4 0.10392918E+00 0.11942482E+04</pdfrwt>
<totfact> 0.71942688E+00</totfact>
</mgrwt>
</event>
<event>
 6    2  0.2220137E-005  0.1031165E+04  0.7818608E-02  0.9648668E-01
         21   -1    0    0  501  502  0.00000000000E+00  0.00000000000E+00  0.52484928988E+03  0.52484928988E+03  0.00000000000E+00 0. -1.
         -4   -1    0    0    0  501 -0.00000000000E+00 -0.00000000000E+00 -0.87154698232E+03  0.87154698232E+03  0.00000000000E+00 0. -1.
   -9000010    2    1    2    0  502  0.27352573107E+03 -0.35497521579E+02 -0.41614088452E+03  0.11119691854E+04  0.99359238825E+03 0.  0.
         13    1    3    3    0    0  0.59131674145E+02  0.44303093161E+03 -0.37948422871E+03  0.58632862139E+03  0.10566000000E+00 0. -1.
         -4    1    3    3    0  502  0.21439405692E+03 -0.47852845319E+03 -0.36656655808E+02  0.52564056405E+03  0.00000000000E+00 0. -1.
        -13    1    1    2    0    0 -0.27352573107E+03  0.35497521579E+02  0.69443192081E+02  0.28442708676E+03  0.10566000000E+00 0.  1.
<mgrwt>
<rscale>  1 0.74157073E+03</rscale>
<asrwt>0</asrwt>
<pdfrwt beam="1">  1       21 0.80746044E-01 0.10311655E+04</pdfrwt>
<pdfrwt beam="2">  1       -4 0.13408415E+00 0.10311655E+04</pdfrwt>
<totfact> 0.20432600E+01</totfact>
</mgrwt>
</event>
<event>
 6    2  0.2220137E-005  0.1001934E+04  0.7818608E-02  0.1009185E+00
         21   -1    0    0  501  502  0.00000000000E+00  0.00000000000E+00  0.37499386839E+03  0.37499386839E+03  0.00000000000E+00 0. -1.
         -4   -1    0    0    0  501 -0.00000000000E+00 -0.00000000000E+00 -0.82097166893E+03  0.82097166893E+03  0.00000000000E+00 0. -1.
   -9000010    2    1    2    0  502  0.56961980701E+02  0.43349984234E+02 -0.32128391324E+03  0.10521863139E+04  0.99937420318E+03 0.  0.
         13    1    3    3    0    0 -0.17990336608E+03  0.46896891636E+03 -0.24605507238E+03  0.55932117379E+03  0.10566000000E+00 0. -1.
         -4    1    3    3    0  502  0.23686534678E+03 -0.42561893212E+03 -0.75228840857E+02  0.49286514016E+03  0.00000000000E+00 0. -1.
        -13    1    1    2    0    0 -0.56961980701E+02 -0.43349984234E+02 -0.12469388731E+03  0.14377922337E+03  0.10566000000E+00 0.  1.
<mgrwt>
<rscale>  1 0.51799977E+03</rscale>
<asrwt>0</asrwt>
<pdfrwt beam="1">  1       21 0.57691365E-01 0.10019345E+04</pdfrwt>
<pdfrwt beam="2">  1       -4 0.12630333E+00 0.10019345E+04</pdfrwt>
<totfact> 0.51462911E+01</totfact>
</mgrwt>
</event>
<event>
 6    2  0.2220137E-005  0.1000223E+04  0.7818608E-02  0.9903149E-01
         21   -1    0    0  501  502  0.00000000000E+00  0.00000000000E+00  0.85867231843E+03  0.85867231843E+03  0.00000000000E+00 0. -1.
         -4   -1    0    0    0  501 -0.00000000000E+00 -0.00000000000E+00 -0.72999065829E+03  0.72999065829E+03  0.00000000000E+00 0. -1.
   -9000010    2    1    2    0  502 -0.12544554806E+03 -0.35808713057E+02  0.55426896942E+03  0.11435299422E+04  0.99167927715E+03 0.  0.
         13    1    3    3    0    0 -0.34535369027E+03  0.31073364978E+03  0.56686037722E+03  0.73290877394E+03  0.10566000000E+00 0. -1.
         -4    1    3    3    0  502  0.21990814221E+03 -0.34654236284E+03 -0.12591407802E+02  0.41062116824E+03  0.00000000000E+00 0. -1.
        -13    1    1    2    0    0  0.12544554806E+03  0.35808713057E+02 -0.42558730928E+03  0.44513303455E+03  0.10566000000E+00 0.  1.
<mgrwt>
<rscale>  1 0.60108935E+03</rscale>
<asrwt>0</asrwt>
<pdfrwt beam="1">  1       21 0.13210343E+00 0.10002233E+04</pdfrwt>
<pdfrwt beam="2">  1       -4 0.11230626E+00 0.10002233E+04</pdfrwt>
<totfact> 0.93655797E+00</totfact>
</mgrwt>
</event>
<event>
 6    2  0.2220137E-005  0.9558611E+03  0.7818608E-02  0.1050842E+00
         -4   -1    0    0    0  501 -0.00000000000E+00  0.00000000000E+00  0.30598091644E+03  0.30598091644E+03  0.00000000000E+00 0. -1.
         21   -1    0    0  501  502  0.00000000000E+00 -0.00000000000E+00 -0.12886485399E+04  0.12886485399E+04  0.00000000000E+00 0. -1.
   -9000010    2    1    2    0  502 -0.23929281287E+02  0.62211069694E+00 -0.11101273619E+04  0.14649413935E+04  0.95556136869E+03 0.  0.
         13    1    3    3    0    0  0.36366581521E+02 -0.40364325887E+03 -0.93730102246E+03  0.10211677759E+04  0.10566000000E+00 0. -1.
         -4    1    3    3    0  502 -0.60295862808E+02  0.40426536957E+03 -0.17282633945E+03  0.44377361764E+03  0.00000000000E+00 0. -1.
        -13    1    1    2    0    0  0.23929281287E+02 -0.62211069694E+00  0.12745973849E+03  0.12968806276E+03  0.10566000000E+00 0.  1.
<mgrwt>
<rscale>  1 0.38024740E+03</rscale>
<asrwt>0</asrwt>
<pdfrwt beam="2">  1       21 0.19825362E+00 0.95586114E+03</pdfrwt>
<pdfrwt beam="1">  1       -4 0.47073987E-01 0.95586114E+03</pdfrwt>
<totfact> 0.20921413E+01</totfact>
</mgrwt>
</event>
<event>
 6    2  0.2220137E-005  0.1043696E+04  0.7818608E-02  0.9673025E-01
         21   -1    0    0  501  502  0.00000000000E+00  0.00000000000E+00  0.28341530595E+03  0.28341530595E+03  0.00000000000E+00 0. -1.
         -4   -1    0    0    0  501 -0.00000000000E+00 -0.00000000000E+00 -0.14995956814E+04  0.14995956814E+04  0.00000000000E+00 0. -1.
   -9000010    2    1    2    0  502  0.22748269950E+03 -0.90906443003E+02 -0.86903802229E+03  0.13581343176E+04  0.10145389990E+04 0.  0.
         13    1    3    3    0    0 -0.32949222538E+03 -0.81881870448E+02 -0.16719562890E+02  0.33992546572E+03  0.10566000000E+00 0. -1.
         -4    1    3    3    0  502  0.55697492489E+03 -0.90245725547E+01 -0.85231845940E+03  0.10182088519E+04  0.00000000000E+00 0. -1.
        -13    1    1    2    0    0 -0.22748269950E+03  0.90906443003E+02 -0.34714235316E+03  0.42487666972E+03  0.10566000000E+00 0.  1.
<mgrwt>
<rscale>  1 0.72645827E+03</rscale>
<asrwt>0</asrwt>
<pdfrwt beam="1">  1       21 0.43602354E-01 0.10436962E+04</pdfrwt>
<pdfrwt beam="2">  1       -4 0.23070703E+00 0.10436962E+04</pdfrwt>
<totfact> 0.16740687E+01</totfact>
</mgrwt>
</event>
<event>
 6    2  0.2220137E-005  0.1004978E+04  0.7818608E-02  0.1000646E+00
         -4   -1    0    0    0  501 -0.00000000000E+00  0.00000000000E+00  0.26305348577E+03  0.26305348577E+03  0.00000000000E+00 0. -1.
         21   -1    0    0  501  502  0.00000000000E+00 -0.00000000000E+00 -0.11543582194E+04  0.11543582194E+04  0.00000000000E+00 0. -1.
   -9000010    2    1    2    0  502  0.91861130553E+02 -0.11579107109E+02 -0.77703714810E+03  0.12703415338E+04  0.10007039223E+04 0.  0.
         13    1    3    3    0    0 -0.38247934434E+03 -0.13912348713E+03 -0.75496957541E+02  0.41393912026E+03  0.10566000000E+00 0. -1.
         -4    1    3    3    0  502  0.47434047490E+03  0.12754438002E+03 -0.70154019056E+03  0.85640241357E+03  0.00000000000E+00 0. -1.
        -13    1    1    2    0    0 -0.91861130553E+02  0.11579107109E+02 -0.11426758552E+03  0.14707017132E+03  0.10566000000E+00 0.  1.
<mgrwt>
<rscale>  1 0.55367672E+03</rscale>
<asrwt>0</asrwt>
<pdfrwt beam="2">  1       21 0.17759357E+00 0.10049781E+04</pdfrwt>
<pdfrwt beam="1">  1       -4 0.40469767E-01 0.10049781E+04</pdfrwt>
<totfact> 0.39828397E+01</totfact>
</mgrwt>
</event>
<event>
 6    2  0.2220137E-005  0.1049202E+04  0.7818608E-02  0.9597035E-01
         21   -1    0    0  501  502  0.00000000000E+00  0.00000000000E+00  0.23429619778E+04  0.23429619778E+04  0.00000000000E+00 0. -1.
         -4   -1    0    0    0  501 -0.00000000000E+00 -0.00000000000E+00 -0.19894961121E+03  0.19894961121E+03  0.00000000000E+00 0. -1.
   -9000010    2    1    2    0  502 -0.27880833822E+03  0.14053462596E+03  0.17312208575E+04  0.20243394572E+04  0.10016688623E+04 0.  0.
         13    1    3    3    0    0 -0.14133940865E+03  0.56422040160E+03  0.11806142873E+04  0.13161199021E+04  0.10566000000E+00 0. -1.
         -4    1    3    3    0  502 -0.13746892957E+03 -0.42368577564E+03  0.55060657021E+03  0.70821955510E+03  0.00000000000E+00 0. -1.
        -13    1    1    2    0    0  0.27880833822E+03 -0.14053462596E+03  0.41279150905E+03  0.51757213185E+03  0.10566000000E+00 0.  1.
<mgrwt>
<rscale>  1 0.77492738E+03</rscale>
<asrwt>0</asrwt>
<pdfrwt beam="1">  1       21 0.36045567E+00 0.10492019E+04</pdfrwt>
<pdfrwt beam="2">  1       -4 0.30607634E-01 0.10492019E+04</pdfrwt>
<totfact> 0.45690681E+00</totfact>
</mgrwt>
</event>
<event>
 6    2  0.2220137E-005  0.1092519E+04  0.7818608E-02  0.9476134E-01
         -4   -1    0    0    0  501 -0.00000000000E+00  0.00000000000E+00  0.15416870114E+04  0.15416870114E+04  0.00000000000E+00 0. -1.
         21   -1    0    0  501  502  0.00000000000E+00 -0.00000000000E+00 -0.37982157733E+03  0.37982157733E+03  0.00000000000E+00 0. -1.
   -9000010    2    1    2    0  502  0.71773117704E+02 -0.41460702759E+03  0.70417531624E+03  0.12997927188E+04  0.10082399854E+04 0.  0.
         13    1    3    3    0    0  0.44582995229E+03 -0.31876463848E+03  0.63475978540E+02  0.55172860368E+03  0.10566000000E+00 0. -1.
         -4    1    3    3    0  502 -0.37405683459E+03 -0.95842389110E+02  0.64069933770E+03  0.74806411516E+03  0.00000000000E+00 0. -1.
        -13    1    1    2    0    0 -0.71773117704E+02  0.41460702759E+03  0.45769011783E+03  0.62171586989E+03  0.10566000000E+00 0.  1.
<mgrwt>
<rscale>  1 0.86066456E+03</rscale>
<asrwt>0</asrwt>
<pdfrwt beam="2">  1       21 0.58434090E-01 0.10925192E+04</pdfrwt>
<pdfrwt beam="1">  1       -4 0.23718261E+00 0.10925192E+04</pdfrwt>
<totfact> 0.80340177E+00</totfact>
</mgrwt>
</event>
<event>
 6    2  0.2220137E-005  0.9979199E+03  0.7818608E-02  0.9816355E-01
         21   -1    0    0  501  502  0.00000000000E+00  0.00000000000E+00  0.25325320332E+03  0.25325320332E+03  0.00000000000E+00 0. -1.
         -4   -1    0    0    0  501 -0.00000000000E+00 -0.00000000000E+00 -0.14640048542E+04  0.14640048542E+04  0.00000000000E+00 0. -1.
   -9000010    2    1    2    0  502  0.13501873588E+03  0.10987609679E+03 -0.82770124086E+03  0.12965081990E+04  0.98261963660E+03 0.  0.
         13    1    3    3    0    0  0.35097779446E+03 -0.83004753784E+02  0.57444660479E+02  0.36520556066E+03  0.10566000000E+00 0. -1.
         -4    1    3    3    0  502 -0.21595905858E+03  0.19288085057E+03 -0.88514590133E+03  0.93130263832E+03  0.00000000000E+00 0. -1.
        -13    1    1    2    0    0 -0.13501873588E+03 -0.10987609679E+03 -0.38305041005E+03  0.42074985857E+03  0.10566000000E+00 0.  1.
<mgrwt>
<rscale>  1 0.64492195E+03</rscale>
<asrwt>0</asrwt>
<pdfrwt beam="1">  1       21 0.38962032E-01 0.99791992E+03</pdfrwt>
<pdfrwt beam="2">  1       -4 0.22523151E+00 0.99791992E+03</pdfrwt>
<totfact> 0.23078823E+01</totfact>
</mgrwt>
</event>
<event>
 6    2  0.2220137E-005  0.1218230E+04  0.7818608E-02  0.9244594E-01
         21   -1    0    0  501  502  0.00000000000E+00  0.00000000000E+00  0.34886681776E+03  0.34886681776E+03  0.00000000000E+00 0.  1.
         -4   -1    0    0    0  501 -0.00000000000E+00 -0.00000000000E+00 -0.27504880463E+04  0.27504880463E+04  0.00000000000E+00 0. -1.
   -9000010    2    1    2    0  502  0.69073056656E+03  0.11070230088E+03 -0.18174630635E+04  0.21879798106E+04  0.99735648075E+03 0.  0.
         13    1    3    3    0    0  0.43773693635E+03  0.23679771751E+03 -0.18457657832E+03  0.53080628188E+03  0.10566000000E+00 0. -1.
         -4    1    3    3    0  502  0.25299363021E+03 -0.12609541663E+03 -0.16328864851E+04  0.16571735287E+04  0.00000000000E+00 0. -1.
        -13    1    1    2    0    0 -0.69073056656E+03 -0.11070230088E+03 -0.58415816507E+03  0.91137505341E+03  0.10566000000E+00 0.  1.
<mgrwt>
<rscale>  1 0.10604762E+04</rscale>
<asrwt>0</asrwt>
<pdfrwt beam="1">  1       21 0.53671820E-01 0.12182297E+04</pdfrwt>
<pdfrwt beam="2">  1       -4 0.42315199E+00 0.12182297E+04</pdfrwt>
<totfact> 0.59414179E-01</totfact>
</mgrwt>
</event>
<event>
 6    2  0.2220137E-005  0.1059181E+04  0.7818608E-02  0.9590597E-01
         21   -1    0    0  501  502  0.00000000000E+00  0.00000000000E+00  0.56572937705E+03  0.56572937705E+03  0.00000000000E+00 0. -1.
         -4   -1    0    0    0  501 -0.00000000000E+00 -0.00000000000E+00 -0.83781797179E+03  0.83781797179E+03  0.00000000000E+00 0. -1.
   -9000010    2    1    2    0  502 -0.16489987649E+03 -0.26280770285E+03 -0.27094927140E+03  0.10932875107E+04  0.10127211933E+04 0.  0.
         13    1    3    3    0    0 -0.56342267155E+03 -0.26165397288E+03 -0.30737881919E+03  0.69310147742E+03  0.10566000000E+00 0. -1.
         -4    1    3    3    0  502  0.39852279507E+03 -0.11537299732E+01  0.36429547795E+02  0.40018603328E+03  0.00000000000E+00 0. -1.
        -13    1    1    2    0    0  0.16489987649E+03  0.26280770285E+03 -0.11393233395E+01  0.31025983815E+03  0.10566000000E+00 0.  1.
<mgrwt>
<rscale>  1 0.77921679E+03</rscale>
<asrwt>0</asrwt>
<pdfrwt beam="1">  1       21 0.87035289E-01 0.10591809E+04</pdfrwt>
<pdfrwt beam="2">  1       -4 0.12889507E+00 0.10591809E+04</pdfrwt>
<totfact> 0.18872895E+01</totfact>
</mgrwt>
</event>
<event>
 6    2  0.2220137E-005  0.1002364E+04  0.7818608E-02  0.9933002E-01
         -4   -1    0    0    0  501 -0.00000000000E+00  0.00000000000E+00  0.42609930245E+03  0.42609930245E+03  0.00000000000E+00 0. -1.
         21   -1    0    0  501  502  0.00000000000E+00 -0.00000000000E+00 -0.74670580137E+03  0.74670580137E+03  0.00000000000E+00 0. -1.
   -9000010    2    1    2    0  502 -0.41771294633E+02 -0.11013963790E+03 -0.32830329789E+03  0.10547592112E+04  0.99541868441E+03 0.  0.
         13    1    3    3    0    0  0.37802897573E+03  0.24369011735E+03 -0.10368850548E+03  0.46156483523E+03  0.10566000000E+00 0. -1.
         -4    1    3    3    0  502 -0.41980027036E+03 -0.35382975524E+03 -0.22461479241E+03  0.59319437595E+03  0.00000000000E+00 0. -1.
        -13    1    1    2    0    0  0.41771294633E+02  0.11013963790E+03  0.76967989793E+01  0.11804589264E+03  0.10566000000E+00 0.  1.
<mgrwt>
<rscale>  1 0.58688173E+03</rscale>
<asrwt>0</asrwt>
<pdfrwt beam="2">  1       21 0.11487781E+00 0.10023642E+04</pdfrwt>
<pdfrwt beam="1">  1       -4 0.65553739E-01 0.10023642E+04</pdfrwt>
<totfact> 0.47442117E+01</totfact>
</mgrwt>
</event>
<event>
 6    2  0.2220137E-005  0.1051271E+04  0.7818608E-02  0.9573273E-01
         -4   -1    0    0    0  501 -0.00000000000E+00  0.00000000000E+00  0.14923400710E+04  0.14923400710E+04  0.00000000000E+00 0. -1.
         21   -1    0    0  501  502  0.00000000000E+00 -0.00000000000E+00 -0.34968229295E+03  0.34968229295E+03  0.00000000000E+00 0. -1.
   -9000010    2    1    2    0  502 -0.25791993281E+03 -0.21657382919E+03  0.62068470528E+03  0.12208276963E+04  0.99586336687E+03 0.  0.
         13    1    3    3    0    0 -0.59685806841E+03 -0.28824051851E+03  0.56295006948E+03  0.86961769889E+03  0.10566000000E+00 0. -1.
         -4    1    3    3    0  502  0.33893813559E+03  0.71666689320E+02  0.57734635803E+02  0.35120999742E+03  0.00000000000E+00 0. -1.
        -13    1    1    2    0    0  0.25791993281E+03  0.21657382919E+03  0.52197307275E+03  0.62119466762E+03  0.10566000000E+00 0.  1.
<mgrwt>
<rscale>  1 0.79090722E+03</rscale>
<asrwt>0</asrwt>
<pdfrwt beam="2">  1       21 0.53797277E-01 0.10512710E+04</pdfrwt>
<pdfrwt beam="1">  1       -4 0.22959078E+00 0.10512710E+04</pdfrwt>
<totfact> 0.10811070E+01</totfact>
</mgrwt>
</event>
<event>
 6    2  0.2220137E-005  0.1006010E+04  0.7818608E-02  0.9845075E-01
         -4   -1    0    0    0  501 -0.00000000000E+00  0.00000000000E+00  0.78136388514E+03  0.78136388514E+03  0.00000000000E+00 0. -1.
         21   -1    0    0  501  502  0.00000000000E+00 -0.00000000000E+00 -0.43959306986E+03  0.43959306986E+03  0.00000000000E+00 0. -1.
   -9000010    2    1    2    0  502  0.65460881506E+02 -0.14017831817E+03  0.23533080565E+03  0.10331683113E+04  0.99404279760E+03 0.  0.
         13    1    3    3    0    0 -0.35071904560E+03  0.22357475738E+03 -0.35900686255E+02  0.41746663522E+03  0.10566000000E+00 0. -1.
         -4    1    3    3    0  502  0.41617992711E+03 -0.36375307555E+03  0.27123149191E+03  0.61570167606E+03  0.00000000000E+00 0. -1.
        -13    1    1    2    0    0 -0.65460881506E+02  0.14017831817E+03  0.10644000963E+03  0.18778864371E+03  0.10566000000E+00 0.  1.
<mgrwt>
<rscale>  1 0.62998634E+03</rscale>
<asrwt>0</asrwt>
<pdfrwt beam="2">  1       21 0.67629703E-01 0.10060100E+04</pdfrwt>
<pdfrwt beam="1">  1       -4 0.12020983E+00 0.10060100E+04</pdfrwt>
<totfact> 0.40820609E+01</totfact>
</mgrwt>
</event>
<event>
 6    2  0.2220137E-005  0.1264293E+04  0.7818608E-02  0.9183457E-01
         21   -1    0    0  501  502  0.00000000000E+00  0.00000000000E+00  0.76995815741E+03  0.76995815741E+03  0.00000000000E+00 0.  1.
         -4   -1    0    0    0  501 -0.00000000000E+00 -0.00000000000E+00 -0.18477947563E+04  0.18477947563E+04  0.00000000000E+00 0. -1.
   -9000010    2    1    2    0  502  0.20203327751E+03  0.75941568112E+03 -0.12874681303E+04  0.18044417727E+04  0.99040713980E+03 0.  0.
         13    1    3    3    0    0  0.20930674854E+03  0.24191544882E+03 -0.12446733226E+04  0.12851241538E+04  0.10566000000E+00 0. -1.
         -4    1    3    3    0  502 -0.72734710279E+01  0.51750023230E+03 -0.42794807729E+02  0.51931761898E+03  0.00000000000E+00 0. -1.
        -13    1    1    2    0    0 -0.20203327751E+03 -0.75941568112E+03  0.20963153143E+03  0.81331114101E+03  0.10566000000E+00 0.  1.
<mgrwt>
<rscale>  1 0.11225818E+04</rscale>
<asrwt>0</asrwt>
<pdfrwt beam="1">  1       21 0.11845510E+00 0.12642927E+04</pdfrwt>
<pdfrwt beam="2">  1       -4 0.28427611E+00 0.12642927E+04</pdfrwt>
<totfact> 0.74026449E-01</totfact>
</mgrwt>
</event>
<event>
 6    2  0.2220137E-005  0.1002880E+04  0.7818608E-02  0.9776332E-01
         -4   -1    0    0    0  501 -0.00000000000E+00  0.00000000000E+00  0.16722496007E+03  0.16722496007E+03  0.00000000000E+00 0. -1.
         21   -1    0    0  501  502  0.00000000000E+00 -0.00000000000E+00 -0.22502762679E+04  0.22502762679E+04  0.00000000000E+00 0. -1.
   -9000010    2    1    2    0  502 -0.15342114838E+03 -0.12136042925E+03 -0.19056031281E+04  0.21533908908E+04  0.98361712272E+03 0.  0.
         13    1    3    3    0    0  0.18108018612E+03 -0.47627742354E+03 -0.85947670059E+03  0.99916486528E+03  0.10566000000E+00 0. -1.
         -4    1    3    3    0  502 -0.33450133450E+03  0.35491699429E+03 -0.10461264275E+04  0.11542260255E+04  0.00000000000E+00 0. -1.
        -13    1    1    2    0    0  0.15342114838E+03  0.12136042925E+03 -0.17744817972E+03  0.26411033719E+03  0.10566000000E+00 0.  1.
<mgrwt>
<rscale>  1 0.66648299E+03</rscale>
<asrwt>0</asrwt>
<pdfrwt beam="2">  1       21 0.34619634E+00 0.10028804E+04</pdfrwt>
<pdfrwt beam="1">  1       -4 0.25726918E-01 0.10028804E+04</pdfrwt>
<totfact> 0.79517026E+00</totfact>
</mgrwt>
</event>
<event>
 6    2  0.2220137E-005  0.9697419E+03  0.7818608E-02  0.9650931E-01
         -4   -1    0    0    0  501 -0.00000000000E+00  0.00000000000E+00  0.12115820582E+04  0.12115820582E+04  0.00000000000E+00 0. -1.
         21   -1    0    0  501  502  0.00000000000E+00 -0.00000000000E+00 -0.36509386233E+03  0.36509386233E+03  0.00000000000E+00 0. -1.
   -9000010    2    1    2    0  502  0.25290896378E+03  0.21055938171E+03  0.47318794278E+03  0.10790301758E+04  0.91219575411E+03 0.  0.
         13    1    3    3    0    0 -0.20022971718E+03  0.30211089373E+02 -0.17514878710E+03  0.26773449227E+03  0.10566000000E+00 0. -1.
         -4    1    3    3    0  502  0.45313868096E+03  0.18034829233E+03  0.64833672988E+03  0.81129568349E+03  0.00000000000E+00 0. -1.
        -13    1    1    2    0    0 -0.25290896378E+03 -0.21055938171E+03  0.37330025313E+03  0.49764574482E+03  0.10566000000E+00 0.  1.
<mgrwt>
<rscale>  1 0.74015004E+03</rscale>
<asrwt>0</asrwt>
<pdfrwt beam="2">  1       21 0.56168287E-01 0.96974187E+03</pdfrwt>
<pdfrwt beam="1">  1       -4 0.18639724E+00 0.96974187E+03</pdfrwt>
<totfact> 0.19001068E+01</totfact>
</mgrwt>
</event>
<event>
 6    2  0.2220137E-005  0.9676723E+03  0.7818608E-02  0.1012577E+00
         21   -1    0    0  501  502  0.00000000000E+00  0.00000000000E+00  0.10587803915E+04  0.10587803915E+04  0.00000000000E+00 0. -1.
         -4   -1    0    0    0  501 -0.00000000000E+00 -0.00000000000E+00 -0.31041168581E+03  0.31041168581E+03  0.00000000000E+00 0. -1.
   -9000010    2    1    2    0  502  0.49670417070E+00  0.71566111787E+02  0.81967053355E+03  0.12681677391E+04  0.96502211164E+03 0.  0.
         13    1    3    3    0    0  0.31045959550E+03  0.36494164749E+03  0.20802752027E+03  0.52234378226E+03  0.10566000000E+00 0. -1.
         -4    1    3    3    0  502 -0.30996289133E+03 -0.29337553571E+03  0.61164301328E+03  0.74582395687E+03  0.00000000000E+00 0. -1.
        -13    1    1    2    0    0 -0.49670417070E+00 -0.71566111787E+02 -0.71301827896E+02  0.10102433814E+03  0.10566000000E+00 0.  1.
<mgrwt>
<rscale>  1 0.50463319E+03</rscale>
<asrwt>0</asrwt>
<pdfrwt beam="1">  1       21 0.16288929E+00 0.96767227E+03</pdfrwt>
<pdfrwt beam="2">  1       -4 0.47755644E-01 0.96767227E+03</pdfrwt>
<totfact> 0.36576492E+01</totfact>
</mgrwt>
</event>
<event>
 6    2  0.2220137E-005  0.1017917E+04  0.7818608E-02  0.9709939E-01
         -4   -1    0    0    0  501 -0.00000000000E+00  0.00000000000E+00  0.92447012362E+03  0.92447012362E+03  0.00000000000E+00 0. -1.
         21   -1    0    0  501  502  0.00000000000E+00 -0.00000000000E+00 -0.52362355762E+03  0.52362355762E+03  0.00000000000E+00 0. -1.
   -9000010    2    1    2    0  502 -0.16818764082E+03 -0.16163143481E+03  0.56372714105E+03  0.11635907882E+04  0.99082966731E+03 0.  0.
         13    1    3    3    0    0 -0.30669847321E+03 -0.51223822932E+03  0.50520027668E+03  0.78209928255E+03  0.10566000000E+00 0. -1.
         -4    1    3    3    0  502  0.13851083239E+03  0.35060679451E+03  0.58526864379E+02  0.38149150567E+03  0.00000000000E+00 0. -1.
        -13    1    1    2    0    0  0.16818764082E+03  0.16163143481E+03 -0.16288057505E+03  0.28450289302E+03  0.10566000000E+00 0.  1.
<mgrwt>
<rscale>  1 0.70428107E+03</rscale>
<asrwt>0</asrwt>
<pdfrwt beam="2">  1       21 0.80557470E-01 0.10179171E+04</pdfrwt>
<pdfrwt beam="1">  1       -4 0.14222617E+00 0.10179171E+04</pdfrwt>
<totfact> 0.17629463E+01</totfact>
</mgrwt>
</event>
<event>
 6    2  0.2220137E-005  0.9996605E+03  0.7818608E-02  0.9836802E-01
         21   -1    0    0  501  502  0.00000000000E+00  0.00000000000E+00  0.13235941816E+04  0.13235941816E+04  0.00000000000E+00 0. -1.
         -4   -1    0    0    0  501 -0.00000000000E+00 -0.00000000000E+00 -0.46211789896E+03  0.46211789896E+03  0.00000000000E+00 0. -1.
   -9000010    2    1    2    0  502  0.28659023018E+02 -0.15942684223E+03  0.11070016810E+04  0.14915675751E+04  0.98644961945E+03 0.  0.
         13    1    3    3    0    0  0.25052796467E+02  0.32230648954E+03  0.46281030637E+02  0.32657473995E+03  0.10566000000E+00 0. -1.
         -4    1    3    3    0  502  0.36062265510E+01 -0.48173333177E+03  0.10607206504E+04  0.11649928352E+04  0.00000000000E+00 0. -1.
        -13    1    1    2    0    0 -0.28659023018E+02  0.15942684223E+03 -0.24552539843E+03  0.29414450541E+03  0.10566000000E+00 0.  1.
<mgrwt>
<rscale>  1 0.63424389E+03</rscale>
<asrwt>0</asrwt>
<pdfrwt beam="1">  1       21 0.20362987E+00 0.99966050E+03</pdfrwt>
<pdfrwt beam="2">  1       -4 0.71095062E-01 0.99966050E+03</pdfrwt>
<totfact> 0.78266722E+00</totfact>
</mgrwt>
</event>
<event>
 6    2  0.2220137E-005  0.1024996E+04  0.7818608E-02  0.9732034E-01
         21   -1    0    0  501  502  0.00000000000E+00  0.00000000000E+00  0.97578282260E+03  0.97578282260E+03  0.00000000000E+00 0. -1.
         -4   -1    0    0    0  501 -0.00000000000E+00 -0.00000000000E+00 -0.43166697248E+03  0.43166697248E+03  0.00000000000E+00 0. -1.
   -9000010    2    1    2    0  502  0.20456457536E+03 -0.56471047873E+02  0.60040066346E+03  0.11878965302E+04  0.10027868991E+04 0.  0.
         13    1    3    3    0    0  0.16378795378E+03  0.65554907389E+02  0.87077755686E+03  0.88846919158E+03  0.10566000000E+00 0. -1.
         -4    1    3    3    0  502  0.40776621589E+02 -0.12202595526E+03 -0.27037689340E+03  0.29942733862E+03  0.00000000000E+00 0. -1.
        -13    1    1    2    0    0 -0.20456457536E+03  0.56471047873E+02 -0.56284813336E+02  0.21955326488E+03  0.10566000000E+00 0.  1.
<mgrwt>
<rscale>  1 0.69141095E+03</rscale>
<asrwt>0</asrwt>
<pdfrwt beam="1">  1       21 0.15012043E+00 0.10249962E+04</pdfrwt>
<pdfrwt beam="2">  1       -4 0.66410304E-01 0.10249962E+04</pdfrwt>
<totfact> 0.22512532E+01</totfact>
</mgrwt>
</event>
<event>
 6    2  0.2220137E-005  0.1146865E+04  0.7818608E-02  0.9358195E-01
         21   -1    0    0  501  502  0.00000000000E+00  0.00000000000E+00  0.93267718627E+03  0.93267718627E+03  0.00000000000E+00 0. -1.
         -4   -1    0    0    0  501 -0.00000000000E+00 -0.00000000000E+00 -0.83865115656E+03  0.83865115656E+03  0.00000000000E+00 0. -1.
   -9000010    2    1    2    0  502 -0.42618896754E+03  0.35342447263E+03  0.29179098400E+03  0.11834024273E+04  0.10043671802E+04 0.  0.
         13    1    3    3    0    0  0.40016386796E+02 -0.32263903768E+03  0.99022791238E+02  0.33985700551E+03  0.10566000000E+00 0. -1.
         -4    1    3    3    0  502 -0.46620535434E+03  0.67606351032E+03  0.19276819276E+03  0.84354542174E+03  0.00000000000E+00 0. -1.
        -13    1    1    2    0    0  0.42618896754E+03 -0.35342447263E+03 -0.19776495429E+03  0.58792591559E+03  0.10566000000E+00 0.  1.
<mgrwt>
<rscale>  1 0.95597418E+03</rscale>
<asrwt>0</asrwt>
<pdfrwt beam="1">  1       21 0.14348880E+00 0.11468650E+04</pdfrwt>
<pdfrwt beam="2">  1       -4 0.12902326E+00 0.11468650E+04</pdfrwt>
<totfact> 0.51860994E+00</totfact>
</mgrwt>
</event>
<event>
 6    2  0.2220137E-005  0.1119922E+04  0.7818608E-02  0.9397342E-01
         21   -1    0    0  501  502  0.00000000000E+00  0.00000000000E+00  0.18094873059E+04  0.18094873059E+04  0.00000000000E+00 0. -1.
         -4   -1    0    0    0  501 -0.00000000000E+00 -0.00000000000E+00 -0.60085212631E+03  0.60085212631E+03  0.00000000000E+00 0. -1.
   -9000010    2    1    2    0  502 -0.14515034850E+03  0.49577661183E+03  0.14565646620E+04  0.18373367168E+04  0.99366117153E+03 0.  0.
         13    1    3    3    0    0 -0.51168992607E+02 -0.19969927344E+03  0.94924784439E+03  0.97137508042E+03  0.10566000000E+00 0. -1.
         -4    1    3    3    0  502 -0.93981355891E+02  0.69547588527E+03  0.50731681760E+03  0.86596163637E+03  0.00000000000E+00 0. -1.
        -13    1    1    2    0    0  0.14515034850E+03 -0.49577661183E+03 -0.24792948237E+03  0.57300271544E+03  0.10566000000E+00 0.  1.
<mgrwt>
<rscale>  1 0.92294737E+03</rscale>
<asrwt>0</asrwt>
<pdfrwt beam="1">  1       21 0.27838266E+00 0.11199221E+04</pdfrwt>
<pdfrwt beam="2">  1       -4 0.92438790E-01 0.11199221E+04</pdfrwt>
<totfact> 0.13775815E+00</totfact>
</mgrwt>
</event>
<event>
 6    2  0.2220137E-005  0.9998136E+03  0.7818608E-02  0.9852964E-01
         21   -1    0    0  501  502  0.00000000000E+00  0.00000000000E+00  0.58630057064E+03  0.58630057064E+03  0.00000000000E+00 0. -1.
         -4   -1    0    0    0  501 -0.00000000000E+00 -0.00000000000E+00 -0.11673156364E+04  0.11673156364E+04  0.00000000000E+00 0. -1.
   -9000010    2    1    2    0  502  0.12101416728E+03  0.94619157446E+02  0.14611769367E+03  0.10104343487E+04  0.98794229533E+03 0.  0.
         13    1    3    3    0    0  0.26062356412E+02  0.43874877289E+03  0.38218878297E+03  0.58245000569E+03  0.10566000000E+00 0. -1.
         -4    1    3    3    0  502  0.94951810867E+02 -0.34412961544E+03 -0.23607108931E+03  0.42798434296E+03  0.00000000000E+00 0. -1.
        -13    1    1    2    0    0 -0.12101416728E+03 -0.94619157446E+02 -0.72713275941E+03  0.74318185837E+03  0.10566000000E+00 0.  1.
<mgrwt>
<rscale>  1 0.62596044E+03</rscale>
<asrwt>0</asrwt>
<pdfrwt beam="1">  1       21 0.90200088E-01 0.99981358E+03</pdfrwt>
<pdfrwt beam="2">  1       -4 0.17958702E+00 0.99981358E+03</pdfrwt>
<totfact> 0.70935988E+00</totfact>
</mgrwt>
</event>
<event>
 6    2  0.2220137E-005  0.1016339E+04  0.7818608E-02  0.9785942E-01
         -4   -1    0    0    0  501 -0.00000000000E+00  0.00000000000E+00  0.13940491438E+04  0.13940491438E+04  0.00000000000E+00 0. -1.
         21   -1    0    0  501  502  0.00000000000E+00 -0.00000000000E+00 -0.66071270614E+03  0.66071270614E+03  0.00000000000E+00 0. -1.
   -9000010    2    1    2    0  502  0.32277450181E+02 -0.17920351314E+03 -0.25658922745E+03  0.10482289064E+04  0.99989503227E+03 0.  0.
         13    1    3    3    0    0 -0.20585782753E+03  0.23219530960E+03 -0.44025992704E+03  0.53862874178E+03  0.10566000000E+00 0. -1.
         -4    1    3    3    0  502  0.23813527771E+03 -0.41139882274E+03  0.18367069959E+03  0.50960016457E+03  0.00000000000E+00 0. -1.
        -13    1    1    2    0    0 -0.32277450181E+02  0.17920351314E+03  0.98992566514E+03  0.10065329436E+04  0.10566000000E+00 0.  1.
<mgrwt>
<rscale>  1 0.66122448E+03</rscale>
<asrwt>0</asrwt>
<pdfrwt beam="2">  1       21 0.10164811E+00 0.10163394E+04</pdfrwt>
<pdfrwt beam="1">  1       -4 0.21446910E+00 0.10163394E+04</pdfrwt>
<totfact> 0.30881584E+00</totfact>
</mgrwt>
</event>
<event>
 6    2  0.2220137E-005  0.1056737E+04  0.7818608E-02  0.9596277E-01
         21   -1    0    0  501  502  0.00000000000E+00  0.00000000000E+00  0.95443865246E+03  0.95443865246E+03  0.00000000000E+00 0. -1.
         -4   -1    0    0    0  501 -0.00000000000E+00 -0.00000000000E+00 -0.51800687995E+03  0.51800687995E+03  0.00000000000E+00 0. -1.
   -9000010    2    1    2    0  502  0.14699290783E+03  0.26882470541E+03  0.48414615702E+03  0.11623643965E+04  0.10113455649E+04 0.  0.
         13    1    3    3    0    0 -0.37037451382E+03  0.95846827419E+02 -0.65293483259E+02  0.38810713075E+03  0.10566000000E+00 0. -1.
         -4    1    3    3    0  502  0.51736742166E+03  0.17297787799E+03  0.54943964028E+03  0.77425726576E+03  0.00000000000E+00 0. -1.
        -13    1    1    2    0    0 -0.14699290783E+03 -0.26882470541E+03 -0.47714384517E+02  0.31008113590E+03  0.10566000000E+00 0.  1.
<mgrwt>
<rscale>  1 0.77543108E+03</rscale>
<asrwt>0</asrwt>
<pdfrwt beam="1">  1       21 0.14683672E+00 0.10567372E+04</pdfrwt>
<pdfrwt beam="2">  1       -4 0.79693366E-01 0.10567372E+04</pdfrwt>
<totfact> 0.15808560E+01</totfact>
</mgrwt>
</event>
<event>
 6    2  0.2220137E-005  0.1071486E+04  0.7818608E-02  0.9969026E-01
         21   -1    0    0  501  502  0.00000000000E+00  0.00000000000E+00  0.26827543113E+03  0.26827543113E+03  0.00000000000E+00 0. -1.
         -4   -1    0    0    0  501 -0.00000000000E+00 -0.00000000000E+00 -0.15407533769E+04  0.15407533769E+04  0.00000000000E+00 0. -1.
   -9000010    2    1    2    0  502  0.85562873802E+02  0.85418317085E+01 -0.82213814763E+03  0.13505531672E+04  0.10680303158E+04 0.  0.
         13    1    3    3    0    0  0.35783463365E+03  0.21571530117E+03  0.43182679119E+02  0.42005174817E+03  0.10566000000E+00 0. -1.
         -4    1    3    3    0  502 -0.27227175985E+03 -0.20717346946E+03 -0.86532082675E+03  0.93050141905E+03  0.00000000000E+00 0. -1.
        -13    1    1    2    0    0 -0.85562873802E+02 -0.85418317085E+01 -0.45033979815E+03  0.45847564082E+03  0.10566000000E+00 0.  1.
<mgrwt>
<rscale>  1 0.57029521E+03</rscale>
<asrwt>0</asrwt>
<pdfrwt beam="1">  1       21 0.41273143E-01 0.10714862E+04</pdfrwt>
<pdfrwt beam="2">  1       -4 0.23703898E+00 0.10714862E+04</pdfrwt>
<totfact> 0.17105502E+01</totfact>
</mgrwt>
</event>
<event>
 6    2  0.2220137E-005  0.9999939E+03  0.7818608E-02  0.9838075E-01
         21   -1    0    0  501  502  0.00000000000E+00  0.00000000000E+00  0.47935661987E+03  0.47935661987E+03  0.00000000000E+00 0. -1.
         -4   -1    0    0    0  501 -0.00000000000E+00 -0.00000000000E+00 -0.75495211732E+03  0.75495211732E+03  0.00000000000E+00 0. -1.
   -9000010    2    1    2    0  502 -0.64657864380E+02 -0.14761042526E+03 -0.11463711984E+03  0.10065433150E+04  0.98692365390E+03 0.  0.
         13    1    3    3    0    0  0.39376886313E+03  0.12282121109E+03 -0.21463789555E+03  0.46498215539E+03  0.10566000000E+00 0. -1.
         -4    1    3    3    0  502 -0.45842672751E+03 -0.27043163634E+03  0.10000077570E+03  0.54156115959E+03  0.00000000000E+00 0. -1.
        -13    1    1    2    0    0  0.64657864380E+02  0.14761042526E+03 -0.16095837760E+03  0.22776542221E+03  0.10566000000E+00 0.  1.
<mgrwt>
<rscale>  1 0.63358653E+03</rscale>
<asrwt>0</asrwt>
<pdfrwt beam="1">  1       21 0.73747172E-01 0.99999389E+03</pdfrwt>
<pdfrwt beam="2">  1       -4 0.11614648E+00 0.99999389E+03</pdfrwt>
<totfact> 0.36487170E+01</totfact>
</mgrwt>
</event>
<event>
 6    2  0.2220137E-005  0.9929659E+03  0.7818608E-02  0.1045959E+00
         -4   -1    0    0    0  501 -0.00000000000E+00  0.00000000000E+00  0.24840972316E+03  0.24840972316E+03  0.00000000000E+00 0. -1.
         21   -1    0    0  501  502  0.00000000000E+00 -0.00000000000E+00 -0.14203990587E+04  0.14203990587E+04  0.00000000000E+00 0. -1.
   -9000010    2    1    2    0  502 -0.16287400701E+01 -0.24501974951E+02 -0.12445921991E+04  0.15921655401E+04  0.99266226150E+03 0.  0.
         13    1    3    3    0    0  0.38231621479E+03 -0.15307968211E+03 -0.10786232164E+04  0.11545679414E+04  0.10566000000E+00 0. -1.
         -4    1    3    3    0  502 -0.38394495486E+03  0.12857770715E+03 -0.16596898264E+03  0.43759759864E+03  0.00000000000E+00 0. -1.
        -13    1    1    2    0    0  0.16287400701E+01  0.24501974951E+02  0.72602863485E+02  0.76643241848E+02  0.10566000000E+00 0.  1.
<mgrwt>
<rscale>  1 0.39376888E+03</rscale>
<asrwt>0</asrwt>
<pdfrwt beam="2">  1       21 0.21852293E+00 0.99296594E+03</pdfrwt>
<pdfrwt beam="1">  1       -4 0.38216881E-01 0.99296594E+03</pdfrwt>
<totfact> 0.23325711E+01</totfact>
</mgrwt>
</event>
<event>
 6    2  0.2220137E-005  0.1032761E+04  0.7818608E-02  0.9760933E-01
         -4   -1    0    0    0  501 -0.00000000000E+00  0.00000000000E+00  0.24583405471E+03  0.24583405471E+03  0.00000000000E+00 0. -1.
         21   -1    0    0  501  502  0.00000000000E+00 -0.00000000000E+00 -0.15167069610E+04  0.15167069610E+04  0.00000000000E+00 0.  1.
   -9000010    2    1    2    0  502  0.63139984834E+02  0.17758941728E+03 -0.10758256586E+04  0.14913066174E+04  0.10154161318E+04 0.  0.
         13    1    3    3    0    0  0.11380892177E+03 -0.37503397363E+03 -0.75406071238E+03  0.84982970127E+03  0.10566000000E+00 0. -1.
         -4    1    3    3    0  502 -0.50668936932E+02  0.55262339091E+03 -0.32176494623E+03  0.64147691617E+03  0.00000000000E+00 0. -1.
        -13    1    1    2    0    0 -0.63139984834E+02 -0.17758941728E+03 -0.19504724773E+03  0.27123439831E+03  0.10566000000E+00 0.  1.
<mgrwt>
<rscale>  1 0.67501904E+03</rscale>
<asrwt>0</asrwt>
<pdfrwt beam="2">  1       21 0.23333953E+00 0.10327607E+04</pdfrwt>
<pdfrwt beam="1">  1       -4 0.37820624E-01 0.10327607E+04</pdfrwt>
<totfact> 0.18953432E+01</totfact>
</mgrwt>
</event>
<event>
 6    2  0.2220137E-005  0.9960711E+03  0.7818608E-02  0.1005597E+00
         -4   -1    0    0    0  501 -0.00000000000E+00  0.00000000000E+00  0.21011999366E+03  0.21011999366E+03  0.00000000000E+00 0. -1.
         21   -1    0    0  501  502  0.00000000000E+00 -0.00000000000E+00 -0.16991233308E+04  0.16991233308E+04  0.00000000000E+00 0. -1.
   -9000010    2    1    2    0  502  0.57907996768E+02  0.57260835221E+02 -0.15239700112E+04  0.18206159089E+04  0.99273639664E+03 0.  0.
         13    1    3    3    0    0  0.17509454593E+03 -0.42703937292E+03 -0.49171554139E+03  0.67439225296E+03  0.10566000000E+00 0. -1.
         -4    1    3    3    0  502 -0.11718654917E+03  0.48430020814E+03 -0.10322544698E+04  0.11462236559E+04  0.00000000000E+00 0. -1.
        -13    1    1    2    0    0 -0.57907996768E+02 -0.57260835221E+02  0.34966674045E+02  0.88627415610E+02  0.10566000000E+00 0.  1.
<mgrwt>
<rscale>  1 0.53262870E+03</rscale>
<asrwt>0</asrwt>
<pdfrwt beam="2">  1       21 0.26140359E+00 0.99607113E+03</pdfrwt>
<pdfrwt beam="1">  1       -4 0.32326152E-01 0.99607113E+03</pdfrwt>
<totfact> 0.17267911E+01</totfact>
</mgrwt>
</event>
<event>
 6    2  0.2220137E-005  0.1008197E+04  0.7818608E-02  0.9753958E-01
         -4   -1    0    0    0  501 -0.00000000000E+00  0.00000000000E+00  0.13631198610E+04  0.13631198610E+04  0.00000000000E+00 0. -1.
         21   -1    0    0  501  502  0.00000000000E+00 -0.00000000000E+00 -0.30978472698E+03  0.30978472698E+03  0.00000000000E+00 0. -1.
   -9000010    2    1    2    0  502  0.20247309612E+03  0.44618528367E+02  0.59704345073E+03  0.11717177175E+04  0.98664854925E+03 0.  0.
         13    1    3    3    0    0  0.24824445761E+03 -0.35252448951E+03 -0.25449450770E+02  0.43191030567E+03  0.10566000000E+00 0. -1.
         -4    1    3    3    0  502 -0.45771361492E+02  0.39714301788E+03  0.62249290150E+03  0.73980741183E+03  0.00000000000E+00 0. -1.
        -13    1    1    2    0    0 -0.20247309612E+03 -0.44618528367E+02  0.45629168327E+03  0.50118687045E+03  0.10566000000E+00 0.  1.
<mgrwt>
<rscale>  1 0.67893033E+03</rscale>
<asrwt>0</asrwt>
<pdfrwt beam="2">  1       21 0.47659189E-01 0.10081972E+04</pdfrwt>
<pdfrwt beam="1">  1       -4 0.20971075E+00 0.10081972E+04</pdfrwt>
<totfact> 0.18924355E+01</totfact>
</mgrwt>
</event>
<event>
 6    2  0.2220137E-005  0.1094331E+04  0.7818608E-02  0.9505769E-01
         21   -1    0    0  501  502  0.00000000000E+00  0.00000000000E+00  0.94669516225E+03  0.94669516225E+03  0.00000000000E+00 0. -1.
         -4   -1    0    0    0  501 -0.00000000000E+00 -0.00000000000E+00 -0.66252978274E+03  0.66252978274E+03  0.00000000000E+00 0. -1.
   -9000010    2    1    2    0  502  0.21352748547E+03 -0.31115291734E+03  0.46710082206E+03  0.11898497999E+04  0.10272045772E+04 0.  0.
         13    1    3    3    0    0 -0.31197149926E+03  0.10689047810E+03  0.39489020250E+03  0.51448039209E+03  0.10566000000E+00 0. -1.
         -4    1    3    3    0  502  0.52549898473E+03 -0.41804339544E+03  0.72210619564E+02  0.67536940781E+03  0.00000000000E+00 0. -1.
        -13    1    1    2    0    0 -0.21352748547E+03  0.31115291734E+03 -0.18293544255E+03  0.41937514510E+03  0.10566000000E+00 0.  1.
<mgrwt>
<rscale>  1 0.83859836E+03</rscale>
<asrwt>0</asrwt>
<pdfrwt beam="1">  1       21 0.14564541E+00 0.10943306E+04</pdfrwt>
<pdfrwt beam="2">  1       -4 0.10192766E+00 0.10943306E+04</pdfrwt>
<totfact> 0.90137813E+00</totfact>
</mgrwt>
</event>
<event>
 6    2  0.2220137E-005  0.9569681E+03  0.7818608E-02  0.9739490E-01
         -4   -1    0    0    0  501 -0.00000000000E+00  0.00000000000E+00  0.46692630571E+03  0.46692630571E+03  0.00000000000E+00 0. -1.
         21   -1    0    0  501  502  0.00000000000E+00 -0.00000000000E+00 -0.10502349665E+04  0.10502349665E+04  0.00000000000E+00 0.  1.
   -9000010    2    1    2    0  502 -0.41910741229E+01  0.25434046540E+03 -0.88820679007E+02  0.96108123056E+03  0.92254072066E+03 0.  0.
         13    1    3    3    0    0 -0.62375380648E+02  0.97566962122E+02 -0.50208512363E+03  0.51526641918E+03  0.10566000000E+00 0. -1.
         -4    1    3    3    0  502  0.58184306525E+02  0.15677350328E+03  0.41326444462E+03  0.44581481138E+03  0.00000000000E+00 0. -1.
        -13    1    1    2    0    0  0.41910741229E+01 -0.25434046540E+03 -0.49448798179E+03  0.55608004167E+03  0.10566000000E+00 0.  1.
<mgrwt>
<rscale>  1 0.68713454E+03</rscale>
<asrwt>0</asrwt>
<pdfrwt beam="2">  1       21 0.16157461E+00 0.95696814E+03</pdfrwt>
<pdfrwt beam="1">  1       -4 0.71834817E-01 0.95696814E+03</pdfrwt>
<totfact> 0.15464065E+01</totfact>
</mgrwt>
</event>
<event>
 6    2  0.2220137E-005  0.1103066E+04  0.7818608E-02  0.9510280E-01
         -4   -1    0    0    0  501 -0.00000000000E+00  0.00000000000E+00  0.13479918542E+04  0.13479918542E+04  0.00000000000E+00 0. -1.
         21   -1    0    0  501  502  0.00000000000E+00 -0.00000000000E+00 -0.61423424565E+03  0.61423424565E+03  0.00000000000E+00 0. -1.
   -9000010    2    1    2    0  502 -0.18099954189E+03  0.31432894917E+03 -0.44109903307E+02  0.11039479400E+04  0.10417254189E+04 0.  0.
         13    1    3    3    0    0 -0.47183694129E+03  0.41805847460E+02 -0.36034175767E+03  0.59516722149E+03  0.10566000000E+00 0. -1.
         -4    1    3    3    0  502  0.29083739940E+03  0.27252310171E+03  0.31623185436E+03  0.50878071855E+03  0.00000000000E+00 0. -1.
        -13    1    1    2    0    0  0.18099954189E+03 -0.31432894917E+03  0.77786751190E+03  0.85827815985E+03  0.10566000000E+00 0.  1.
<mgrwt>
<rscale>  1 0.83530132E+03</rscale>
<asrwt>0</asrwt>
<pdfrwt beam="2">  1       21 0.94497576E-01 0.11030663E+04</pdfrwt>
<pdfrwt beam="1">  1       -4 0.20738336E+00 0.11030663E+04</pdfrwt>
<totfact> 0.40635694E+00</totfact>
</mgrwt>
</event>
<event>
 6    2  0.2220137E-005  0.9955933E+03  0.7818608E-02  0.1008186E+00
         21   -1    0    0  501  502  0.00000000000E+00  0.00000000000E+00  0.10294422736E+04  0.10294422736E+04  0.00000000000E+00 0. -1.
         -4   -1    0    0    0  501 -0.00000000000E+00 -0.00000000000E+00 -0.28419016663E+03  0.28419016663E+03  0.00000000000E+00 0. -1.
   -9000010    2    1    2    0  502 -0.71723421559E+02 -0.22764700887E+02  0.73538507785E+03  0.12377387630E+04  0.99274546183E+03 0.  0.
         13    1    3    3    0    0 -0.42907826908E+03 -0.16037362775E+03  0.72140608664E+03  0.85454936339E+03  0.10566000000E+00 0. -1.
         -4    1    3    3    0  502  0.35735484752E+03  0.13760892686E+03  0.13978991208E+02  0.38318939964E+03  0.00000000000E+00 0. -1.
        -13    1    1    2    0    0  0.71723421559E+02  0.22764700887E+02  0.98670290861E+01  0.75893677165E+02  0.10566000000E+00 0.  1.
<mgrwt>
<rscale>  1 0.52202034E+03</rscale>
<asrwt>0</asrwt>
<pdfrwt beam="1">  1       21 0.15837573E+00 0.99559331E+03</pdfrwt>
<pdfrwt beam="2">  1       -4 0.43721565E-01 0.99559331E+03</pdfrwt>
<totfact> 0.47494657E+01</totfact>
</mgrwt>
</event>
<event>
 6    2  0.2220137E-005  0.1060107E+04  0.7818608E-02  0.9638112E-01
         -4   -1    0    0    0  501 -0.00000000000E+00  0.00000000000E+00  0.11458689409E+04  0.11458689409E+04  0.00000000000E+00 0. -1.
         21   -1    0    0  501  502  0.00000000000E+00 -0.00000000000E+00 -0.57155237537E+03  0.57155237537E+03  0.00000000000E+00 0. -1.
   -9000010    2    1    2    0  502  0.19460936217E+03  0.17705422057E+03 -0.27652589671E+02  0.10604678355E+04  0.10269402922E+04 0.  0.
         13    1    3    3    0    0  0.31885289693E+03 -0.37538817193E+03 -0.39437857968E+02  0.49410404300E+03  0.10566000000E+00 0. -1.
         -4    1    3    3    0  502 -0.12424353475E+03  0.55244239250E+03  0.11785268297E+02  0.56636379255E+03  0.00000000000E+00 0. -1.
        -13    1    1    2    0    0 -0.19460936217E+03 -0.17705422057E+03  0.60196915519E+03  0.65695348072E+03  0.10566000000E+00 0.  1.
<mgrwt>
<rscale>  1 0.74824202E+03</rscale>
<asrwt>0</asrwt>
<pdfrwt beam="2">  1       21 0.87931135E-01 0.10601072E+04</pdfrwt>
<pdfrwt beam="1">  1       -4 0.17628753E+00 0.10601072E+04</pdfrwt>
<totfact> 0.79005354E+00</totfact>
</mgrwt>
</event>
<event>
 6    2  0.2220137E-005  0.1071128E+04  0.7818608E-02  0.9663903E-01
         21   -1    0    0  501  502  0.00000000000E+00  0.00000000000E+00  0.20612802618E+04  0.20612802618E+04  0.00000000000E+00 0. -1.
         -4   -1    0    0    0  501 -0.00000000000E+00 -0.00000000000E+00 -0.25167193709E+03  0.25167193709E+03  0.00000000000E+00 0. -1.
   -9000010    2    1    2    0  502 -0.29222796177E+02  0.23188394414E+03  0.17799125160E+04  0.20773551115E+04  0.10453188792E+04 0.  0.
         13    1    3    3    0    0 -0.34517122234E+03 -0.28620802915E+03  0.58391639964E+03  0.73621775421E+03  0.10566000000E+00 0. -1.
         -4    1    3    3    0  502  0.31594842616E+03  0.51809197329E+03  0.11959961164E+04  0.13411373573E+04  0.00000000000E+00 0. -1.
        -13    1    1    2    0    0  0.29222796177E+02 -0.23188394414E+03  0.29695808700E+02  0.23559708739E+03  0.10566000000E+00 0.  1.
<mgrwt>
<rscale>  1 0.73207265E+03</rscale>
<asrwt>0</asrwt>
<pdfrwt beam="1">  1       21 0.31712003E+00 0.10711282E+04</pdfrwt>
<pdfrwt beam="2">  1       -4 0.38718761E-01 0.10711282E+04</pdfrwt>
<totfact> 0.53356380E+00</totfact>
</mgrwt>
</event>
<event>
 6    2  0.2220137E-005  0.1317001E+04  0.7818608E-02  0.9128324E-01
         -4   -1    0    0    0  501 -0.00000000000E+00  0.00000000000E+00  0.18040255071E+04  0.18040255071E+04  0.00000000000E+00 0. -1.
         21   -1    0    0  501  502  0.00000000000E+00 -0.00000000000E+00 -0.10947376304E+04  0.10947376304E+04  0.00000000000E+00 0.  1.
   -9000010    2    1    2    0  502 -0.14268807800E+03  0.84393533186E+03 -0.50724052687E+03  0.14113062138E+04  0.10009523191E+04 0.  0.
         13    1    3    3    0    0 -0.36061337977E-01  0.98633125127E+03 -0.63463294189E+03  0.11728633001E+04  0.10566000000E+00 0. -1.
         -4    1    3    3    0  502 -0.14265201667E+03 -0.14239591941E+03  0.12739241502E+03  0.23844291377E+03  0.00000000000E+00 0. -1.
        -13    1    1    2    0    0  0.14268807800E+03 -0.84393533186E+03  0.12165284035E+04  0.14874569236E+04  0.10566000000E+00 0.  1.
<mgrwt>
<rscale>  1 0.11824888E+04</rscale>
<asrwt>0</asrwt>
<pdfrwt beam="2">  1       21 0.16842117E+00 0.13170012E+04</pdfrwt>
<pdfrwt beam="1">  1       -4 0.27754239E+00 0.13170012E+04</pdfrwt>
<totfact> 0.30633738E-01</totfact>
</mgrwt>
</event>
<event>
 6    2  0.2220137E-005  0.1186504E+04  0.7818608E-02  0.9590058E-01
         -4   -1    0    0    0  501 -0.00000000000E+00  0.00000000000E+00  0.77101562576E+03  0.77101562576E+03  0.00000000000E+00 0. -1.
         21   -1    0    0  501  502  0.00000000000E+00 -0.00000000000E+00 -0.84042685037E+03  0.84042685037E+03  0.00000000000E+00 0. -1.
   -9000010    2    1    2    0  502 -0.10616099089E+03  0.19396869886E+03 -0.36584165513E+03  0.12416249219E+04  0.11657179410E+04 0.  0.
         13    1    3    3    0    0 -0.55808887649E+03 -0.19151676327E+03 -0.22232489752E+03  0.63053170887E+03  0.10566000000E+00 0. -1.
         -4    1    3    3    0  502  0.45192788560E+03  0.38548546213E+03 -0.14351675761E+03  0.61109321303E+03  0.00000000000E+00 0. -1.
        -13    1    1    2    0    0  0.10616099089E+03 -0.19396869886E+03  0.29643043051E+03  0.36981755424E+03  0.10566000000E+00 0.  1.
<mgrwt>
<rscale>  1 0.77957687E+03</rscale>
<asrwt>0</asrwt>
<pdfrwt beam="2">  1       21 0.12929644E+00 0.11865042E+04</pdfrwt>
<pdfrwt beam="1">  1       -4 0.11861779E+00 0.11865042E+04</pdfrwt>
<totfact> 0.84828199E+00</totfact>
</mgrwt>
</event>
<event>
 6    2  0.2220137E-005  0.1025491E+04  0.7818608E-02  0.9712393E-01
         21   -1    0    0  501  502  0.00000000000E+00  0.00000000000E+00  0.60561896371E+03  0.60561896371E+03  0.00000000000E+00 0. -1.
         -4   -1    0    0    0  501 -0.00000000000E+00 -0.00000000000E+00 -0.66979874945E+03  0.66979874945E+03  0.00000000000E+00 0. -1.
   -9000010    2    1    2    0  502 -0.22581575731E+03  0.14292905728E+02  0.40103974869E+02  0.10262748680E+04  0.10002173426E+04 0.  0.
         13    1    3    3    0    0  0.37480599931E+03 -0.47347878989E+02  0.16074948431E+03  0.41056274385E+03  0.10566000000E+00 0. -1.
         -4    1    3    3    0  502 -0.60062175663E+03  0.61640784718E+02 -0.12064550944E+03  0.61571212415E+03  0.00000000000E+00 0. -1.
        -13    1    1    2    0    0  0.22581575731E+03 -0.14292905728E+02 -0.10428376062E+03  0.24914284517E+03  0.10566000000E+00 0.  1.
<mgrwt>
<rscale>  1 0.70283683E+03</rscale>
<asrwt>0</asrwt>
<pdfrwt beam="1">  1       21 0.93172149E-01 0.10254910E+04</pdfrwt>
<pdfrwt beam="2">  1       -4 0.10304596E+00 0.10254910E+04</pdfrwt>
<totfact> 0.28060042E+01</totfact>
</mgrwt>
</event>
<event>
 6    2  0.2220137E-005  0.1105912E+04  0.7818608E-02  0.9936094E-01
         -4   -1    0    0    0  501 -0.00000000000E+00  0.00000000000E+00  0.44426448090E+03  0.44426448090E+03  0.00000000000E+00 0. -1.
         21   -1    0    0  501  502  0.00000000000E+00 -0.00000000000E+00 -0.10878286489E+04  0.10878286489E+04  0.00000000000E+00 0. -1.
   -9000010    2    1    2    0  502 -0.84952720599E+02  0.18036604691E+02 -0.79190216719E+03  0.13602023010E+04  0.11024966999E+04 0.  0.
         13    1    3    3    0    0 -0.17531641313E+03  0.30717048812E+03  0.13993984030E+03  0.38035867751E+03  0.10566000000E+00 0. -1.
         -4    1    3    3    0  502  0.90363692536E+02 -0.28913388343E+03 -0.93184200749E+03  0.97984362344E+03  0.00000000000E+00 0. -1.
        -13    1    1    2    0    0  0.84952720599E+02 -0.18036604691E+02  0.14833799923E+03  0.17189082880E+03  0.10566000000E+00 0.  1.
<mgrwt>
<rscale>  1 0.58543456E+03</rscale>
<asrwt>0</asrwt>
<pdfrwt beam="2">  1       21 0.16735825E+00 0.11059120E+04</pdfrwt>
<pdfrwt beam="1">  1       -4 0.68348381E-01 0.11059120E+04</pdfrwt>
<totfact> 0.15352837E+01</totfact>
</mgrwt>
</event>
<event>
 6    2  0.2220137E-005  0.1028628E+04  0.7818608E-02  0.9705599E-01
         -4   -1    0    0    0  501 -0.00000000000E+00  0.00000000000E+00  0.48911155006E+03  0.48911155006E+03  0.00000000000E+00 0. -1.
         21   -1    0    0  501  502  0.00000000000E+00 -0.00000000000E+00 -0.83679227493E+03  0.83679227493E+03  0.00000000000E+00 0.  1.
   -9000010    2    1    2    0  502  0.21349033196E+03  0.83833434614E+02 -0.18606118683E+03  0.10453204099E+04  0.10027311840E+04 0.  0.
         13    1    3    3    0    0  0.24277404945E+03  0.44615590569E+03 -0.37903657939E+03  0.63376894129E+03  0.10566000000E+00 0. -1.
         -4    1    3    3    0  502 -0.29283717492E+02 -0.36232247107E+03  0.19297539256E+03  0.41155146858E+03  0.00000000000E+00 0. -1.
        -13    1    1    2    0    0 -0.21349033196E+03 -0.83833434614E+02 -0.16161953804E+03  0.28058341512E+03  0.10566000000E+00 0.  1.
<mgrwt>
<rscale>  1 0.70684383E+03</rscale>
<asrwt>0</asrwt>
<pdfrwt beam="2">  1       21 0.12873727E+00 0.10286282E+04</pdfrwt>
<pdfrwt beam="1">  1       -4 0.75247932E-01 0.10286282E+04</pdfrwt>
<totfact> 0.25814209E+01</totfact>
</mgrwt>
</event>
<event>
 6    2  0.2220137E-005  0.1067273E+04  0.7818608E-02  0.9509834E-01
         -4   -1    0    0    0  501 -0.00000000000E+00  0.00000000000E+00  0.15555058734E+04  0.15555058734E+04  0.00000000000E+00 0. -1.
         21   -1    0    0  501  502  0.00000000000E+00 -0.00000000000E+00 -0.35894405001E+03  0.35894405001E+03  0.00000000000E+00 0. -1.
   -9000010    2    1    2    0  502  0.35424640772E+03 -0.18806282330E+03  0.10197623689E+04  0.14761393016E+04  0.98904691792E+03 0.  0.
         13    1    3    3    0    0  0.67783818572E+03 -0.17917516293E+03  0.49026408488E+03  0.85552745667E+03  0.10566000000E+00 0. -1.
         -4    1    3    3    0  502 -0.32359177800E+03 -0.88876603710E+01  0.52949828406E+03  0.62061184497E+03  0.00000000000E+00 0. -1.
        -13    1    1    2    0    0 -0.35424640772E+03  0.18806282330E+03  0.17679945443E+03  0.43831062175E+03  0.10566000000E+00 0.  1.
<mgrwt>
<rscale>  1 0.83562634E+03</rscale>
<asrwt>0</asrwt>
<pdfrwt beam="2">  1       21 0.55222162E-01 0.10672731E+04</pdfrwt>
<pdfrwt beam="1">  1       -4 0.23930859E+00 0.10672731E+04</pdfrwt>
<totfact> 0.88543031E+00</totfact>
</mgrwt>
</event>
<event>
 6    2  0.2220137E-005  0.1078220E+04  0.7818608E-02  0.9596146E-01
         -4   -1    0    0    0  501 -0.00000000000E+00  0.00000000000E+00  0.16711503494E+04  0.16711503494E+04  0.00000000000E+00 0. -1.
         21   -1    0    0  501  502  0.00000000000E+00 -0.00000000000E+00 -0.29366367119E+03  0.29366367119E+03  0.00000000000E+00 0. -1.
   -9000010    2    1    2    0  502  0.26295888048E+03 -0.11884095589E+03  0.88897245048E+03  0.13974369789E+04  0.10388876487E+04 0.  0.
         13    1    3    3    0    0  0.69429250163E+02  0.46029327100E+03  0.42802524452E+03  0.63237325783E+03  0.10566000000E+00 0. -1.
         -4    1    3    3    0  502  0.19352963032E+03 -0.57913422689E+03  0.46094720596E+03  0.76506372104E+03  0.00000000000E+00 0. -1.
        -13    1    1    2    0    0 -0.26295888048E+03  0.11884095589E+03  0.48851422771E+03  0.56737704171E+03  0.10566000000E+00 0.  1.
<mgrwt>
<rscale>  1 0.77551809E+03</rscale>
<asrwt>0</asrwt>
<pdfrwt beam="2">  1       21 0.45179027E-01 0.10782199E+04</pdfrwt>
<pdfrwt beam="1">  1       -4 0.25710005E+00 0.10782199E+04</pdfrwt>
<totfact> 0.10589340E+01</totfact>
</mgrwt>
</event>
<event>
 6    2  0.2220137E-005  0.1062734E+04  0.7818608E-02  0.9805383E-01
         21   -1    0    0  501  502  0.00000000000E+00  0.00000000000E+00  0.99166390338E+03  0.99166390338E+03  0.00000000000E+00 0. -1.
         -4   -1    0    0    0  501 -0.00000000000E+00 -0.00000000000E+00 -0.39482882779E+03  0.39482882779E+03  0.00000000000E+00 0. -1.
   -9000010    2    1    2    0  502  0.14626457087E+03  0.30477777398E+02  0.62722934313E+03  0.12340262028E+04  0.10521795478E+04 0.  0.
         13    1    3    3    0    0  0.60602703552E+02  0.39530578041E+03  0.74130201419E+03  0.84229925508E+03  0.10566000000E+00 0. -1.
         -4    1    3    3    0  502  0.85661867316E+02 -0.36482800301E+03 -0.11407267106E+03  0.39172694773E+03  0.00000000000E+00 0. -1.
        -13    1    1    2    0    0 -0.14626457087E+03 -0.30477777398E+02 -0.30394267541E+02  0.15246652836E+03  0.10566000000E+00 0.  1.
<mgrwt>
<rscale>  1 0.65074479E+03</rscale>
<asrwt>0</asrwt>
<pdfrwt beam="1">  1       21 0.15256368E+00 0.10627342E+04</pdfrwt>
<pdfrwt beam="2">  1       -4 0.60742897E-01 0.10627342E+04</pdfrwt>
<totfact> 0.26087336E+01</totfact>
</mgrwt>
</event>
<event>
 6    2  0.2220137E-005  0.1010039E+04  0.7818608E-02  0.9979114E-01
         -4   -1    0    0    0  501 -0.00000000000E+00  0.00000000000E+00  0.46130980773E+03  0.46130980773E+03  0.00000000000E+00 0. -1.
         21   -1    0    0  501  502  0.00000000000E+00 -0.00000000000E+00 -0.76447202317E+03  0.76447202317E+03  0.00000000000E+00 0. -1.
   -9000010    2    1    2    0  502 -0.91764469887E+02 -0.38273947134E+02 -0.40058959081E+03  0.10865779603E+04  0.10051338371E+04 0.  0.
         13    1    3    3    0    0 -0.39333274678E+03 -0.37811219010E+03 -0.14192221908E+03  0.56375651254E+03  0.10566000000E+00 0. -1.
         -4    1    3    3    0  502  0.30156827689E+03  0.33983824297E+03 -0.25866737173E+03  0.52282144773E+03  0.00000000000E+00 0. -1.
        -13    1    1    2    0    0  0.91764469887E+02  0.38273947134E+02  0.97427375374E+02  0.13920387063E+03  0.10566000000E+00 0.  1.
<mgrwt>
<rscale>  1 0.56575611E+03</rscale>
<asrwt>0</asrwt>
<pdfrwt beam="2">  1       21 0.11761108E+00 0.10100394E+04</pdfrwt>
<pdfrwt beam="1">  1       -4 0.70970741E-01 0.10100394E+04</pdfrwt>
<totfact> 0.37399425E+01</totfact>
</mgrwt>
</event>
<event>
 6    2  0.2220137E-005  0.1013775E+04  0.7818608E-02  0.9733664E-01
         -4   -1    0    0    0  501 -0.00000000000E+00  0.00000000000E+00  0.25305256362E+03  0.25305256362E+03  0.00000000000E+00 0. -1.
         21   -1    0    0  501  502  0.00000000000E+00 -0.00000000000E+00 -0.15045331139E+04  0.15045331139E+04  0.00000000000E+00 0. -1.
   -9000010    2    1    2    0  502 -0.18304402732E+03 -0.11868563126E+03 -0.10679289353E+04  0.14724846401E+04  0.99002394391E+03 0.  0.
         13    1    3    3    0    0 -0.23948552752E+03 -0.17069115377E+03 -0.12451235570E+04  0.12793832386E+04  0.10566000000E+00 0. -1.
         -4    1    3    3    0  502  0.56441500209E+02  0.52005522506E+02  0.17719462169E+03  0.19310140153E+03  0.00000000000E+00 0. -1.
        -13    1    1    2    0    0  0.18304402732E+03  0.11868563126E+03 -0.18355161498E+03  0.28510103740E+03  0.10566000000E+00 0.  1.
<mgrwt>
<rscale>  1 0.69047363E+03</rscale>
<asrwt>0</asrwt>
<pdfrwt beam="2">  1       21 0.23146664E+00 0.10137745E+04</pdfrwt>
<pdfrwt beam="1">  1       -4 0.38931163E-01 0.10137745E+04</pdfrwt>
<totfact> 0.18428666E+01</totfact>
</mgrwt>
</event>
<event>
 6    2  0.2220137E-005  0.1009027E+04  0.7818608E-02  0.9870432E-01
         21   -1    0    0  501  502  0.00000000000E+00  0.00000000000E+00  0.26709635366E+03  0.26709635366E+03  0.00000000000E+00 0. -1.
         -4   -1    0    0    0  501 -0.00000000000E+00 -0.00000000000E+00 -0.12899696126E+04  0.12899696126E+04  0.00000000000E+00 0. -1.
   -9000010    2    1    2    0  502  0.60374415253E+02 -0.12765805549E+03 -0.77699653566E+03  0.12735222776E+04  0.99909645482E+03 0.  0.
         13    1    3    3    0    0 -0.17422510508E+03  0.37414856432E+03 -0.15563487545E+03  0.44109382340E+03  0.10566000000E+00 0. -1.
         -4    1    3    3    0  502  0.23459952033E+03 -0.50180661981E+03 -0.62136166022E+03  0.83242845423E+03  0.00000000000E+00 0. -1.
        -13    1    1    2    0    0 -0.60374415253E+02  0.12765805549E+03 -0.24587672327E+03  0.28354368862E+03  0.10566000000E+00 0.  1.
<mgrwt>
<rscale>  1 0.61715924E+03</rscale>
<asrwt>0</asrwt>
<pdfrwt beam="1">  1       21 0.41091747E-01 0.10090269E+04</pdfrwt>
<pdfrwt beam="2">  1       -4 0.19845686E+00 0.10090269E+04</pdfrwt>
<totfact> 0.30735167E+01</totfact>
</mgrwt>
</event>
<event>
 6    2  0.2220137E-005  0.1185321E+04  0.7818608E-02  0.9283355E-01
         -4   -1    0    0    0  501 -0.00000000000E+00  0.00000000000E+00  0.56870069835E+03  0.56870069835E+03  0.00000000000E+00 0. -1.
         21   -1    0    0  501  502  0.00000000000E+00 -0.00000000000E+00 -0.14956959808E+04  0.14956959808E+04  0.00000000000E+00 0.  1.
   -9000010    2    1    2    0  502 -0.60989264911E+03 -0.24807424070E+03 -0.56621043221E+03  0.13136133604E+04  0.98563478774E+03 0.  0.
         13    1    3    3    0    0  0.36387157688E+02  0.78280259234E+02  0.22508901726E+03  0.24107447207E+03  0.10566000000E+00 0. -1.
         -4    1    3    3    0  502 -0.64627980680E+03 -0.32635449994E+03 -0.79129944947E+03  0.10725388884E+04  0.00000000000E+00 0. -1.
        -13    1    1    2    0    0  0.60989264911E+03  0.24807424070E+03 -0.36078485024E+03  0.75078331872E+03  0.10566000000E+00 0.  1.
<mgrwt>
<rscale>  1 0.10232975E+04</rscale>
<asrwt>0</asrwt>
<pdfrwt beam="2">  1       21 0.23010707E+00 0.11853210E+04</pdfrwt>
<pdfrwt beam="1">  1       -4 0.87492418E-01 0.11853210E+04</pdfrwt>
<totfact> 0.31552291E+00</totfact>
</mgrwt>
</event>
<event>
 6    2  0.2220137E-005  0.1139688E+04  0.7818608E-02  0.1006655E+00
         21   -1    0    0  501  502  0.00000000000E+00  0.00000000000E+00  0.22025359739E+04  0.22025359739E+04  0.00000000000E+00 0. -1.
         -4   -1    0    0    0  501 -0.00000000000E+00 -0.00000000000E+00 -0.21712043000E+03  0.21712043000E+03  0.00000000000E+00 0. -1.
   -9000010    2    1    2    0  502  0.26479752418E+02 -0.45455484743E+02  0.20444061558E+04  0.23406166554E+04  0.11384737236E+04 0.  0.
         13    1    3    3    0    0 -0.10467801727E+03 -0.17462733319E+03 -0.72199581393E+02  0.21602079417E+03  0.10566000000E+00 0. -1.
         -4    1    3    3    0  502  0.13115776968E+03  0.12917184845E+03  0.21166057372E+04  0.21245958613E+04  0.00000000000E+00 0. -1.
        -13    1    1    2    0    0 -0.26479752418E+02  0.45455484743E+02 -0.58990611902E+02  0.79039748469E+02  0.10566000000E+00 0.  1.
<mgrwt>
<rscale>  1 0.52826082E+03</rscale>
<asrwt>0</asrwt>
<pdfrwt beam="1">  1       21 0.33885167E+00 0.11396885E+04</pdfrwt>
<pdfrwt beam="2">  1       -4 0.33403145E-01 0.11396885E+04</pdfrwt>
<totfact> 0.51865754E+00</totfact>
</mgrwt>
</event>
<event>
 6    2  0.2220137E-005  0.9971729E+03  0.7818608E-02  0.1013908E+00
         -4   -1    0    0    0  501 -0.00000000000E+00  0.00000000000E+00  0.50540617720E+03  0.50540617720E+03  0.00000000000E+00 0. -1.
         21   -1    0    0  501  502  0.00000000000E+00 -0.00000000000E+00 -0.57588850239E+03  0.57588850239E+03  0.00000000000E+00 0. -1.
   -9000010    2    1    2    0  502 -0.35944380349E+02 -0.51475935928E+02 -0.11578577305E+03  0.10038725638E+04  0.99519445773E+03 0.  0.
         13    1    3    3    0    0  0.27468898906E+03 -0.15054600020E+03  0.32776698336E+03  0.45337550158E+03  0.10566000000E+00 0. -1.
         -4    1    3    3    0  502 -0.31063336941E+03  0.99070064275E+02 -0.44355275641E+03  0.55049706225E+03  0.00000000000E+00 0. -1.
        -13    1    1    2    0    0  0.35944380349E+02  0.51475935928E+02  0.45303447864E+02  0.77422115772E+02  0.10566000000E+00 0.  1.
<mgrwt>
<rscale>  1 0.49950452E+03</rscale>
<asrwt>0</asrwt>
<pdfrwt beam="2">  1       21 0.88598231E-01 0.99717289E+03</pdfrwt>
<pdfrwt beam="1">  1       -4 0.77754797E-01 0.99717289E+03</pdfrwt>
<totfact> 0.61632731E+01</totfact>
</mgrwt>
</event>
<event>
 6    2  0.2220137E-005  0.1241808E+04  0.7818608E-02  0.9218529E-01
         21   -1    0    0  501  502  0.00000000000E+00  0.00000000000E+00  0.93199710853E+03  0.93199710853E+03  0.00000000000E+00 0.  1.
         -4   -1    0    0    0  501 -0.00000000000E+00 -0.00000000000E+00 -0.11935090474E+04  0.11935090474E+04  0.00000000000E+00 0. -1.
   -9000010    2    1    2    0  502 -0.72535395655E+03  0.55738114054E+02  0.20878306899E+03  0.12592368530E+04  0.10064005080E+04 0.  0.
         13    1    3    3    0    0 -0.80886513111E+03  0.36199971996E+03  0.28846900314E+03  0.93194472717E+03  0.10566000000E+00 0. -1.
         -4    1    3    3    0  502  0.83511174556E+02 -0.30626160590E+03 -0.79685934151E+02  0.32729212583E+03  0.00000000000E+00 0. -1.
        -13    1    1    2    0    0  0.72535395655E+03 -0.55738114054E+02 -0.47029500789E+03  0.86626930296E+03  0.10566000000E+00 0.  1.
<mgrwt>
<rscale>  1 0.10864205E+04</rscale>
<asrwt>0</asrwt>
<pdfrwt beam="1">  1       21 0.14338417E+00 0.12418080E+04</pdfrwt>
<pdfrwt beam="2">  1       -4 0.18361678E+00 0.12418080E+04</pdfrwt>
<totfact> 0.19592196E+00</totfact>
</mgrwt>
</event>
<event>
 6    2  0.2220137E-005  0.1394423E+04  0.7818608E-02  0.9056129E-01
         -4   -1    0    0    0  501 -0.00000000000E+00  0.00000000000E+00  0.17595429195E+04  0.17595429195E+04  0.00000000000E+00 0. -1.
         21   -1    0    0  501  502  0.00000000000E+00 -0.00000000000E+00 -0.10422003084E+04  0.10422003084E+04  0.00000000000E+00 0.  1.
   -9000010    2    1    2    0  502 -0.90141118729E+03 -0.30156349389E+03  0.11010316865E+04  0.17767066494E+04  0.10202612774E+04 0.  0.
         13    1    3    3    0    0  0.88839723443E+02 -0.29569390162E+03  0.58160764245E+03  0.65847918785E+03  0.10566000000E+00 0. -1.
         -4    1    3    3    0  502 -0.99025091073E+03 -0.58695922651E+01  0.51942404401E+03  0.11182274616E+04  0.00000000000E+00 0. -1.
        -13    1    1    2    0    0  0.90141118729E+03  0.30156349389E+03 -0.38368907535E+03  0.10250365784E+04  0.10566000000E+00 0.  1.
<mgrwt>
<rscale>  1 0.12670273E+04</rscale>
<asrwt>0</asrwt>
<pdfrwt beam="2">  1       21 0.16033851E+00 0.13944231E+04</pdfrwt>
<pdfrwt beam="1">  1       -4 0.27069891E+00 0.13944231E+04</pdfrwt>
<totfact> 0.38551424E-01</totfact>
</mgrwt>
</event>
<event>
 6    2  0.2220137E-005  0.1026056E+04  0.7818608E-02  0.9633730E-01
         21   -1    0    0  501  502  0.00000000000E+00  0.00000000000E+00  0.29884028671E+03  0.29884028671E+03  0.00000000000E+00 0.  1.
         -4   -1    0    0    0  501 -0.00000000000E+00 -0.00000000000E+00 -0.14749040480E+04  0.14749040480E+04  0.00000000000E+00 0. -1.
   -9000010    2    1    2    0  502 -0.15033844865E+03  0.25326722625E+03 -0.83319176073E+03  0.13217408425E+04  0.98287558093E+03 0.  0.
         13    1    3    3    0    0 -0.18617166841E+03 -0.36323982911E+03 -0.31501389195E+03  0.51559366448E+03  0.10566000000E+00 0. -1.
         -4    1    3    3    0  502  0.35833219763E+02  0.61650705536E+03 -0.51817786878E+03  0.80614717803E+03  0.00000000000E+00 0. -1.
        -13    1    1    2    0    0  0.15033844865E+03 -0.25326722625E+03 -0.34287200057E+03  0.45200349221E+03  0.10566000000E+00 0.  1.
<mgrwt>
<rscale>  1 0.75103359E+03</rscale>
<asrwt>0</asrwt>
<pdfrwt beam="1">  1       21 0.45975430E-01 0.10260557E+04</pdfrwt>
<pdfrwt beam="2">  1       -4 0.22690831E+00 0.10260557E+04</pdfrwt>
<totfact> 0.15832989E+01</totfact>
</mgrwt>
</event>
<event>
 6    2  0.2220137E-005  0.1007598E+04  0.7818608E-02  0.9815223E-01
         -4   -1    0    0    0  501 -0.00000000000E+00  0.00000000000E+00  0.26268253855E+03  0.26268253855E+03  0.00000000000E+00 0. -1.
         21   -1    0    0  501  502  0.00000000000E+00 -0.00000000000E+00 -0.13194345934E+04  0.13194345934E+04  0.00000000000E+00 0. -1.
   -9000010    2    1    2    0  502 -0.12748205634E+03  0.11206639306E+03 -0.91182435429E+03  0.13589252847E+04  0.99319873391E+03 0.  0.
         13    1    3    3    0    0  0.13103165056E+03  0.83582394008E+02  0.17927049439E+03  0.23726194672E+03  0.10566000000E+00 0. -1.
         -4    1    3    3    0  502 -0.25851370690E+03  0.28483999047E+02 -0.10910948487E+04  0.11216633379E+04  0.00000000000E+00 0. -1.
        -13    1    1    2    0    0  0.12748205634E+03 -0.11206639306E+03 -0.14492770051E+03  0.22319184725E+03  0.10566000000E+00 0.  1.
<mgrwt>
<rscale>  1 0.64551974E+03</rscale>
<asrwt>0</asrwt>
<pdfrwt beam="2">  1       21 0.20298994E+00 0.10075983E+04</pdfrwt>
<pdfrwt beam="1">  1       -4 0.40412698E-01 0.10075983E+04</pdfrwt>
<totfact> 0.26432364E+01</totfact>
</mgrwt>
</event>
<event>
 6    2  0.2220137E-005  0.1018307E+04  0.7818608E-02  0.9631825E-01
         21   -1    0    0  501  502  0.00000000000E+00  0.00000000000E+00  0.41800982158E+03  0.41800982158E+03  0.00000000000E+00 0. -1.
         -4   -1    0    0    0  501 -0.00000000000E+00 -0.00000000000E+00 -0.11046222069E+04  0.11046222069E+04  0.00000000000E+00 0. -1.
   -9000010    2    1    2    0  502  0.22719065757E+02 -0.30240817248E+03 -0.36798487598E+03  0.10827566375E+04  0.97210195369E+03 0.  0.
         13    1    3    3    0    0 -0.37537392320E+03 -0.42389005380E+03 -0.69237367817E+02  0.57042281178E+03  0.10566000000E+00 0. -1.
         -4    1    3    3    0  502  0.39809298896E+03  0.12148188132E+03 -0.29874750816E+03  0.51233382572E+03  0.00000000000E+00 0. -1.
        -13    1    1    2    0    0 -0.22719065757E+02  0.30240817248E+03 -0.31862750939E+03  0.43987539103E+03  0.10566000000E+00 0.  1.
<mgrwt>
<rscale>  1 0.75225132E+03</rscale>
<asrwt>0</asrwt>
<pdfrwt beam="1">  1       21 0.64309204E-01 0.10183070E+04</pdfrwt>
<pdfrwt beam="2">  1       -4 0.16994188E+00 0.10183070E+04</pdfrwt>
<totfact> 0.18239972E+01</totfact>
</mgrwt>
</event>
<event>
 6    2  0.2220137E-005  0.1087587E+04  0.7818608E-02  0.9487692E-01
         21   -1    0    0  501  502  0.00000000000E+00  0.00000000000E+00  0.19321544990E+04  0.19321544990E+04  0.00000000000E+00 0. -1.
         -4   -1    0    0    0  501 -0.00000000000E+00 -0.00000000000E+00 -0.32964644085E+03  0.32964644085E+03  0.00000000000E+00 0. -1.
   -9000010    2    1    2    0  502  0.21651039704E+03  0.34764756986E+03  0.76553301843E+03  0.13299947298E+04  0.10075264731E+04 0.  0.
         13    1    3    3    0    0  0.15770033941E+03  0.69932937853E+03  0.40711325613E+03  0.82442233789E+03  0.10566000000E+00 0. -1.
         -4    1    3    3    0  502  0.58810057632E+02 -0.35168180867E+03  0.35841976231E+03  0.50557239189E+03  0.00000000000E+00 0. -1.
        -13    1    1    2    0    0 -0.21651039704E+03 -0.34764756986E+03  0.83697503971E+03  0.93180621006E+03  0.10566000000E+00 0.  1.
<mgrwt>
<rscale>  1 0.85197367E+03</rscale>
<asrwt>0</asrwt>
<pdfrwt beam="1">  1       21 0.29725453E+00 0.10875869E+04</pdfrwt>
<pdfrwt beam="2">  1       -4 0.50714838E-01 0.10875869E+04</pdfrwt>
<totfact> 0.40441550E+00</totfact>
</mgrwt>
</event>
<event>
 6    2  0.2220137E-005  0.1008629E+04  0.7818608E-02  0.9874718E-01
         21   -1    0    0  501  502  0.00000000000E+00  0.00000000000E+00  0.50361480497E+03  0.50361480497E+03  0.00000000000E+00 0. -1.
         -4   -1    0    0    0  501 -0.00000000000E+00 -0.00000000000E+00 -0.66488403675E+03  0.66488403675E+03  0.00000000000E+00 0. -1.
   -9000010    2    1    2    0  502  0.98128804032E+01 -0.13908931506E+03 -0.92030071800E+02  0.10128190337E+04  0.99894480866E+03 0.  0.
         13    1    3    3    0    0 -0.42715189166E+03  0.11564869232E+03  0.12883495022E+03  0.46090325899E+03  0.10566000000E+00 0. -1.
         -4    1    3    3    0  502  0.43696477207E+03 -0.25473800738E+03 -0.22086502202E+03  0.55191577472E+03  0.00000000000E+00 0. -1.
        -13    1    1    2    0    0 -0.98128804032E+01  0.13908931506E+03 -0.69239159981E+02  0.15567980801E+03  0.10566000000E+00 0.  1.
<mgrwt>
<rscale>  1 0.61502343E+03</rscale>
<asrwt>0</asrwt>
<pdfrwt beam="1">  1       21 0.77479201E-01 0.10086292E+04</pdfrwt>
<pdfrwt beam="2">  1       -4 0.10228985E+00 0.10086292E+04</pdfrwt>
<totfact> 0.44415598E+01</totfact>
</mgrwt>
</event>
<event>
 6    2  0.2220137E-005  0.1015999E+04  0.7818608E-02  0.9940182E-01
         -4   -1    0    0    0  501 -0.00000000000E+00  0.00000000000E+00  0.95101209212E+03  0.95101209212E+03  0.00000000000E+00 0. -1.
         21   -1    0    0  501  502  0.00000000000E+00 -0.00000000000E+00 -0.34240503184E+03  0.34240503184E+03  0.00000000000E+00 0. -1.
   -9000010    2    1    2    0  502  0.86199222712E+02 -0.69220289487E+02  0.47955888883E+03  0.11234900920E+04  0.10099660908E+04 0.  0.
         13    1    3    3    0    0 -0.12164360975E+03 -0.27992071913E+03 -0.21176389472E+03  0.37147911793E+03  0.10566000000E+00 0. -1.
         -4    1    3    3    0  502  0.20784283247E+03  0.21070042964E+03  0.69132278355E+03  0.75201097406E+03  0.00000000000E+00 0. -1.
        -13    1    1    2    0    0 -0.86199222712E+02  0.69220289487E+02  0.12904817145E+03  0.16992703196E+03  0.10566000000E+00 0.  1.
<mgrwt>
<rscale>  1 0.58352786E+03</rscale>
<asrwt>0</asrwt>
<pdfrwt beam="2">  1       21 0.52677697E-01 0.10159987E+04</pdfrwt>
<pdfrwt beam="1">  1       -4 0.14630955E+00 0.10159987E+04</pdfrwt>
<totfact> 0.42793016E+01</totfact>
</mgrwt>
</event>
<event>
 6    2  0.2220137E-005  0.1023267E+04  0.7818608E-02  0.9814350E-01
         21   -1    0    0  501  502  0.00000000000E+00  0.00000000000E+00  0.24453060873E+03  0.24453060873E+03  0.00000000000E+00 0. -1.
         -4   -1    0    0    0  501 -0.00000000000E+00 -0.00000000000E+00 -0.14556313523E+04  0.14556313523E+04  0.00000000000E+00 0. -1.
   -9000010    2    1    2    0  502 -0.61341350956E+02  0.15050125384E+03 -0.97402371723E+03  0.14127268965E+04  0.10102780279E+04 0.  0.
         13    1    3    3    0    0  0.43622369310E+03 -0.11933945639E+01 -0.19936099289E+03  0.47962209213E+03  0.10566000000E+00 0. -1.
         -4    1    3    3    0  502 -0.49756504406E+03  0.15169464841E+03 -0.77466272434E+03  0.93310480436E+03  0.00000000000E+00 0. -1.
        -13    1    1    2    0    0  0.61341350956E+02 -0.15050125384E+03 -0.23707702637E+03  0.28743506457E+03  0.10566000000E+00 0.  1.
<mgrwt>
<rscale>  1 0.64598097E+03</rscale>
<asrwt>0</asrwt>
<pdfrwt beam="1">  1       21 0.37620093E-01 0.10232669E+04</pdfrwt>
<pdfrwt beam="2">  1       -4 0.22394329E+00 0.10232669E+04</pdfrwt>
<totfact> 0.25230382E+01</totfact>
</mgrwt>
</event>
<event>
 6    2  0.2220137E-005  0.1019672E+04  0.7818608E-02  0.9724319E-01
         21   -1    0    0  501  502  0.00000000000E+00  0.00000000000E+00  0.93983790548E+03  0.93983790548E+03  0.00000000000E+00 0. -1.
         -4   -1    0    0    0  501 -0.00000000000E+00 -0.00000000000E+00 -0.49947335518E+03  0.49947335518E+03  0.00000000000E+00 0. -1.
   -9000010    2    1    2    0  502  0.11504327594E+03  0.18889993788E+03  0.58449930859E+03  0.11753169774E+04  0.99539560670E+03 0.  0.
         13    1    3    3    0    0  0.27035318750E+03 -0.28546490995E+03  0.54852705102E+03  0.67487998760E+03  0.10566000000E+00 0. -1.
         -4    1    3    3    0  502 -0.15530991156E+03  0.47436484782E+03  0.35972257568E+02  0.50043698983E+03  0.00000000000E+00 0. -1.
        -13    1    1    2    0    0 -0.11504327594E+03 -0.18889993788E+03 -0.14413475828E+03  0.26399428323E+03  0.10566000000E+00 0.  1.
<mgrwt>
<rscale>  1 0.69587151E+03</rscale>
<asrwt>0</asrwt>
<pdfrwt beam="1">  1       21 0.14459045E+00 0.10196718E+04</pdfrwt>
<pdfrwt beam="2">  1       -4 0.76842055E-01 0.10196718E+04</pdfrwt>
<totfact> 0.18002894E+01</totfact>
</mgrwt>
</event>
<event>
 6    2  0.2220137E-005  0.1060608E+04  0.7818608E-02  0.9553441E-01
         21   -1    0    0  501  502  0.00000000000E+00  0.00000000000E+00  0.10450846978E+04  0.10450846978E+04  0.00000000000E+00 0.  1.
         -4   -1    0    0    0  501 -0.00000000000E+00 -0.00000000000E+00 -0.50839916752E+03  0.50839916752E+03  0.00000000000E+00 0. -1.
   -9000010    2    1    2    0  502  0.33936462061E+02  0.34956680427E+03  0.56394470215E+03  0.12012173360E+04  0.10007701170E+04 0.  0.
         13    1    3    3    0    0 -0.55682221413E+02  0.45945003616E+03 -0.13969313121E+03  0.48343461562E+03  0.10566000000E+00 0. -1.
         -4    1    3    3    0  502  0.89618683473E+02 -0.10988323188E+03  0.70363783336E+03  0.71778272034E+03  0.00000000000E+00 0. -1.
        -13    1    1    2    0    0 -0.33936462061E+02 -0.34956680427E+03 -0.27259171864E+02  0.35226652938E+03  0.10566000000E+00 0.  1.
<mgrwt>
<rscale>  1 0.80455917E+03</rscale>
<asrwt>0</asrwt>
<pdfrwt beam="1">  1       21 0.16078226E+00 0.10606081E+04</pdfrwt>
<pdfrwt beam="2">  1       -4 0.78215257E-01 0.10606081E+04</pdfrwt>
<totfact> 0.12773563E+01</totfact>
</mgrwt>
</event>
<event>
 6    2  0.2220137E-005  0.1025323E+04  0.7818608E-02  0.1007262E+00
         -4   -1    0    0    0  501 -0.00000000000E+00  0.00000000000E+00  0.34698736231E+03  0.34698736231E+03  0.00000000000E+00 0. -1.
         21   -1    0    0  501  502  0.00000000000E+00 -0.00000000000E+00 -0.87105144574E+03  0.87105144574E+03  0.00000000000E+00 0. -1.
   -9000010    2    1    2    0  502 -0.66751318171E+02  0.23880569655E+02 -0.51226589956E+03  0.11461692847E+04  0.10228693256E+04 0.  0.
         13    1    3    3    0    0 -0.25788936549E+03 -0.39177900088E+03 -0.50415074004E+03  0.68859689965E+03  0.10566000000E+00 0. -1.
         -4    1    3    3    0  502  0.19113804732E+03  0.41565957054E+03 -0.81151595230E+01  0.45757238501E+03  0.00000000000E+00 0. -1.
        -13    1    1    2    0    0  0.66751318171E+02 -0.23880569655E+02 -0.11798183860E+02  0.71869523382E+02  0.10566000000E+00 0.  1.
<mgrwt>
<rscale>  1 0.52577355E+03</rscale>
<asrwt>0</asrwt>
<pdfrwt beam="2">  1       21 0.13400791E+00 0.10253232E+04</pdfrwt>
<pdfrwt beam="1">  1       -4 0.53382672E-01 0.10253232E+04</pdfrwt>
<totfact> 0.49401718E+01</totfact>
</mgrwt>
</event>
<event>
 6    2  0.2220137E-005  0.1239901E+04  0.7818608E-02  0.9221278E-01
         -4   -1    0    0    0  501 -0.00000000000E+00  0.00000000000E+00  0.19072226669E+04  0.19072226669E+04  0.00000000000E+00 0. -1.
         21   -1    0    0  501  502  0.00000000000E+00 -0.00000000000E+00 -0.67420587117E+03  0.67420587117E+03  0.00000000000E+00 0. -1.
   -9000010    2    1    2    0  502  0.15597132541E+03 -0.70640738000E+03  0.10893259986E+03  0.12446773528E+04  0.10069840914E+04 0.  0.
         13    1    3    3    0    0 -0.64196028273E+02  0.23685062716E+03  0.12612863903E+03  0.27591265715E+03  0.10566000000E+00 0. -1.
         -4    1    3    3    0  502  0.22016735369E+03 -0.94325800715E+03 -0.17196039163E+02  0.96876469561E+03  0.00000000000E+00 0. -1.
        -13    1    1    2    0    0 -0.15597132541E+03  0.70640738000E+03  0.11240841958E+04  0.13367511853E+04  0.10566000000E+00 0.  1.
<mgrwt>
<rscale>  1 0.10836479E+04</rscale>
<asrwt>0</asrwt>
<pdfrwt beam="2">  1       21 0.10372398E+00 0.12399014E+04</pdfrwt>
<pdfrwt beam="1">  1       -4 0.29341887E+00 0.12399014E+04</pdfrwt>
<totfact> 0.91475321E-01</totfact>
</mgrwt>
</event>
<event>
 6    2  0.2220137E-005  0.1127995E+04  0.7818608E-02  0.9394101E-01
         21   -1    0    0  501  502  0.00000000000E+00  0.00000000000E+00  0.24066570157E+04  0.24066570157E+04  0.00000000000E+00 0.  1.
         -4   -1    0    0    0  501 -0.00000000000E+00 -0.00000000000E+00 -0.30434379502E+03  0.30434379502E+03  0.00000000000E+00 0. -1.
   -9000010    2    1    2    0  502  0.52315306958E+01  0.51144578358E+03  0.10504141413E+04  0.15413445181E+04  0.10053700298E+04 0.  0.
         13    1    3    3    0    0  0.92527265162E+02  0.26580259674E+03  0.12055604962E+04  0.12379775589E+04  0.10566000000E+00 0. -1.
         -4    1    3    3    0  502 -0.87295734466E+02  0.24564318685E+03 -0.15514635490E+03  0.30336695921E+03  0.00000000000E+00 0. -1.
        -13    1    1    2    0    0 -0.52315306958E+01 -0.51144578358E+03  0.10518990794E+04  0.11696562926E+04  0.10566000000E+00 0.  1.
<mgrwt>
<rscale>  1 0.92562710E+03</rscale>
<asrwt>0</asrwt>
<pdfrwt beam="1">  1       21 0.37025491E+00 0.11279951E+04</pdfrwt>
<pdfrwt beam="2">  1       -4 0.46822124E-01 0.11279951E+04</pdfrwt>
<totfact> 0.16475508E+00</totfact>
</mgrwt>
</event>
<event>
 6    2  0.2220137E-005  0.8942795E+03  0.7818608E-02  0.9861017E-01
         21   -1    0    0  501  502  0.00000000000E+00  0.00000000000E+00  0.15697490612E+04  0.15697490612E+04  0.00000000000E+00 0. -1.
         -4   -1    0    0    0  501 -0.00000000000E+00 -0.00000000000E+00 -0.23488864458E+03  0.23488864458E+03  0.00000000000E+00 0. -1.
   -9000010    2    1    2    0  502  0.17377503846E+03  0.11635033343E+03  0.13207552487E+04  0.15950330040E+04  0.86948300319E+03 0.  0.
         13    1    3    3    0    0  0.24316193988E+03  0.45943680988E+03  0.96409785711E+03  0.10953057110E+04  0.10566000000E+00 0. -1.
         -4    1    3    3    0  502 -0.69386901416E+02 -0.34308647645E+03  0.35665739156E+03  0.49972729299E+03  0.00000000000E+00 0. -1.
        -13    1    1    2    0    0 -0.17377503846E+03 -0.11635033343E+03  0.14105167949E+02  0.20960470178E+03  0.10566000000E+00 0.  1.
<mgrwt>
<rscale>  1 0.62188320E+03</rscale>
<asrwt>0</asrwt>
<pdfrwt beam="1">  1       21 0.24149985E+00 0.89427952E+03</pdfrwt>
<pdfrwt beam="2">  1       -4 0.36136715E-01 0.89427952E+03</pdfrwt>
<totfact> 0.18778235E+01</totfact>
</mgrwt>
</event>
<event>
 6    2  0.2220137E-005  0.1300792E+04  0.7818608E-02  0.9148494E-01
         21   -1    0    0  501  502  0.00000000000E+00  0.00000000000E+00  0.79923122537E+03  0.79923122537E+03  0.00000000000E+00 0.  1.
         -4   -1    0    0    0  501 -0.00000000000E+00 -0.00000000000E+00 -0.15457234021E+04  0.15457234021E+04  0.00000000000E+00 0. -1.
   -9000010    2    1    2    0  502 -0.60906328928E+03 -0.55349175732E+03 -0.11167416096E+03  0.13055773427E+04  0.10073479358E+04 0.  0.
         13    1    3    3    0    0 -0.77058250394E+02  0.27157463352E+02 -0.44353162656E+03  0.45099425350E+03  0.10566000000E+00 0. -1.
         -4    1    3    3    0  502 -0.53200503888E+03 -0.58064922067E+03  0.33185746560E+03  0.85458308919E+03  0.00000000000E+00 0. -1.
        -13    1    1    2    0    0  0.60906328928E+03  0.55349175732E+03 -0.63481801574E+03  0.10393772847E+04  0.10566000000E+00 0.  1.
<mgrwt>
<rscale>  1 0.11601244E+04</rscale>
<asrwt>0</asrwt>
<pdfrwt beam="1">  1       21 0.12295865E+00 0.13007925E+04</pdfrwt>
<pdfrwt beam="2">  1       -4 0.23780360E+00 0.13007925E+04</pdfrwt>
<totfact> 0.12993351E+00</totfact>
</mgrwt>
</event>
<event>
 6    2  0.2220137E-005  0.1030217E+04  0.7818608E-02  0.9678900E-01
         -4   -1    0    0    0  501 -0.00000000000E+00  0.00000000000E+00  0.72944650262E+03  0.72944650262E+03  0.00000000000E+00 0. -1.
         21   -1    0    0  501  502  0.00000000000E+00 -0.00000000000E+00 -0.83668018502E+03  0.83668018502E+03  0.00000000000E+00 0. -1.
   -9000010    2    1    2    0  502  0.92662477104E+02  0.23189379310E+03 -0.46461745044E+03  0.11301401801E+04  0.99949306424E+03 0.  0.
         13    1    3    3    0    0 -0.14149269164E+03 -0.27094887916E+03 -0.48702231024E+03  0.57499932064E+03  0.10566000000E+00 0. -1.
         -4    1    3    3    0  502  0.23415516874E+03  0.50284267226E+03  0.22404859799E+02  0.55514085945E+03  0.00000000000E+00 0. -1.
        -13    1    1    2    0    0 -0.92662477104E+02 -0.23189379310E+03  0.35738376804E+03  0.43598650755E+03  0.10566000000E+00 0.  1.
<mgrwt>
<rscale>  1 0.72287099E+03</rscale>
<asrwt>0</asrwt>
<pdfrwt beam="2">  1       21 0.12872003E+00 0.10302172E+04</pdfrwt>
<pdfrwt beam="1">  1       -4 0.11222254E+00 0.10302172E+04</pdfrwt>
<totfact> 0.10017641E+01</totfact>
</mgrwt>
</event>
<event>
 6    2  0.2220137E-005  0.9839823E+03  0.7818608E-02  0.1015934E+00
         21   -1    0    0  501  502  0.00000000000E+00  0.00000000000E+00  0.50027339162E+03  0.50027339162E+03  0.00000000000E+00 0. -1.
         -4   -1    0    0    0  501 -0.00000000000E+00 -0.00000000000E+00 -0.54764235130E+03  0.54764235130E+03  0.00000000000E+00 0. -1.
   -9000010    2    1    2    0  502 -0.51097598997E+02  0.34075776470E+02 -0.31524552598E+02  0.98448720388E+03  0.98206371179E+03 0.  0.
         13    1    3    3    0    0  0.22170238409E+03 -0.40808149998E+03 -0.18385667865E+02  0.46478005732E+03  0.10566000000E+00 0. -1.
         -4    1    3    3    0  502 -0.27279998308E+03  0.44215727645E+03 -0.13138884734E+02  0.51970714656E+03  0.00000000000E+00 0. -1.
        -13    1    1    2    0    0  0.51097598997E+02 -0.34075776470E+02 -0.15844407074E+02  0.63428539041E+02  0.10566000000E+00 0.  1.
<mgrwt>
<rscale>  1 0.49182871E+03</rscale>
<asrwt>0</asrwt>
<pdfrwt beam="1">  1       21 0.76965137E-01 0.98398235E+03</pdfrwt>
<pdfrwt beam="2">  1       -4 0.84252670E-01 0.98398235E+03</pdfrwt>
<totfact> 0.71580120E+01</totfact>
</mgrwt>
</event>
<event>
 6    2  0.2220137E-005  0.1017232E+04  0.7818608E-02  0.9724907E-01
         -4   -1    0    0    0  501 -0.00000000000E+00  0.00000000000E+00  0.51407596013E+03  0.51407596013E+03  0.00000000000E+00 0. -1.
         21   -1    0    0  501  502  0.00000000000E+00 -0.00000000000E+00 -0.74790687649E+03  0.74790687649E+03  0.00000000000E+00 0. -1.
   -9000010    2    1    2    0  502 -0.11816664980E+03 -0.18833130547E+03 -0.20644419866E+03  0.10379692629E+04  0.99263736873E+03 0.  0.
         13    1    3    3    0    0  0.24623550569E+03 -0.31645452101E+03 -0.43301769872E+03  0.59015229111E+03  0.10566000000E+00 0. -1.
         -4    1    3    3    0  502 -0.36440215550E+03  0.12812321554E+03  0.22657350006E+03  0.44781697178E+03  0.00000000000E+00 0. -1.
        -13    1    1    2    0    0  0.11816664980E+03  0.18833130547E+03 -0.27386717693E+02  0.22401357373E+03  0.10566000000E+00 0.  1.
<mgrwt>
<rscale>  1 0.69553036E+03</rscale>
<asrwt>0</asrwt>
<pdfrwt beam="2">  1       21 0.11506260E+00 0.10172320E+04</pdfrwt>
<pdfrwt beam="1">  1       -4 0.79088609E-01 0.10172320E+04</pdfrwt>
<totfact> 0.30918357E+01</totfact>
</mgrwt>
</event>
<event>
 6    2  0.2220137E-005  0.9985209E+03  0.7818608E-02  0.1014927E+00
         21   -1    0    0  501  502  0.00000000000E+00  0.00000000000E+00  0.43485785434E+03  0.43485785434E+03  0.00000000000E+00 0. -1.
         -4   -1    0    0    0  501 -0.00000000000E+00 -0.00000000000E+00 -0.66077789140E+03  0.66077789140E+03  0.00000000000E+00 0. -1.
   -9000010    2    1    2    0  502 -0.23854951943E+02  0.55718804168E+02 -0.16945271212E+03  0.10127972654E+04  0.99667970549E+03 0.  0.
         13    1    3    3    0    0  0.14539012758E+03  0.67306902860E+01 -0.56305329282E+03  0.58156049823E+03  0.10566000000E+00 0. -1.
         -4    1    3    3    0  502 -0.16924507953E+03  0.48988113882E+02  0.39360058070E+03  0.43123676719E+03  0.00000000000E+00 0. -1.
        -13    1    1    2    0    0  0.23854951943E+02 -0.55718804168E+02 -0.56467324945E+02  0.82838480313E+02  0.10566000000E+00 0.  1.
<mgrwt>
<rscale>  1 0.49562726E+03</rscale>
<asrwt>0</asrwt>
<pdfrwt beam="1">  1       21 0.66901209E-01 0.99852095E+03</pdfrwt>
<pdfrwt beam="2">  1       -4 0.10165814E+00 0.99852095E+03</pdfrwt>
<totfact> 0.63286434E+01</totfact>
</mgrwt>
</event>
<event>
 6    2  0.2220137E-005  0.1007525E+04  0.7818608E-02  0.9963804E-01
         -4   -1    0    0    0  501 -0.00000000000E+00  0.00000000000E+00  0.16230504096E+04  0.16230504096E+04  0.00000000000E+00 0. -1.
         21   -1    0    0  501  502  0.00000000000E+00 -0.00000000000E+00 -0.19532048646E+03  0.19532048646E+03  0.00000000000E+00 0. -1.
   -9000010    2    1    2    0  502  0.78983445973E+02  0.69419091312E+02  0.11954415718E+04  0.15633899471E+04  0.10020230438E+04 0.  0.
         13    1    3    3    0    0  0.16303289035E+03 -0.32915332635E+02  0.13498011710E+04  0.13600096893E+04  0.10566000000E+00 0. -1.
         -4    1    3    3    0  502 -0.84049444375E+02  0.10233442395E+03 -0.15435959921E+03  0.20338025787E+03  0.00000000000E+00 0. -1.
        -13    1    1    2    0    0 -0.78983445973E+02 -0.69419091312E+02  0.23228835130E+03  0.25498094887E+03  0.10566000000E+00 0.  1.
<mgrwt>
<rscale>  1 0.57266242E+03</rscale>
<asrwt>0</asrwt>
<pdfrwt beam="2">  1       21 0.30049307E-01 0.10075255E+04</pdfrwt>
<pdfrwt beam="1">  1       -4 0.24970005E+00 0.10075255E+04</pdfrwt>
<totfact> 0.27614420E+01</totfact>
</mgrwt>
</event>
<event>
 6    2  0.2220137E-005  0.1005838E+04  0.7818608E-02  0.1025846E+00
         -4   -1    0    0    0  501 -0.00000000000E+00  0.00000000000E+00  0.38954968110E+03  0.38954968110E+03  0.00000000000E+00 0. -1.
         21   -1    0    0  501  502  0.00000000000E+00 -0.00000000000E+00 -0.76383131047E+03  0.76383131047E+03  0.00000000000E+00 0. -1.
   -9000010    2    1    2    0  502 -0.41160588514E+02 -0.11049970692E+02 -0.42078052660E+03  0.10903060004E+04  0.10049351358E+04 0.  0.
         13    1    3    3    0    0 -0.24631233175E+03  0.21725323295E+03  0.20929056304E+03  0.38944997489E+03  0.10566000000E+00 0. -1.
         -4    1    3    3    0  502  0.20515174323E+03 -0.22830320365E+03 -0.63007108964E+03  0.70085602554E+03  0.00000000000E+00 0. -1.
        -13    1    1    2    0    0  0.41160588514E+02  0.11049970692E+02  0.46498897225E+02  0.63074991132E+02  0.10566000000E+00 0.  1.
<mgrwt>
<rscale>  1 0.45634660E+03</rscale>
<asrwt>0</asrwt>
<pdfrwt beam="2">  1       21 0.11751251E+00 0.10058384E+04</pdfrwt>
<pdfrwt beam="1">  1       -4 0.59930720E-01 0.10058384E+04</pdfrwt>
<totfact> 0.54489998E+01</totfact>
</mgrwt>
</event>
<event>
 6    2  0.2220137E-005  0.1103025E+04  0.7818608E-02  0.9439123E-01
         21   -1    0    0  501  502  0.00000000000E+00  0.00000000000E+00  0.12306757334E+04  0.12306757334E+04  0.00000000000E+00 0.  1.
         -4   -1    0    0    0  501 -0.00000000000E+00 -0.00000000000E+00 -0.50973348501E+03  0.50973348501E+03  0.00000000000E+00 0. -1.
   -9000010    2    1    2    0  502  0.25311096424E+03  0.39120314550E+03  0.61379564456E+03  0.12623030930E+04  0.99977944771E+03 0.  0.
         13    1    3    3    0    0  0.56388932355E+03  0.51432083453E+03  0.36747587531E+03  0.84707474295E+03  0.10566000000E+00 0. -1.
         -4    1    3    3    0  502 -0.31077835931E+03 -0.12311768903E+03  0.24631976925E+03  0.41522835006E+03  0.00000000000E+00 0. -1.
        -13    1    1    2    0    0 -0.25311096424E+03 -0.39120314550E+03  0.10714660381E+03  0.47810612539E+03  0.10566000000E+00 0.  1.
<mgrwt>
<rscale>  1 0.88924769E+03</rscale>
<asrwt>0</asrwt>
<pdfrwt beam="1">  1       21 0.18933473E+00 0.11030249E+04</pdfrwt>
<pdfrwt beam="2">  1       -4 0.78420537E-01 0.11030249E+04</pdfrwt>
<totfact> 0.77705577E+00</totfact>
</mgrwt>
</event>
<event>
 6    2  0.2220137E-005  0.1006796E+04  0.7818608E-02  0.1017000E+00
         -4   -1    0    0    0  501 -0.00000000000E+00  0.00000000000E+00  0.31163632967E+03  0.31163632967E+03  0.00000000000E+00 0. -1.
         21   -1    0    0  501  502  0.00000000000E+00 -0.00000000000E+00 -0.10212966337E+04  0.10212966337E+04  0.00000000000E+00 0. -1.
   -9000010    2    1    2    0  502 -0.33600177944E+02 -0.44176946065E+02 -0.75727641538E+03  0.12598037643E+04  0.10052648312E+04 0.  0.
         13    1    3    3    0    0  0.41707249087E+03 -0.19496704579E+02 -0.49623987097E+02  0.42046656869E+03  0.10566000000E+00 0. -1.
         -4    1    3    3    0  502 -0.45067266881E+03 -0.24680241486E+02 -0.70765242828E+03  0.83933719564E+03  0.00000000000E+00 0. -1.
        -13    1    1    2    0    0  0.33600177944E+02  0.44176946065E+02  0.47616111368E+02  0.73129199007E+02  0.10566000000E+00 0.  1.
<mgrwt>
<rscale>  1 0.48784879E+03</rscale>
<asrwt>0</asrwt>
<pdfrwt beam="2">  1       21 0.15712256E+00 0.10067959E+04</pdfrwt>
<pdfrwt beam="1">  1       -4 0.47944050E-01 0.10067959E+04</pdfrwt>
<totfact> 0.40053102E+01</totfact>
</mgrwt>
</event>
<event>
 6    2  0.2220137E-005  0.1202142E+04  0.7818608E-02  0.9298816E-01
         21   -1    0    0  501  502  0.00000000000E+00  0.00000000000E+00  0.93842091379E+03  0.93842091379E+03  0.00000000000E+00 0. -1.
         -4   -1    0    0    0  501 -0.00000000000E+00 -0.00000000000E+00 -0.10035382755E+04  0.10035382755E+04  0.00000000000E+00 0. -1.
   -9000010    2    1    2    0  502 -0.55358970430E+03 -0.22195872802E+03  0.30473307217E+03  0.12401639255E+04  0.10437514452E+04 0.  0.
         13    1    3    3    0    0 -0.31656197450E+03  0.33422119034E+03  0.42178734117E+03  0.62435555584E+03  0.10566000000E+00 0. -1.
         -4    1    3    3    0  502 -0.23702772980E+03 -0.55617991836E+03 -0.11705426901E+03  0.61580836969E+03  0.00000000000E+00 0. -1.
        -13    1    1    2    0    0  0.55358970430E+03  0.22195872802E+03 -0.36985043387E+03  0.70179526377E+03  0.10566000000E+00 0.  1.
<mgrwt>
<rscale>  1 0.10089191E+04</rscale>
<asrwt>0</asrwt>
<pdfrwt beam="1">  1       21 0.14437245E+00 0.12021416E+04</pdfrwt>
<pdfrwt beam="2">  1       -4 0.15439050E+00 0.12021416E+04</pdfrwt>
<totfact> 0.31521924E+00</totfact>
</mgrwt>
</event>
<event>
 6    2  0.2220137E-005  0.1005726E+04  0.7818608E-02  0.9799745E-01
         21   -1    0    0  501  502  0.00000000000E+00  0.00000000000E+00  0.62933141968E+03  0.62933141968E+03  0.00000000000E+00 0. -1.
         -4   -1    0    0    0  501 -0.00000000000E+00 -0.00000000000E+00 -0.69369533445E+03  0.69369533445E+03  0.00000000000E+00 0. -1.
   -9000010    2    1    2    0  502  0.14534761060E+03 -0.10545405339E+03  0.17803112542E+03  0.10213616220E+04  0.98956454864E+03 0.  0.
         13    1    3    3    0    0 -0.10119415285E+03 -0.48439950160E+03  0.26445557965E+03  0.56108813790E+03  0.10566000000E+00 0. -1.
         -4    1    3    3    0  502  0.24654176345E+03  0.37894544821E+03 -0.86424454223E+02  0.46027348407E+03  0.00000000000E+00 0. -1.
        -13    1    1    2    0    0 -0.14534761060E+03  0.10545405339E+03 -0.24239504020E+03  0.30166513216E+03  0.10566000000E+00 0.  1.
<mgrwt>
<rscale>  1 0.65376253E+03</rscale>
<asrwt>0</asrwt>
<pdfrwt beam="1">  1       21 0.96820218E-01 0.10057258E+04</pdfrwt>
<pdfrwt beam="2">  1       -4 0.10672236E+00 0.10057258E+04</pdfrwt>
<totfact> 0.23492657E+01</totfact>
</mgrwt>
</event>
<event>
 6    2  0.2220137E-005  0.1162359E+04  0.7818608E-02  0.9331867E-01
         -4   -1    0    0    0  501 -0.00000000000E+00  0.00000000000E+00  0.13493561659E+04  0.13493561659E+04  0.00000000000E+00 0. -1.
         21   -1    0    0  501  502  0.00000000000E+00 -0.00000000000E+00 -0.61550300805E+03  0.61550300805E+03  0.00000000000E+00 0.  1.
   -9000010    2    1    2    0  502  0.50694390246E+03  0.29188443609E+03  0.74350420735E+03  0.13798106305E+04  0.10044352769E+04 0.  0.
         13    1    3    3    0    0  0.21146658318E+03  0.55809977024E+02  0.93194310539E+03  0.95726215436E+03  0.10566000000E+00 0. -1.
         -4    1    3    3    0  502  0.29547731928E+03  0.23607445907E+03 -0.18843889804E+03  0.42254847619E+03  0.00000000000E+00 0. -1.
        -13    1    1    2    0    0 -0.50694390246E+03 -0.29188443609E+03 -0.96510494557E+01  0.58504854345E+03  0.10566000000E+00 0.  1.
<mgrwt>
<rscale>  1 0.97901313E+03</rscale>
<asrwt>0</asrwt>
<pdfrwt beam="2">  1       21 0.94692771E-01 0.11623592E+04</pdfrwt>
<pdfrwt beam="1">  1       -4 0.20759326E+00 0.11623592E+04</pdfrwt>
<totfact> 0.40018879E+00</totfact>
</mgrwt>
</event>
<event>
 6    2  0.2220137E-005  0.1339023E+04  0.7818608E-02  0.9102540E-01
         -4   -1    0    0    0  501 -0.00000000000E+00  0.00000000000E+00  0.57192099306E+03  0.57192099306E+03  0.00000000000E+00 0. -1.
         21   -1    0    0  501  502  0.00000000000E+00 -0.00000000000E+00 -0.23045300032E+04  0.23045300032E+04  0.00000000000E+00 0.  1.
   -9000010    2    1    2    0  502 -0.45772317919E+03  0.77298935284E+03 -0.13455018110E+04  0.18982510969E+04  0.99295470943E+03 0.  0.
         13    1    3    3    0    0 -0.24250490809E+03  0.63690288851E+03 -0.17947478450E+03  0.70474472632E+03  0.10566000000E+00 0. -1.
         -4    1    3    3    0  502 -0.21521827110E+03  0.13608646433E+03 -0.11660270265E+04  0.11935063706E+04  0.00000000000E+00 0. -1.
        -13    1    1    2    0    0  0.45772317919E+03 -0.77298935284E+03 -0.38710719913E+03  0.97819989939E+03  0.10566000000E+00 0.  1.
<mgrwt>
<rscale>  1 0.12118580E+04</rscale>
<asrwt>0</asrwt>
<pdfrwt beam="2">  1       21 0.35454308E+00 0.13390228E+04</pdfrwt>
<pdfrwt beam="1">  1       -4 0.87987845E-01 0.13390228E+04</pdfrwt>
<totfact> 0.49483255E-01</totfact>
</mgrwt>
</event>
<event>
 6    2  0.2220137E-005  0.9698135E+03  0.7818608E-02  0.9836097E-01
         -4   -1    0    0    0  501 -0.00000000000E+00  0.00000000000E+00  0.55990728405E+03  0.55990728405E+03  0.00000000000E+00 0. -1.
         21   -1    0    0  501  502  0.00000000000E+00 -0.00000000000E+00 -0.61483551928E+03  0.61483551928E+03  0.00000000000E+00 0. -1.
   -9000010    2    1    2    0  502 -0.20126243880E+02 -0.17666788649E+03 -0.13603459596E+03  0.97930774833E+03  0.95337382324E+03 0.  0.
         13    1    3    3    0    0 -0.35434730698E+03  0.22866043448E+03  0.43893688126E+02  0.42399796613E+03  0.10566000000E+00 0. -1.
         -4    1    3    3    0  502  0.33422106310E+03 -0.40532832096E+03 -0.17992828409E+03  0.55530978220E+03  0.00000000000E+00 0. -1.
        -13    1    1    2    0    0  0.20126243880E+02  0.17666788649E+03  0.81106360733E+02  0.19543505500E+03  0.10566000000E+00 0.  1.
<mgrwt>
<rscale>  1 0.63460809E+03</rscale>
<asrwt>0</asrwt>
<pdfrwt beam="2">  1       21 0.94590080E-01 0.96981352E+03</pdfrwt>
<pdfrwt beam="1">  1       -4 0.86139582E-01 0.96981352E+03</pdfrwt>
<totfact> 0.41623392E+01</totfact>
</mgrwt>
</event>
<event>
 6    2  0.2220137E-005  0.1261417E+04  0.7818608E-02  0.9194086E-01
         21   -1    0    0  501  502  0.00000000000E+00  0.00000000000E+00  0.49189902214E+03  0.49189902214E+03  0.00000000000E+00 0.  1.
         -4   -1    0    0    0  501 -0.00000000000E+00 -0.00000000000E+00 -0.22888994866E+04  0.22888994866E+04  0.00000000000E+00 0. -1.
   -9000010    2    1    2    0  502 -0.75556099869E+03  0.85173509858E+02 -0.68993020992E+03  0.14377677909E+04  0.10065016525E+04 0.  0.
         13    1    3    3    0    0  0.15770680309E+03 -0.24372023991E+03 -0.17489837108E+03  0.33891067031E+03  0.10566000000E+00 0. -1.
         -4    1    3    3    0  502 -0.91326780177E+03  0.32889374976E+03 -0.51503183884E+03  0.10988571206E+04  0.00000000000E+00 0. -1.
        -13    1    1    2    0    0  0.75556099869E+03 -0.85173509858E+02 -0.11070702545E+04  0.13430307179E+04  0.10566000000E+00 0.  1.
<mgrwt>
<rscale>  1 0.11114678E+04</rscale>
<asrwt>0</asrwt>
<pdfrwt beam="1">  1       21 0.75676774E-01 0.12614169E+04</pdfrwt>
<pdfrwt beam="2">  1       -4 0.35213838E+00 0.12614169E+04</pdfrwt>
<totfact> 0.82982557E-01</totfact>
</mgrwt>
</event>
<event>
 6    2  0.2220137E-005  0.1139805E+04  0.7818608E-02  0.9381123E-01
         21   -1    0    0  501  502  0.00000000000E+00  0.00000000000E+00  0.10648271553E+04  0.10648271553E+04  0.00000000000E+00 0.  1.
         -4   -1    0    0    0  501 -0.00000000000E+00 -0.00000000000E+00 -0.65586903925E+03  0.65586903925E+03  0.00000000000E+00 0. -1.
   -9000010    2    1    2    0  502  0.49521695950E+03  0.15646637793E+03  0.18332892322E+03  0.11544541012E+04  0.10146098824E+04 0.  0.
         13    1    3    3    0    0  0.45457742974E+03 -0.36216720285E+03  0.24470289838E+03  0.63062290007E+03  0.10566000000E+00 0. -1.
         -4    1    3    3    0  502  0.40639529756E+02  0.51863358079E+03 -0.61373975167E+02  0.52383120118E+03  0.00000000000E+00 0. -1.
        -13    1    1    2    0    0 -0.49521695950E+03 -0.15646637793E+03  0.22562919284E+03  0.56624209330E+03  0.10566000000E+00 0.  1.
<mgrwt>
<rscale>  1 0.93645594E+03</rscale>
<asrwt>0</asrwt>
<pdfrwt beam="1">  1       21 0.16381956E+00 0.11398047E+04</pdfrwt>
<pdfrwt beam="2">  1       -4 0.10090293E+00 0.11398047E+04</pdfrwt>
<totfact> 0.65896113E+00</totfact>
</mgrwt>
</event>
<event>
 6    2  0.2220137E-005  0.1071489E+04  0.7818608E-02  0.9573645E-01
         21   -1    0    0  501  502  0.00000000000E+00  0.00000000000E+00  0.24641900409E+03  0.24641900409E+03  0.00000000000E+00 0. -1.
         -4   -1    0    0    0  501 -0.00000000000E+00 -0.00000000000E+00 -0.21806621911E+04  0.21806621911E+04  0.00000000000E+00 0. -1.
   -9000010    2    1    2    0  502  0.28512324950E+03  0.14007848425E+03 -0.11055606168E+04  0.15395948221E+04  0.10233135832E+04 0.  0.
         13    1    3    3    0    0  0.55365306247E+03  0.25621729588E+03 -0.29459734991E+03  0.67747075658E+03  0.10566000000E+00 0. -1.
         -4    1    3    3    0  502 -0.26852981296E+03 -0.11613881163E+03 -0.81096326693E+03  0.86212406551E+03  0.00000000000E+00 0. -1.
        -13    1    1    2    0    0 -0.28512324950E+03 -0.14007848425E+03 -0.82868257015E+03  0.88748637308E+03  0.10566000000E+00 0.  1.
<mgrwt>
<rscale>  1 0.79065380E+03</rscale>
<asrwt>0</asrwt>
<pdfrwt beam="1">  1       21 0.37910615E-01 0.10714887E+04</pdfrwt>
<pdfrwt beam="2">  1       -4 0.33548650E+00 0.10714887E+04</pdfrwt>
<totfact> 0.49874403E+00</totfact>
</mgrwt>
</event>
<event>
 6    2  0.2220137E-005  0.1139569E+04  0.7818608E-02  0.9364844E-01
         -4   -1    0    0    0  501 -0.00000000000E+00  0.00000000000E+00  0.52517210709E+03  0.52517210709E+03  0.00000000000E+00 0. -1.
         21   -1    0    0  501  502  0.00000000000E+00 -0.00000000000E+00 -0.15236601758E+04  0.15236601758E+04  0.00000000000E+00 0. -1.
   -9000010    2    1    2    0  502  0.31735297922E+03  0.45043201847E+03 -0.97099361856E+03  0.14971458931E+04  0.99750453700E+03 0.  0.
         13    1    3    3    0    0 -0.17657642816E+03  0.59392003117E+03 -0.60397010137E+03  0.86527459972E+03  0.10566000000E+00 0. -1.
         -4    1    3    3    0  502  0.49392940738E+03 -0.14348801270E+03 -0.36702351719E+03  0.63187129340E+03  0.00000000000E+00 0. -1.
        -13    1    1    2    0    0 -0.31735297922E+03 -0.45043201847E+03 -0.27494450125E+02  0.55168638975E+03  0.10566000000E+00 0.  1.
<mgrwt>
<rscale>  1 0.95026230E+03</rscale>
<asrwt>0</asrwt>
<pdfrwt beam="2">  1       21 0.23440925E+00 0.11395689E+04</pdfrwt>
<pdfrwt beam="1">  1       -4 0.80795711E-01 0.11395689E+04</pdfrwt>
<totfact> 0.35822163E+00</totfact>
</mgrwt>
</event>
<event>
 6    2  0.2220137E-005  0.1029877E+04  0.7818608E-02  0.9815161E-01
         21   -1    0    0  501  502  0.00000000000E+00  0.00000000000E+00  0.42922903889E+03  0.42922903889E+03  0.00000000000E+00 0. -1.
         -4   -1    0    0    0  501 -0.00000000000E+00 -0.00000000000E+00 -0.83276984951E+03  0.83276984951E+03  0.00000000000E+00 0. -1.
   -9000010    2    1    2    0  502  0.34972709066E+02  0.15509573067E+03 -0.39417589490E+03  0.11027334218E+04  0.10175306321E+04 0.  0.
         13    1    3    3    0    0  0.17522588708E+03 -0.18277368281E+03 -0.62214272644E+03  0.67169331830E+03  0.10566000000E+00 0. -1.
         -4    1    3    3    0  502 -0.14025317801E+03  0.33786941348E+03  0.22796683153E+03  0.43104010346E+03  0.00000000000E+00 0. -1.
        -13    1    1    2    0    0 -0.34972709066E+02 -0.15509573067E+03 -0.93649157096E+01  0.15926546664E+03  0.10566000000E+00 0.  1.
<mgrwt>
<rscale>  1 0.64555227E+03</rscale>
<asrwt>0</asrwt>
<pdfrwt beam="1">  1       21 0.66035236E-01 0.10298769E+04</pdfrwt>
<pdfrwt beam="2">  1       -4 0.12811844E+00 0.10298769E+04</pdfrwt>
<totfact> 0.36575980E+01</totfact>
</mgrwt>
</event>
<event>
 6    2  0.2220137E-005  0.1039387E+04  0.7818608E-02  0.9633497E-01
         -4   -1    0    0    0  501 -0.00000000000E+00  0.00000000000E+00  0.75556452991E+03  0.75556452991E+03  0.00000000000E+00 0. -1.
         21   -1    0    0  501  502  0.00000000000E+00 -0.00000000000E+00 -0.58417050971E+03  0.58417050971E+03  0.00000000000E+00 0. -1.
   -9000010    2    1    2    0  502  0.14083099265E+03 -0.24611885515E+03  0.18554858483E+03  0.10558191679E+04  0.99995898846E+03 0.  0.
         13    1    3    3    0    0  0.16809896854E+03  0.14113701053E+03 -0.33862531116E+03  0.40353938034E+03  0.10566000000E+00 0. -1.
         -4    1    3    3    0  502 -0.27267975894E+02 -0.38725586569E+03  0.52417389599E+03  0.65227978755E+03  0.00000000000E+00 0. -1.
        -13    1    1    2    0    0 -0.14083099265E+03  0.24611885515E+03 -0.14154564627E+02  0.28391587172E+03  0.10566000000E+00 0.  1.
<mgrwt>
<rscale>  1 0.75118241E+03</rscale>
<asrwt>0</asrwt>
<pdfrwt beam="2">  1       21 0.89872385E-01 0.10393872E+04</pdfrwt>
<pdfrwt beam="1">  1       -4 0.11624070E+00 0.10393872E+04</pdfrwt>
<totfact> 0.22739061E+01</totfact>
</mgrwt>
</event>
<event>
 6    2  0.2220137E-005  0.1028800E+04  0.7818608E-02  0.9747761E-01
         21   -1    0    0  501  502  0.00000000000E+00  0.00000000000E+00  0.89740635733E+03  0.89740635733E+03  0.00000000000E+00 0. -1.
         -4   -1    0    0    0  501 -0.00000000000E+00 -0.00000000000E+00 -0.42852323673E+03  0.42852323673E+03  0.00000000000E+00 0. -1.
   -9000010    2    1    2    0  502  0.18259876993E+03 -0.79554724438E+02  0.45888918729E+03  0.11265025276E+04  0.10093351245E+04 0.  0.
         13    1    3    3    0    0  0.16371255471E+03 -0.37078553672E+03  0.65827535744E+03  0.77305250287E+03  0.10566000000E+00 0. -1.
         -4    1    3    3    0  502  0.18886215223E+02  0.29123081228E+03 -0.19938617015E+03  0.35345002475E+03  0.00000000000E+00 0. -1.
        -13    1    1    2    0    0 -0.18259876993E+03  0.79554724438E+02  0.99939333171E+01  0.19942706644E+03  0.10566000000E+00 0.  1.
<mgrwt>
<rscale>  1 0.68242923E+03</rscale>
<asrwt>0</asrwt>
<pdfrwt beam="1">  1       21 0.13806252E+00 0.10287996E+04</pdfrwt>
<pdfrwt beam="2">  1       -4 0.65926652E-01 0.10287996E+04</pdfrwt>
<totfact> 0.28800632E+01</totfact>
</mgrwt>
</event>
<event>
 6    2  0.2220137E-005  0.1023065E+04  0.7818608E-02  0.9785423E-01
         21   -1    0    0  501  502  0.00000000000E+00  0.00000000000E+00  0.64451315301E+03  0.64451315301E+03  0.00000000000E+00 0. -1.
         -4   -1    0    0    0  501 -0.00000000000E+00 -0.00000000000E+00 -0.10340436339E+04  0.10340436339E+04  0.00000000000E+00 0. -1.
   -9000010    2    1    2    0  502 -0.33666203038E+02 -0.17562768368E+03  0.21733277211E+03  0.10458945425E+04  0.10073149278E+04 0.  0.
         13    1    3    3    0    0 -0.38148713731E+03 -0.40290494645E+03 -0.41450475485E+02  0.55640181964E+03  0.10566000000E+00 0. -1.
         -4    1    3    3    0  502  0.34782093428E+03  0.22727726277E+03  0.25878324759E+03  0.48949272286E+03  0.00000000000E+00 0. -1.
        -13    1    1    2    0    0  0.33666203038E+02  0.17562768368E+03 -0.60686325302E+03  0.63266224443E+03  0.10566000000E+00 0.  1.
<mgrwt>
<rscale>  1 0.66150735E+03</rscale>
<asrwt>0</asrwt>
<pdfrwt beam="1">  1       21 0.99155871E-01 0.10230649E+04</pdfrwt>
<pdfrwt beam="2">  1       -4 0.15908363E+00 0.10230649E+04</pdfrwt>
<totfact> 0.78965354E+00</totfact>
</mgrwt>
</event>
<event>
 6    2  0.2220137E-005  0.1115025E+04  0.7818608E-02  0.9409744E-01
         -4   -1    0    0    0  501 -0.00000000000E+00  0.00000000000E+00  0.10776508940E+04  0.10776508940E+04  0.00000000000E+00 0. -1.
         21   -1    0    0  501  502  0.00000000000E+00 -0.00000000000E+00 -0.82416351448E+03  0.82416351448E+03  0.00000000000E+00 0.  1.
   -9000010    2    1    2    0  502  0.45706250644E+03  0.20453793175E+03 -0.30075080615E+03  0.11548727254E+04  0.99626204592E+03 0.  0.
         13    1    3    3    0    0 -0.21995092652E+02 -0.11853618229E+02 -0.56567382872E+03  0.56622538271E+03  0.10566000000E+00 0. -1.
         -4    1    3    3    0  502  0.47905759910E+03  0.21639154998E+03  0.26492302257E+03  0.58864734268E+03  0.00000000000E+00 0. -1.
        -13    1    1    2    0    0 -0.45706250644E+03 -0.20453793175E+03  0.55423818573E+03  0.74694168313E+03  0.10566000000E+00 0.  1.
<mgrwt>
<rscale>  1 0.91278126E+03</rscale>
<asrwt>0</asrwt>
<pdfrwt beam="2">  1       21 0.12679439E+00 0.11150246E+04</pdfrwt>
<pdfrwt beam="1">  1       -4 0.16579244E+00 0.11150246E+04</pdfrwt>
<totfact> 0.37156257E+00</totfact>
</mgrwt>
</event>
<event>
 6    2  0.2220137E-005  0.1018704E+04  0.7818608E-02  0.9753036E-01
         21   -1    0    0  501  502  0.00000000000E+00  0.00000000000E+00  0.29058206052E+03  0.29058206052E+03  0.00000000000E+00 0. -1.
         -4   -1    0    0    0  501 -0.00000000000E+00 -0.00000000000E+00 -0.13667928549E+04  0.13667928549E+04  0.00000000000E+00 0. -1.
   -9000010    2    1    2    0  502 -0.47824815663E+01  0.20154096891E+03 -0.10337719298E+04  0.14513586474E+04  0.99855690192E+03 0.  0.
         13    1    3    3    0    0 -0.27644175795E+03  0.50521696384E+03 -0.41249620196E+03  0.70839067885E+03  0.10566000000E+00 0. -1.
         -4    1    3    3    0  502  0.27165927638E+03 -0.30367599494E+03 -0.62127572781E+03  0.74296796856E+03  0.00000000000E+00 0. -1.
        -13    1    1    2    0    0  0.47824815663E+01 -0.20154096891E+03 -0.42438864586E+02  0.20601626797E+03  0.10566000000E+00 0.  1.
<mgrwt>
<rscale>  1 0.67944988E+03</rscale>
<asrwt>0</asrwt>
<pdfrwt beam="1">  1       21 0.44704932E-01 0.10187038E+04</pdfrwt>
<pdfrwt beam="2">  1       -4 0.21027583E+00 0.10187038E+04</pdfrwt>
<totfact> 0.21492893E+01</totfact>
</mgrwt>
</event>
<event>
 6    2  0.2220137E-005  0.1033368E+04  0.7818608E-02  0.9952926E-01
         -4   -1    0    0    0  501 -0.00000000000E+00  0.00000000000E+00  0.20667926043E+03  0.20667926043E+03  0.00000000000E+00 0. -1.
         21   -1    0    0  501  502  0.00000000000E+00 -0.00000000000E+00 -0.15604113035E+04  0.15604113035E+04  0.00000000000E+00 0. -1.
   -9000010    2    1    2    0  502  0.70163292945E+02 -0.72496965749E+02 -0.12056287532E+04  0.15878887409E+04  0.10284314588E+04 0.  0.
         13    1    3    3    0    0  0.45165996068E+03 -0.86338342212E+02 -0.10993141717E+04  0.11916134813E+04  0.10566000000E+00 0. -1.
         -4    1    3    3    0  502 -0.38149666773E+03  0.13841376462E+02 -0.10631458141E+03  0.39627525965E+03  0.00000000000E+00 0. -1.
        -13    1    1    2    0    0 -0.70163292945E+02  0.72496965749E+02 -0.14810328994E+03  0.17920182302E+03  0.10566000000E+00 0.  1.
<mgrwt>
<rscale>  1 0.57763431E+03</rscale>
<asrwt>0</asrwt>
<pdfrwt beam="2">  1       21 0.24006329E+00 0.10333683E+04</pdfrwt>
<pdfrwt beam="1">  1       -4 0.31796808E-01 0.10333683E+04</pdfrwt>
<totfact> 0.24252383E+01</totfact>
</mgrwt>
</event>
<event>
 6    2  0.2220137E-005  0.1281960E+04  0.7818608E-02  0.9164174E-01
         21   -1    0    0  501  502  0.00000000000E+00  0.00000000000E+00  0.22344838518E+04  0.22344838518E+04  0.00000000000E+00 0.  1.
         -4   -1    0    0    0  501 -0.00000000000E+00 -0.00000000000E+00 -0.51547958061E+03  0.51547958061E+03  0.00000000000E+00 0. -1.
   -9000010    2    1    2    0  502  0.29702571946E+03  0.75402925733E+03  0.74433783583E+03  0.14823834269E+04  0.99329623559E+03 0.  0.
         13    1    3    3    0    0  0.14505934286E+03  0.19831514537E+03 -0.23895800931E+03  0.34274196009E+03  0.10566000000E+00 0. -1.
         -4    1    3    3    0  502  0.15196637660E+03  0.55571411196E+03  0.98329584513E+03  0.11396414668E+04  0.00000000000E+00 0. -1.
        -13    1    1    2    0    0 -0.29702571946E+03 -0.75402925733E+03  0.97466643534E+03  0.12675800055E+04  0.10566000000E+00 0.  1.
<mgrwt>
<rscale>  1 0.11430989E+04</rscale>
<asrwt>0</asrwt>
<pdfrwt beam="1">  1       21 0.34376674E+00 0.12819601E+04</pdfrwt>
<pdfrwt beam="2">  1       -4 0.79304552E-01 0.12819601E+04</pdfrwt>
<totfact> 0.74505360E-01</totfact>
</mgrwt>
</event>
<event>
 6    2  0.2220137E-005  0.9715960E+03  0.7818608E-02  0.9984885E-01
         21   -1    0    0  501  502  0.00000000000E+00  0.00000000000E+00  0.13677083454E+04  0.13677083454E+04  0.00000000000E+00 0. -1.
         -4   -1    0    0    0  501 -0.00000000000E+00 -0.00000000000E+00 -0.22140418359E+03  0.22140418359E+03  0.00000000000E+00 0. -1.
   -9000010    2    1    2    0  502 -0.10498427879E+03  0.31752964263E+02  0.11062637041E+04  0.14723512385E+04  0.96538533087E+03 0.  0.
         13    1    3    3    0    0  0.39300124744E+03  0.17978183310E+03  0.35677349219E+03  0.56040951446E+03  0.10566000000E+00 0. -1.
         -4    1    3    3    0  502 -0.49798552624E+03 -0.14802886883E+03  0.74949021188E+03  0.91194172404E+03  0.00000000000E+00 0. -1.
        -13    1    1    2    0    0  0.10498427879E+03 -0.31752964263E+02  0.40040457723E+02  0.11676129047E+03  0.10566000000E+00 0.  1.
<mgrwt>
<rscale>  1 0.56318012E+03</rscale>
<asrwt>0</asrwt>
<pdfrwt beam="1">  1       21 0.21041666E+00 0.97159600E+03</pdfrwt>
<pdfrwt beam="2">  1       -4 0.34062183E-01 0.97159600E+03</pdfrwt>
<totfact> 0.33376290E+01</totfact>
</mgrwt>
</event>
<event>
 6    2  0.2220137E-005  0.1041671E+04  0.7818608E-02  0.9596560E-01
         -4   -1    0    0    0  501 -0.00000000000E+00  0.00000000000E+00  0.65246605060E+03  0.65246605060E+03  0.00000000000E+00 0. -1.
         21   -1    0    0  501  502  0.00000000000E+00 -0.00000000000E+00 -0.76599292221E+03  0.76599292221E+03  0.00000000000E+00 0. -1.
   -9000010    2    1    2    0  502  0.21846044294E+03  0.23323159098E+03 -0.24955489163E+03  0.10711470474E+04  0.99144158324E+03 0.  0.
         13    1    3    3    0    0 -0.27385705550E+03  0.43022568441E+03 -0.94482280616E+02  0.51867016387E+03  0.10566000000E+00 0. -1.
         -4    1    3    3    0  502  0.49231749844E+03 -0.19699409343E+03 -0.15507261101E+03  0.55247688350E+03  0.00000000000E+00 0. -1.
        -13    1    1    2    0    0 -0.21846044294E+03 -0.23323159098E+03  0.13602802002E+03  0.34731192544E+03  0.10566000000E+00 0.  1.
<mgrwt>
<rscale>  1 0.77524291E+03</rscale>
<asrwt>0</asrwt>
<pdfrwt beam="2">  1       21 0.11784506E+00 0.10416709E+04</pdfrwt>
<pdfrwt beam="1">  1       -4 0.10037939E+00 0.10416709E+04</pdfrwt>
<totfact> 0.16568617E+01</totfact>
</mgrwt>
</event>
<event>
 6    2  0.2220137E-005  0.1055914E+04  0.7818608E-02  0.9594126E-01
         -4   -1    0    0    0  501 -0.00000000000E+00  0.00000000000E+00  0.76728791701E+03  0.76728791701E+03  0.00000000000E+00 0. -1.
         21   -1    0    0  501  502  0.00000000000E+00 -0.00000000000E+00 -0.66073930871E+03  0.66073930871E+03  0.00000000000E+00 0. -1.
   -9000010    2    1    2    0  502  0.28190572043E+03 -0.12745217724E+03 -0.92802765449E+02  0.10599839211E+04  0.10095735075E+04 0.  0.
         13    1    3    3    0    0 -0.30385782634E+03  0.19769984940E+03  0.73059337923E+02  0.36980060452E+03  0.10566000000E+00 0. -1.
         -4    1    3    3    0  502  0.58576354677E+03 -0.32515202664E+03 -0.16586210337E+03  0.69018331658E+03  0.00000000000E+00 0. -1.
        -13    1    1    2    0    0 -0.28190572043E+03  0.12745217724E+03  0.19935137375E+03  0.36804330462E+03  0.10566000000E+00 0.  1.
<mgrwt>
<rscale>  1 0.77686175E+03</rscale>
<asrwt>0</asrwt>
<pdfrwt beam="2">  1       21 0.10165220E+00 0.10559136E+04</pdfrwt>
<pdfrwt beam="1">  1       -4 0.11804430E+00 0.10559136E+04</pdfrwt>
<totfact> 0.16153485E+01</totfact>
</mgrwt>
</event>
<event>
 6    2  0.2220137E-005  0.1012030E+04  0.7818608E-02  0.9854005E-01
         -4   -1    0    0    0  501 -0.00000000000E+00  0.00000000000E+00  0.56894140530E+03  0.56894140530E+03  0.00000000000E+00 0. -1.
         21   -1    0    0  501  502  0.00000000000E+00 -0.00000000000E+00 -0.63106118059E+03  0.63106118059E+03  0.00000000000E+00 0. -1.
   -9000010    2    1    2    0  502  0.13183529823E+03 -0.66410764595E+02 -0.15755664587E+03  0.10242210654E+04  0.10012061519E+04 0.  0.
         13    1    3    3    0    0 -0.17756657344E+03 -0.32875646867E+03  0.24970407762E+03  0.44940276061E+03  0.10566000000E+00 0. -1.
         -4    1    3    3    0  502  0.30940187167E+03  0.26234570408E+03 -0.40726072349E+03  0.57481830480E+03  0.00000000000E+00 0. -1.
        -13    1    1    2    0    0 -0.13183529823E+03  0.66410764595E+02  0.95436870582E+02  0.17578152048E+03  0.10566000000E+00 0.  1.
<mgrwt>
<rscale>  1 0.62543121E+03</rscale>
<asrwt>0</asrwt>
<pdfrwt beam="2">  1       21 0.97086335E-01 0.10120300E+04</pdfrwt>
<pdfrwt beam="1">  1       -4 0.87529447E-01 0.10120300E+04</pdfrwt>
<totfact> 0.37479958E+01</totfact>
</mgrwt>
</event>
<event>
 6    2  0.2220137E-005  0.1108124E+04  0.7818608E-02  0.9569275E-01
         -4   -1    0    0    0  501 -0.00000000000E+00  0.00000000000E+00  0.15630320682E+04  0.15630320682E+04  0.00000000000E+00 0. -1.
         21   -1    0    0  501  502  0.00000000000E+00 -0.00000000000E+00 -0.53358820997E+03  0.53358820997E+03  0.00000000000E+00 0. -1.
   -9000010    2    1    2    0  502  0.20701849740E+03 -0.20529880146E+03  0.88626544736E+02  0.11116626726E+04  0.10690813707E+04 0.  0.
         13    1    3    3    0    0  0.53338318918E+03  0.16337767018E+03 -0.13021767695E+03  0.57284076686E+03  0.10566000000E+00 0. -1.
         -4    1    3    3    0  502 -0.32636469178E+03 -0.36867647164E+03  0.21884422169E+03  0.53882190578E+03  0.00000000000E+00 0. -1.
        -13    1    1    2    0    0 -0.20701849740E+03  0.20529880146E+03  0.94081731352E+03  0.98495760555E+03  0.10566000000E+00 0.  1.
<mgrwt>
<rscale>  1 0.79363611E+03</rscale>
<asrwt>0</asrwt>
<pdfrwt beam="2">  1       21 0.82090495E-01 0.11081242E+04</pdfrwt>
<pdfrwt beam="1">  1       -4 0.24046647E+00 0.11081242E+04</pdfrwt>
<totfact> 0.35078621E+00</totfact>
</mgrwt>
</event>
<event>
 6    2  0.2220137E-005  0.9631579E+03  0.7818608E-02  0.1011073E+00
         21   -1    0    0  501  502  0.00000000000E+00  0.00000000000E+00  0.52407792245E+04  0.52407792245E+04  0.00000000000E+00 0. -1.
         -4   -1    0    0    0  501 -0.00000000000E+00 -0.00000000000E+00 -0.90824957761E+02  0.90824957761E+02  0.00000000000E+00 0. -1.
   -9000010    2    1    2    0  502  0.72763894094E+02  0.21998015065E+02  0.51650650826E+04  0.52541003444E+04  0.96015343811E+03 0.  0.
         13    1    3    3    0    0  0.20775013943E+02 -0.44000566810E+03  0.16253301637E+04  0.16839639964E+04  0.10566000000E+00 0. -1.
         -4    1    3    3    0  502  0.51988880151E+02  0.46200368316E+03  0.35397349190E+04  0.35701363480E+04  0.00000000000E+00 0. -1.
        -13    1    1    2    0    0 -0.72763894094E+02 -0.21998015065E+02 -0.15110815918E+02  0.77503837791E+02  0.10566000000E+00 0.  1.
<mgrwt>
<rscale>  1 0.51050510E+03</rscale>
<asrwt>0</asrwt>
<pdfrwt beam="1">  1       21 0.80627349E+00 0.96315789E+03</pdfrwt>
<pdfrwt beam="2">  1       -4 0.13973074E-01 0.96315789E+03</pdfrwt>
<totfact> 0.40271609E-03</totfact>
</mgrwt>
</event>
<event>
 6    2  0.2220137E-005  0.9841502E+03  0.7818608E-02  0.1010440E+00
         -4   -1    0    0    0  501 -0.00000000000E+00  0.00000000000E+00  0.15864521936E+03  0.15864521936E+03  0.00000000000E+00 0. -1.
         21   -1    0    0  501  502  0.00000000000E+00 -0.00000000000E+00 -0.18500412356E+04  0.18500412356E+04  0.00000000000E+00 0. -1.
   -9000010    2    1    2    0  502 -0.70027527987E+01 -0.72320752362E+02 -0.16594097987E+04  0.19292984266E+04  0.98146431881E+03 0.  0.
         13    1    3    3    0    0  0.23364721604E+03  0.34316889760E+03 -0.38020314868E+03  0.56294791880E+03  0.10566000000E+00 0. -1.
         -4    1    3    3    0  502 -0.24064996884E+03 -0.41548964997E+03 -0.12792066500E+04  0.13663505078E+04  0.00000000000E+00 0. -1.
        -13    1    1    2    0    0  0.70027527987E+01  0.72320752362E+02 -0.31986217519E+02  0.79388028343E+02  0.10566000000E+00 0.  1.
<mgrwt>
<rscale>  1 0.51300133E+03</rscale>
<asrwt>0</asrwt>
<pdfrwt beam="2">  1       21 0.28462172E+00 0.98415016E+03</pdfrwt>
<pdfrwt beam="1">  1       -4 0.24406957E-01 0.98415016E+03</pdfrwt>
<totfact> 0.21364151E+01</totfact>
</mgrwt>
</event>
<event>
 6    2  0.2220137E-005  0.1660714E+04  0.7818608E-02  0.8839090E-01
         -4   -1    0    0    0  501 -0.00000000000E+00  0.00000000000E+00  0.19688233611E+04  0.19688233611E+04  0.00000000000E+00 0. -1.
         21   -1    0    0  501  502  0.00000000000E+00 -0.00000000000E+00 -0.15917305198E+04  0.15917305198E+04  0.00000000000E+00 0.  1.
   -9000010    2    1    2    0  502 -0.11905683707E+04  0.58623626982E+03 -0.74737998011E+03  0.18211387072E+04  0.99842042585E+03 0.  0.
         13    1    3    3    0    0 -0.26415881548E+03  0.65930273862E+03 -0.18135803737E+03  0.73304210645E+03  0.10566000000E+00 0. -1.
         -4    1    3    3    0  502 -0.92640955519E+03 -0.73066468795E+02 -0.56602194274E+03  0.10880966007E+04  0.00000000000E+00 0. -1.
        -13    1    1    2    0    0  0.11905683707E+04 -0.58623626982E+03  0.11244728215E+04  0.17394151738E+04  0.10566000000E+00 0.  1.
<mgrwt>
<rscale>  1 0.15701634E+04</rscale>
<asrwt>0</asrwt>
<pdfrwt beam="2">  1       21 0.24488162E+00 0.16607135E+04</pdfrwt>
<pdfrwt beam="1">  1       -4 0.30289590E+00 0.16607135E+04</pdfrwt>
<totfact> 0.59628840E-02</totfact>
</mgrwt>
</event>
<event>
 6    2  0.2220137E-005  0.9045270E+03  0.7818608E-02  0.9775176E-01
         -4   -1    0    0    0  501 -0.00000000000E+00  0.00000000000E+00  0.11051134508E+04  0.11051134508E+04  0.00000000000E+00 0. -1.
         21   -1    0    0  501  502  0.00000000000E+00 -0.00000000000E+00 -0.44713237758E+03  0.44713237758E+03  0.00000000000E+00 0. -1.
   -9000010    2    1    2    0  502 -0.12954941943E+03  0.23419504344E+03  0.71218080133E+02  0.90732630498E+03  0.86402467460E+03 0.  0.
         13    1    3    3    0    0 -0.37886859585E+02  0.15241477240E+03 -0.39506277268E+03  0.42513560483E+03  0.10566000000E+00 0. -1.
         -4    1    3    3    0  502 -0.91662559848E+02  0.81780271048E+02  0.46628085281E+03  0.48219070015E+03  0.00000000000E+00 0. -1.
        -13    1    1    2    0    0  0.12954941943E+03 -0.23419504344E+03  0.58676299312E+03  0.64491952343E+03  0.10566000000E+00 0.  1.
<mgrwt>
<rscale>  1 0.66711897E+03</rscale>
<asrwt>0</asrwt>
<pdfrwt beam="2">  1       21 0.68789597E-01 0.90452695E+03</pdfrwt>
<pdfrwt beam="1">  1       -4 0.17001745E+00 0.90452695E+03</pdfrwt>
<totfact> 0.15828053E+01</totfact>
</mgrwt>
</event>
<event>
 6    2  0.2220137E-005  0.1079120E+04  0.7818608E-02  0.9455851E-01
         -4   -1    0    0    0  501 -0.00000000000E+00  0.00000000000E+00  0.10762233039E+04  0.10762233039E+04  0.00000000000E+00 0. -1.
         21   -1    0    0  501  502  0.00000000000E+00 -0.00000000000E+00 -0.60654296390E+03  0.60654296390E+03  0.00000000000E+00 0. -1.
   -9000010    2    1    2    0  502 -0.39882788241E+03 -0.24677581745E+03  0.96526448739E+02  0.10834284485E+04  0.97187337854E+03 0.  0.
         13    1    3    3    0    0  0.68277670280E+02  0.32972594964E+03  0.16242256944E+02  0.33711253937E+03  0.10566000000E+00 0. -1.
         -4    1    3    3    0  502 -0.46710555269E+03 -0.57650176709E+03  0.80284191796E+02  0.74631590916E+03  0.00000000000E+00 0. -1.
        -13    1    1    2    0    0  0.39882788241E+03  0.24677581745E+03  0.37315389125E+03  0.59933781925E+03  0.10566000000E+00 0.  1.
<mgrwt>
<rscale>  1 0.87618486E+03</rscale>
<asrwt>0</asrwt>
<pdfrwt beam="2">  1       21 0.93314302E-01 0.10791199E+04</pdfrwt>
<pdfrwt beam="1">  1       -4 0.16557282E+00 0.10791199E+04</pdfrwt>
<totfact> 0.81523215E+00</totfact>
</mgrwt>
</event>
<event>
 6    2  0.2220137E-005  0.1032041E+04  0.7818608E-02  0.1036216E+00
         -4   -1    0    0    0  501 -0.00000000000E+00  0.00000000000E+00  0.72396674337E+03  0.72396674337E+03  0.00000000000E+00 0. -1.
         21   -1    0    0  501  502  0.00000000000E+00 -0.00000000000E+00 -0.46415914194E+03  0.46415914194E+03  0.00000000000E+00 0. -1.
   -9000010    2    1    2    0  502 -0.20875307794E+02 -0.20160821502E+02  0.11269184847E+03  0.10381749162E+04  0.10316324281E+04 0.  0.
         13    1    3    3    0    0  0.30540243530E+03  0.39108856662E+03  0.12991723856E+03  0.51293217335E+03  0.10566000000E+00 0. -1.
         -4    1    3    3    0  502 -0.32627774309E+03 -0.41124938812E+03 -0.17225390094E+02  0.52524274286E+03  0.00000000000E+00 0. -1.
        -13    1    1    2    0    0  0.20875307794E+02  0.20160821502E+02  0.14711575296E+03  0.14995096909E+03  0.10566000000E+00 0.  1.
<mgrwt>
<rscale>  1 0.42262248E+03</rscale>
<asrwt>0</asrwt>
<pdfrwt beam="2">  1       21 0.71409099E-01 0.10320406E+04</pdfrwt>
<pdfrwt beam="1">  1       -4 0.11137950E+00 0.10320406E+04</pdfrwt>
<totfact> 0.43484116E+01</totfact>
</mgrwt>
</event>
<event>
 6    2  0.2220137E-005  0.1008754E+04  0.7818608E-02  0.9909364E-01
         -4   -1    0    0    0  501 -0.00000000000E+00  0.00000000000E+00  0.21841954703E+03  0.21841954703E+03  0.00000000000E+00 0. -1.
         21   -1    0    0  501  502  0.00000000000E+00 -0.00000000000E+00 -0.20877537155E+04  0.20877537155E+04  0.00000000000E+00 0. -1.
   -9000010    2    1    2    0  502  0.11004385545E+03 -0.58570685871E+02 -0.19221621437E+04  0.21707813074E+04  0.10010214797E+04 0.  0.
         13    1    3    3    0    0 -0.13647126307E+02  0.36583853253E+03 -0.25536445311E+03  0.44635758201E+03  0.10566000000E+00 0. -1.
         -4    1    3    3    0  502  0.12369098176E+03 -0.42440921840E+03 -0.16667976905E+04  0.17244237254E+04  0.00000000000E+00 0. -1.
        -13    1    1    2    0    0 -0.11004385545E+03  0.58570685871E+02  0.52827975207E+02  0.13539195506E+03  0.10566000000E+00 0.  1.
<mgrwt>
<rscale>  1 0.59809601E+03</rscale>
<asrwt>0</asrwt>
<pdfrwt beam="2">  1       21 0.32119290E+00 0.10087538E+04</pdfrwt>
<pdfrwt beam="1">  1       -4 0.33603005E-01 0.10087538E+04</pdfrwt>
<totfact> 0.67635443E+00</totfact>
</mgrwt>
</event>
<event>
 6    2  0.2220137E-005  0.1051266E+04  0.7818608E-02  0.9617061E-01
         -4   -1    0    0    0  501 -0.00000000000E+00  0.00000000000E+00  0.36493378311E+03  0.36493378311E+03  0.00000000000E+00 0. -1.
         21   -1    0    0  501  502  0.00000000000E+00 -0.00000000000E+00 -0.12373996030E+04  0.12373996030E+04  0.00000000000E+00 0. -1.
   -9000010    2    1    2    0  502 -0.28786279917E+03  0.33813451612E+02 -0.72596896023E+03  0.12775724253E+04  0.10105206727E+04 0.  0.
         13    1    3    3    0    0  0.24921183872E+03 -0.16499719925E+03  0.60243429844E+02  0.30489325726E+03  0.10566000000E+00 0. -1.
         -4    1    3    3    0  502 -0.53707463788E+03  0.19881065086E+03 -0.78621239007E+03  0.97267916800E+03  0.00000000000E+00 0. -1.
        -13    1    1    2    0    0  0.28786279917E+03 -0.33813451612E+02 -0.14649685967E+03  0.32476096088E+03  0.10566000000E+00 0.  1.
<mgrwt>
<rscale>  1 0.76177163E+03</rscale>
<asrwt>0</asrwt>
<pdfrwt beam="2">  1       21 0.19036917E+00 0.10512661E+04</pdfrwt>
<pdfrwt beam="1">  1       -4 0.56143658E-01 0.10512661E+04</pdfrwt>
<totfact> 0.16149608E+01</totfact>
</mgrwt>
</event>
<event>
 6    2  0.2220137E-005  0.9819363E+03  0.7818608E-02  0.9882512E-01
         21   -1    0    0  501  502  0.00000000000E+00  0.00000000000E+00  0.41295355518E+03  0.41295355518E+03  0.00000000000E+00 0. -1.
         -4   -1    0    0    0  501 -0.00000000000E+00 -0.00000000000E+00 -0.77228972491E+03  0.77228972491E+03  0.00000000000E+00 0. -1.
   -9000010    2    1    2    0  502 -0.42252590795E+02  0.14117257265E+03 -0.31919878722E+03  0.10325147715E+04  0.97081610560E+03 0.  0.
         13    1    3    3    0    0  0.21818263339E+03 -0.33872915061E+03 -0.26843089412E+03  0.48414486992E+03  0.10566000000E+00 0. -1.
         -4    1    3    3    0  502 -0.26043522419E+03  0.47990172326E+03 -0.50767893101E+02  0.54836990158E+03  0.00000000000E+00 0. -1.
        -13    1    1    2    0    0  0.42252590795E+02 -0.14117257265E+03 -0.40137382511E+02  0.15272850859E+03  0.10566000000E+00 0.  1.
<mgrwt>
<rscale>  1 0.61116361E+03</rscale>
<asrwt>0</asrwt>
<pdfrwt beam="1">  1       21 0.63531317E-01 0.98193630E+03</pdfrwt>
<pdfrwt beam="2">  1       -4 0.11881380E+00 0.98193630E+03</pdfrwt>
<totfact> 0.48527689E+01</totfact>
</mgrwt>
</event>
<event>
 6    2  0.2220137E-005  0.1033692E+04  0.7818608E-02  0.9705378E-01
         -4   -1    0    0    0  501 -0.00000000000E+00  0.00000000000E+00  0.14201797968E+04  0.14201797968E+04  0.00000000000E+00 0. -1.
         21   -1    0    0  501  502  0.00000000000E+00 -0.00000000000E+00 -0.29309561774E+03  0.29309561774E+03  0.00000000000E+00 0. -1.
   -9000010    2    1    2    0  502 -0.16815911448E+03  0.15125179940E+03  0.76351834584E+03  0.12850993750E+04  0.10086454008E+04 0.  0.
         13    1    3    3    0    0 -0.41483532363E+03  0.11126161576E+03  0.90226100238E+03  0.99927094446E+03  0.10566000000E+00 0. -1.
         -4    1    3    3    0  502  0.24667620915E+03  0.39990183636E+02 -0.13874265654E+03  0.28582843051E+03  0.00000000000E+00 0. -1.
        -13    1    1    2    0    0  0.16815911448E+03 -0.15125179940E+03  0.36356583325E+03  0.42817603959E+03  0.10566000000E+00 0.  1.
<mgrwt>
<rscale>  1 0.70697509E+03</rscale>
<asrwt>0</asrwt>
<pdfrwt beam="2">  1       21 0.45091634E-01 0.10336925E+04</pdfrwt>
<pdfrwt beam="1">  1       -4 0.21848920E+00 0.10336925E+04</pdfrwt>
<totfact> 0.18652088E+01</totfact>
</mgrwt>
</event>
<event>
 6    2  0.2220137E-005  0.1048015E+04  0.7818608E-02  0.9589680E-01
         21   -1    0    0  501  502  0.00000000000E+00  0.00000000000E+00  0.57548278698E+03  0.57548278698E+03  0.00000000000E+00 0.  1.
         -4   -1    0    0    0  501 -0.00000000000E+00 -0.00000000000E+00 -0.86915633080E+03  0.86915633080E+03  0.00000000000E+00 0. -1.
   -9000010    2    1    2    0  502  0.18900771887E+03  0.25981340363E+03 -0.37522338549E+03  0.11131616520E+04  0.99755167882E+03 0.  0.
         13    1    3    3    0    0 -0.47796124637E+02  0.59553804952E+03 -0.70390134658E+02  0.60158525595E+03  0.10566000000E+00 0. -1.
         -4    1    3    3    0  502  0.23680384351E+03 -0.33572464589E+03 -0.30483325083E+03  0.51157639603E+03  0.00000000000E+00 0. -1.
        -13    1    1    2    0    0 -0.18900771887E+03 -0.25981340363E+03  0.81549841664E+02  0.33147746580E+03  0.10566000000E+00 0.  1.
<mgrwt>
<rscale>  1 0.77982999E+03</rscale>
<asrwt>0</asrwt>
<pdfrwt beam="1">  1       21 0.88535813E-01 0.10480154E+04</pdfrwt>
<pdfrwt beam="2">  1       -4 0.13371636E+00 0.10480154E+04</pdfrwt>
<totfact> 0.16495912E+01</totfact>
</mgrwt>
</event>
<event>
 6    2  0.2220137E-005  0.9992004E+03  0.7818608E-02  0.1023501E+00
         21   -1    0    0  501  502  0.00000000000E+00  0.00000000000E+00  0.18525583177E+03  0.18525583177E+03  0.00000000000E+00 0. -1.
         -4   -1    0    0    0  501 -0.00000000000E+00 -0.00000000000E+00 -0.15485178520E+04  0.15485178520E+04  0.00000000000E+00 0. -1.
   -9000010    2    1    2    0  502 -0.42203923194E+02 -0.19854445737E+02 -0.11876208476E+04  0.15520453072E+04  0.99811121018E+03 0.  0.
         13    1    3    3    0    0  0.32759721037E+03 -0.13518930389E+03 -0.59608857644E+02  0.35937349262E+03  0.10566000000E+00 0. -1.
         -4    1    3    3    0  502 -0.36980113356E+03  0.11533485815E+03 -0.11280119899E+04  0.11926718146E+04  0.00000000000E+00 0. -1.
        -13    1    1    2    0    0  0.42203923194E+02  0.19854445737E+02 -0.17564117265E+03  0.18172837655E+03  0.10566000000E+00 0.  1.
<mgrwt>
<rscale>  1 0.46444187E+03</rscale>
<asrwt>0</asrwt>
<pdfrwt beam="1">  1       21 0.28500897E-01 0.99920036E+03</pdfrwt>
<pdfrwt beam="2">  1       -4 0.23823352E+00 0.99920036E+03</pdfrwt>
<totfact> 0.36224554E+01</totfact>
</mgrwt>
</event>
<event>
 6    2  0.2220137E-005  0.1026846E+04  0.7818608E-02  0.9701542E-01
         21   -1    0    0  501  502  0.00000000000E+00  0.00000000000E+00  0.49804837284E+03  0.49804837284E+03  0.00000000000E+00 0. -1.
         -4   -1    0    0    0  501 -0.00000000000E+00 -0.00000000000E+00 -0.81034689210E+03  0.81034689210E+03  0.00000000000E+00 0. -1.
   -9000010    2    1    2    0  502 -0.22143331857E+03  0.74760433290E+02 -0.18879710665E+03  0.10440575131E+04  0.99989494760E+03 0.  0.
         13    1    3    3    0    0  0.26287219265E+03 -0.30564426210E+03 -0.11897880841E+02  0.40331349513E+03  0.10566000000E+00 0. -1.
         -4    1    3    3    0  502 -0.48430551123E+03  0.38040469539E+03 -0.17689922581E+03  0.64074401797E+03  0.00000000000E+00 0. -1.
        -13    1    1    2    0    0  0.22143331857E+03 -0.74760433290E+02 -0.12350141262E+03  0.26433775183E+03  0.10566000000E+00 0.  1.
<mgrwt>
<rscale>  1 0.70925048E+03</rscale>
<asrwt>0</asrwt>
<pdfrwt beam="1">  1       21 0.76622827E-01 0.10268455E+04</pdfrwt>
<pdfrwt beam="2">  1       -4 0.12466875E+00 0.10268455E+04</pdfrwt>
<totfact> 0.27863322E+01</totfact>
</mgrwt>
</event>
<event>
 6    2  0.2220137E-005  0.1018291E+04  0.7818608E-02  0.9791050E-01
         21   -1    0    0  501  502  0.00000000000E+00  0.00000000000E+00  0.76103301585E+03  0.76103301585E+03  0.00000000000E+00 0. -1.
         -4   -1    0    0    0  501 -0.00000000000E+00 -0.00000000000E+00 -0.56400180600E+03  0.56400180600E+03  0.00000000000E+00 0. -1.
   -9000010    2    1    2    0  502  0.17702739170E+03  0.18808525277E+02  0.36357805236E+03  0.10812514755E+04  0.10026082461E+04 0.  0.
         13    1    3    3    0    0 -0.23654741905E+03 -0.30717795695E+03  0.39530143292E+03  0.55369324786E+03  0.10566000000E+00 0. -1.
         -4    1    3    3    0  502  0.41357481075E+03  0.32598648222E+03 -0.31723380562E+02  0.52755822764E+03  0.00000000000E+00 0. -1.
        -13    1    1    2    0    0 -0.17702739170E+03 -0.18808525277E+02 -0.16654684252E+03  0.24378334634E+03  0.10566000000E+00 0.  1.
<mgrwt>
<rscale>  1 0.65845077E+03</rscale>
<asrwt>0</asrwt>
<pdfrwt beam="1">  1       21 0.11708200E+00 0.10182906E+04</pdfrwt>
<pdfrwt beam="2">  1       -4 0.86769509E-01 0.10182906E+04</pdfrwt>
<totfact> 0.23860819E+01</totfact>
</mgrwt>
</event>
<event>
 6    2  0.2220137E-005  0.1012925E+04  0.7818608E-02  0.9799374E-01
         -4   -1    0    0    0  501 -0.00000000000E+00  0.00000000000E+00  0.15739699425E+03  0.15739699425E+03  0.00000000000E+00 0. -1.
         21   -1    0    0  501  502  0.00000000000E+00 -0.00000000000E+00 -0.22537247375E+04  0.22537247375E+04  0.00000000000E+00 0. -1.
   -9000010    2    1    2    0  502  0.13267874930E+03 -0.11561665121E+03 -0.18361827993E+04  0.20970417044E+04  0.99751981283E+03 0.  0.
         13    1    3    3    0    0  0.45398269137E+03  0.13726330376E+03 -0.45738731741E+03  0.65889655327E+03  0.10566000000E+00 0. -1.
         -4    1    3    3    0  502 -0.32130394207E+03 -0.25287995497E+03 -0.13787954819E+04  0.14381451511E+04  0.00000000000E+00 0. -1.
        -13    1    1    2    0    0 -0.13267874930E+03  0.11561665121E+03 -0.26014494390E+03  0.31408002731E+03  0.10566000000E+00 0.  1.
<mgrwt>
<rscale>  1 0.65396135E+03</rscale>
<asrwt>0</asrwt>
<pdfrwt beam="2">  1       21 0.34672682E+00 0.10129248E+04</pdfrwt>
<pdfrwt beam="1">  1       -4 0.24214927E-01 0.10129248E+04</pdfrwt>
<totfact> 0.88427764E+00</totfact>
</mgrwt>
</event>
<event>
 6    2  0.2220137E-005  0.1049152E+04  0.7818608E-02  0.9580922E-01
         -4   -1    0    0    0  501 -0.00000000000E+00  0.00000000000E+00  0.16158943193E+04  0.16158943193E+04  0.00000000000E+00 0. -1.
         21   -1    0    0  501  502  0.00000000000E+00 -0.00000000000E+00 -0.30947439635E+03  0.30947439635E+03  0.00000000000E+00 0. -1.
   -9000010    2    1    2    0  502  0.31587888395E+03 -0.95604277772E+02  0.11607274962E+04  0.15646112602E+04  0.99589177519E+03 0.  0.
         13    1    3    3    0    0  0.52129690059E+03 -0.33551272215E+03  0.39185287809E+03  0.73339480126E+03  0.10566000000E+00 0. -1.
         -4    1    3    3    0  502 -0.20541801663E+03  0.23990844438E+03  0.76887461816E+03  0.83121645899E+03  0.00000000000E+00 0. -1.
        -13    1    1    2    0    0 -0.31587888395E+03  0.95604277772E+02  0.14569242669E+03  0.36075745538E+03  0.10566000000E+00 0.  1.
<mgrwt>
<rscale>  1 0.78571885E+03</rscale>
<asrwt>0</asrwt>
<pdfrwt beam="2">  1       21 0.47611446E-01 0.10491521E+04</pdfrwt>
<pdfrwt beam="1">  1       -4 0.24859912E+00 0.10491521E+04</pdfrwt>
<totfact> 0.10720124E+01</totfact>
</mgrwt>
</event>
<event>
 6    2  0.2220137E-005  0.8178807E+03  0.7818608E-02  0.9826638E-01
         21   -1    0    0  501  502  0.00000000000E+00  0.00000000000E+00  0.70565657076E+03  0.70565657076E+03  0.00000000000E+00 0. -1.
         -4   -1    0    0    0  501 -0.00000000000E+00 -0.00000000000E+00 -0.45076266536E+03  0.45076266536E+03  0.00000000000E+00 0. -1.
   -9000010    2    1    2    0  502 -0.28341475163E+03 -0.11469650990E+03  0.23030808333E+03  0.84968859756E+03  0.75858400244E+03 0.  0.
         13    1    3    3    0    0  0.19490919531E+03 -0.16979653153E+03 -0.87349183317E+02  0.27285590982E+03  0.10566000000E+00 0. -1.
         -4    1    3    3    0  502 -0.47832394694E+03  0.55100021624E+02  0.31765726665E+03  0.57683268774E+03  0.00000000000E+00 0. -1.
        -13    1    1    2    0    0  0.28341475163E+03  0.11469650990E+03  0.24585822070E+02  0.30673063857E+03  0.10566000000E+00 0.  1.
<mgrwt>
<rscale>  1 0.63952403E+03</rscale>
<asrwt>0</asrwt>
<pdfrwt beam="1">  1       21 0.10856255E+00 0.81788074E+03</pdfrwt>
<pdfrwt beam="2">  1       -4 0.69348103E-01 0.81788074E+03</pdfrwt>
<totfact> 0.49174966E+01</totfact>
</mgrwt>
</event>
<event>
 6    2  0.2220137E-005  0.1025216E+04  0.7818608E-02  0.9489091E-01
         21   -1    0    0  501  502  0.00000000000E+00  0.00000000000E+00  0.82288809847E+03  0.82288809847E+03  0.00000000000E+00 0. -1.
         -4   -1    0    0    0  501 -0.00000000000E+00 -0.00000000000E+00 -0.69581218465E+03  0.69581218465E+03  0.00000000000E+00 0. -1.
   -9000010    2    1    2    0  502 -0.18746517962E+03 -0.44898357958E+03  0.53409906616E+02  0.10266066537E+04  0.90240742188E+03 0.  0.
         13    1    3    3    0    0  0.12209886424E+03 -0.34289387594E+03 -0.35149589824E+03  0.50599774747E+03  0.10566000000E+00 0. -1.
         -4    1    3    3    0  502 -0.30956404386E+03 -0.10608970364E+03  0.40490580485E+03  0.52060890626E+03  0.00000000000E+00 0. -1.
        -13    1    1    2    0    0  0.18746517962E+03  0.44898357958E+03  0.73666007203E+02  0.49209362939E+03  0.10566000000E+00 0.  1.
<mgrwt>
<rscale>  1 0.85092884E+03</rscale>
<asrwt>0</asrwt>
<pdfrwt beam="1">  1       21 0.12659817E+00 0.10252164E+04</pdfrwt>
<pdfrwt beam="2">  1       -4 0.10704803E+00 0.10252164E+04</pdfrwt>
<totfact> 0.11764031E+01</totfact>
</mgrwt>
</event>
<event>
 6    2  0.2220137E-005  0.1017467E+04  0.7818608E-02  0.9824736E-01
         21   -1    0    0  501  502  0.00000000000E+00  0.00000000000E+00  0.69338673409E+03  0.69338673409E+03  0.00000000000E+00 0. -1.
         -4   -1    0    0    0  501 -0.00000000000E+00 -0.00000000000E+00 -0.71512532274E+03  0.71512532274E+03  0.00000000000E+00 0. -1.
   -9000010    2    1    2    0  502 -0.11182084721E+03  0.11415200150E+03  0.29018574537E+03  0.10580389728E+04  0.10048403454E+04 0.  0.
         13    1    3    3    0    0  0.30366118092E+03  0.37929264298E+03 -0.41411754942E+00  0.48587365073E+03  0.10566000000E+00 0. -1.
         -4    1    3    3    0  502 -0.41548202812E+03 -0.26514064148E+03  0.29059986292E+03  0.57216532207E+03  0.00000000000E+00 0. -1.
        -13    1    1    2    0    0  0.11182084721E+03 -0.11415200150E+03 -0.31192433402E+03  0.35047308403E+03  0.10566000000E+00 0.  1.
<mgrwt>
<rscale>  1 0.64051795E+03</rscale>
<asrwt>0</asrwt>
<pdfrwt beam="1">  1       21 0.10667488E+00 0.10174668E+04</pdfrwt>
<pdfrwt beam="2">  1       -4 0.11001928E+00 0.10174668E+04</pdfrwt>
<totfact> 0.17104528E+01</totfact>
</mgrwt>
</event>
<event>
 6    2  0.2220137E-005  0.1077285E+04  0.7818608E-02  0.9502386E-01
         21   -1    0    0  501  502  0.00000000000E+00  0.00000000000E+00  0.77462917905E+03  0.77462917905E+03  0.00000000000E+00 0. -1.
         -4   -1    0    0    0  501 -0.00000000000E+00 -0.00000000000E+00 -0.98022741775E+03  0.98022741775E+03  0.00000000000E+00 0. -1.
   -9000010    2    1    2    0  502  0.40021933384E+03 -0.67842122165E+01  0.29208333538E+03  0.11161794475E+04  0.10001611587E+04 0.  0.
         13    1    3    3    0    0  0.31309733195E+03 -0.15430573648E+03 -0.32428303788E+03  0.47644485453E+03  0.10566000000E+00 0. -1.
         -4    1    3    3    0  502  0.87122001895E+02  0.14752152426E+03  0.61636637326E+03  0.63973459295E+03  0.00000000000E+00 0. -1.
        -13    1    1    2    0    0 -0.40021933384E+03  0.67842122165E+01 -0.49768157408E+03  0.63867714932E+03  0.10566000000E+00 0.  1.
<mgrwt>
<rscale>  1 0.84108174E+03</rscale>
<asrwt>0</asrwt>
<pdfrwt beam="1">  1       21 0.11917372E+00 0.10772854E+04</pdfrwt>
<pdfrwt beam="2">  1       -4 0.15080422E+00 0.10772854E+04</pdfrwt>
<totfact> 0.56974993E+00</totfact>
</mgrwt>
</event>
<event>
 6    2  0.2220137E-005  0.1028753E+04  0.7818608E-02  0.1056742E+00
         -4   -1    0    0    0  501 -0.00000000000E+00  0.00000000000E+00  0.12168200044E+03  0.12168200044E+03  0.00000000000E+00 0. -1.
         21   -1    0    0  501  502  0.00000000000E+00 -0.00000000000E+00 -0.22543939948E+04  0.22543939948E+04  0.00000000000E+00 0. -1.
   -9000010    2    1    2    0  502  0.20210492126E+01  0.16120045885E+02 -0.21156790440E+04  0.23525372382E+04  0.10286251502E+04 0.  0.
         13    1    3    3    0    0  0.33802989641E+03 -0.28260040835E+03 -0.16393950562E+04  0.16975698405E+04  0.10566000000E+00 0. -1.
         -4    1    3    3    0  502 -0.33600884719E+03  0.29872045424E+03 -0.47628398773E+03  0.65496739777E+03  0.00000000000E+00 0. -1.
        -13    1    1    2    0    0 -0.20210492126E+01 -0.16120045885E+02 -0.17032950427E+02  0.23538757052E+02  0.10566000000E+00 0.  1.
<mgrwt>
<rscale>  1 0.36469015E+03</rscale>
<asrwt>0</asrwt>
<pdfrwt beam="2">  1       21 0.34682985E+00 0.10287534E+04</pdfrwt>
<pdfrwt beam="1">  1       -4 0.18720308E-01 0.10287534E+04</pdfrwt>
<totfact> 0.14273141E+01</totfact>
</mgrwt>
</event>
<event>
 6    2  0.2220137E-005  0.1032001E+04  0.7818608E-02  0.9850420E-01
         -4   -1    0    0    0  501 -0.00000000000E+00  0.00000000000E+00  0.18347772006E+03  0.18347772006E+03  0.00000000000E+00 0. -1.
         21   -1    0    0  501  502  0.00000000000E+00 -0.00000000000E+00 -0.22442895898E+04  0.22442895898E+04  0.00000000000E+00 0. -1.
   -9000010    2    1    2    0  502  0.62193768025E+02 -0.12636726344E+03 -0.20389403441E+04  0.22852361734E+04  0.10223452897E+04 0.  0.
         13    1    3    3    0    0  0.24450449252E+03  0.33480092734E+02 -0.15447977291E+02  0.24726911380E+03  0.10566000000E+00 0. -1.
         -4    1    3    3    0  502 -0.18231072450E+03 -0.15984735617E+03 -0.20234923668E+04  0.20379670596E+04  0.00000000000E+00 0. -1.
        -13    1    1    2    0    0 -0.62193768025E+02  0.12636726344E+03 -0.21871525616E+02  0.14253113641E+03  0.10566000000E+00 0.  1.
<mgrwt>
<rscale>  1 0.62725484E+03</rscale>
<asrwt>0</asrwt>
<pdfrwt beam="2">  1       21 0.34527532E+00 0.10320013E+04</pdfrwt>
<pdfrwt beam="1">  1       -4 0.28227342E-01 0.10320013E+04</pdfrwt>
<totfact> 0.67007307E+00</totfact>
</mgrwt>
</event>
<event>
 6    2  0.2220137E-005  0.1019689E+04  0.7818608E-02  0.9834828E-01
         -4   -1    0    0    0  501 -0.00000000000E+00  0.00000000000E+00  0.49418011823E+03  0.49418011823E+03  0.00000000000E+00 0. -1.
         21   -1    0    0  501  502  0.00000000000E+00 -0.00000000000E+00 -0.97654662474E+03  0.97654662474E+03  0.00000000000E+00 0. -1.
   -9000010    2    1    2    0  502  0.12563319361E+03 -0.88385389821E+02 -0.67611191228E+03  0.12234759191E+04  0.10080527418E+04 0.  0.
         13    1    3    3    0    0 -0.10640345732E+03 -0.34437079294E+03  0.99903387839E+02  0.37402357790E+03  0.10566000000E+00 0. -1.
         -4    1    3    3    0  502  0.23203665093E+03  0.25598540311E+03 -0.77601530012E+03  0.84945234122E+03  0.00000000000E+00 0. -1.
        -13    1    1    2    0    0 -0.12563319361E+03  0.88385389821E+02  0.19374540577E+03  0.24725082384E+03  0.10566000000E+00 0.  1.
<mgrwt>
<rscale>  1 0.63526501E+03</rscale>
<asrwt>0</asrwt>
<pdfrwt beam="2">  1       21 0.15023794E+00 0.10196892E+04</pdfrwt>
<pdfrwt beam="1">  1       -4 0.76027711E-01 0.10196892E+04</pdfrwt>
<totfact> 0.16586759E+01</totfact>
</mgrwt>
</event>
<event>
 6    2  0.2220137E-005  0.1056577E+04  0.7818608E-02  0.9658767E-01
         21   -1    0    0  501  502  0.00000000000E+00  0.00000000000E+00  0.14680359785E+03  0.14680359785E+03  0.00000000000E+00 0. -1.
         -4   -1    0    0    0  501 -0.00000000000E+00 -0.00000000000E+00 -0.29180415508E+04  0.29180415508E+04  0.00000000000E+00 0. -1.
   -9000010    2    1    2    0  502  0.14208614320E+03  0.20298579235E+03 -0.23403189132E+04  0.25677707740E+04  0.10271136393E+04 0.  0.
         13    1    3    3    0    0  0.45395558887E+03  0.28940225026E+03 -0.20911581355E+04  0.21593452012E+04  0.10566000000E+00 0. -1.
         -4    1    3    3    0  502 -0.31186944567E+03 -0.86416457910E+02 -0.24916077772E+03  0.40842557278E+03  0.00000000000E+00 0. -1.
        -13    1    1    2    0    0 -0.14208614320E+03 -0.20298579235E+03 -0.43091903975E+03  0.49707437469E+03  0.10566000000E+00 0.  1.
<mgrwt>
<rscale>  1 0.73525759E+03</rscale>
<asrwt>0</asrwt>
<pdfrwt beam="1">  1       21 0.22585167E-01 0.10565766E+04</pdfrwt>
<pdfrwt beam="2">  1       -4 0.44892951E+00 0.10565766E+04</pdfrwt>
<totfact> 0.23581614E+00</totfact>
</mgrwt>
</event>
<event>
 6    2  0.2220137E-005  0.1067926E+04  0.7818608E-02  0.9634771E-01
         21   -1    0    0  501  502  0.00000000000E+00  0.00000000000E+00  0.32060321503E+04  0.32060321503E+04  0.00000000000E+00 0. -1.
         -4   -1    0    0    0  501 -0.00000000000E+00 -0.00000000000E+00 -0.13800169783E+03  0.13800169783E+03  0.00000000000E+00 0. -1.
   -9000010    2    1    2    0  502  0.25626301049E+02  0.25903753581E+03  0.23893436548E+04  0.26171411925E+04  0.10357160657E+04 0.  0.
         13    1    3    3    0    0  0.11835849872E+02  0.65523758230E+03  0.16998175155E+04  0.18217727558E+04  0.10566000000E+00 0. -1.
         -4    1    3    3    0  502  0.13790451177E+02 -0.39620004649E+03  0.68952613924E+03  0.79536843669E+03  0.00000000000E+00 0. -1.
        -13    1    1    2    0    0 -0.25626301049E+02 -0.25903753581E+03  0.67868679773E+03  0.72689265565E+03  0.10566000000E+00 0.  1.
<mgrwt>
<rscale>  1 0.75036951E+03</rscale>
<asrwt>0</asrwt>
<pdfrwt beam="1">  1       21 0.49323566E+00 0.10679255E+04</pdfrwt>
<pdfrwt beam="2">  1       -4 0.21231033E-01 0.10679255E+04</pdfrwt>
<totfact> 0.11702484E+00</totfact>
</mgrwt>
</event>
<event>
 6    2  0.2220137E-005  0.1043242E+04  0.7818608E-02  0.9645724E-01
         -4   -1    0    0    0  501 -0.00000000000E+00  0.00000000000E+00  0.68054639054E+03  0.68054639054E+03  0.00000000000E+00 0. -1.
         21   -1    0    0  501  502  0.00000000000E+00 -0.00000000000E+00 -0.73920765362E+03  0.73920765362E+03  0.00000000000E+00 0. -1.
   -9000010    2    1    2    0  502 -0.10025527584E+03 -0.24964481917E+03 -0.27003602277E+03  0.10776240158E+04  0.10079585358E+04 0.  0.
         13    1    3    3    0    0 -0.41673238214E+03 -0.48519663456E+03 -0.23560334494E+03  0.68160883198E+03  0.10566000000E+00 0. -1.
         -4    1    3    3    0  502  0.31647710630E+03  0.23555181540E+03 -0.34432677834E+02  0.39601518387E+03  0.00000000000E+00 0. -1.
        -13    1    1    2    0    0  0.10025527584E+03  0.24964481917E+03  0.21137475969E+03  0.34213002831E+03  0.10566000000E+00 0.  1.
<mgrwt>
<rscale>  1 0.74342369E+03</rscale>
<asrwt>0</asrwt>
<pdfrwt beam="2">  1       21 0.11372425E+00 0.10432421E+04</pdfrwt>
<pdfrwt beam="1">  1       -4 0.10469945E+00 0.10432421E+04</pdfrwt>
<totfact> 0.16378610E+01</totfact>
</mgrwt>
</event>
<event>
 6    2  0.2220137E-005  0.1203495E+04  0.7818608E-02  0.9274820E-01
         -4   -1    0    0    0  501 -0.00000000000E+00  0.00000000000E+00  0.49747139934E+03  0.49747139934E+03  0.00000000000E+00 0. -1.
         21   -1    0    0  501  502  0.00000000000E+00 -0.00000000000E+00 -0.17574756324E+04  0.17574756324E+04  0.00000000000E+00 0.  1.
   -9000010    2    1    2    0  502 -0.52032881087E+03 -0.38798018859E+03 -0.96210426773E+03  0.15407936178E+04  0.10134740512E+04 0.  0.
         13    1    3    3    0    0 -0.91405132464E+02  0.28135155554E+03 -0.59640346389E+03  0.66574071450E+03  0.10566000000E+00 0. -1.
         -4    1    3    3    0  502 -0.42892367841E+03 -0.66933174413E+03 -0.36570080384E+03  0.87505290327E+03  0.00000000000E+00 0. -1.
        -13    1    1    2    0    0  0.52032881087E+03  0.38798018859E+03 -0.29789996533E+03  0.71415341396E+03  0.10566000000E+00 0.  1.
<mgrwt>
<rscale>  1 0.10313436E+04</rscale>
<asrwt>0</asrwt>
<pdfrwt beam="2">  1       21 0.27038087E+00 0.12034951E+04</pdfrwt>
<pdfrwt beam="1">  1       -4 0.76534059E-01 0.12034951E+04</pdfrwt>
<totfact> 0.23681630E+00</totfact>
</mgrwt>
</event>
<event>
 6    2  0.2220137E-005  0.9943614E+03  0.7818608E-02  0.9693517E-01
         -4   -1    0    0    0  501 -0.00000000000E+00  0.00000000000E+00  0.10083969061E+04  0.10083969061E+04  0.00000000000E+00 0. -1.
         21   -1    0    0  501  502  0.00000000000E+00 -0.00000000000E+00 -0.81544780811E+03  0.81544780811E+03  0.00000000000E+00 0. -1.
   -9000010    2    1    2    0  502 -0.22962231127E+03 -0.13107335500E+03 -0.47755561475E+03  0.11030928768E+04  0.95856554254E+03 0.  0.
         13    1    3    3    0    0 -0.20672883590E+03  0.39773472114E+03 -0.11900429754E+03  0.46377985509E+03  0.10566000000E+00 0. -1.
         -4    1    3    3    0  502 -0.22893475368E+02 -0.52880807614E+03 -0.35855131721E+03  0.63931302167E+03  0.00000000000E+00 0. -1.
        -13    1    1    2    0    0  0.22962231127E+03  0.13107335500E+03  0.67050471270E+03  0.72075183742E+03  0.10566000000E+00 0.  1.
<mgrwt>
<rscale>  1 0.71404073E+03</rscale>
<asrwt>0</asrwt>
<pdfrwt beam="2">  1       21 0.12545351E+00 0.99436137E+03</pdfrwt>
<pdfrwt beam="1">  1       -4 0.15513799E+00 0.99436137E+03</pdfrwt>
<totfact> 0.46617099E+00</totfact>
</mgrwt>
</event>
<event>
 6    2  0.2220137E-005  0.1000376E+04  0.7818608E-02  0.9889395E-01
         -4   -1    0    0    0  501 -0.00000000000E+00  0.00000000000E+00  0.38662611660E+03  0.38662611660E+03  0.00000000000E+00 0. -1.
         21   -1    0    0  501  502  0.00000000000E+00 -0.00000000000E+00 -0.83680741653E+03  0.83680741653E+03  0.00000000000E+00 0. -1.
   -9000010    2    1    2    0  502 -0.31807917752E+02  0.13253647335E+03 -0.41192780657E+03  0.10818672896E+04  0.99104725115E+03 0.  0.
         13    1    3    3    0    0  0.11859907736E+02 -0.37477680473E+03  0.69234465637E+02  0.38130267921E+03  0.10566000000E+00 0. -1.
         -4    1    3    3    0  502 -0.43667825488E+02  0.50731327807E+03 -0.48116227221E+03  0.70056461036E+03  0.00000000000E+00 0. -1.
        -13    1    1    2    0    0  0.31807917752E+02 -0.13253647335E+03 -0.38253493366E+02  0.14156624357E+03  0.10566000000E+00 0.  1.
<mgrwt>
<rscale>  1 0.60777997E+03</rscale>
<asrwt>0</asrwt>
<pdfrwt beam="2">  1       21 0.12873960E+00 0.10003761E+04</pdfrwt>
<pdfrwt beam="1">  1       -4 0.59480942E-01 0.10003761E+04</pdfrwt>
<totfact> 0.43640700E+01</totfact>
</mgrwt>
</event>
<event>
 6    2  0.2220137E-005  0.1037746E+04  0.7818608E-02  0.9696562E-01
         -4   -1    0    0    0  501 -0.00000000000E+00  0.00000000000E+00  0.43248930604E+03  0.43248930604E+03  0.00000000000E+00 0. -1.
         21   -1    0    0  501  502  0.00000000000E+00 -0.00000000000E+00 -0.11303370360E+04  0.11303370360E+04  0.00000000000E+00 0. -1.
   -9000010    2    1    2    0  502 -0.15832001376E+03 -0.16716741181E+03 -0.80062071937E+03  0.13106905277E+04  0.10118823809E+04 0.  0.
         13    1    3    3    0    0 -0.36987275773E+02  0.22440766327E+03  0.15203818398E+03  0.27357353391E+03  0.10566000000E+00 0. -1.
         -4    1    3    3    0  502 -0.12133273799E+03 -0.39157507508E+03 -0.95265890336E+03  0.10371169938E+04  0.00000000000E+00 0. -1.
        -13    1    1    2    0    0  0.15832001376E+03  0.16716741181E+03  0.10277298943E+03  0.25213581429E+03  0.10566000000E+00 0.  1.
<mgrwt>
<rscale>  1 0.71221828E+03</rscale>
<asrwt>0</asrwt>
<pdfrwt beam="2">  1       21 0.17389800E+00 0.10377457E+04</pdfrwt>
<pdfrwt beam="1">  1       -4 0.66536817E-01 0.10377457E+04</pdfrwt>
<totfact> 0.14673399E+01</totfact>
</mgrwt>
</event>
<event>
 6    2  0.2220137E-005  0.1012196E+04  0.7818608E-02  0.9796119E-01
         21   -1    0    0  501  502  0.00000000000E+00  0.00000000000E+00  0.75623661240E+03  0.75623661240E+03  0.00000000000E+00 0. -1.
         -4   -1    0    0    0  501 -0.00000000000E+00 -0.00000000000E+00 -0.58172117877E+03  0.58172117877E+03  0.00000000000E+00 0. -1.
   -9000010    2    1    2    0  502  0.99391666104E+02 -0.14798259112E+03  0.36600507439E+03  0.10763362243E+04  0.99637462971E+03 0.  0.
         13    1    3    3    0    0 -0.18774189256E+03 -0.39278928954E+03 -0.12886625746E+03  0.45402309157E+03  0.10566000000E+00 0. -1.
         -4    1    3    3    0  502  0.28713355866E+03  0.24480669842E+03  0.49487133185E+03  0.62231313275E+03  0.00000000000E+00 0. -1.
        -13    1    1    2    0    0 -0.99391666104E+02  0.14798259112E+03 -0.19148964075E+03  0.26162156686E+03  0.10566000000E+00 0.  1.
<mgrwt>
<rscale>  1 0.65571242E+03</rscale>
<asrwt>0</asrwt>
<pdfrwt beam="1">  1       21 0.11634410E+00 0.10121956E+04</pdfrwt>
<pdfrwt beam="2">  1       -4 0.89495565E-01 0.10121956E+04</pdfrwt>
<totfact> 0.22568744E+01</totfact>
</mgrwt>
</event>
<event>
 6    2  0.2220137E-005  0.1022728E+04  0.7818608E-02  0.9710045E-01
         -4   -1    0    0    0  501 -0.00000000000E+00  0.00000000000E+00  0.15226890905E+03  0.15226890905E+03  0.00000000000E+00 0. -1.
         21   -1    0    0  501  502  0.00000000000E+00 -0.00000000000E+00 -0.26813691295E+04  0.26813691295E+04  0.00000000000E+00 0. -1.
   -9000010    2    1    2    0  502  0.58654081987E+02  0.22229700139E+03 -0.22536063770E+04  0.24748161787E+04  0.99655263673E+03 0.  0.
         13    1    3    3    0    0  0.10849658449E+03  0.54317162331E+03 -0.72651297390E+03  0.91357979051E+03  0.10566000000E+00 0. -1.
         -4    1    3    3    0  502 -0.49842502504E+02 -0.32087462192E+03 -0.15270934031E+04  0.15612363882E+04  0.00000000000E+00 0. -1.
        -13    1    1    2    0    0 -0.58654081987E+02 -0.22229700139E+03 -0.27549384351E+03  0.35882185989E+03  0.10566000000E+00 0.  1.
<mgrwt>
<rscale>  1 0.70421830E+03</rscale>
<asrwt>0</asrwt>
<pdfrwt beam="2">  1       21 0.41251837E+00 0.10227284E+04</pdfrwt>
<pdfrwt beam="1">  1       -4 0.23425984E-01 0.10227284E+04</pdfrwt>
<totfact> 0.35330686E+00</totfact>
</mgrwt>
</event>
<event>
 6    2  0.2220137E-005  0.1047668E+04  0.7818608E-02  0.9591412E-01
         -4   -1    0    0    0  501 -0.00000000000E+00  0.00000000000E+00  0.47186031151E+03  0.47186031151E+03  0.00000000000E+00 0. -1.
         21   -1    0    0  501  502  0.00000000000E+00 -0.00000000000E+00 -0.99213536336E+03  0.99213536336E+03  0.00000000000E+00 0. -1.
   -9000010    2    1    2    0  502  0.13373302873E+03  0.29038878473E+03 -0.42278147484E+03  0.11297574694E+04  0.99769614360E+03 0.  0.
         13    1    3    3    0    0 -0.75932697151E+02  0.47519175916E+03 -0.62208548206E+03  0.78648797869E+03  0.10566000000E+00 0. -1.
         -4    1    3    3    0  502  0.20966572588E+03 -0.18480297443E+03  0.19930400722E+03  0.34326949072E+03  0.00000000000E+00 0. -1.
        -13    1    1    2    0    0 -0.13373302873E+03 -0.29038878473E+03 -0.97493577012E+02  0.33423820546E+03  0.10566000000E+00 0.  1.
<mgrwt>
<rscale>  1 0.77867182E+03</rscale>
<asrwt>0</asrwt>
<pdfrwt beam="2">  1       21 0.15263621E+00 0.10476678E+04</pdfrwt>
<pdfrwt beam="1">  1       -4 0.72593894E-01 0.10476678E+04</pdfrwt>
<totfact> 0.17566412E+01</totfact>
</mgrwt>
</event>
<event>
 6    2  0.2220137E-005  0.1081048E+04  0.7818608E-02  0.9822597E-01
         21   -1    0    0  501  502  0.00000000000E+00  0.00000000000E+00  0.55297910195E+03  0.55297910195E+03  0.00000000000E+00 0. -1.
         -4   -1    0    0    0  501 -0.00000000000E+00 -0.00000000000E+00 -0.68250085611E+03  0.68250085611E+03  0.00000000000E+00 0. -1.
   -9000010    2    1    2    0  502  0.88374112090E+02 -0.10094113171E+03 -0.56007819707E+02  0.10824982419E+04  0.10726912287E+04 0.  0.
         13    1    3    3    0    0  0.12045343556E+03 -0.45382439228E+03 -0.37871426016E+03  0.60323304881E+03  0.10566000000E+00 0. -1.
         -4    1    3    3    0  502 -0.32079323466E+02  0.35288326057E+03  0.32270644045E+03  0.47926519307E+03  0.00000000000E+00 0. -1.
        -13    1    1    2    0    0 -0.88374112090E+02  0.10094113171E+03 -0.73513934459E+02  0.15298171617E+03  0.10566000000E+00 0.  1.
<mgrwt>
<rscale>  1 0.64163820E+03</rscale>
<asrwt>0</asrwt>
<pdfrwt beam="1">  1       21 0.85073708E-01 0.10810484E+04</pdfrwt>
<pdfrwt beam="2">  1       -4 0.10500013E+00 0.10810484E+04</pdfrwt>
<totfact> 0.33215278E+01</totfact>
</mgrwt>
</event>
<event>
 6    2  0.2220137E-005  0.1049035E+04  0.7818608E-02  0.9699618E-01
         -4   -1    0    0    0  501 -0.00000000000E+00  0.00000000000E+00  0.30522797444E+04  0.30522797444E+04  0.00000000000E+00 0. -1.
         21   -1    0    0  501  502  0.00000000000E+00 -0.00000000000E+00 -0.13667426651E+03  0.13667426651E+03  0.00000000000E+00 0. -1.
   -9000010    2    1    2    0  502 -0.14974939155E+03 -0.16200325281E+03  0.26021421052E+04  0.28056405212E+04  0.10255755771E+04 0.  0.
         13    1    3    3    0    0  0.26602886935E+03  0.30623896550E+03  0.78478412775E+03  0.88342504020E+03  0.10566000000E+00 0. -1.
         -4    1    3    3    0  502 -0.41577826091E+03 -0.46824221831E+03  0.18173579775E+04  0.19222154810E+04  0.00000000000E+00 0. -1.
        -13    1    1    2    0    0  0.14974939155E+03  0.16200325281E+03  0.31346337267E+03  0.38331348967E+03  0.10566000000E+00 0.  1.
<mgrwt>
<rscale>  1 0.71039559E+03</rscale>
<asrwt>0</asrwt>
<pdfrwt beam="2">  1       21 0.21026813E-01 0.10490354E+04</pdfrwt>
<pdfrwt beam="1">  1       -4 0.46958145E+00 0.10490354E+04</pdfrwt>
<totfact> 0.18940942E+00</totfact>
</mgrwt>
</event>
<event>
 6    2  0.2220137E-005  0.1028500E+04  0.7818608E-02  0.9598419E-01
         -4   -1    0    0    0  501 -0.00000000000E+00  0.00000000000E+00  0.15680653479E+04  0.15680653479E+04  0.00000000000E+00 0. -1.
         21   -1    0    0  501  502  0.00000000000E+00 -0.00000000000E+00 -0.29628368567E+03  0.29628368567E+03  0.00000000000E+00 0. -1.
   -9000010    2    1    2    0  502  0.32513903481E+03 -0.55793443821E+02  0.10279258207E+04  0.14541125372E+04  0.97415782995E+03 0.  0.
         13    1    3    3    0    0 -0.72575987377E+02  0.18843452237E+03 -0.10588120166E+03  0.22800369118E+03  0.10566000000E+00 0. -1.
         -4    1    3    3    0  502  0.39771502219E+03 -0.24422796619E+03  0.11338070223E+04  0.12261088460E+04  0.00000000000E+00 0. -1.
        -13    1    1    2    0    0 -0.32513903481E+03  0.55793443821E+02  0.24385584150E+03  0.41023649634E+03  0.10566000000E+00 0.  1.
<mgrwt>
<rscale>  1 0.77400887E+03</rscale>
<asrwt>0</asrwt>
<pdfrwt beam="2">  1       21 0.45582106E-01 0.10284998E+04</pdfrwt>
<pdfrwt beam="1">  1       -4 0.24124082E+00 0.10284998E+04</pdfrwt>
<totfact> 0.13105904E+01</totfact>
</mgrwt>
</event>
<event>
 6    2  0.2220137E-005  0.1008767E+04  0.7818608E-02  0.9932424E-01
         -4   -1    0    0    0  501 -0.00000000000E+00  0.00000000000E+00  0.10583578615E+04  0.10583578615E+04  0.00000000000E+00 0. -1.
         21   -1    0    0  501  502  0.00000000000E+00 -0.00000000000E+00 -0.59686906323E+03  0.59686906323E+03  0.00000000000E+00 0. -1.
   -9000010    2    1    2    0  502 -0.86075252763E+02  0.77433329905E+02 -0.16146284713E+03  0.10216074542E+04  0.10021011276E+04 0.  0.
         13    1    3    3    0    0 -0.10761934634E+03 -0.35406058134E+03 -0.38598348970E+03  0.53471869656E+03  0.10566000000E+00 0. -1.
         -4    1    3    3    0  502  0.21544093577E+02  0.43149391125E+03  0.22452064258E+03  0.48688875768E+03  0.00000000000E+00 0. -1.
        -13    1    1    2    0    0  0.86075252763E+02 -0.77433329905E+02  0.62295164541E+03  0.63361947050E+03  0.10566000000E+00 0.  1.
<mgrwt>
<rscale>  1 0.58715279E+03</rscale>
<asrwt>0</asrwt>
<pdfrwt beam="2">  1       21 0.91826010E-01 0.10087673E+04</pdfrwt>
<pdfrwt beam="1">  1       -4 0.16282429E+00 0.10087673E+04</pdfrwt>
<totfact> 0.89520479E+00</totfact>
</mgrwt>
</event>
<event>
 6    2  0.2220137E-005  0.1480944E+04  0.7818608E-02  0.8938776E-01
         21   -1    0    0  501  502  0.00000000000E+00  0.00000000000E+00  0.10857370156E+04  0.10857370156E+04  0.00000000000E+00 0.  1.
         -4   -1    0    0    0  501 -0.00000000000E+00 -0.00000000000E+00 -0.24828498538E+04  0.24828498538E+04  0.00000000000E+00 0. -1.
   -9000010    2    1    2    0  502 -0.10344616787E+04 -0.71099438779E+03  0.24561972457E+03  0.15011744123E+04  0.78585722793E+03 0.  0.
         13    1    3    3    0    0 -0.10469349748E+04 -0.55281755350E+03 -0.28698873877E+02  0.11842735011E+04  0.10566000000E+00 0. -1.
         -4    1    3    3    0  502  0.12473296084E+02 -0.15817683430E+03  0.27431859845E+03  0.31690091113E+03  0.00000000000E+00 0. -1.
        -13    1    1    2    0    0  0.10344616787E+04  0.71099438779E+03 -0.16427325627E+04  0.20674124571E+04  0.10566000000E+00 0.  1.
<mgrwt>
<rscale>  1 0.14209722E+04</rscale>
<asrwt>0</asrwt>
<pdfrwt beam="1">  1       21 0.16703646E+00 0.14809441E+04</pdfrwt>
<pdfrwt beam="2">  1       -4 0.38197690E+00 0.14809441E+04</pdfrwt>
<totfact> 0.65235900E-02</totfact>
</mgrwt>
</event>
<event>
 6    2  0.2220137E-005  0.1160479E+04  0.7818608E-02  0.9330525E-01
         21   -1    0    0  501  502  0.00000000000E+00  0.00000000000E+00  0.62575377448E+03  0.62575377448E+03  0.00000000000E+00 0.  1.
         -4   -1    0    0    0  501 -0.00000000000E+00 -0.00000000000E+00 -0.17442640300E+04  0.17442640300E+04  0.00000000000E+00 0. -1.
   -9000010    2    1    2    0  502 -0.44852966052E+03  0.38436099675E+03 -0.13090319295E+04  0.17493643170E+04  0.99889873798E+03 0.  0.
         13    1    3    3    0    0  0.29644747258E+03 -0.39371367845E+02 -0.40751898617E+03  0.50547299024E+03  0.10566000000E+00 0. -1.
         -4    1    3    3    0  502 -0.74497713310E+03  0.42373236460E+03 -0.90151294336E+03  0.12438913267E+04  0.00000000000E+00 0. -1.
        -13    1    1    2    0    0  0.44852966052E+03 -0.38436099675E+03  0.19052167398E+03  0.62065348755E+03  0.10566000000E+00 0.  1.
<mgrwt>
<rscale>  1 0.98020626E+03</rscale>
<asrwt>0</asrwt>
<pdfrwt beam="1">  1       21 0.96269812E-01 0.11604787E+04</pdfrwt>
<pdfrwt beam="2">  1       -4 0.26834831E+00 0.11604787E+04</pdfrwt>
<totfact> 0.15920479E+00</totfact>
</mgrwt>
</event>
<event>
 6    2  0.2220137E-005  0.1036358E+04  0.7818608E-02  0.9666774E-01
         21   -1    0    0  501  502  0.00000000000E+00  0.00000000000E+00  0.27850034869E+03  0.27850034869E+03  0.00000000000E+00 0. -1.
         -4   -1    0    0    0  501 -0.00000000000E+00 -0.00000000000E+00 -0.15099739995E+04  0.15099739995E+04  0.00000000000E+00 0. -1.
   -9000010    2    1    2    0  502 -0.31942593075E+02 -0.25354524211E+03 -0.92199746368E+03  0.13871253223E+04  0.10043564196E+04 0.  0.
         13    1    3    3    0    0 -0.32134759818E+03  0.26763349852E+03 -0.52361934487E+03  0.67012625517E+03  0.10566000000E+00 0. -1.
         -4    1    3    3    0  502  0.28940500510E+03 -0.52117874063E+03 -0.39837811881E+03  0.71699906709E+03  0.00000000000E+00 0. -1.
        -13    1    1    2    0    0  0.31942593075E+02  0.25354524211E+03 -0.30947618713E+03  0.40134902593E+03  0.10566000000E+00 0.  1.
<mgrwt>
<rscale>  1 0.73029951E+03</rscale>
<asrwt>0</asrwt>
<pdfrwt beam="1">  1       21 0.42846209E-01 0.10363577E+04</pdfrwt>
<pdfrwt beam="2">  1       -4 0.23230369E+00 0.10363577E+04</pdfrwt>
<totfact> 0.16988411E+01</totfact>
</mgrwt>
</event>
<event>
 6    2  0.2220137E-005  0.1084112E+04  0.7818608E-02  0.9488185E-01
         21   -1    0    0  501  502  0.00000000000E+00  0.00000000000E+00  0.32680564181E+03  0.32680564181E+03  0.00000000000E+00 0. -1.
         -4   -1    0    0    0  501 -0.00000000000E+00 -0.00000000000E+00 -0.19254340211E+04  0.19254340211E+04  0.00000000000E+00 0. -1.
   -9000010    2    1    2    0  502  0.15590675928E+03  0.38221711188E+03 -0.78041149879E+03  0.13357923306E+04  0.10024481058E+04 0.  0.
         13    1    3    3    0    0 -0.71897581145E+01  0.42392069510E+03  0.10313990106E+03  0.43634653512E+03  0.10566000000E+00 0. -1.
         -4    1    3    3    0  502  0.16309651740E+03 -0.41703583224E+02 -0.88355139985E+03  0.89944579548E+03  0.00000000000E+00 0. -1.
        -13    1    1    2    0    0 -0.15590675928E+03 -0.38221711188E+03 -0.81821688053E+03  0.91644733234E+03  0.10566000000E+00 0.  1.
<mgrwt>
<rscale>  1 0.85160527E+03</rscale>
<asrwt>0</asrwt>
<pdfrwt beam="1">  1       21 0.50277790E-01 0.10841121E+04</pdfrwt>
<pdfrwt beam="2">  1       -4 0.29622062E+00 0.10841121E+04</pdfrwt>
<totfact> 0.48218779E+00</totfact>
</mgrwt>
</event>
<event>
 6    2  0.2220137E-005  0.1017263E+04  0.7818608E-02  0.9848632E-01
         21   -1    0    0  501  502  0.00000000000E+00  0.00000000000E+00  0.92588456248E+03  0.92588456248E+03  0.00000000000E+00 0. -1.
         -4   -1    0    0    0  501 -0.00000000000E+00 -0.00000000000E+00 -0.37921029833E+03  0.37921029833E+03  0.00000000000E+00 0. -1.
   -9000010    2    1    2    0  502 -0.14545064161E+03 -0.26868008835E+02  0.55142847004E+03  0.11571070482E+04  0.10064519782E+04 0.  0.
         13    1    3    3    0    0  0.18392316412E+03 -0.16357293295E+02 -0.23824942515E+03  0.30142675908E+03  0.10566000000E+00 0. -1.
         -4    1    3    3    0  502 -0.32937380572E+03 -0.10510715540E+02  0.78967789519E+03  0.85568028912E+03  0.00000000000E+00 0. -1.
        -13    1    1    2    0    0  0.14545064161E+03  0.26868008835E+02 -0.47542058914E+01  0.14798781261E+03  0.10566000000E+00 0.  1.
<mgrwt>
<rscale>  1 0.62816722E+03</rscale>
<asrwt>0</asrwt>
<pdfrwt beam="1">  1       21 0.14244378E+00 0.10172627E+04</pdfrwt>
<pdfrwt beam="2">  1       -4 0.58340046E-01 0.10172627E+04</pdfrwt>
<totfact> 0.34609481E+01</totfact>
</mgrwt>
</event>
<event>
 6    2  0.2220137E-005  0.9656715E+03  0.7818608E-02  0.9692985E-01
         -4   -1    0    0    0  501 -0.00000000000E+00  0.00000000000E+00  0.21134733978E+04  0.21134733978E+04  0.00000000000E+00 0. -1.
         21   -1    0    0  501  502  0.00000000000E+00 -0.00000000000E+00 -0.19811764303E+03  0.19811764303E+03  0.00000000000E+00 0. -1.
   -9000010    2    1    2    0  502 -0.25190544473E+03  0.14203270081E+03  0.12020742152E+04  0.15419156501E+04  0.92135325044E+03 0.  0.
         13    1    3    3    0    0 -0.16610435647E+03  0.45735628023E+03  0.10946473177E+04  0.11979224455E+04  0.10566000000E+00 0. -1.
         -4    1    3    3    0  502 -0.85801088261E+02 -0.31532357943E+03  0.10742689754E+03  0.34399320459E+03  0.00000000000E+00 0. -1.
        -13    1    1    2    0    0  0.25190544473E+03 -0.14203270081E+03  0.71328153955E+03  0.76967539067E+03  0.10566000000E+00 0.  1.
<mgrwt>
<rscale>  1 0.71435995E+03</rscale>
<asrwt>0</asrwt>
<pdfrwt beam="2">  1       21 0.30479639E-01 0.96567150E+03</pdfrwt>
<pdfrwt beam="1">  1       -4 0.32514974E+00 0.96567150E+03</pdfrwt>
<totfact> 0.92029821E+00</totfact>
</mgrwt>
</event>
<event>
 6    2  0.2220137E-005  0.1010377E+04  0.7818608E-02  0.9928817E-01
         -4   -1    0    0    0  501 -0.00000000000E+00  0.00000000000E+00  0.49425899392E+03  0.49425899392E+03  0.00000000000E+00 0. -1.
         21   -1    0    0  501  502  0.00000000000E+00 -0.00000000000E+00 -0.85207353203E+03  0.85207353203E+03  0.00000000000E+00 0. -1.
   -9000010    2    1    2    0  502 -0.11155726807E+03 -0.33793738877E+02 -0.52802796034E+03  0.11400325959E+04  0.10036302865E+04 0.  0.
         13    1    3    3    0    0 -0.55028547597E+02  0.46852745596E+03 -0.11078110877E+03  0.48458083253E+03  0.10566000000E+00 0. -1.
         -4    1    3    3    0  502 -0.56528720473E+02 -0.50232119483E+03 -0.41724685157E+03  0.65545176341E+03  0.00000000000E+00 0. -1.
        -13    1    1    2    0    0  0.11155726807E+03  0.33793738877E+02  0.17021342223E+03  0.20629993000E+03  0.10566000000E+00 0.  1.
<mgrwt>
<rscale>  1 0.58884786E+03</rscale>
<asrwt>0</asrwt>
<pdfrwt beam="2">  1       21 0.13108824E+00 0.10103766E+04</pdfrwt>
<pdfrwt beam="1">  1       -4 0.76039845E-01 0.10103766E+04</pdfrwt>
<totfact> 0.24067993E+01</totfact>
</mgrwt>
</event>
<event>
 6    2  0.2220137E-005  0.1008663E+04  0.7818608E-02  0.9823138E-01
         21   -1    0    0  501  502  0.00000000000E+00  0.00000000000E+00  0.23893908118E+03  0.23893908118E+03  0.00000000000E+00 0. -1.
         -4   -1    0    0    0  501 -0.00000000000E+00 -0.00000000000E+00 -0.18640059446E+04  0.18640059446E+04  0.00000000000E+00 0. -1.
   -9000010    2    1    2    0  502 -0.28755128008E+02 -0.16234808365E+03 -0.87602538766E+03  0.13359724701E+04  0.99509708233E+03 0.  0.
         13    1    3    3    0    0  0.30586451024E+03 -0.95317316597E+02  0.72025895064E+02  0.32836904573E+03  0.10566000000E+00 0. -1.
         -4    1    3    3    0  502 -0.33461963825E+03 -0.67030767051E+02 -0.94805128272E+03  0.10076034243E+04  0.00000000000E+00 0. -1.
        -13    1    1    2    0    0  0.28755128008E+02  0.16234808365E+03 -0.74904147572E+03  0.76697255568E+03  0.10566000000E+00 0.  1.
<mgrwt>
<rscale>  1 0.64135491E+03</rscale>
<asrwt>0</asrwt>
<pdfrwt beam="1">  1       21 0.36759859E-01 0.10086635E+04</pdfrwt>
<pdfrwt beam="2">  1       -4 0.28677015E+00 0.10086635E+04</pdfrwt>
<totfact> 0.10808489E+01</totfact>
</mgrwt>
</event>
<event>
 6    2  0.2220137E-005  0.1214916E+04  0.7818608E-02  0.9245839E-01
         21   -1    0    0  501  502  0.00000000000E+00  0.00000000000E+00  0.16723417595E+04  0.16723417595E+04  0.00000000000E+00 0.  1.
         -4   -1    0    0    0  501 -0.00000000000E+00 -0.00000000000E+00 -0.59767099952E+03  0.59767099952E+03  0.00000000000E+00 0. -1.
   -9000010    2    1    2    0  502  0.66734040346E+03 -0.21800822949E+03  0.35751350547E+03  0.12664265190E+04  0.99153891469E+03 0.  0.
         13    1    3    3    0    0  0.20355187899E+03 -0.58700228800E+03  0.20804406050E+03  0.65520027155E+03  0.10566000000E+00 0. -1.
         -4    1    3    3    0  502  0.46378852447E+03  0.36899405852E+03  0.14946944496E+03  0.61122624750E+03  0.00000000000E+00 0. -1.
        -13    1    1    2    0    0 -0.66734040346E+03  0.21800822949E+03  0.71715725456E+03  0.10035862400E+04  0.10566000000E+00 0.  1.
<mgrwt>
<rscale>  1 0.10592569E+04</rscale>
<asrwt>0</asrwt>
<pdfrwt beam="1">  1       21 0.25728335E+00 0.12149157E+04</pdfrwt>
<pdfrwt beam="2">  1       -4 0.91949385E-01 0.12149157E+04</pdfrwt>
<totfact> 0.18670862E+00</totfact>
</mgrwt>
</event>
<event>
 6    2  0.2220137E-005  0.9951256E+03  0.7818608E-02  0.9836898E-01
         -4   -1    0    0    0  501 -0.00000000000E+00  0.00000000000E+00  0.53604296163E+03  0.53604296163E+03  0.00000000000E+00 0. -1.
         21   -1    0    0  501  502  0.00000000000E+00 -0.00000000000E+00 -0.91856482998E+03  0.91856482998E+03  0.00000000000E+00 0. -1.
   -9000010    2    1    2    0  502 -0.16403594504E+03  0.62621156576E+01 -0.61513843545E+03  0.11699018313E+04  0.98149273806E+03 0.  0.
         13    1    3    3    0    0 -0.14704060260E+03  0.27665727429E+03 -0.78835719837E+03  0.84833205151E+03  0.10566000000E+00 0. -1.
         -4    1    3    3    0  502 -0.16995342448E+02 -0.27039515863E+03  0.17321876292E+03  0.32156977984E+03  0.00000000000E+00 0. -1.
        -13    1    1    2    0    0  0.16403594504E+03 -0.62621156576E+01  0.23261656709E+03  0.28470596026E+03  0.10566000000E+00 0.  1.
<mgrwt>
<rscale>  1 0.63419420E+03</rscale>
<asrwt>0</asrwt>
<pdfrwt beam="2">  1       21 0.14131766E+00 0.99512562E+03</pdfrwt>
<pdfrwt beam="1">  1       -4 0.82468149E-01 0.99512562E+03</pdfrwt>
<totfact> 0.16344318E+01</totfact>
</mgrwt>
</event>
<event>
 6    2  0.2220137E-005  0.9905976E+03  0.7818608E-02  0.9767218E-01
         -4   -1    0    0    0  501 -0.00000000000E+00  0.00000000000E+00  0.92711533651E+03  0.92711533651E+03  0.00000000000E+00 0. -1.
         21   -1    0    0  501  502  0.00000000000E+00 -0.00000000000E+00 -0.39849947961E+03  0.39849947961E+03  0.00000000000E+00 0. -1.
   -9000010    2    1    2    0  502 -0.18231039397E+03  0.10258317244E+03  0.35021277935E+03  0.10506819948E+04  0.96825785629E+03 0.  0.
         13    1    3    3    0    0 -0.39191294257E+03 -0.32659334071E+03  0.14127313827E+03  0.52935533955E+03  0.10566000000E+00 0. -1.
         -4    1    3    3    0  502  0.20960254860E+03  0.42917651315E+03  0.20893964108E+03  0.52132665521E+03  0.00000000000E+00 0. -1.
        -13    1    1    2    0    0  0.18231039397E+03 -0.10258317244E+03  0.17840307755E+03  0.27493282136E+03  0.10566000000E+00 0.  1.
<mgrwt>
<rscale>  1 0.67151872E+03</rscale>
<asrwt>0</asrwt>
<pdfrwt beam="2">  1       21 0.61307612E-01 0.99059763E+03</pdfrwt>
<pdfrwt beam="1">  1       -4 0.14263313E+00 0.99059763E+03</pdfrwt>
<totfact> 0.32823650E+01</totfact>
</mgrwt>
</event>
<event>
 6    2  0.2220137E-005  0.1006731E+04  0.7818608E-02  0.9748378E-01
         -4   -1    0    0    0  501 -0.00000000000E+00  0.00000000000E+00  0.49997964970E+03  0.49997964970E+03  0.00000000000E+00 0. -1.
         21   -1    0    0  501  502  0.00000000000E+00 -0.00000000000E+00 -0.16618682922E+04  0.16618682922E+04  0.00000000000E+00 0. -1.
   -9000010    2    1    2    0  502  0.19372867926E+03  0.86417857050E+02 -0.14736878198E+04  0.17847304730E+04  0.98412815433E+03 0.  0.
         13    1    3    3    0    0 -0.51112620379E+02 -0.43056632857E+03 -0.67712218430E+03  0.80404870928E+03  0.10566000000E+00 0. -1.
         -4    1    3    3    0  502  0.24484129964E+03  0.51698418562E+03 -0.79656563545E+03  0.98068176376E+03  0.00000000000E+00 0. -1.
        -13    1    1    2    0    0 -0.19372867926E+03 -0.86417857050E+02  0.31179917728E+03  0.37711746884E+03  0.10566000000E+00 0.  1.
<mgrwt>
<rscale>  1 0.68207987E+03</rscale>
<asrwt>0</asrwt>
<pdfrwt beam="2">  1       21 0.25567204E+00 0.10067309E+04</pdfrwt>
<pdfrwt beam="1">  1       -4 0.76919948E-01 0.10067309E+04</pdfrwt>
<totfact> 0.29913209E+00</totfact>
</mgrwt>
</event>
<event>
 6    2  0.2220137E-005  0.1101676E+04  0.7818608E-02  0.9806666E-01
         21   -1    0    0  501  502  0.00000000000E+00  0.00000000000E+00  0.73058703799E+03  0.73058703799E+03  0.00000000000E+00 0. -1.
         -4   -1    0    0    0  501 -0.00000000000E+00 -0.00000000000E+00 -0.68211993418E+03  0.68211993418E+03  0.00000000000E+00 0. -1.
   -9000010    2    1    2    0  502  0.10573918941E+03  0.81581341388E+02  0.28778678479E+03  0.11386445481E+04  0.10935510422E+04 0.  0.
         13    1    3    3    0    0 -0.41730293151E+03 -0.26263160690E+02  0.41557908832E+03  0.58952309545E+03  0.10566000000E+00 0. -1.
         -4    1    3    3    0  502  0.52304212091E+03  0.10784450208E+03 -0.12779230353E+03  0.54912145261E+03  0.00000000000E+00 0. -1.
        -13    1    1    2    0    0 -0.10573918941E+03 -0.81581341388E+02 -0.23931968099E+03  0.27406242411E+03  0.10566000000E+00 0.  1.
<mgrwt>
<rscale>  1 0.65006015E+03</rscale>
<asrwt>0</asrwt>
<pdfrwt beam="1">  1       21 0.11239801E+00 0.11016761E+04</pdfrwt>
<pdfrwt beam="2">  1       -4 0.10494153E+00 0.11016761E+04</pdfrwt>
<totfact> 0.16685902E+01</totfact>
</mgrwt>
</event>
<event>
 6    2  0.2220137E-005  0.1004751E+04  0.7818608E-02  0.9982074E-01
         -4   -1    0    0    0  501 -0.00000000000E+00  0.00000000000E+00  0.56589148950E+03  0.56589148950E+03  0.00000000000E+00 0. -1.
         21   -1    0    0  501  502  0.00000000000E+00 -0.00000000000E+00 -0.68964766377E+03  0.68964766377E+03  0.00000000000E+00 0. -1.
   -9000010    2    1    2    0  502 -0.43636366082E+02  0.90047123033E+02 -0.30369828544E+03  0.10496464838E+04  0.99975620804E+03 0.  0.
         13    1    3    3    0    0  0.30291255156E+03 -0.50856920292E+02  0.23991690914E+03  0.38974680844E+03  0.10566000000E+00 0. -1.
         -4    1    3    3    0  502 -0.34654891764E+03  0.14090404333E+03 -0.54361519458E+03  0.65989967534E+03  0.00000000000E+00 0. -1.
        -13    1    1    2    0    0  0.43636366082E+02 -0.90047123033E+02  0.17994211117E+03  0.20589266948E+03  0.10566000000E+00 0.  1.
<mgrwt>
<rscale>  1 0.56443304E+03</rscale>
<asrwt>0</asrwt>
<pdfrwt beam="2">  1       21 0.10609964E+00 0.10047513E+04</pdfrwt>
<pdfrwt beam="1">  1       -4 0.87060229E-01 0.10047513E+04</pdfrwt>
<totfact> 0.30445335E+01</totfact>
</mgrwt>
</event>
<event>
 6    2  0.2220137E-005  0.9103674E+03  0.7818608E-02  0.9878558E-01
         -4   -1    0    0    0  501 -0.00000000000E+00  0.00000000000E+00  0.41336910847E+03  0.41336910847E+03  0.00000000000E+00 0. -1.
         21   -1    0    0  501  502  0.00000000000E+00 -0.00000000000E+00 -0.89245105229E+03  0.89245105229E+03  0.00000000000E+00 0. -1.
   -9000010    2    1    2    0  502  0.18479741696E+03  0.30483651080E+02 -0.59312338686E+03  0.10865376941E+04  0.89089251333E+03 0.  0.
         13    1    3    3    0    0 -0.27847965515E+03 -0.18457328988E+03 -0.44635229046E+02  0.33706161530E+03  0.10566000000E+00 0. -1.
         -4    1    3    3    0  502  0.46327707212E+03  0.21505694096E+03 -0.54848815782E+03  0.74947607878E+03  0.00000000000E+00 0. -1.
        -13    1    1    2    0    0 -0.18479741696E+03 -0.30483651080E+02  0.11404144304E+03  0.21928246668E+03  0.10566000000E+00 0.  1.
<mgrwt>
<rscale>  1 0.61311786E+03</rscale>
<asrwt>0</asrwt>
<pdfrwt beam="2">  1       21 0.13730016E+00 0.91036740E+03</pdfrwt>
<pdfrwt beam="1">  1       -4 0.63595247E-01 0.91036740E+03</pdfrwt>
<totfact> 0.32041707E+01</totfact>
</mgrwt>
</event>
<event>
 6    2  0.2220137E-005  0.1006492E+04  0.7818608E-02  0.9995231E-01
         -4   -1    0    0    0  501 -0.00000000000E+00  0.00000000000E+00  0.50359957179E+03  0.50359957179E+03  0.00000000000E+00 0. -1.
         21   -1    0    0  501  502  0.00000000000E+00 -0.00000000000E+00 -0.13141566784E+04  0.13141566784E+04  0.00000000000E+00 0. -1.
   -9000010    2    1    2    0  502  0.19139794454E+02  0.93554546465E+02 -0.11129989771E+04  0.15005971716E+04  0.10019512780E+04 0.  0.
         13    1    3    3    0    0 -0.14054549515E+03  0.41780232127E+03 -0.10431638418E+04  0.11324763255E+04  0.10566000000E+00 0. -1.
         -4    1    3    3    0  502  0.15968528960E+03 -0.32424777481E+03 -0.69835135294E+02  0.36812084606E+03  0.00000000000E+00 0. -1.
        -13    1    1    2    0    0 -0.19139794454E+02 -0.93554546465E+02  0.30244187053E+03  0.31715907855E+03  0.10566000000E+00 0.  1.
<mgrwt>
<rscale>  1 0.55859851E+03</rscale>
<asrwt>0</asrwt>
<pdfrwt beam="2">  1       21 0.20217795E+00 0.10064915E+04</pdfrwt>
<pdfrwt beam="1">  1       -4 0.77476859E-01 0.10064915E+04</pdfrwt>
<totfact> 0.65846937E+00</totfact>
</mgrwt>
</event>
<event>
 6    2  0.2220137E-005  0.1045124E+04  0.7818608E-02  0.9562406E-01
         -4   -1    0    0    0  501 -0.00000000000E+00  0.00000000000E+00  0.42752941356E+03  0.42752941356E+03  0.00000000000E+00 0. -1.
         21   -1    0    0  501  502  0.00000000000E+00 -0.00000000000E+00 -0.13633758961E+04  0.13633758961E+04  0.00000000000E+00 0. -1.
   -9000010    2    1    2    0  502  0.16115522969E+03  0.31727273888E+03 -0.97950654295E+03  0.14323816550E+04  0.98267550038E+03 0.  0.
         13    1    3    3    0    0 -0.21288993945E+02 -0.30882580603E+03 -0.77130884360E+02  0.31902317191E+03  0.10566000000E+00 0. -1.
         -4    1    3    3    0  502  0.18244422364E+03  0.62609854491E+03 -0.90237565859E+03  0.11133584831E+04  0.00000000000E+00 0. -1.
        -13    1    1    2    0    0 -0.16115522969E+03 -0.31727273888E+03  0.43660060426E+02  0.35852365464E+03  0.10566000000E+00 0.  1.
<mgrwt>
<rscale>  1 0.79835165E+03</rscale>
<asrwt>0</asrwt>
<pdfrwt beam="2">  1       21 0.20975014E+00 0.10451240E+04</pdfrwt>
<pdfrwt beam="1">  1       -4 0.65773755E-01 0.10451240E+04</pdfrwt>
<totfact> 0.84086627E+00</totfact>
</mgrwt>
</event>
<event>
 6    2  0.2220137E-005  0.9637214E+03  0.7818608E-02  0.1013205E+00
         21   -1    0    0  501  502  0.00000000000E+00  0.00000000000E+00  0.59141781325E+03  0.59141781325E+03  0.00000000000E+00 0. -1.
         -4   -1    0    0    0  501 -0.00000000000E+00 -0.00000000000E+00 -0.48785987448E+03  0.48785987448E+03  0.00000000000E+00 0. -1.
   -9000010    2    1    2    0  502  0.62108206339E+02 -0.34540261542E+02  0.17389970426E+03  0.97928551755E+03  0.96109758026E+03 0.  0.
         13    1    3    3    0    0 -0.24796018015E+03 -0.38969468376E+03 -0.35822492229E+02  0.46328118848E+03  0.10566000000E+00 0. -1.
         -4    1    3    3    0  502  0.31006838649E+03  0.35515442222E+03  0.20972219649E+03  0.51600432907E+03  0.00000000000E+00 0. -1.
        -13    1    1    2    0    0 -0.62108206339E+02  0.34540261542E+02 -0.70341765486E+02  0.99992170182E+02  0.10566000000E+00 0.  1.
<mgrwt>
<rscale>  1 0.50220394E+03</rscale>
<asrwt>0</asrwt>
<pdfrwt beam="1">  1       21 0.90987356E-01 0.96372144E+03</pdfrwt>
<pdfrwt beam="2">  1       -4 0.75055366E-01 0.96372144E+03</pdfrwt>
<totfact> 0.62809989E+01</totfact>
</mgrwt>
</event>
<event>
 6    2  0.2220137E-005  0.9580385E+03  0.7818608E-02  0.9820358E-01
         -4   -1    0    0    0  501 -0.00000000000E+00  0.00000000000E+00  0.65489269180E+03  0.65489269180E+03  0.00000000000E+00 0. -1.
         21   -1    0    0  501  502  0.00000000000E+00 -0.00000000000E+00 -0.52487990723E+03  0.52487990723E+03  0.00000000000E+00 0. -1.
   -9000010    2    1    2    0  502  0.13746281780E+03 -0.13714050636E+03  0.23550733190E+02  0.95832796869E+03  0.93815473872E+03 0.  0.
         13    1    3    3    0    0 -0.36967842370E+03 -0.19078516507E+03  0.13299061939E+03  0.43674664529E+03  0.10566000000E+00 0. -1.
         -4    1    3    3    0  502  0.50714124150E+03  0.53644658707E+02 -0.10943988620E+03  0.52158132341E+03  0.00000000000E+00 0. -1.
        -13    1    1    2    0    0 -0.13746281780E+03  0.13714050636E+03  0.10646205138E+03  0.22144463034E+03  0.10566000000E+00 0.  1.
<mgrwt>
<rscale>  1 0.64281356E+03</rscale>
<asrwt>0</asrwt>
<pdfrwt beam="2">  1       21 0.80750755E-01 0.95803855E+03</pdfrwt>
<pdfrwt beam="1">  1       -4 0.10075272E+00 0.95803855E+03</pdfrwt>
<totfact> 0.41995553E+01</totfact>
</mgrwt>
</event>
<event>
 6    2  0.2220137E-005  0.1168887E+04  0.7818608E-02  0.9300064E-01
         -4   -1    0    0    0  501 -0.00000000000E+00  0.00000000000E+00  0.88194892236E+03  0.88194892236E+03  0.00000000000E+00 0. -1.
         21   -1    0    0  501  502  0.00000000000E+00 -0.00000000000E+00 -0.11420919698E+04  0.11420919698E+04  0.00000000000E+00 0. -1.
   -9000010    2    1    2    0  502 -0.60344927498E+03  0.23014070466E+03 -0.57825874011E+03  0.13041010499E+04  0.97425900373E+03 0.  0.
         13    1    3    3    0    0  0.10169105849E+03  0.42522401888E+03 -0.21085156863E+03  0.48540182608E+03  0.10566000000E+00 0. -1.
         -4    1    3    3    0  502 -0.70514033347E+03 -0.19508331422E+03 -0.36740717148E+03  0.81869922379E+03  0.00000000000E+00 0. -1.
        -13    1    1    2    0    0  0.60344927498E+03 -0.23014070466E+03  0.31811569269E+03  0.71993984229E+03  0.10566000000E+00 0.  1.
<mgrwt>
<rscale>  1 0.10077700E+04</rscale>
<asrwt>0</asrwt>
<pdfrwt beam="2">  1       21 0.17570646E+00 0.11688868E+04</pdfrwt>
<pdfrwt beam="1">  1       -4 0.13568445E+00 0.11688868E+04</pdfrwt>
<totfact> 0.25417695E+00</totfact>
</mgrwt>
</event>
<event>
 6    2  0.2220137E-005  0.1012649E+04  0.7818608E-02  0.9795563E-01
         -4   -1    0    0    0  501 -0.00000000000E+00  0.00000000000E+00  0.78203721368E+03  0.78203721368E+03  0.00000000000E+00 0. -1.
         21   -1    0    0  501  502  0.00000000000E+00 -0.00000000000E+00 -0.48518016878E+03  0.48518016878E+03  0.00000000000E+00 0. -1.
   -9000010    2    1    2    0  502 -0.11569151928E+03 -0.13573421606E+03  0.12639360636E+03  0.10205068231E+04  0.99682020811E+03 0.  0.
         13    1    3    3    0    0  0.36977609788E+03 -0.24409690304E+03 -0.12884206247E+03  0.46143032937E+03  0.10566000000E+00 0. -1.
         -4    1    3    3    0  502 -0.48546761716E+03  0.10836268698E+03  0.25523566883E+03  0.55907649377E+03  0.00000000000E+00 0. -1.
        -13    1    1    2    0    0  0.11569151928E+03  0.13573421606E+03  0.17046343854E+03  0.24671055933E+03  0.10566000000E+00 0.  1.
<mgrwt>
<rscale>  1 0.65601221E+03</rscale>
<asrwt>0</asrwt>
<pdfrwt beam="2">  1       21 0.74643103E-01 0.10126494E+04</pdfrwt>
<pdfrwt beam="1">  1       -4 0.12031342E+00 0.10126494E+04</pdfrwt>
<totfact> 0.32448347E+01</totfact>
</mgrwt>
</event>
<event>
 6    2  0.2220137E-005  0.1006455E+04  0.7818608E-02  0.9741873E-01
         -4   -1    0    0    0  501 -0.00000000000E+00  0.00000000000E+00  0.11765996297E+04  0.11765996297E+04  0.00000000000E+00 0. -1.
         21   -1    0    0  501  502  0.00000000000E+00 -0.00000000000E+00 -0.35588277096E+03  0.35588277096E+03  0.00000000000E+00 0. -1.
   -9000010    2    1    2    0  502 -0.21643292742E+03 -0.14853969085E+02  0.44894988263E+03  0.11020470999E+04  0.98279599142E+03 0.  0.
         13    1    3    3    0    0  0.23900533033E+03  0.21205804978E+03 -0.11766213694E+03  0.34049457270E+03  0.10566000000E+00 0. -1.
         -4    1    3    3    0  502 -0.45543825775E+03 -0.22691201886E+03  0.56661201958E+03  0.76155252718E+03  0.00000000000E+00 0. -1.
        -13    1    1    2    0    0  0.21643292742E+03  0.14853969085E+02  0.37176697612E+03  0.43043530079E+03  0.10566000000E+00 0.  1.
<mgrwt>
<rscale>  1 0.68577515E+03</rscale>
<asrwt>0</asrwt>
<pdfrwt beam="2">  1       21 0.54751196E-01 0.10064551E+04</pdfrwt>
<pdfrwt beam="1">  1       -4 0.18101533E+00 0.10064551E+04</pdfrwt>
<totfact> 0.21809969E+01</totfact>
</mgrwt>
</event>
<event>
 6    2  0.2220137E-005  0.1049813E+04  0.7818608E-02  0.9590579E-01
         -4   -1    0    0    0  501 -0.00000000000E+00  0.00000000000E+00  0.65530277188E+03  0.65530277188E+03  0.00000000000E+00 0. -1.
         21   -1    0    0  501  502  0.00000000000E+00 -0.00000000000E+00 -0.79995663682E+03  0.79995663682E+03  0.00000000000E+00 0. -1.
   -9000010    2    1    2    0  502 -0.22025439127E+03  0.23028371011E+03 -0.31218340406E+03  0.10952472677E+04  0.10002827179E+04 0.  0.
         13    1    3    3    0    0 -0.36520178876E+03  0.22381318996E+03 -0.62079954851E+03  0.75422594831E+03  0.10566000000E+00 0. -1.
         -4    1    3    3    0  502  0.14494739749E+03  0.64705201482E+01  0.30861614445E+03  0.34102131940E+03  0.00000000000E+00 0. -1.
        -13    1    1    2    0    0  0.22025439127E+03 -0.23028371011E+03  0.16752953912E+03  0.36001214098E+03  0.10566000000E+00 0.  1.
<mgrwt>
<rscale>  1 0.77922900E+03</rscale>
<asrwt>0</asrwt>
<pdfrwt beam="2">  1       21 0.12307025E+00 0.10498134E+04</pdfrwt>
<pdfrwt beam="1">  1       -4 0.10081581E+00 0.10498134E+04</pdfrwt>
<totfact> 0.14629676E+01</totfact>
</mgrwt>
</event>
<event>
 6    2  0.2220137E-005  0.1191145E+04  0.7818608E-02  0.9278032E-01
         -4   -1    0    0    0  501 -0.00000000000E+00  0.00000000000E+00  0.85376997877E+03  0.85376997877E+03  0.00000000000E+00 0. -1.
         21   -1    0    0  501  502  0.00000000000E+00 -0.00000000000E+00 -0.10800929721E+04  0.10800929721E+04  0.00000000000E+00 0.  1.
   -9000010    2    1    2    0  502 -0.46430962034E+03 -0.47130857197E+03 -0.38808917940E+03  0.12527730128E+04  0.99051088680E+03 0.  0.
         13    1    3    3    0    0  0.88010877687E+02 -0.26935687133E+03  0.25508528383E+03  0.38127096915E+03  0.10566000000E+00 0. -1.
         -4    1    3    3    0  502 -0.55232049803E+03 -0.20195170065E+03 -0.64317446323E+03  0.87150204365E+03  0.00000000000E+00 0. -1.
        -13    1    1    2    0    0  0.46430962034E+03  0.47130857197E+03  0.16176618611E+03  0.68108993803E+03  0.10566000000E+00 0.  1.
<mgrwt>
<rscale>  1 0.10283063E+04</rscale>
<asrwt>0</asrwt>
<pdfrwt beam="2">  1       21 0.16616815E+00 0.11911453E+04</pdfrwt>
<pdfrwt beam="1">  1       -4 0.13134923E+00 0.11911453E+04</pdfrwt>
<totfact> 0.32507973E+00</totfact>
</mgrwt>
</event>
<event>
 6    2  0.2220137E-005  0.9976006E+03  0.7818608E-02  0.9741065E-01
         21   -1    0    0  501  502  0.00000000000E+00  0.00000000000E+00  0.70194759609E+03  0.70194759609E+03  0.00000000000E+00 0. -1.
         -4   -1    0    0    0  501 -0.00000000000E+00 -0.00000000000E+00 -0.63678750541E+03  0.63678750541E+03  0.00000000000E+00 0. -1.
   -9000010    2    1    2    0  502 -0.11644726350E+03  0.19061443558E+03  0.27230747295E+03  0.10340978133E+04  0.97227213238E+03 0.  0.
         13    1    3    3    0    0  0.25735568055E+03 -0.16117355717E+03 -0.17738252658E+03  0.35167233861E+03  0.10566000000E+00 0. -1.
         -4    1    3    3    0  502 -0.37380294405E+03  0.35178799275E+03  0.44968999953E+03  0.68242547468E+03  0.00000000000E+00 0. -1.
        -13    1    1    2    0    0  0.11644726350E+03 -0.19061443558E+03 -0.20714738226E+03  0.30463728822E+03  0.10566000000E+00 0.  1.
<mgrwt>
<rscale>  1 0.68623583E+03</rscale>
<asrwt>0</asrwt>
<pdfrwt beam="1">  1       21 0.10799194E+00 0.99760059E+03</pdfrwt>
<pdfrwt beam="2">  1       -4 0.97967308E-01 0.99760059E+03</pdfrwt>
<totfact> 0.22038798E+01</totfact>
</mgrwt>
</event>
<event>
 6    2  0.2220137E-005  0.1019154E+04  0.7818608E-02  0.9810130E-01
         21   -1    0    0  501  502  0.00000000000E+00  0.00000000000E+00  0.15107503547E+04  0.15107503547E+04  0.00000000000E+00 0. -1.
         -4   -1    0    0    0  501 -0.00000000000E+00 -0.00000000000E+00 -0.23551092329E+03  0.23551092329E+03  0.00000000000E+00 0. -1.
   -9000010    2    1    2    0  502  0.17226206868E+02 -0.16589501202E+03  0.10242588364E+04  0.14449156833E+04  0.10054139797E+04 0.  0.
         13    1    3    3    0    0  0.22159925242E+03 -0.50117847924E+03  0.85897781177E+03  0.10188861512E+04  0.10566000000E+00 0. -1.
         -4    1    3    3    0  502 -0.20437304555E+03  0.33528346723E+03  0.16528102462E+03  0.42602953213E+03  0.00000000000E+00 0. -1.
        -13    1    1    2    0    0 -0.17226206868E+02  0.16589501202E+03  0.25098059499E+03  0.30134559469E+03  0.10566000000E+00 0.  1.
<mgrwt>
<rscale>  1 0.64821715E+03</rscale>
<asrwt>0</asrwt>
<pdfrwt beam="1">  1       21 0.23242313E+00 0.10191541E+04</pdfrwt>
<pdfrwt beam="2">  1       -4 0.36232451E-01 0.10191541E+04</pdfrwt>
<totfact> 0.20988630E+01</totfact>
</mgrwt>
</event>
<event>
 6    2  0.2220137E-005  0.1338577E+04  0.7818608E-02  0.9107582E-01
         21   -1    0    0  501  502  0.00000000000E+00  0.00000000000E+00  0.12469978640E+04  0.12469978640E+04  0.00000000000E+00 0.  1.
         -4   -1    0    0    0  501 -0.00000000000E+00 -0.00000000000E+00 -0.11210122306E+04  0.11210122306E+04  0.00000000000E+00 0. -1.
   -9000010    2    1    2    0  502 -0.55390148352E+03  0.68652158153E+03  0.47358349612E+03  0.14198840373E+04  0.10068121057E+04 0.  0.
         13    1    3    3    0    0  0.23863769872E+03  0.38492216444E+03  0.90243694594E+01  0.45298396697E+03  0.10566000000E+00 0. -1.
         -4    1    3    3    0  502 -0.79253918224E+03  0.30159941710E+03  0.46455912666E+03  0.96690007030E+03  0.00000000000E+00 0. -1.
        -13    1    1    2    0    0  0.55390148352E+03 -0.68652158153E+03 -0.34759786274E+03  0.94812605739E+03  0.10566000000E+00 0.  1.
<mgrwt>
<rscale>  1 0.12060445E+04</rscale>
<asrwt>0</asrwt>
<pdfrwt beam="1">  1       21 0.19184582E+00 0.13385774E+04</pdfrwt>
<pdfrwt beam="2">  1       -4 0.17246342E+00 0.13385774E+04</pdfrwt>
<totfact> 0.98878718E-01</totfact>
</mgrwt>
</event>
<event>
 6    2  0.2220137E-005  0.1038154E+04  0.7818608E-02  0.9521191E-01
         -4   -1    0    0    0  501 -0.00000000000E+00  0.00000000000E+00  0.37784537458E+03  0.37784537458E+03  0.00000000000E+00 0. -1.
         21   -1    0    0  501  502  0.00000000000E+00 -0.00000000000E+00 -0.19505010464E+04  0.19505010464E+04  0.00000000000E+00 0. -1.
   -9000010    2    1    2    0  502 -0.19618797521E+03  0.37006760555E+03 -0.16014431344E+04  0.19085030175E+04  0.94990731175E+03 0.  0.
         13    1    3    3    0    0  0.22462707967E+03  0.44295450482E+03 -0.12829888022E+04  0.13757638954E+04  0.10566000000E+00 0. -1.
         -4    1    3    3    0  502 -0.42081505489E+03 -0.72886899280E+02 -0.31845433219E+03  0.53273912209E+03  0.00000000000E+00 0. -1.
        -13    1    1    2    0    0  0.19618797521E+03 -0.37006760555E+03  0.28787462539E+02  0.41984340349E+03  0.10566000000E+00 0.  1.
<mgrwt>
<rscale>  1 0.82739393E+03</rscale>
<asrwt>0</asrwt>
<pdfrwt beam="2">  1       21 0.30007708E+00 0.10381540E+04</pdfrwt>
<pdfrwt beam="1">  1       -4 0.58130059E-01 0.10381540E+04</pdfrwt>
<totfact> 0.29237456E+00</totfact>
</mgrwt>
</event>
<event>
 6    2  0.2220137E-005  0.1008104E+04  0.7818608E-02  0.9846980E-01
         21   -1    0    0  501  502  0.00000000000E+00  0.00000000000E+00  0.54797799589E+03  0.54797799589E+03  0.00000000000E+00 0. -1.
         -4   -1    0    0    0  501 -0.00000000000E+00 -0.00000000000E+00 -0.64230428027E+03  0.64230428027E+03  0.00000000000E+00 0. -1.
   -9000010    2    1    2    0  502 -0.14160228559E+03  0.57410358003E+02 -0.16570925322E+03  0.10216326515E+04  0.99645700435E+03 0.  0.
         13    1    3    3    0    0 -0.49063454421E+02  0.47125989461E+03 -0.31846694508E+03  0.57088905849E+03  0.10566000000E+00 0. -1.
         -4    1    3    3    0  502 -0.92538831165E+02 -0.41384953661E+03  0.15275769185E+03  0.45074359302E+03  0.00000000000E+00 0. -1.
        -13    1    1    2    0    0  0.14160228559E+03 -0.57410358003E+02  0.71382968844E+02  0.16864962465E+03  0.10566000000E+00 0.  1.
<mgrwt>
<rscale>  1 0.62901114E+03</rscale>
<asrwt>0</asrwt>
<pdfrwt beam="1">  1       21 0.84304307E-01 0.10081040E+04</pdfrwt>
<pdfrwt beam="2">  1       -4 0.98816043E-01 0.10081040E+04</pdfrwt>
<totfact> 0.39570321E+01</totfact>
</mgrwt>
</event>
<event>
 6    2  0.2220137E-005  0.1053240E+04  0.7818608E-02  0.9534216E-01
         21   -1    0    0  501  502  0.00000000000E+00  0.00000000000E+00  0.79762555645E+03  0.79762555645E+03  0.00000000000E+00 0. -1.
         -4   -1    0    0    0  501 -0.00000000000E+00 -0.00000000000E+00 -0.65120347658E+03  0.65120347658E+03  0.00000000000E+00 0. -1.
   -9000010    2    1    2    0  502  0.24740226637E+03  0.29282560645E+03  0.15955933735E+03  0.10652572459E+04  0.98099903189E+03 0.  0.
         13    1    3    3    0    0  0.40182725454E+03 -0.13687767659E+02 -0.29283873391E+03  0.49740027414E+03  0.10566000000E+00 0. -1.
         -4    1    3    3    0  502 -0.15442498817E+03  0.30651337411E+03  0.45239807126E+03  0.56785697174E+03  0.00000000000E+00 0. -1.
        -13    1    1    2    0    0 -0.24740226637E+03 -0.29282560645E+03 -0.13137257476E+02  0.38357178715E+03  0.10566000000E+00 0.  1.
<mgrwt>
<rscale>  1 0.81807544E+03</rscale>
<asrwt>0</asrwt>
<pdfrwt beam="1">  1       21 0.12271162E+00 0.10532397E+04</pdfrwt>
<pdfrwt beam="2">  1       -4 0.10018515E+00 0.10532397E+04</pdfrwt>
<totfact> 0.14962758E+01</totfact>
</mgrwt>
</event>
<event>
 6    2  0.2220137E-005  0.1064034E+04  0.7818608E-02  0.9672461E-01
         21   -1    0    0  501  502  0.00000000000E+00  0.00000000000E+00  0.24977671757E+03  0.24977671757E+03  0.00000000000E+00 0. -1.
         -4   -1    0    0    0  501 -0.00000000000E+00 -0.00000000000E+00 -0.22682193253E+04  0.22682193253E+04  0.00000000000E+00 0. -1.
   -9000010    2    1    2    0  502  0.13590717418E+03  0.18757280659E+03 -0.95543315915E+03  0.14300422678E+04  0.10385153096E+04 0.  0.
         13    1    3    3    0    0  0.20255897534E+03 -0.11461774405E+03  0.15346087821E+03  0.27877879770E+03  0.10566000000E+00 0. -1.
         -4    1    3    3    0  502 -0.66651801160E+02  0.30219055064E+03 -0.11088940374E+04  0.11512634701E+04  0.00000000000E+00 0. -1.
        -13    1    1    2    0    0 -0.13590717418E+03 -0.18757280659E+03 -0.10630094486E+04  0.10879537751E+04  0.10566000000E+00 0.  1.
<mgrwt>
<rscale>  1 0.72680386E+03</rscale>
<asrwt>0</asrwt>
<pdfrwt beam="1">  1       21 0.38427189E-01 0.10640340E+04</pdfrwt>
<pdfrwt beam="2">  1       -4 0.34895680E+00 0.10640340E+04</pdfrwt>
<totfact> 0.39767999E+00</totfact>
</mgrwt>
</event>
<event>
 6    2  0.2220137E-005  0.1004320E+04  0.7818608E-02  0.9664916E-01
         21   -1    0    0  501  502  0.00000000000E+00  0.00000000000E+00  0.34609271689E+03  0.34609271689E+03  0.00000000000E+00 0. -1.
         -4   -1    0    0    0  501 -0.00000000000E+00 -0.00000000000E+00 -0.16328798108E+04  0.16328798108E+04  0.00000000000E+00 0. -1.
   -9000010    2    1    2    0  502  0.28249462578E+03 -0.61965481593E+01 -0.45890384982E+03  0.11041969634E+04  0.96375130604E+03 0.  0.
         13    1    3    3    0    0 -0.33264083775E+03 -0.47335247838E+01  0.66605531994E+01  0.33274120173E+03  0.10566000000E+00 0. -1.
         -4    1    3    3    0  502  0.61513546353E+03 -0.14630233755E+01 -0.46556440302E+03  0.77145576172E+03  0.00000000000E+00 0. -1.
        -13    1    1    2    0    0 -0.28249462578E+03  0.61965481593E+01 -0.82788324411E+03  0.87477556428E+03  0.10566000000E+00 0.  1.
<mgrwt>
<rscale>  1 0.73144669E+03</rscale>
<asrwt>0</asrwt>
<pdfrwt beam="1">  1       21 0.53245033E-01 0.10043198E+04</pdfrwt>
<pdfrwt beam="2">  1       -4 0.25121228E+00 0.10043198E+04</pdfrwt>
<totfact> 0.81500877E+00</totfact>
</mgrwt>
</event>
<event>
 6    2  0.2220137E-005  0.1014051E+04  0.7818608E-02  0.9712088E-01
         -4   -1    0    0    0  501 -0.00000000000E+00  0.00000000000E+00  0.43900311746E+03  0.43900311746E+03  0.00000000000E+00 0. -1.
         21   -1    0    0  501  502  0.00000000000E+00 -0.00000000000E+00 -0.89666110840E+03  0.89666110840E+03  0.00000000000E+00 0.  1.
   -9000010    2    1    2    0  502 -0.21731419357E+03 -0.87453581915E+02 -0.42351354694E+03  0.10989377129E+04  0.98662393274E+03 0.  0.
         13    1    3    3    0    0 -0.50367789338E+02 -0.49321390983E+03 -0.43567415574E+03  0.66000670920E+03  0.10566000000E+00 0. -1.
         -4    1    3    3    0  502 -0.16694640423E+03  0.40576032791E+03  0.12160608797E+02  0.43893100369E+03  0.00000000000E+00 0. -1.
        -13    1    1    2    0    0  0.21731419357E+03  0.87453581915E+02 -0.34144444002E+02  0.23672651296E+03  0.10566000000E+00 0.  1.
<mgrwt>
<rscale>  1 0.70301635E+03</rscale>
<asrwt>0</asrwt>
<pdfrwt beam="2">  1       21 0.13794786E+00 0.10140515E+04</pdfrwt>
<pdfrwt beam="1">  1       -4 0.67538942E-01 0.10140515E+04</pdfrwt>
<totfact> 0.27398052E+01</totfact>
</mgrwt>
</event>
<event>
 6    2  0.2220137E-005  0.1129734E+04  0.7818608E-02  0.9475725E-01
         21   -1    0    0  501  502  0.00000000000E+00  0.00000000000E+00  0.16120767202E+04  0.16120767202E+04  0.00000000000E+00 0. -1.
         -4   -1    0    0    0  501 -0.00000000000E+00 -0.00000000000E+00 -0.35451334228E+03  0.35451334228E+03  0.00000000000E+00 0. -1.
   -9000010    2    1    2    0  502  0.39252328214E+02  0.37906691696E+03  0.90689797902E+03  0.14487110168E+04  0.10635164282E+04 0.  0.
         13    1    3    3    0    0 -0.50320598879E+03  0.24318064404E+03  0.34964971290E+03  0.65924807598E+03  0.10566000000E+00 0. -1.
         -4    1    3    3    0  502  0.54245831700E+03  0.13588627292E+03  0.55724826612E+03  0.78946294083E+03  0.00000000000E+00 0. -1.
        -13    1    1    2    0    0 -0.39252328214E+02 -0.37906691696E+03  0.35066539892E+03  0.51787904569E+03  0.10566000000E+00 0.  1.
<mgrwt>
<rscale>  1 0.86097446E+03</rscale>
<asrwt>0</asrwt>
<pdfrwt beam="1">  1       21 0.24801180E+00 0.11297343E+04</pdfrwt>
<pdfrwt beam="2">  1       -4 0.54540515E-01 0.11297343E+04</pdfrwt>
<totfact> 0.70239265E+00</totfact>
</mgrwt>
</event>
<event>
 6    2  0.2220137E-005  0.1056016E+04  0.7818608E-02  0.9567145E-01
         21   -1    0    0  501  502  0.00000000000E+00  0.00000000000E+00  0.95387890193E+03  0.95387890193E+03  0.00000000000E+00 0. -1.
         -4   -1    0    0    0  501 -0.00000000000E+00 -0.00000000000E+00 -0.73455769068E+03  0.73455769068E+03  0.00000000000E+00 0. -1.
   -9000010    2    1    2    0  502 -0.31447485267E+03 -0.12756342095E+03  0.57034251014E+03  0.12001919585E+04  0.10000016495E+04 0.  0.
         13    1    3    3    0    0  0.28626692052E+03  0.12006351267E+03 -0.34672485118E+02  0.31235586955E+03  0.10566000000E+00 0. -1.
         -4    1    3    3    0  502 -0.60074177318E+03 -0.24762693362E+03  0.60501499526E+03  0.88783608892E+03  0.00000000000E+00 0. -1.
        -13    1    1    2    0    0  0.31447485267E+03  0.12756342095E+03 -0.35102129889E+03  0.48824463414E+03  0.10566000000E+00 0.  1.
<mgrwt>
<rscale>  1 0.79509473E+03</rscale>
<asrwt>0</asrwt>
<pdfrwt beam="1">  1       21 0.14675060E+00 0.10560162E+04</pdfrwt>
<pdfrwt beam="2">  1       -4 0.11300888E+00 0.10560162E+04</pdfrwt>
<totfact> 0.68823098E+00</totfact>
</mgrwt>
</event>
<event>
 6    2  0.2220137E-005  0.1321283E+04  0.7818608E-02  0.9148338E-01
         -4   -1    0    0    0  501 -0.00000000000E+00  0.00000000000E+00  0.58101351450E+03  0.58101351450E+03  0.00000000000E+00 0. -1.
         21   -1    0    0  501  502  0.00000000000E+00 -0.00000000000E+00 -0.19481360549E+04  0.19481360549E+04  0.00000000000E+00 0.  1.
   -9000010    2    1    2    0  502  0.56671250128E+03 -0.54428519651E+03 -0.10245153461E+04  0.16719511472E+04  0.10622520935E+04 0.  0.
         13    1    3    3    0    0  0.72886620946E+03 -0.91441709483E+01 -0.39176335364E+03  0.82753133087E+03  0.10566000000E+00 0. -1.
         -4    1    3    3    0  502 -0.16215370818E+03 -0.53514102556E+03 -0.63275199244E+03  0.84441981635E+03  0.00000000000E+00 0. -1.
        -13    1    1    2    0    0 -0.56671250128E+03  0.54428519651E+03 -0.34260719435E+03  0.85719842221E+03  0.10566000000E+00 0.  1.
<mgrwt>
<rscale>  1 0.11602954E+04</rscale>
<asrwt>0</asrwt>
<pdfrwt beam="2">  1       21 0.29971324E+00 0.13212831E+04</pdfrwt>
<pdfrwt beam="1">  1       -4 0.89386696E-01 0.13212831E+04</pdfrwt>
<totfact> 0.10614069E+00</totfact>
</mgrwt>
</event>
<event>
 6    2  0.2220137E-005  0.1032387E+04  0.7818608E-02  0.1002882E+00
         -4   -1    0    0    0  501 -0.00000000000E+00  0.00000000000E+00  0.95691214589E+03  0.95691214589E+03  0.00000000000E+00 0. -1.
         21   -1    0    0  501  502  0.00000000000E+00 -0.00000000000E+00 -0.32313135707E+03  0.32313135707E+03  0.00000000000E+00 0. -1.
   -9000010    2    1    2    0  502  0.44476646800E+02 -0.66035681922E+02  0.58336987381E+03  0.11858089291E+04  0.10293121602E+04 0.  0.
         13    1    3    3    0    0  0.42407443388E+03 -0.34939704993E+03  0.39175352707E+03  0.67482461507E+03  0.10566000000E+00 0. -1.
         -4    1    3    3    0  502 -0.37959778708E+03  0.28336136801E+03  0.19161634674E+03  0.51098431402E+03  0.00000000000E+00 0. -1.
        -13    1    1    2    0    0 -0.44476646800E+02  0.66035681922E+02  0.50410915010E+02  0.94234573876E+02  0.10566000000E+00 0.  1.
<mgrwt>
<rscale>  1 0.54404335E+03</rscale>
<asrwt>0</asrwt>
<pdfrwt beam="2">  1       21 0.49712517E-01 0.10323868E+04</pdfrwt>
<pdfrwt beam="1">  1       -4 0.14721725E+00 0.10323868E+04</pdfrwt>
<totfact> 0.47671615E+01</totfact>
</mgrwt>
</event>
<event>
 6    2  0.2220137E-005  0.1004861E+04  0.7818608E-02  0.9920092E-01
         -4   -1    0    0    0  501 -0.00000000000E+00  0.00000000000E+00  0.69014870886E+03  0.69014870886E+03  0.00000000000E+00 0. -1.
         21   -1    0    0  501  502  0.00000000000E+00 -0.00000000000E+00 -0.48127648401E+03  0.48127648401E+03  0.00000000000E+00 0. -1.
   -9000010    2    1    2    0  502  0.12104557805E+03 -0.13972459647E+02  0.10321754485E+03  0.10101484612E+04  0.99744613418E+03 0.  0.
         13    1    3    3    0    0  0.27586185161E+02 -0.41856442199E+03  0.33298639023E+03  0.53557176943E+03  0.10566000000E+00 0. -1.
         -4    1    3    3    0  502  0.93459392892E+02  0.40459196234E+03 -0.22976884538E+03  0.47457669182E+03  0.00000000000E+00 0. -1.
        -13    1    1    2    0    0 -0.12104557805E+03  0.13972459647E+02  0.10565468000E+03  0.16127673163E+03  0.10566000000E+00 0.  1.
<mgrwt>
<rscale>  1 0.59297365E+03</rscale>
<asrwt>0</asrwt>
<pdfrwt beam="2">  1       21 0.74042536E-01 0.10048612E+04</pdfrwt>
<pdfrwt beam="1">  1       -4 0.10617672E+00 0.10048612E+04</pdfrwt>
<totfact> 0.45083709E+01</totfact>
</mgrwt>
</event>
<event>
 6    2  0.2220137E-005  0.9969597E+03  0.7818608E-02  0.1022042E+00
         21   -1    0    0  501  502  0.00000000000E+00  0.00000000000E+00  0.13893489676E+04  0.13893489676E+04  0.00000000000E+00 0. -1.
         -4   -1    0    0    0  501 -0.00000000000E+00 -0.00000000000E+00 -0.20587363973E+03  0.20587363973E+03  0.00000000000E+00 0. -1.
   -9000010    2    1    2    0  502  0.43560545555E+02 -0.22578744900E+02  0.11817717996E+04  0.15461284731E+04  0.99575164980E+03 0.  0.
         13    1    3    3    0    0 -0.36571721259E+03  0.23745798514E+03  0.26841913675E+03  0.51203927430E+03  0.10566000000E+00 0. -1.
         -4    1    3    3    0  502  0.40927775815E+03 -0.26003673004E+03  0.91335266283E+03  0.10340891988E+04  0.00000000000E+00 0. -1.
        -13    1    1    2    0    0 -0.43560545555E+02  0.22578744900E+02  0.17035283185E+01  0.49094134304E+02  0.10566000000E+00 0.  1.
<mgrwt>
<rscale>  1 0.46956985E+03</rscale>
<asrwt>0</asrwt>
<pdfrwt beam="1">  1       21 0.21374599E+00 0.99695971E+03</pdfrwt>
<pdfrwt beam="2">  1       -4 0.31672869E-01 0.99695971E+03</pdfrwt>
<totfact> 0.36503829E+01</totfact>
</mgrwt>
</event>
<event>
 6    2  0.2220137E-005  0.1080315E+04  0.7818608E-02  0.9504718E-01
         21   -1    0    0  501  502  0.00000000000E+00  0.00000000000E+00  0.28958201189E+03  0.28958201189E+03  0.00000000000E+00 0. -1.
         -4   -1    0    0    0  501 -0.00000000000E+00 -0.00000000000E+00 -0.18961761324E+04  0.18961761324E+04  0.00000000000E+00 0. -1.
   -9000010    2    1    2    0  502 -0.67696318046E+02  0.38783016003E+03 -0.10728676409E+04  0.15225394845E+04  0.10060250904E+04 0.  0.
         13    1    3    3    0    0 -0.50316337813E+03  0.38062553059E+02 -0.64510271458E+03  0.81901139586E+03  0.10566000000E+00 0. -1.
         -4    1    3    3    0  502  0.43546706008E+03  0.34976760697E+03 -0.42776492630E+03  0.70352808862E+03  0.00000000000E+00 0. -1.
        -13    1    1    2    0    0  0.67696318046E+02 -0.38783016003E+03 -0.53372647964E+03  0.66321865982E+03  0.10566000000E+00 0.  1.
<mgrwt>
<rscale>  1 0.83936850E+03</rscale>
<asrwt>0</asrwt>
<pdfrwt beam="1">  1       21 0.44551077E-01 0.10803155E+04</pdfrwt>
<pdfrwt beam="2">  1       -4 0.29171942E+00 0.10803155E+04</pdfrwt>
<totfact> 0.66696234E+00</totfact>
</mgrwt>
</event>
<event>
 6    2  0.2220137E-005  0.1117696E+04  0.7818608E-02  0.9377734E-01
         21   -1    0    0  501  502  0.00000000000E+00  0.00000000000E+00  0.19911018741E+04  0.19911018741E+04  0.00000000000E+00 0.  1.
         -4   -1    0    0    0  501 -0.00000000000E+00 -0.00000000000E+00 -0.35290333371E+03  0.35290333371E+03  0.00000000000E+00 0. -1.
   -9000010    2    1    2    0  502 -0.40623232214E+03 -0.38184947410E+03  0.11357856159E+04  0.15935037233E+04  0.96871638286E+03 0.  0.
         13    1    3    3    0    0  0.19754947419E+03  0.16430714794E+03  0.99234327048E+02  0.27544526942E+03  0.10566000000E+00 0. -1.
         -4    1    3    3    0  502 -0.60378179633E+03 -0.54615662205E+03  0.10365512888E+04  0.13180584539E+04  0.00000000000E+00 0. -1.
        -13    1    1    2    0    0  0.40623232214E+03  0.38184947410E+03  0.50241292451E+03  0.75050148454E+03  0.10566000000E+00 0.  1.
<mgrwt>
<rscale>  1 0.93930989E+03</rscale>
<asrwt>0</asrwt>
<pdfrwt beam="1">  1       21 0.30632336E+00 0.11176964E+04</pdfrwt>
<pdfrwt beam="2">  1       -4 0.54292822E-01 0.11176964E+04</pdfrwt>
<totfact> 0.30549979E+00</totfact>
</mgrwt>
</event>
<event>
 6    2  0.2220137E-005  0.1034567E+04  0.7818608E-02  0.9662380E-01
         -4   -1    0    0    0  501 -0.00000000000E+00  0.00000000000E+00  0.46205722654E+03  0.46205722654E+03  0.00000000000E+00 0. -1.
         21   -1    0    0  501  502  0.00000000000E+00 -0.00000000000E+00 -0.92550739427E+03  0.92550739427E+03  0.00000000000E+00 0. -1.
   -9000010    2    1    2    0  502 -0.21124111867E+03 -0.15281507257E+03 -0.44493652098E+03  0.11261874548E+04  0.10011765174E+04 0.  0.
         13    1    3    3    0    0  0.55568263805E+02 -0.42400180551E+03 -0.58165485219E+03  0.72193333575E+03  0.10566000000E+00 0. -1.
         -4    1    3    3    0  502 -0.26680938248E+03  0.27118673293E+03  0.13671833121E+03  0.40425411907E+03  0.00000000000E+00 0. -1.
        -13    1    1    2    0    0  0.21124111867E+03  0.15281507257E+03 -0.18513646752E+02  0.26137716599E+03  0.10566000000E+00 0.  1.
<mgrwt>
<rscale>  1 0.73301515E+03</rscale>
<asrwt>0</asrwt>
<pdfrwt beam="2">  1       21 0.14238575E+00 0.10345674E+04</pdfrwt>
<pdfrwt beam="1">  1       -4 0.71085728E-01 0.10345674E+04</pdfrwt>
<totfact> 0.22364402E+01</totfact>
</mgrwt>
</event>
<event>
 6    2  0.2220137E-005  0.1041884E+04  0.7818608E-02  0.9647953E-01
         -4   -1    0    0    0  501 -0.00000000000E+00  0.00000000000E+00  0.74970674768E+03  0.74970674768E+03  0.00000000000E+00 0. -1.
         21   -1    0    0  501  502  0.00000000000E+00 -0.00000000000E+00 -0.11734426481E+04  0.11734426481E+04  0.00000000000E+00 0. -1.
   -9000010    2    1    2    0  502 -0.16300364064E+03 -0.21278378694E+03 -0.89990707523E+03  0.13767190474E+04  0.10068145134E+04 0.  0.
         13    1    3    3    0    0 -0.20732379440E+03 -0.59434613776E+03 -0.39819693859E+03  0.74484313802E+03  0.10566000000E+00 0. -1.
         -4    1    3    3    0  502  0.44320153765E+02  0.38156235082E+03 -0.50171013664E+03  0.63187590934E+03  0.00000000000E+00 0. -1.
        -13    1    1    2    0    0  0.16300364064E+03  0.21278378694E+03  0.47617117478E+03  0.54643034844E+03  0.10566000000E+00 0.  1.
<mgrwt>
<rscale>  1 0.74202025E+03</rscale>
<asrwt>0</asrwt>
<pdfrwt beam="2">  1       21 0.18052964E+00 0.10418842E+04</pdfrwt>
<pdfrwt beam="1">  1       -4 0.11533950E+00 0.10418842E+04</pdfrwt>
<totfact> 0.36055430E+00</totfact>
</mgrwt>
</event>
<event>
 6    2  0.2220137E-005  0.1020137E+04  0.7818608E-02  0.9708876E-01
         -4   -1    0    0    0  501 -0.00000000000E+00  0.00000000000E+00  0.21558985399E+04  0.21558985399E+04  0.00000000000E+00 0. -1.
         21   -1    0    0  501  502  0.00000000000E+00 -0.00000000000E+00 -0.19440576841E+03  0.19440576841E+03  0.00000000000E+00 0. -1.
   -9000010    2    1    2    0  502  0.98205584566E+02  0.21081814273E+03  0.13220362210E+04  0.16698681855E+04  0.99327305462E+03 0.  0.
         13    1    3    3    0    0  0.24377256083E+03 -0.28109032160E+03  0.99300268026E+03  0.10604202773E+04  0.10566000000E+00 0. -1.
         -4    1    3    3    0  502 -0.14556697627E+03  0.49190846433E+03  0.32903354078E+03  0.60944790821E+03  0.00000000000E+00 0. -1.
        -13    1    1    2    0    0 -0.98205584566E+02 -0.21081814273E+03  0.63945655042E+03  0.68043612278E+03  0.10566000000E+00 0.  1.
<mgrwt>
<rscale>  1 0.70490762E+03</rscale>
<asrwt>0</asrwt>
<pdfrwt beam="2">  1       21 0.29908581E-01 0.10201372E+04</pdfrwt>
<pdfrwt beam="1">  1       -4 0.33167668E+00 0.10201372E+04</pdfrwt>
<totfact> 0.86302340E+00</totfact>
</mgrwt>
</event>
<event>
 6    2  0.2220137E-005  0.1007151E+04  0.7818608E-02  0.9824688E-01
         -4   -1    0    0    0  501 -0.00000000000E+00  0.00000000000E+00  0.11159029589E+04  0.11159029589E+04  0.00000000000E+00 0. -1.
         21   -1    0    0  501  502  0.00000000000E+00 -0.00000000000E+00 -0.36592510600E+03  0.36592510600E+03  0.00000000000E+00 0. -1.
   -9000010    2    1    2    0  502 -0.16466561795E+03  0.61886709154E+01  0.82390764778E+03  0.13012216112E+04  0.99357979246E+03 0.  0.
         13    1    3    3    0    0  0.39890651705E+03  0.25269091125E+02  0.16098068333E+03  0.43090570649E+03  0.10566000000E+00 0. -1.
         -4    1    3    3    0  502 -0.56357213500E+03 -0.19080420209E+02  0.66292696445E+03  0.87031590470E+03  0.00000000000E+00 0. -1.
        -13    1    1    2    0    0  0.16466561795E+03 -0.61886709154E+01 -0.73929794888E+02  0.18060645370E+03  0.10566000000E+00 0.  1.
<mgrwt>
<rscale>  1 0.64054330E+03</rscale>
<asrwt>0</asrwt>
<pdfrwt beam="2">  1       21 0.56296171E-01 0.10071514E+04</pdfrwt>
<pdfrwt beam="1">  1       -4 0.17167738E+00 0.10071514E+04</pdfrwt>
<totfact> 0.23876739E+01</totfact>
</mgrwt>
</event>
<event>
 6    2  0.2220137E-005  0.9752334E+03  0.7818608E-02  0.1009134E+00
         -4   -1    0    0    0  501 -0.00000000000E+00  0.00000000000E+00  0.53149833631E+03  0.53149833631E+03  0.00000000000E+00 0. -1.
         21   -1    0    0  501  502  0.00000000000E+00 -0.00000000000E+00 -0.55186134559E+03  0.55186134559E+03  0.00000000000E+00 0. -1.
   -9000010    2    1    2    0  502 -0.73770184842E+02  0.24543374619E+02  0.52718891494E+02  0.97665732582E+03  0.97212953517E+03 0.  0.
         13    1    3    3    0    0 -0.19641209362E+02 -0.22834721089E+03 -0.39669527518E+03  0.45814340369E+03  0.10566000000E+00 0. -1.
         -4    1    3    3    0  502 -0.54128975480E+02  0.25289058551E+03  0.44941416668E+03  0.51851392213E+03  0.00000000000E+00 0. -1.
        -13    1    1    2    0    0  0.73770184842E+02 -0.24543374619E+02 -0.73081900779E+02  0.10670235609E+03  0.10566000000E+00 0.  1.
<mgrwt>
<rscale>  1 0.51820416E+03</rscale>
<asrwt>0</asrwt>
<pdfrwt beam="2">  1       21 0.84901745E-01 0.97523343E+03</pdfrwt>
<pdfrwt beam="1">  1       -4 0.81768975E-01 0.97523343E+03</pdfrwt>
<totfact> 0.60910221E+01</totfact>
</mgrwt>
</event>
<event>
 6    2  0.2220137E-005  0.1070642E+04  0.7818608E-02  0.9550125E-01
         21   -1    0    0  501  502  0.00000000000E+00  0.00000000000E+00  0.10554574275E+04  0.10554574275E+04  0.00000000000E+00 0. -1.
         -4   -1    0    0    0  501 -0.00000000000E+00 -0.00000000000E+00 -0.47601386026E+03  0.47601386026E+03  0.00000000000E+00 0. -1.
   -9000010    2    1    2    0  502 -0.32791435348E+03 -0.10840645932E+03  0.46912665990E+03  0.11689114791E+04  0.10134073413E+04 0.  0.
         13    1    3    3    0    0 -0.45275136447E+03 -0.52535701947E+02  0.73791313338E+03  0.86732900424E+03  0.10566000000E+00 0. -1.
         -4    1    3    3    0  502  0.12483701098E+03 -0.55870757372E+02 -0.26878647348E+03  0.30158247490E+03  0.00000000000E+00 0. -1.
        -13    1    1    2    0    0  0.32791435348E+03  0.10840645932E+03  0.11031690737E+03  0.36255980867E+03  0.10566000000E+00 0.  1.
<mgrwt>
<rscale>  1 0.80687091E+03</rscale>
<asrwt>0</asrwt>
<pdfrwt beam="1">  1       21 0.16237807E+00 0.10706420E+04</pdfrwt>
<pdfrwt beam="2">  1       -4 0.73232901E-01 0.10706420E+04</pdfrwt>
<totfact> 0.14405477E+01</totfact>
</mgrwt>
</event>
<event>
 6    2  0.2220137E-005  0.9850243E+03  0.7818608E-02  0.9888063E-01
         -4   -1    0    0    0  501 -0.00000000000E+00  0.00000000000E+00  0.14236069144E+04  0.14236069144E+04  0.00000000000E+00 0. -1.
         21   -1    0    0  501  502  0.00000000000E+00 -0.00000000000E+00 -0.22723165043E+03  0.22723165043E+03  0.00000000000E+00 0. -1.
   -9000010    2    1    2    0  502  0.13151699490E+03 -0.57123614699E+02  0.11073692619E+04  0.14820727304E+04  0.97453223074E+03 0.  0.
         13    1    3    3    0    0 -0.21888943741E+03 -0.39017801319E+03  0.77680733016E+03  0.89642685543E+03  0.10566000000E+00 0. -1.
         -4    1    3    3    0  502  0.35040643231E+03  0.33305439849E+03  0.33056193170E+03  0.58564587496E+03  0.00000000000E+00 0. -1.
        -13    1    1    2    0    0 -0.13151699490E+03  0.57123614699E+02  0.89006002130E+02  0.16876583447E+03  0.10566000000E+00 0.  1.
<mgrwt>
<rscale>  1 0.60843295E+03</rscale>
<asrwt>0</asrwt>
<pdfrwt beam="2">  1       21 0.34958716E-01 0.98502431E+03</pdfrwt>
<pdfrwt beam="1">  1       -4 0.21901644E+00 0.98502431E+03</pdfrwt>
<totfact> 0.31675549E+01</totfact>
</mgrwt>
</event>
<event>
 6    2  0.2220137E-005  0.1069574E+04  0.7818608E-02  0.9540354E-01
         21   -1    0    0  501  502  0.00000000000E+00  0.00000000000E+00  0.99461701806E+03  0.99461701806E+03  0.00000000000E+00 0. -1.
         -4   -1    0    0    0  501 -0.00000000000E+00 -0.00000000000E+00 -0.60366921616E+03  0.60366921616E+03  0.00000000000E+00 0. -1.
   -9000010    2    1    2    0  502 -0.10454185591E+03  0.34274543131E+03  0.55407367726E+03  0.12045687052E+04  0.10077622216E+04 0.  0.
         13    1    3    3    0    0 -0.21154656420E+03 -0.30867479929E+03  0.57716120431E+02  0.37863338767E+03  0.10566000000E+00 0. -1.
         -4    1    3    3    0  502  0.10700470829E+03  0.65142023060E+03  0.49635755683E+03  0.82593531748E+03  0.00000000000E+00 0. -1.
        -13    1    1    2    0    0  0.10454185591E+03 -0.34274543131E+03 -0.16312587537E+03  0.39371752908E+03  0.10566000000E+00 0.  1.
<mgrwt>
<rscale>  1 0.81372967E+03</rscale>
<asrwt>0</asrwt>
<pdfrwt beam="1">  1       21 0.15301800E+00 0.10695738E+04</pdfrwt>
<pdfrwt beam="2">  1       -4 0.92872187E-01 0.10695738E+04</pdfrwt>
<totfact> 0.98454369E+00</totfact>
</mgrwt>
</event>
<event>
 6    2  0.2220137E-005  0.1041840E+04  0.7818608E-02  0.9517065E-01
         -4   -1    0    0    0  501 -0.00000000000E+00  0.00000000000E+00  0.11820217669E+04  0.11820217669E+04  0.00000000000E+00 0. -1.
         21   -1    0    0  501  502  0.00000000000E+00 -0.00000000000E+00 -0.63883486380E+03  0.63883486380E+03  0.00000000000E+00 0. -1.
   -9000010    2    1    2    0  502 -0.40099966279E+03  0.12632187094E+03 -0.10621588271E+03  0.10472404894E+04  0.95324335002E+03 0.  0.
         13    1    3    3    0    0  0.28283468701E+03  0.16305653804E+03  0.82814197297E+02  0.33681017979E+03  0.10566000000E+00 0. -1.
         -4    1    3    3    0  502 -0.68383434980E+03 -0.36734667097E+02 -0.18903008000E+03  0.71043030965E+03  0.00000000000E+00 0. -1.
        -13    1    1    2    0    0  0.40099966279E+03 -0.12632187094E+03  0.64940278575E+03  0.77361614121E+03  0.10566000000E+00 0.  1.
<mgrwt>
<rscale>  1 0.83037292E+03</rscale>
<asrwt>0</asrwt>
<pdfrwt beam="2">  1       21 0.98282286E-01 0.10418401E+04</pdfrwt>
<pdfrwt beam="1">  1       -4 0.18184950E+00 0.10418401E+04</pdfrwt>
<totfact> 0.55196435E+00</totfact>
</mgrwt>
</event>
<event>
 6    2  0.2220137E-005  0.1003297E+04  0.7818608E-02  0.1024912E+00
         -4   -1    0    0    0  501 -0.00000000000E+00  0.00000000000E+00  0.44752683070E+03  0.44752683070E+03  0.00000000000E+00 0. -1.
         21   -1    0    0  501  502  0.00000000000E+00 -0.00000000000E+00 -0.79751782809E+03  0.79751782809E+03  0.00000000000E+00 0. -1.
   -9000010    2    1    2    0  502  0.40033847223E+02 -0.18640648027E+02 -0.47675351709E+03  0.11108100498E+04  0.10023247318E+04 0.  0.
         13    1    3    3    0    0  0.33854589312E+03 -0.25729566501E+03  0.82783369267E+02  0.43320604610E+03  0.10566000000E+00 0. -1.
         -4    1    3    3    0  502 -0.29851204590E+03  0.23865501698E+03 -0.55953688635E+03  0.67760400373E+03  0.00000000000E+00 0. -1.
        -13    1    1    2    0    0 -0.40033847223E+02  0.18640648027E+02  0.12676251969E+03  0.13423460897E+03  0.10566000000E+00 0.  1.
<mgrwt>
<rscale>  1 0.45954907E+03</rscale>
<asrwt>0</asrwt>
<pdfrwt beam="2">  1       21 0.12269505E+00 0.10032971E+04</pdfrwt>
<pdfrwt beam="1">  1       -4 0.68850282E-01 0.10032971E+04</pdfrwt>
<totfact> 0.35877303E+01</totfact>
</mgrwt>
</event>
<event>
 6    2  0.2220137E-005  0.1013266E+04  0.7818608E-02  0.9741909E-01
         21   -1    0    0  501  502  0.00000000000E+00  0.00000000000E+00  0.48687264966E+03  0.48687264966E+03  0.00000000000E+00 0. -1.
         -4   -1    0    0    0  501 -0.00000000000E+00 -0.00000000000E+00 -0.83366457083E+03  0.83366457083E+03  0.00000000000E+00 0. -1.
   -9000010    2    1    2    0  502 -0.17663397210E+03 -0.11826545071E+03 -0.13807685099E+03  0.10226307442E+04  0.99071799481E+03 0.  0.
         13    1    3    3    0    0  0.31423663949E+03 -0.32113942437E+03  0.65015273599E+02  0.45398479319E+03  0.10566000000E+00 0. -1.
         -4    1    3    3    0  502 -0.49087061159E+03  0.20287397366E+03 -0.20309212459E+03  0.56864595100E+03  0.00000000000E+00 0. -1.
        -13    1    1    2    0    0  0.17663397210E+03  0.11826545071E+03 -0.20871507018E+03  0.29790647629E+03  0.10566000000E+00 0.  1.
<mgrwt>
<rscale>  1 0.68575425E+03</rscale>
<asrwt>0</asrwt>
<pdfrwt beam="1">  1       21 0.74903486E-01 0.10132662E+04</pdfrwt>
<pdfrwt beam="2">  1       -4 0.12825609E+00 0.10132662E+04</pdfrwt>
<totfact> 0.27355449E+01</totfact>
</mgrwt>
</event>
<event>
 6    2  0.2220137E-005  0.9888248E+03  0.7818608E-02  0.9916025E-01
         -4   -1    0    0    0  501 -0.00000000000E+00  0.00000000000E+00  0.18364089690E+04  0.18364089690E+04  0.00000000000E+00 0. -1.
         21   -1    0    0  501  502  0.00000000000E+00 -0.00000000000E+00 -0.17327595832E+03  0.17327595832E+03  0.00000000000E+00 0. -1.
   -9000010    2    1    2    0  502  0.11644993670E+03 -0.56772415353E+02  0.15451197596E+04  0.18344398603E+04  0.98030140002E+03 0.  0.
         13    1    3    3    0    0  0.32789053014E+03  0.29751128350E+03  0.33291856408E+03  0.55394940657E+03  0.10566000000E+00 0. -1.
         -4    1    3    3    0  502 -0.21144059345E+03 -0.35428369885E+03  0.12122011955E+04  0.12804904538E+04  0.00000000000E+00 0. -1.
        -13    1    1    2    0    0 -0.11644993670E+03  0.56772415353E+02  0.11801325109E+03  0.17524506698E+03  0.10566000000E+00 0.  1.
<mgrwt>
<rscale>  1 0.59490903E+03</rscale>
<asrwt>0</asrwt>
<pdfrwt beam="2">  1       21 0.26657841E-01 0.98882482E+03</pdfrwt>
<pdfrwt beam="1">  1       -4 0.28252444E+00 0.98882482E+03</pdfrwt>
<totfact> 0.22083489E+01</totfact>
</mgrwt>
</event>
<event>
 6    2  0.2220137E-005  0.1027311E+04  0.7818608E-02  0.9738594E-01
         21   -1    0    0  501  502  0.00000000000E+00  0.00000000000E+00  0.83224444444E+03  0.83224444444E+03  0.00000000000E+00 0. -1.
         -4   -1    0    0    0  501 -0.00000000000E+00 -0.00000000000E+00 -0.45819206576E+03  0.45819206576E+03  0.00000000000E+00 0. -1.
   -9000010    2    1    2    0  502  0.20604921933E+03  0.86651768125E+01  0.28753088394E+03  0.10667909283E+04  0.10063982857E+04 0.  0.
         13    1    3    3    0    0  0.47031679479E+03  0.15115935361E+03  0.49696145811E+03  0.70072657981E+03  0.10566000000E+00 0. -1.
         -4    1    3    3    0  502 -0.26426757546E+03 -0.14249417680E+03 -0.20943057416E+03  0.36606434852E+03  0.00000000000E+00 0. -1.
        -13    1    1    2    0    0 -0.20604921933E+03 -0.86651768125E+01  0.86521494738E+02  0.22364558187E+03  0.10566000000E+00 0.  1.
<mgrwt>
<rscale>  1 0.68764666E+03</rscale>
<asrwt>0</asrwt>
<pdfrwt beam="1">  1       21 0.12803761E+00 0.10273115E+04</pdfrwt>
<pdfrwt beam="2">  1       -4 0.70491087E-01 0.10273115E+04</pdfrwt>
<totfact> 0.30352938E+01</totfact>
</mgrwt>
</event>
<event>
 6    2  0.2220137E-005  0.1078558E+04  0.7818608E-02  0.9518045E-01
         21   -1    0    0  501  502  0.00000000000E+00  0.00000000000E+00  0.46028249293E+03  0.46028249293E+03  0.00000000000E+00 0. -1.
         -4   -1    0    0    0  501 -0.00000000000E+00 -0.00000000000E+00 -0.12000839715E+04  0.12000839715E+04  0.00000000000E+00 0. -1.
   -9000010    2    1    2    0  502  0.37662663415E+03 -0.27650323422E+02 -0.39384636275E+03  0.11482169596E+04  0.10102846465E+04 0.  0.
         13    1    3    3    0    0 -0.15472741730E+03  0.37519561169E+03 -0.91301967705E+02  0.41599084265E+03  0.10566000000E+00 0. -1.
         -4    1    3    3    0  502  0.53135405145E+03 -0.40284593511E+03 -0.30254439504E+03  0.73222611699E+03  0.00000000000E+00 0. -1.
        -13    1    1    2    0    0 -0.37662663415E+03  0.27650323422E+02 -0.34595511581E+03  0.51214950479E+03  0.10566000000E+00 0.  1.
<mgrwt>
<rscale>  1 0.82966388E+03</rscale>
<asrwt>0</asrwt>
<pdfrwt beam="1">  1       21 0.70812693E-01 0.10785579E+04</pdfrwt>
<pdfrwt beam="2">  1       -4 0.18462830E+00 0.10785579E+04</pdfrwt>
<totfact> 0.11470459E+01</totfact>
</mgrwt>
</event>
<event>
 6    2  0.2220137E-005  0.1081241E+04  0.7818608E-02  0.9544318E-01
         -4   -1    0    0    0  501 -0.00000000000E+00  0.00000000000E+00  0.30831790028E+03  0.30831790028E+03  0.00000000000E+00 0. -1.
         21   -1    0    0  501  502  0.00000000000E+00 -0.00000000000E+00 -0.16716847599E+04  0.16716847599E+04  0.00000000000E+00 0. -1.
   -9000010    2    1    2    0  502  0.30494288201E+03  0.15510717513E+03 -0.11411890462E+04  0.15720671395E+04  0.10256872110E+04 0.  0.
         13    1    3    3    0    0 -0.14988921749E+03 -0.15656724871E+03 -0.97118729886E+03  0.99508032918E+03  0.10566000000E+00 0. -1.
         -4    1    3    3    0  502  0.45483209950E+03  0.31167442384E+03 -0.17000174737E+03  0.57698681035E+03  0.00000000000E+00 0. -1.
        -13    1    1    2    0    0 -0.30494288201E+03 -0.15510717513E+03 -0.22217781338E+03  0.40793552063E+03  0.10566000000E+00 0.  1.
<mgrwt>
<rscale>  1 0.81093799E+03</rscale>
<asrwt>0</asrwt>
<pdfrwt beam="2">  1       21 0.25718227E+00 0.10812413E+04</pdfrwt>
<pdfrwt beam="1">  1       -4 0.47433524E-01 0.10812413E+04</pdfrwt>
<totfact> 0.83118213E+00</totfact>
</mgrwt>
</event>
<event>
 6    2  0.2220137E-005  0.1008197E+04  0.7818608E-02  0.9922424E-01
         21   -1    0    0  501  502  0.00000000000E+00  0.00000000000E+00  0.18410440267E+04  0.18410440267E+04  0.00000000000E+00 0. -1.
         -4   -1    0    0    0  501 -0.00000000000E+00 -0.00000000000E+00 -0.19591163749E+03  0.19591163749E+03  0.00000000000E+00 0. -1.
   -9000010    2    1    2    0  502 -0.10494387046E+03  0.57670773401E+02  0.16295238606E+04  0.19161965180E+04  0.10010604125E+04 0.  0.
         13    1    3    3    0    0 -0.17994132082E+03 -0.43540694337E+03  0.10548379812E+04  0.11552667497E+04  0.10566000000E+00 0. -1.
         -4    1    3    3    0  502  0.74997450356E+02  0.49307771677E+03  0.57468587938E+03  0.76092976831E+03  0.00000000000E+00 0. -1.
        -13    1    1    2    0    0  0.10494387046E+03 -0.57670773401E+02  0.15608528647E+02  0.12075914617E+03  0.10566000000E+00 0.  1.
<mgrwt>
<rscale>  1 0.59186743E+03</rscale>
<asrwt>0</asrwt>
<pdfrwt beam="1">  1       21 0.28323753E+00 0.10081969E+04</pdfrwt>
<pdfrwt beam="2">  1       -4 0.30140253E-01 0.10081969E+04</pdfrwt>
<totfact> 0.14442157E+01</totfact>
</mgrwt>
</event>
<event>
 6    2  0.2220137E-005  0.1012879E+04  0.7818608E-02  0.9925808E-01
         21   -1    0    0  501  502  0.00000000000E+00  0.00000000000E+00  0.21407991571E+04  0.21407991571E+04  0.00000000000E+00 0. -1.
         -4   -1    0    0    0  501 -0.00000000000E+00 -0.00000000000E+00 -0.17818993452E+03  0.17818993452E+03  0.00000000000E+00 0. -1.
   -9000010    2    1    2    0  502  0.10905240127E+03 -0.41888535393E+02  0.19551395268E+04  0.22019297770E+04  0.10061198227E+04 0.  0.
         13    1    3    3    0    0  0.26390487633E+03 -0.19984751457E+03  0.19528571449E+04  0.19807159948E+04  0.10566000000E+00 0. -1.
         -4    1    3    3    0  502 -0.15485247506E+03  0.15795897917E+03  0.22823819864E+01  0.22121378212E+03  0.00000000000E+00 0. -1.
        -13    1    1    2    0    0 -0.10905240127E+03  0.41888535393E+02  0.74696957050E+01  0.11705931462E+03  0.10566000000E+00 0.  1.
<mgrwt>
<rscale>  1 0.59026661E+03</rscale>
<asrwt>0</asrwt>
<pdfrwt beam="1">  1       21 0.32935370E+00 0.10128792E+04</pdfrwt>
<pdfrwt beam="2">  1       -4 0.27413838E-01 0.10128792E+04</pdfrwt>
<totfact> 0.89588204E+00</totfact>
</mgrwt>
</event>
<event>
 6    2  0.2220137E-005  0.1034710E+04  0.7818608E-02  0.9649823E-01
         -4   -1    0    0    0  501 -0.00000000000E+00  0.00000000000E+00  0.10173045589E+04  0.10173045589E+04  0.00000000000E+00 0. -1.
         21   -1    0    0  501  502  0.00000000000E+00 -0.00000000000E+00 -0.45509006245E+03  0.45509006245E+03  0.00000000000E+00 0. -1.
   -9000010    2    1    2    0  502 -0.26321393361E+03 -0.68289979608E+02  0.26206180770E+03  0.10673801230E+04  0.99833803880E+03 0.  0.
         13    1    3    3    0    0 -0.41632915662E+03 -0.45351099443E+03  0.20538732375E+03  0.64898856126E+03  0.10566000000E+00 0. -1.
         -4    1    3    3    0  502  0.15311522302E+03  0.38522101483E+03  0.56674483951E+02  0.41839156172E+03  0.00000000000E+00 0. -1.
        -13    1    1    2    0    0  0.26321393361E+03  0.68289979608E+02  0.30015268873E+03  0.40501449835E+03  0.10566000000E+00 0.  1.
<mgrwt>
<rscale>  1 0.74084531E+03</rscale>
<asrwt>0</asrwt>
<pdfrwt beam="2">  1       21 0.70013856E-01 0.10347096E+04</pdfrwt>
<pdfrwt beam="1">  1       -4 0.15650839E+00 0.10347096E+04</pdfrwt>
<totfact> 0.18862709E+01</totfact>
</mgrwt>
</event>
<event>
 6    2  0.2220137E-005  0.9549347E+03  0.7818608E-02  0.9862197E-01
         21   -1    0    0  501  502  0.00000000000E+00  0.00000000000E+00  0.10002152134E+04  0.10002152134E+04  0.00000000000E+00 0. -1.
         -4   -1    0    0    0  501 -0.00000000000E+00 -0.00000000000E+00 -0.33124024223E+03  0.33124024223E+03  0.00000000000E+00 0. -1.
   -9000010    2    1    2    0  502 -0.32672869021E+02  0.16795267634E+03  0.65863271131E+03  0.11600419458E+04  0.93948105345E+03 0.  0.
         13    1    3    3    0    0  0.27290294865E+03  0.38861268306E+03  0.62027537409E+03  0.78117692470E+03  0.10566000000E+00 0. -1.
         -4    1    3    3    0  502 -0.30557581767E+03 -0.22066000672E+03  0.38357337213E+02  0.37886502112E+03  0.00000000000E+00 0. -1.
        -13    1    1    2    0    0  0.32672869021E+02 -0.16795267634E+03  0.10342259915E+02  0.17141350986E+03  0.10566000000E+00 0.  1.
<mgrwt>
<rscale>  1 0.62128881E+03</rscale>
<asrwt>0</asrwt>
<pdfrwt beam="1">  1       21 0.15387926E+00 0.95493469E+03</pdfrwt>
<pdfrwt beam="2">  1       -4 0.50960038E-01 0.95493469E+03</pdfrwt>
<totfact> 0.37560328E+01</totfact>
</mgrwt>
</event>
<event>
 6    2  0.2220137E-005  0.9864200E+03  0.7818608E-02  0.9588213E-01
         -4   -1    0    0    0  501 -0.00000000000E+00  0.00000000000E+00  0.81511807687E+03  0.81511807687E+03  0.00000000000E+00 0. -1.
         21   -1    0    0  501  502  0.00000000000E+00 -0.00000000000E+00 -0.96837334677E+03  0.96837334677E+03  0.00000000000E+00 0. -1.
   -9000010    2    1    2    0  502 -0.93292655344E+02  0.37585386605E+03 -0.62911920299E+03  0.11699638023E+04  0.90722361024E+03 0.  0.
         13    1    3    3    0    0  0.18892794800E+03 -0.65507576876E+02 -0.61413747999E+03  0.64587140180E+03  0.10566000000E+00 0. -1.
         -4    1    3    3    0  502 -0.28222060334E+03  0.44136144293E+03 -0.14981722996E+02  0.52409240051E+03  0.00000000000E+00 0. -1.
        -13    1    1    2    0    0  0.93292655344E+02 -0.37585386605E+03  0.47586393308E+03  0.61352762133E+03  0.10566000000E+00 0.  1.
<mgrwt>
<rscale>  1 0.78081260E+03</rscale>
<asrwt>0</asrwt>
<pdfrwt beam="2">  1       21 0.14898051E+00 0.98641995E+03</pdfrwt>
<pdfrwt beam="1">  1       -4 0.12540278E+00 0.98641995E+03</pdfrwt>
<totfact> 0.51282335E+00</totfact>
</mgrwt>
</event>
<event>
 6    2  0.2220137E-005  0.1042741E+04  0.7818608E-02  0.9609594E-01
         -4   -1    0    0    0  501 -0.00000000000E+00  0.00000000000E+00  0.67277175218E+03  0.67277175218E+03  0.00000000000E+00 0. -1.
         21   -1    0    0  501  502  0.00000000000E+00 -0.00000000000E+00 -0.71226412791E+03  0.71226412791E+03  0.00000000000E+00 0. -1.
   -9000010    2    1    2    0  502  0.18401776227E+03 -0.24283380086E+03 -0.16463040063E+03  0.10556571799E+04  0.99723523859E+03 0.  0.
         13    1    3    3    0    0 -0.14258949900E+03  0.18991125042E+03  0.27087629179E+03  0.36023884421E+03  0.10566000000E+00 0. -1.
         -4    1    3    3    0  502  0.32660726127E+03 -0.43274505129E+03 -0.43550669242E+03  0.69541833573E+03  0.00000000000E+00 0. -1.
        -13    1    1    2    0    0 -0.18401776227E+03  0.24283380086E+03  0.12513802490E+03  0.32937870015E+03  0.10566000000E+00 0.  1.
<mgrwt>
<rscale>  1 0.76664423E+03</rscale>
<asrwt>0</asrwt>
<pdfrwt beam="2">  1       21 0.10957910E+00 0.10427411E+04</pdfrwt>
<pdfrwt beam="1">  1       -4 0.10350335E+00 0.10427411E+04</pdfrwt>
<totfact> 0.18513065E+01</totfact>
</mgrwt>
</event>
<event>
 6    2  0.2220137E-005  0.1002429E+04  0.7818608E-02  0.9994219E-01
         -4   -1    0    0    0  501 -0.00000000000E+00  0.00000000000E+00  0.49090360617E+03  0.49090360617E+03  0.00000000000E+00 0. -1.
         21   -1    0    0  501  502  0.00000000000E+00 -0.00000000000E+00 -0.87128515082E+03  0.87128515082E+03  0.00000000000E+00 0. -1.
   -9000010    2    1    2    0  502  0.85894471914E+02  0.44997126190E+02 -0.56715070853E+03  0.11517479496E+04  0.99772782440E+03 0.  0.
         13    1    3    3    0    0  0.42629347371E+03  0.10956288086E+03  0.51029805936E+02  0.44309615531E+03  0.10566000000E+00 0. -1.
         -4    1    3    3    0  502 -0.34039900180E+03 -0.64565754672E+02 -0.61818051447E+03  0.70865179430E+03  0.00000000000E+00 0. -1.
        -13    1    1    2    0    0 -0.85894471914E+02 -0.44997126190E+02  0.18676916388E+03  0.21044080738E+03  0.10566000000E+00 0.  1.
<mgrwt>
<rscale>  1 0.55904428E+03</rscale>
<asrwt>0</asrwt>
<pdfrwt beam="2">  1       21 0.13404387E+00 0.10024288E+04</pdfrwt>
<pdfrwt beam="1">  1       -4 0.75523632E-01 0.10024288E+04</pdfrwt>
<totfact> 0.23050820E+01</totfact>
</mgrwt>
</event>
<event>
 6    2  0.2220137E-005  0.1092375E+04  0.7818608E-02  0.9447751E-01
         -4   -1    0    0    0  501 -0.00000000000E+00  0.00000000000E+00  0.75443496066E+03  0.75443496066E+03  0.00000000000E+00 0. -1.
         21   -1    0    0  501  502  0.00000000000E+00 -0.00000000000E+00 -0.80410492587E+03  0.80410492587E+03  0.00000000000E+00 0.  1.
   -9000010    2    1    2    0  502  0.42965105509E+03  0.17854004602E+03 -0.26625045182E+02  0.10926990804E+04  0.98833486736E+03 0.  0.
         13    1    3    3    0    0 -0.12968376176E+03 -0.30159964977E+03  0.10334194135E+03  0.34417988729E+03  0.10566000000E+00 0. -1.
         -4    1    3    3    0  502  0.55933481686E+03  0.48013969579E+03 -0.12996698653E+03  0.74851919308E+03  0.00000000000E+00 0. -1.
        -13    1    1    2    0    0 -0.42965105509E+03 -0.17854004602E+03 -0.23044920029E+02  0.46584080616E+03  0.10566000000E+00 0.  1.
<mgrwt>
<rscale>  1 0.88248053E+03</rscale>
<asrwt>0</asrwt>
<pdfrwt beam="2">  1       21 0.12370845E+00 0.10923747E+04</pdfrwt>
<pdfrwt beam="1">  1       -4 0.11606692E+00 0.10923747E+04</pdfrwt>
<totfact> 0.10164925E+01</totfact>
</mgrwt>
</event>
<event>
 6    2  0.2220137E-005  0.9535376E+03  0.7818608E-02  0.9815868E-01
         -4   -1    0    0    0  501 -0.00000000000E+00  0.00000000000E+00  0.91064704005E+03  0.91064704005E+03  0.00000000000E+00 0. -1.
         21   -1    0    0  501  502  0.00000000000E+00 -0.00000000000E+00 -0.37394324389E+03  0.37394324389E+03  0.00000000000E+00 0. -1.
   -9000010    2    1    2    0  502  0.76292948761E+02 -0.18471601808E+03  0.51456039495E+03  0.10835157636E+04  0.93235904482E+03 0.  0.
         13    1    3    3    0    0 -0.10139225385E+03  0.20247657875E+03 -0.16588928709E+03  0.28070700173E+03  0.10566000000E+00 0. -1.
         -4    1    3    3    0  502  0.17768520261E+03 -0.38719259684E+03  0.68044968204E+03  0.80280876183E+03  0.00000000000E+00 0. -1.
        -13    1    1    2    0    0 -0.76292948761E+02  0.18471601808E+03  0.22143401211E+02  0.20107452039E+03  0.10566000000E+00 0.  1.
<mgrwt>
<rscale>  1 0.64517911E+03</rscale>
<asrwt>0</asrwt>
<pdfrwt beam="2">  1       21 0.57529730E-01 0.95353763E+03</pdfrwt>
<pdfrwt beam="1">  1       -4 0.14009954E+00 0.95353763E+03</pdfrwt>
<totfact> 0.39772441E+01</totfact>
</mgrwt>
</event>
<event>
 6    2  0.2220137E-005  0.1054378E+04  0.7818608E-02  0.9568043E-01
         -4   -1    0    0    0  501 -0.00000000000E+00  0.00000000000E+00  0.61623082668E+03  0.61623082668E+03  0.00000000000E+00 0. -1.
         21   -1    0    0  501  502  0.00000000000E+00 -0.00000000000E+00 -0.79184334510E+03  0.79184334510E+03  0.00000000000E+00 0. -1.
   -9000010    2    1    2    0  502 -0.31511965195E+03  0.12738246053E+03 -0.17097402024E+03  0.10681503375E+04  0.99809134931E+03 0.  0.
         13    1    3    3    0    0  0.68853691123E+02  0.50440355149E+03 -0.20993599449E+02  0.50951399973E+03  0.10566000000E+00 0. -1.
         -4    1    3    3    0  502 -0.38397334308E+03 -0.37702109097E+03 -0.14998042079E+03  0.55863633774E+03  0.00000000000E+00 0. -1.
        -13    1    1    2    0    0  0.31511965195E+03 -0.12738246053E+03 -0.46384981745E+01  0.33992383430E+03  0.10566000000E+00 0.  1.
<mgrwt>
<rscale>  1 0.79447924E+03</rscale>
<asrwt>0</asrwt>
<pdfrwt beam="2">  1       21 0.12182205E+00 0.10543780E+04</pdfrwt>
<pdfrwt beam="1">  1       -4 0.94804743E-01 0.10543780E+04</pdfrwt>
<totfact> 0.17405402E+01</totfact>
</mgrwt>
</event>
<event>
 6    2  0.2220137E-005  0.1210250E+04  0.7818608E-02  0.9252478E-01
         -4   -1    0    0    0  501 -0.00000000000E+00  0.00000000000E+00  0.10394760469E+04  0.10394760469E+04  0.00000000000E+00 0. -1.
         21   -1    0    0  501  502  0.00000000000E+00 -0.00000000000E+00 -0.10130172899E+04  0.10130172899E+04  0.00000000000E+00 0.  1.
   -9000010    2    1    2    0  502  0.68626537813E+03  0.96289945489E+02 -0.35527861175E+03  0.12613199343E+04  0.99220620941E+03 0.  0.
         13    1    3    3    0    0  0.34218563623E+03  0.40646065159E+03  0.17292850835E+03  0.55875356920E+03  0.10566000000E+00 0. -1.
         -4    1    3    3    0  502  0.34407974189E+03 -0.31017070610E+03 -0.52820712009E+03  0.70256636514E+03  0.00000000000E+00 0. -1.
        -13    1    1    2    0    0 -0.68626537813E+03 -0.96289945489E+02  0.38173736876E+03  0.79117340242E+03  0.10566000000E+00 0.  1.
<mgrwt>
<rscale>  1 0.10527802E+04</rscale>
<asrwt>0</asrwt>
<pdfrwt beam="2">  1       21 0.15584881E+00 0.12102500E+04</pdfrwt>
<pdfrwt beam="1">  1       -4 0.15991939E+00 0.12102500E+04</pdfrwt>
<totfact> 0.23074564E+00</totfact>
</mgrwt>
</event>
<event>
 6    2  0.2220137E-005  0.1134311E+04  0.7818608E-02  0.9396650E-01
         -4   -1    0    0    0  501 -0.00000000000E+00  0.00000000000E+00  0.76915413745E+03  0.76915413745E+03  0.00000000000E+00 0. -1.
         21   -1    0    0  501  502  0.00000000000E+00 -0.00000000000E+00 -0.98633154872E+03  0.98633154872E+03  0.00000000000E+00 0. -1.
   -9000010    2    1    2    0  502 -0.49186198448E+03  0.80521178719E+02 -0.43061572543E+03  0.12132977140E+04  0.10189453214E+04 0.  0.
         13    1    3    3    0    0  0.16464510430E+02  0.45954257870E+02 -0.65482829164E+03  0.65664524411E+03  0.10566000000E+00 0. -1.
         -4    1    3    3    0  502 -0.50832649491E+03  0.34566920849E+02  0.22421256621E+03  0.55665246994E+03  0.00000000000E+00 0. -1.
        -13    1    1    2    0    0  0.49186198448E+03 -0.80521178719E+02  0.21343831416E+03  0.54218797212E+03  0.10566000000E+00 0.  1.
<mgrwt>
<rscale>  1 0.92351861E+03</rscale>
<asrwt>0</asrwt>
<pdfrwt beam="2">  1       21 0.15174331E+00 0.11343110E+04</pdfrwt>
<pdfrwt beam="1">  1       -4 0.11833141E+00 0.11343110E+04</pdfrwt>
<totfact> 0.55405709E+00</totfact>
</mgrwt>
</event>
<event>
 6    2  0.2220137E-005  0.1004796E+04  0.7818608E-02  0.9864637E-01
         21   -1    0    0  501  502  0.00000000000E+00  0.00000000000E+00  0.55106395099E+03  0.55106395099E+03  0.00000000000E+00 0. -1.
         -4   -1    0    0    0  501 -0.00000000000E+00 -0.00000000000E+00 -0.60679137927E+03  0.60679137927E+03  0.00000000000E+00 0. -1.
   -9000010    2    1    2    0  502  0.23613833318E+02  0.14378930270E+03 -0.87890376904E+02  0.10086325333E+04  0.99417397485E+03 0.  0.
         13    1    3    3    0    0 -0.41413298690E+03  0.32795278076E+03 -0.17631677809E+02  0.52855467501E+03  0.10566000000E+00 0. -1.
         -4    1    3    3    0  502  0.43774682022E+03 -0.18416347806E+03 -0.70258699095E+02  0.48007785833E+03  0.00000000000E+00 0. -1.
        -13    1    1    2    0    0 -0.23613833318E+02 -0.14378930270E+03  0.32162948623E+02  0.14922279693E+03  0.10566000000E+00 0.  1.
<mgrwt>
<rscale>  1 0.62006161E+03</rscale>
<asrwt>0</asrwt>
<pdfrwt beam="1">  1       21 0.84779069E-01 0.10047959E+04</pdfrwt>
<pdfrwt beam="2">  1       -4 0.93352520E-01 0.10047959E+04</pdfrwt>
<totfact> 0.44732168E+01</totfact>
</mgrwt>
</event>
<event>
 6    2  0.2220137E-005  0.1108625E+04  0.7818608E-02  0.9426275E-01
         -4   -1    0    0    0  501 -0.00000000000E+00  0.00000000000E+00  0.47655782341E+03  0.47655782341E+03  0.00000000000E+00 0. -1.
         21   -1    0    0  501  502  0.00000000000E+00 -0.00000000000E+00 -0.15735586316E+04  0.15735586316E+04  0.00000000000E+00 0.  1.
   -9000010    2    1    2    0  502  0.45749883785E+03 -0.14634767116E+03 -0.11110864393E+04  0.15695737996E+04  0.99916265401E+03 0.  0.
         13    1    3    3    0    0  0.49510277834E+03  0.33200170395E+03 -0.80021445546E+03  0.99784521767E+03  0.10566000000E+00 0. -1.
         -4    1    3    3    0  502 -0.37603940493E+02 -0.47834937511E+03 -0.31087198387E+03  0.57172858190E+03  0.00000000000E+00 0. -1.
        -13    1    1    2    0    0 -0.45749883785E+03  0.14634767116E+03  0.14085631178E+02  0.48054265540E+03  0.10566000000E+00 0.  1.
<mgrwt>
<rscale>  1 0.89944529E+03</rscale>
<asrwt>0</asrwt>
<pdfrwt beam="2">  1       21 0.24208594E+00 0.11086248E+04</pdfrwt>
<pdfrwt beam="1">  1       -4 0.73316590E-01 0.11086248E+04</pdfrwt>
<totfact> 0.40071211E+00</totfact>
</mgrwt>
</event>
<event>
 6    2  0.2220137E-005  0.1038337E+04  0.7818608E-02  0.9632860E-01
         -4   -1    0    0    0  501 -0.00000000000E+00  0.00000000000E+00  0.37440486597E+03  0.37440486597E+03  0.00000000000E+00 0. -1.
         21   -1    0    0  501  502  0.00000000000E+00 -0.00000000000E+00 -0.12175476981E+04  0.12175476981E+04  0.00000000000E+00 0. -1.
   -9000010    2    1    2    0  502  0.19590230156E+03  0.20705240535E+03 -0.78340668945E+03  0.13007192758E+04  0.99844688539E+03 0.  0.
         13    1    3    3    0    0 -0.15080233305E+03 -0.34535918639E+03 -0.20505892056E+03  0.42902620356E+03  0.10566000000E+00 0. -1.
         -4    1    3    3    0  502  0.34670463461E+03  0.55241159174E+03 -0.57834776889E+03  0.87169307220E+03  0.00000000000E+00 0. -1.
        -13    1    1    2    0    0 -0.19590230156E+03 -0.20705240535E+03 -0.59736142675E+02  0.29123328831E+03  0.10566000000E+00 0.  1.
<mgrwt>
<rscale>  1 0.75158957E+03</rscale>
<asrwt>0</asrwt>
<pdfrwt beam="2">  1       21 0.18731503E+00 0.10383374E+04</pdfrwt>
<pdfrwt beam="1">  1       -4 0.57600749E-01 0.10383374E+04</pdfrwt>
<totfact> 0.16084935E+01</totfact>
</mgrwt>
</event>
<event>
 6    2  0.2220137E-005  0.8473270E+03  0.7818608E-02  0.1009640E+00
         -4   -1    0    0    0  501 -0.00000000000E+00  0.00000000000E+00  0.51387085812E+03  0.51387085812E+03  0.00000000000E+00 0. -1.
         21   -1    0    0  501  502  0.00000000000E+00 -0.00000000000E+00 -0.68278921995E+03  0.68278921995E+03  0.00000000000E+00 0. -1.
   -9000010    2    1    2    0  502  0.10653040486E+03 -0.47636603658E+02 -0.40059652520E+03  0.93725160535E+03  0.83925265717E+03 0.  0.
         13    1    3    3    0    0  0.23217583096E+03 -0.42387527598E+02  0.20873683782E+03  0.31507681223E+03  0.10566000000E+00 0. -1.
         -4    1    3    3    0  502 -0.12564542610E+03 -0.52490760594E+01 -0.60933336302E+03  0.62217479312E+03  0.00000000000E+00 0. -1.
        -13    1    1    2    0    0 -0.10653040486E+03  0.47636603658E+02  0.23167816338E+03  0.25940847272E+03  0.10566000000E+00 0.  1.
<mgrwt>
<rscale>  1 0.51618143E+03</rscale>
<asrwt>0</asrwt>
<pdfrwt beam="2">  1       21 0.10504449E+00 0.84732697E+03</pdfrwt>
<pdfrwt beam="1">  1       -4 0.79057055E-01 0.84732697E+03</pdfrwt>
<totfact> 0.39617051E+01</totfact>
</mgrwt>
</event>
<event>
 6    2  0.2220137E-005  0.1036398E+04  0.7818608E-02  0.9639848E-01
         21   -1    0    0  501  502  0.00000000000E+00  0.00000000000E+00  0.10961212656E+04  0.10961212656E+04  0.00000000000E+00 0. -1.
         -4   -1    0    0    0  501 -0.00000000000E+00 -0.00000000000E+00 -0.42462387248E+03  0.42462387248E+03  0.00000000000E+00 0. -1.
   -9000010    2    1    2    0  502  0.26035582414E+03  0.10280043377E+03  0.68194741181E+03  0.12406339130E+04  0.99788133024E+03 0.  0.
         13    1    3    3    0    0 -0.27811671280E+03 -0.23290827008E+03  0.41777492622E+03  0.55329112441E+03  0.10566000000E+00 0. -1.
         -4    1    3    3    0  502  0.53847253694E+03  0.33570870385E+03  0.26417248560E+03  0.68734278859E+03  0.00000000000E+00 0. -1.
        -13    1    1    2    0    0 -0.26035582414E+03 -0.10280043377E+03 -0.10450018722E+02  0.28011122506E+03  0.10566000000E+00 0.  1.
<mgrwt>
<rscale>  1 0.74713977E+03</rscale>
<asrwt>0</asrwt>
<pdfrwt beam="1">  1       21 0.16863404E+00 0.10363977E+04</pdfrwt>
<pdfrwt beam="2">  1       -4 0.65326750E-01 0.10363977E+04</pdfrwt>
<totfact> 0.16730095E+01</totfact>
</mgrwt>
</event>
<event>
 6    2  0.2220137E-005  0.1186359E+04  0.7818608E-02  0.9301259E-01
         21   -1    0    0  501  502  0.00000000000E+00  0.00000000000E+00  0.47799818865E+03  0.47799818865E+03  0.00000000000E+00 0. -1.
         -4   -1    0    0    0  501 -0.00000000000E+00 -0.00000000000E+00 -0.18948677608E+04  0.18948677608E+04  0.00000000000E+00 0. -1.
   -9000010    2    1    2    0  502  0.56193243427E+03 -0.25000331012E+03 -0.54414890534E+03  0.13051997613E+04  0.10144844356E+04 0.  0.
         13    1    3    3    0    0 -0.39998693235E+01 -0.17688647717E+03  0.26283750461E+03  0.31684126902E+03  0.10566000000E+00 0. -1.
         -4    1    3    3    0  502  0.56593230360E+03 -0.73116832951E+02 -0.80698640995E+03  0.98835849233E+03  0.00000000000E+00 0. -1.
        -13    1    1    2    0    0 -0.56193243427E+03  0.25000331012E+03 -0.87272066681E+03  0.10676661881E+04  0.10566000000E+00 0.  1.
<mgrwt>
<rscale>  1 0.10066706E+04</rscale>
<asrwt>0</asrwt>
<pdfrwt beam="1">  1       21 0.73538184E-01 0.11863593E+04</pdfrwt>
<pdfrwt beam="2">  1       -4 0.29151811E+00 0.11863593E+04</pdfrwt>
<totfact> 0.21701519E+00</totfact>
</mgrwt>
</event>
<event>
 6    2  0.2220137E-005  0.1004926E+04  0.7818608E-02  0.1001393E+00
         -4   -1    0    0    0  501 -0.00000000000E+00  0.00000000000E+00  0.16429711902E+04  0.16429711902E+04  0.00000000000E+00 0. -1.
         21   -1    0    0  501  502  0.00000000000E+00 -0.00000000000E+00 -0.18321637962E+03  0.18321637962E+03  0.00000000000E+00 0. -1.
   -9000010    2    1    2    0  502 -0.29142828769E+02 -0.85630617808E+02  0.13669489760E+04  0.16965926576E+04  0.10008472589E+04 0.  0.
         13    1    3    3    0    0 -0.43626907297E+03 -0.31108033302E+03  0.65839270911E+03  0.84887139673E+03  0.10566000000E+00 0. -1.
         -4    1    3    3    0  502  0.40712624420E+03  0.22544971522E+03  0.70855626688E+03  0.84772126088E+03  0.00000000000E+00 0. -1.
        -13    1    1    2    0    0  0.29142828769E+02  0.85630617808E+02  0.92805834616E+02  0.12959491224E+03  0.10566000000E+00 0.  1.
<mgrwt>
<rscale>  1 0.55043704E+03</rscale>
<asrwt>0</asrwt>
<pdfrwt beam="2">  1       21 0.28187136E-01 0.10049264E+04</pdfrwt>
<pdfrwt beam="1">  1       -4 0.25276479E+00 0.10049264E+04</pdfrwt>
<totfact> 0.30072605E+01</totfact>
</mgrwt>
</event>
<event>
 6    2  0.2220137E-005  0.1029385E+04  0.7818608E-02  0.9710619E-01
         -4   -1    0    0    0  501 -0.00000000000E+00  0.00000000000E+00  0.13376451955E+04  0.13376451955E+04  0.00000000000E+00 0. -1.
         21   -1    0    0  501  502  0.00000000000E+00 -0.00000000000E+00 -0.56203688688E+03  0.56203688688E+03  0.00000000000E+00 0. -1.
   -9000010    2    1    2    0  502 -0.19473316515E+03 -0.11279436048E+03 -0.63090569015E+02  0.10313161504E+04  0.10044844492E+04 0.  0.
         13    1    3    3    0    0 -0.44688976399E+03  0.30210956397E+03  0.14585427710E+02  0.53962338317E+03  0.10566000000E+00 0. -1.
         -4    1    3    3    0  502  0.25215659884E+03 -0.41490392444E+03 -0.77675996725E+02  0.49169276721E+03  0.00000000000E+00 0. -1.
        -13    1    1    2    0    0  0.19473316515E+03  0.11279436048E+03  0.83869887760E+03  0.86836593198E+03  0.10566000000E+00 0.  1.
<mgrwt>
<rscale>  1 0.70388027E+03</rscale>
<asrwt>0</asrwt>
<pdfrwt beam="2">  1       21 0.86467214E-01 0.10293846E+04</pdfrwt>
<pdfrwt beam="1">  1       -4 0.20579157E+00 0.10293846E+04</pdfrwt>
<totfact> 0.52075754E+00</totfact>
</mgrwt>
</event>
<event>
 6    2  0.2220137E-005  0.1014713E+04  0.7818608E-02  0.1008015E+00
         -4   -1    0    0    0  501 -0.00000000000E+00  0.00000000000E+00  0.55899299491E+03  0.55899299491E+03  0.00000000000E+00 0. -1.
         21   -1    0    0  501  502  0.00000000000E+00 -0.00000000000E+00 -0.84542255293E+03  0.84542255293E+03  0.00000000000E+00 0. -1.
   -9000010    2    1    2    0  502 -0.42888469237E+02 -0.57149490543E+02 -0.53406526312E+03  0.11466774275E+04  0.10121946120E+04 0.  0.
         13    1    3    3    0    0  0.36569215644E+03 -0.33672560254E+03 -0.38770182297E+03  0.63041859061E+03  0.10566000000E+00 0. -1.
         -4    1    3    3    0  502 -0.40858062568E+03  0.27957611200E+03 -0.14636344015E+03  0.51625883692E+03  0.00000000000E+00 0. -1.
        -13    1    1    2    0    0  0.42888469237E+02  0.57149490543E+02  0.24763570509E+03  0.25773812032E+03  0.10566000000E+00 0.  1.
<mgrwt>
<rscale>  1 0.52271181E+03</rscale>
<asrwt>0</asrwt>
<pdfrwt beam="2">  1       21 0.13006501E+00 0.10147135E+04</pdfrwt>
<pdfrwt beam="1">  1       -4 0.85998923E-01 0.10147135E+04</pdfrwt>
<totfact> 0.18501183E+01</totfact>
</mgrwt>
</event>
<event>
 6    2  0.2220137E-005  0.1196458E+04  0.7818608E-02  0.9272656E-01
         21   -1    0    0  501  502  0.00000000000E+00  0.00000000000E+00  0.10703075774E+04  0.10703075774E+04  0.00000000000E+00 0. -1.
         -4   -1    0    0    0  501 -0.00000000000E+00 -0.00000000000E+00 -0.97727877426E+03  0.97727877426E+03  0.00000000000E+00 0. -1.
   -9000010    2    1    2    0  502  0.36806303018E+03  0.55487260196E+03 -0.35145741178E+03  0.12470103059E+04  0.99406156355E+03 0.  0.
         13    1    3    3    0    0 -0.25678598700E+03  0.16697165772E+03 -0.40708576184E+03  0.50944813893E+03  0.10566000000E+00 0. -1.
         -4    1    3    3    0  502  0.62484901718E+03  0.38790094424E+03  0.55628350058E+02  0.73756216697E+03  0.00000000000E+00 0. -1.
        -13    1    1    2    0    0 -0.36806303018E+03 -0.55487260196E+03  0.44448621489E+03  0.80057604572E+03  0.10566000000E+00 0.  1.
<mgrwt>
<rscale>  1 0.10333967E+04</rscale>
<asrwt>0</asrwt>
<pdfrwt beam="1">  1       21 0.16466270E+00 0.11964583E+04</pdfrwt>
<pdfrwt beam="2">  1       -4 0.15035058E+00 0.11964583E+04</pdfrwt>
<totfact> 0.23348254E+00</totfact>
</mgrwt>
</event>
<event>
 6    2  0.2220137E-005  0.1116053E+04  0.7818608E-02  0.9591157E-01
         21   -1    0    0  501  502  0.00000000000E+00  0.00000000000E+00  0.26059620133E+03  0.26059620133E+03  0.00000000000E+00 0. -1.
         -4   -1    0    0    0  501 -0.00000000000E+00 -0.00000000000E+00 -0.20508923791E+04  0.20508923791E+04  0.00000000000E+00 0. -1.
   -9000010    2    1    2    0  502  0.23865454512E+03  0.11448595211E+03 -0.10782546027E+04  0.15518398189E+04  0.10842097630E+04 0.  0.
         13    1    3    3    0    0  0.43151635514E+03  0.35067467299E+03 -0.15164422709E+03  0.57634631412E+03  0.10566000000E+00 0. -1.
         -4    1    3    3    0  502 -0.19286181002E+03 -0.23618872088E+03 -0.92661037561E+03  0.97549350475E+03  0.00000000000E+00 0. -1.
        -13    1    1    2    0    0 -0.23865454512E+03 -0.11448595211E+03 -0.71204157508E+03  0.75964876157E+03  0.10566000000E+00 0.  1.
<mgrwt>
<rscale>  1 0.77884256E+03</rscale>
<asrwt>0</asrwt>
<pdfrwt beam="1">  1       21 0.40091724E-01 0.11160528E+04</pdfrwt>
<pdfrwt beam="2">  1       -4 0.31552190E+00 0.11160528E+04</pdfrwt>
<totfact> 0.59000305E+00</totfact>
</mgrwt>
</event>
<event>
 6    2  0.2220137E-005  0.1000672E+04  0.7818608E-02  0.9832298E-01
         -4   -1    0    0    0  501 -0.00000000000E+00  0.00000000000E+00  0.42594538196E+03  0.42594538196E+03  0.00000000000E+00 0. -1.
         21   -1    0    0  501  502  0.00000000000E+00 -0.00000000000E+00 -0.14276545024E+04  0.14276545024E+04  0.00000000000E+00 0. -1.
   -9000010    2    1    2    0  502  0.22902122332E+02 -0.16227263335E+03 -0.12217446274E+04  0.15792414505E+04  0.98716093408E+03 0.  0.
         13    1    3    3    0    0 -0.40771858726E+03 -0.16009929862E+03 -0.10067852798E+04  0.10979448268E+04  0.10566000000E+00 0. -1.
         -4    1    3    3    0  502  0.43062070960E+03 -0.21733347288E+01 -0.21495934753E+03  0.48129662372E+03  0.00000000000E+00 0. -1.
        -13    1    1    2    0    0 -0.22902122332E+02  0.16227263335E+03  0.22003550694E+03  0.27435843384E+03  0.10566000000E+00 0.  1.
<mgrwt>
<rscale>  1 0.63657666E+03</rscale>
<asrwt>0</asrwt>
<pdfrwt beam="2">  1       21 0.21963916E+00 0.10006716E+04</pdfrwt>
<pdfrwt beam="1">  1       -4 0.65530058E-01 0.10006716E+04</pdfrwt>
<totfact> 0.73277943E+00</totfact>
</mgrwt>
</event>
<event>
 6    2  0.2220137E-005  0.1066344E+04  0.7818608E-02  0.9534971E-01
         21   -1    0    0  501  502  0.00000000000E+00  0.00000000000E+00  0.84934868566E+03  0.84934868566E+03  0.00000000000E+00 0. -1.
         -4   -1    0    0    0  501 -0.00000000000E+00 -0.00000000000E+00 -0.10167676506E+04  0.10167676506E+04  0.00000000000E+00 0. -1.
   -9000010    2    1    2    0  502 -0.36531917404E+03  0.47689251631E+02  0.44173384726E+03  0.11542178018E+04  0.10006785590E+04 0.  0.
         13    1    3    3    0    0 -0.54702212081E+03  0.39473407078E+03  0.28407689921E+03  0.73194800574E+03  0.10566000000E+00 0. -1.
         -4    1    3    3    0  502  0.18170294677E+03 -0.34704481915E+03  0.15765694806E+03  0.42226979602E+03  0.00000000000E+00 0. -1.
        -13    1    1    2    0    0  0.36531917404E+03 -0.47689251631E+02 -0.60915281224E+03  0.71189853453E+03  0.10566000000E+00 0.  1.
<mgrwt>
<rscale>  1 0.81753902E+03</rscale>
<asrwt>0</asrwt>
<pdfrwt beam="1">  1       21 0.13066903E+00 0.10663442E+04</pdfrwt>
<pdfrwt beam="2">  1       -4 0.15642579E+00 0.10663442E+04</pdfrwt>
<totfact> 0.40535074E+00</totfact>
</mgrwt>
</event>
<event>
 6    2  0.2220137E-005  0.1036060E+04  0.7818608E-02  0.9673606E-01
         21   -1    0    0  501  502  0.00000000000E+00  0.00000000000E+00  0.66098179744E+03  0.66098179744E+03  0.00000000000E+00 0. -1.
         -4   -1    0    0    0  501 -0.00000000000E+00 -0.00000000000E+00 -0.62795815506E+03  0.62795815506E+03  0.00000000000E+00 0. -1.
   -9000010    2    1    2    0  502 -0.67324961948E+02 -0.24070288970E+03  0.58458949001E+02  0.10377079927E+04  0.10054600429E+04 0.  0.
         13    1    3    3    0    0 -0.10778768907E+01 -0.29442601250E+03  0.50420475639E+03  0.58387523169E+03  0.10566000000E+00 0. -1.
         -4    1    3    3    0  502 -0.66247085057E+02  0.53723122796E+02 -0.44574580739E+03  0.45383276105E+03  0.00000000000E+00 0. -1.
        -13    1    1    2    0    0  0.67324961948E+02  0.24070288970E+03 -0.25435306621E+02  0.25123195975E+03  0.10566000000E+00 0.  1.
<mgrwt>
<rscale>  1 0.72610279E+03</rscale>
<asrwt>0</asrwt>
<pdfrwt beam="1">  1       21 0.10168951E+00 0.10360601E+04</pdfrwt>
<pdfrwt beam="2">  1       -4 0.96608947E-01 0.10360601E+04</pdfrwt>
<totfact> 0.26405937E+01</totfact>
</mgrwt>
</event>
<event>
 6    2  0.2220137E-005  0.1029535E+04  0.7818608E-02  0.9732365E-01
         -4   -1    0    0    0  501 -0.00000000000E+00  0.00000000000E+00  0.13929678689E+04  0.13929678689E+04  0.00000000000E+00 0. -1.
         21   -1    0    0  501  502  0.00000000000E+00 -0.00000000000E+00 -0.38377580434E+03  0.38377580434E+03  0.00000000000E+00 0. -1.
   -9000010    2    1    2    0  502  0.10649406125E+03 -0.18005599951E+03  0.35356839823E+03  0.10885550719E+04  0.10080577286E+04 0.  0.
         13    1    3    3    0    0 -0.28312527317E+02 -0.53772089950E+03  0.44152370688E+03  0.69633939991E+03  0.10566000000E+00 0. -1.
         -4    1    3    3    0  502  0.13480658857E+03  0.35766489999E+03 -0.87955308654E+02  0.39221567196E+03  0.00000000000E+00 0. -1.
        -13    1    1    2    0    0 -0.10649406125E+03  0.18005599951E+03  0.65562366636E+03  0.68818860140E+03  0.10566000000E+00 0.  1.
<mgrwt>
<rscale>  1 0.69122083E+03</rscale>
<asrwt>0</asrwt>
<pdfrwt beam="2">  1       21 0.59042432E-01 0.10295346E+04</pdfrwt>
<pdfrwt beam="1">  1       -4 0.21430275E+00 0.10295346E+04</pdfrwt>
<totfact> 0.11045161E+01</totfact>
</mgrwt>
</event>
<event>
 6    2  0.2220137E-005  0.9532854E+03  0.7818608E-02  0.1001009E+00
         21   -1    0    0  501  502  0.00000000000E+00  0.00000000000E+00  0.79136295437E+03  0.79136295437E+03  0.00000000000E+00 0. -1.
         -4   -1    0    0    0  501 -0.00000000000E+00 -0.00000000000E+00 -0.39246524642E+03  0.39246524642E+03  0.00000000000E+00 0. -1.
   -9000010    2    1    2    0  502 -0.10668547493E+03 -0.11013186624E+02  0.46205457306E+03  0.10593618133E+04  0.94723278140E+03 0.  0.
         13    1    3    3    0    0  0.33993305709E+03  0.23549513024E+03  0.78013775458E+02  0.42083084487E+03  0.10566000000E+00 0. -1.
         -4    1    3    3    0  502 -0.44661853201E+03 -0.24650831687E+03  0.38404079760E+03  0.63853096843E+03  0.00000000000E+00 0. -1.
        -13    1    1    2    0    0  0.10668547493E+03  0.11013186624E+02 -0.63156865104E+02  0.12446638748E+03  0.10566000000E+00 0.  1.
<mgrwt>
<rscale>  1 0.55210162E+03</rscale>
<asrwt>0</asrwt>
<pdfrwt beam="1">  1       21 0.12174815E+00 0.95328538E+03</pdfrwt>
<pdfrwt beam="2">  1       -4 0.60379269E-01 0.95328538E+03</pdfrwt>
<totfact> 0.49133752E+01</totfact>
</mgrwt>
</event>
<event>
 6    2  0.2220137E-005  0.1009817E+04  0.7818608E-02  0.9979012E-01
         21   -1    0    0  501  502  0.00000000000E+00  0.00000000000E+00  0.13261159925E+04  0.13261159925E+04  0.00000000000E+00 0. -1.
         -4   -1    0    0    0  501 -0.00000000000E+00 -0.00000000000E+00 -0.26031895662E+03  0.26031895662E+03  0.00000000000E+00 0. -1.
   -9000010    2    1    2    0  502  0.91344626159E+02 -0.39512382459E+02  0.10880561857E+04  0.14844518623E+04  0.10049009897E+04 0.  0.
         13    1    3    3    0    0  0.41778340691E+02 -0.22327104714E+03  0.12276081484E+04  0.12484459009E+04  0.10566000000E+00 0. -1.
         -4    1    3    3    0  502  0.49566285468E+02  0.18375866469E+03 -0.13955196275E+03  0.23600596139E+03  0.00000000000E+00 0. -1.
        -13    1    1    2    0    0 -0.91344626159E+02  0.39512382459E+02 -0.22259149758E+02  0.10198308687E+03  0.10566000000E+00 0.  1.
<mgrwt>
<rscale>  1 0.56580186E+03</rscale>
<asrwt>0</asrwt>
<pdfrwt beam="1">  1       21 0.20401784E+00 0.10098173E+04</pdfrwt>
<pdfrwt beam="2">  1       -4 0.40049071E-01 0.10098173E+04</pdfrwt>
<totfact> 0.26486016E+01</totfact>
</mgrwt>
</event>
<event>
 6    2  0.2220137E-005  0.1146479E+04  0.7818608E-02  0.1003681E+00
         -4   -1    0    0    0  501 -0.00000000000E+00  0.00000000000E+00  0.54107394282E+03  0.54107394282E+03  0.00000000000E+00 0. -1.
         21   -1    0    0  501  502  0.00000000000E+00 -0.00000000000E+00 -0.67136643377E+03  0.67136643377E+03  0.00000000000E+00 0. -1.
   -9000010    2    1    2    0  502  0.42355415157E+02 -0.37693360149E+02 -0.13972649058E+03  0.11549618405E+04  0.11450758011E+04 0.  0.
         13    1    3    3    0    0  0.44462532667E+03 -0.38014993260E+03 -0.21101123971E+03  0.62187732457E+03  0.10566000000E+00 0. -1.
         -4    1    3    3    0  502 -0.40226991151E+03  0.34245657245E+03  0.71284749126E+02  0.53308451598E+03  0.00000000000E+00 0. -1.
        -13    1    1    2    0    0 -0.42355415157E+02  0.37693360149E+02  0.94339996275E+01  0.57478536041E+02  0.10566000000E+00 0.  1.
<mgrwt>
<rscale>  1 0.54065276E+03</rscale>
<asrwt>0</asrwt>
<pdfrwt beam="2">  1       21 0.10328714E+00 0.11464787E+04</pdfrwt>
<pdfrwt beam="1">  1       -4 0.83242145E-01 0.11464787E+04</pdfrwt>
<totfact> 0.35725447E+01</totfact>
</mgrwt>
</event>
<event>
 6    2  0.2220137E-005  0.1116508E+04  0.7818608E-02  0.9554450E-01
         -4   -1    0    0    0  501 -0.00000000000E+00  0.00000000000E+00  0.62095260244E+03  0.62095260244E+03  0.00000000000E+00 0. -1.
         21   -1    0    0  501  502  0.00000000000E+00 -0.00000000000E+00 -0.10077864792E+04  0.10077864792E+04  0.00000000000E+00 0. -1.
   -9000010    2    1    2    0  502 -0.33479261034E+01 -0.29998763387E+03 -0.59348963953E+03  0.12644446890E+04  0.10754471769E+04 0.  0.
         13    1    3    3    0    0  0.16815062903E+03 -0.24926661122E+03 -0.87818678840E+03  0.92823516632E+03  0.10566000000E+00 0. -1.
         -4    1    3    3    0  502 -0.17149855513E+03 -0.50721022647E+02  0.28469714888E+03  0.33620952266E+03  0.00000000000E+00 0. -1.
        -13    1    1    2    0    0  0.33479261034E+01  0.29998763387E+03  0.20665576275E+03  0.36429439266E+03  0.10566000000E+00 0.  1.
<mgrwt>
<rscale>  1 0.80385742E+03</rscale>
<asrwt>0</asrwt>
<pdfrwt beam="2">  1       21 0.15504407E+00 0.11165081E+04</pdfrwt>
<pdfrwt beam="1">  1       -4 0.95531170E-01 0.11165081E+04</pdfrwt>
<totfact> 0.88248563E+00</totfact>
</mgrwt>
</event>
<event>
 6    2  0.2220137E-005  0.1031693E+04  0.7818608E-02  0.9863781E-01
         21   -1    0    0  501  502  0.00000000000E+00  0.00000000000E+00  0.24206979811E+03  0.24206979811E+03  0.00000000000E+00 0. -1.
         -4   -1    0    0    0  501 -0.00000000000E+00 -0.00000000000E+00 -0.14057428969E+04  0.14057428969E+04  0.00000000000E+00 0. -1.
   -9000010    2    1    2    0  502  0.30498556656E+02 -0.13149674085E+03 -0.10277477296E+04  0.14562473746E+04  0.10228242594E+04 0.  0.
         13    1    3    3    0    0 -0.41482111417E+03 -0.10973291504E+03 -0.12101499110E+03  0.44582789127E+03  0.10566000000E+00 0. -1.
         -4    1    3    3    0  502  0.44531967082E+03 -0.21763825812E+02 -0.90673273848E+03  0.10104194834E+04  0.00000000000E+00 0. -1.
        -13    1    1    2    0    0 -0.30498556656E+02  0.13149674085E+03 -0.13592536922E+03  0.19156532039E+03  0.10566000000E+00 0.  1.
<mgrwt>
<rscale>  1 0.62049197E+03</rscale>
<asrwt>0</asrwt>
<pdfrwt beam="1">  1       21 0.37241508E-01 0.10316933E+04</pdfrwt>
<pdfrwt beam="2">  1       -4 0.21626813E+00 0.10316933E+04</pdfrwt>
<totfact> 0.28818619E+01</totfact>
</mgrwt>
</event>
<event>
 6    2  0.2220137E-005  0.1006145E+04  0.7818608E-02  0.9899905E-01
         21   -1    0    0  501  502  0.00000000000E+00  0.00000000000E+00  0.48635813916E+03  0.48635813916E+03  0.00000000000E+00 0. -1.
         -4   -1    0    0    0  501 -0.00000000000E+00 -0.00000000000E+00 -0.85554295136E+03  0.85554295136E+03  0.00000000000E+00 0. -1.
   -9000010    2    1    2    0  502  0.37591243124E+02 -0.12393496488E+03 -0.61444668740E+02  0.10080193987E+04  0.99777486627E+03 0.  0.
         13    1    3    3    0    0 -0.96648388617E+02  0.27469959170E+03 -0.38116333847E+03  0.47967309541E+03  0.10566000000E+00 0. -1.
         -4    1    3    3    0  502  0.13423963174E+03 -0.39863455658E+03  0.31971866973E+03  0.52834630329E+03  0.00000000000E+00 0. -1.
        -13    1    1    2    0    0 -0.37591243124E+02  0.12393496488E+03 -0.30774014346E+03  0.33388169183E+03  0.10566000000E+00 0.  1.
<mgrwt>
<rscale>  1 0.60265910E+03</rscale>
<asrwt>0</asrwt>
<pdfrwt beam="1">  1       21 0.74824330E-01 0.10061450E+04</pdfrwt>
<pdfrwt beam="2">  1       -4 0.13162199E+00 0.10061450E+04</pdfrwt>
<totfact> 0.25674693E+01</totfact>
</mgrwt>
</event>
<event>
 6    2  0.2220137E-005  0.1372209E+04  0.7818608E-02  0.9078060E-01
         -4   -1    0    0    0  501 -0.00000000000E+00  0.00000000000E+00  0.12223181948E+04  0.12223181948E+04  0.00000000000E+00 0. -1.
         21   -1    0    0  501  502  0.00000000000E+00 -0.00000000000E+00 -0.12785348721E+04  0.12785348721E+04  0.00000000000E+00 0. -1.
   -9000010    2    1    2    0  502  0.13780906085E+03  0.90630532718E+03 -0.52747029460E+03  0.14700957403E+04  0.10210660560E+04 0.  0.
         13    1    3    3    0    0  0.15068294737E+03  0.27108842619E+03  0.29686536431E+03  0.42932894281E+03  0.10566000000E+00 0. -1.
         -4    1    3    3    0  502 -0.12873886519E+02  0.63521690099E+03 -0.82433565891E+03  0.10407667975E+04  0.00000000000E+00 0. -1.
        -13    1    1    2    0    0 -0.13780906085E+03 -0.90630532718E+03  0.47125361733E+03  0.10307573266E+04  0.10566000000E+00 0.  1.
<mgrwt>
<rscale>  1 0.12405796E+04</rscale>
<asrwt>0</asrwt>
<pdfrwt beam="2">  1       21 0.19669767E+00 0.13722086E+04</pdfrwt>
<pdfrwt beam="1">  1       -4 0.18804895E+00 0.13722086E+04</pdfrwt>
<totfact> 0.70705467E-01</totfact>
</mgrwt>
</event>
<event>
 6    2  0.2220137E-005  0.1004055E+04  0.7818608E-02  0.9765730E-01
         -4   -1    0    0    0  501 -0.00000000000E+00  0.00000000000E+00  0.15754068196E+04  0.15754068196E+04  0.00000000000E+00 0. -1.
         21   -1    0    0  501  502  0.00000000000E+00 -0.00000000000E+00 -0.27069115235E+03  0.27069115235E+03  0.00000000000E+00 0. -1.
   -9000010    2    1    2    0  502  0.19866622178E+03 -0.35888708843E+02  0.74260899240E+03  0.12488373989E+04  0.98354993065E+03 0.  0.
         13    1    3    3    0    0 -0.12373621539E+03  0.32698245523E+03  0.67310018860E+03  0.75848009340E+03  0.10566000000E+00 0. -1.
         -4    1    3    3    0  502  0.32240243716E+03 -0.36287116407E+03  0.69508803799E+02  0.49035730545E+03  0.00000000000E+00 0. -1.
        -13    1    1    2    0    0 -0.19866622178E+03  0.35888708843E+02  0.56210667484E+03  0.59726057309E+03  0.10566000000E+00 0.  1.
<mgrwt>
<rscale>  1 0.67234548E+03</rscale>
<asrwt>0</asrwt>
<pdfrwt beam="2">  1       21 0.41644793E-01 0.10040551E+04</pdfrwt>
<pdfrwt beam="1">  1       -4 0.24237028E+00 0.10040551E+04</pdfrwt>
<totfact> 0.15660629E+01</totfact>
</mgrwt>
</event>
<event>
 6    2  0.2220137E-005  0.1028852E+04  0.7818608E-02  0.9640600E-01
         21   -1    0    0  501  502  0.00000000000E+00  0.00000000000E+00  0.19214456746E+04  0.19214456746E+04  0.00000000000E+00 0. -1.
         -4   -1    0    0    0  501 -0.00000000000E+00 -0.00000000000E+00 -0.36775711737E+03  0.36775711737E+03  0.00000000000E+00 0. -1.
   -9000010    2    1    2    0  502  0.42723120885E+02 -0.28217498303E+03  0.16856108984E+04  0.19747962058E+04  0.98847760106E+03 0.  0.
         13    1    3    3    0    0 -0.19595887138E+03 -0.39352321980E+03  0.16517505631E+04  0.17092513969E+04  0.10566000000E+00 0. -1.
         -4    1    3    3    0  502  0.23868199226E+03  0.11134823676E+03  0.33860335242E+02  0.26554480896E+03  0.00000000000E+00 0. -1.
        -13    1    1    2    0    0 -0.42723120885E+02  0.28217498303E+03 -0.13192234119E+03  0.31440658609E+03  0.10566000000E+00 0.  1.
<mgrwt>
<rscale>  1 0.74666304E+03</rscale>
<asrwt>0</asrwt>
<pdfrwt beam="1">  1       21 0.29560702E+00 0.10288518E+04</pdfrwt>
<pdfrwt beam="2">  1       -4 0.56578019E-01 0.10288518E+04</pdfrwt>
<totfact> 0.33105315E+00</totfact>
</mgrwt>
</event>
<event>
 6    2  0.2220137E-005  0.1011750E+04  0.7818608E-02  0.9975810E-01
         -4   -1    0    0    0  501 -0.00000000000E+00  0.00000000000E+00  0.13232767571E+04  0.13232767571E+04  0.00000000000E+00 0. -1.
         21   -1    0    0  501  502  0.00000000000E+00 -0.00000000000E+00 -0.32632690384E+03  0.32632690384E+03  0.00000000000E+00 0. -1.
   -9000010    2    1    2    0  502  0.45985010134E+02 -0.88758111071E+02  0.47416980373E+03  0.11173522027E+04  0.10068000391E+04 0.  0.
         13    1    3    3    0    0 -0.13821292526E+01  0.99039889327E+02 -0.30176794080E+03  0.31760779464E+03  0.10566000000E+00 0. -1.
         -4    1    3    3    0  502  0.47367139387E+02 -0.18779800040E+03  0.77593774453E+03  0.79974440807E+03  0.00000000000E+00 0. -1.
        -13    1    1    2    0    0 -0.45985010134E+02  0.88758111071E+02  0.52278004951E+03  0.53225145821E+03  0.10566000000E+00 0.  1.
<mgrwt>
<rscale>  1 0.56723765E+03</rscale>
<asrwt>0</asrwt>
<pdfrwt beam="2">  1       21 0.50204140E-01 0.10117504E+04</pdfrwt>
<pdfrwt beam="1">  1       -4 0.20358104E+00 0.10117504E+04</pdfrwt>
<totfact> 0.18541835E+01</totfact>
</mgrwt>
</event>
<event>
 6    2  0.2220137E-005  0.9772541E+03  0.7818608E-02  0.9888055E-01
         21   -1    0    0  501  502  0.00000000000E+00  0.00000000000E+00  0.16565752976E+03  0.16565752976E+03  0.00000000000E+00 0. -1.
         -4   -1    0    0    0  501 -0.00000000000E+00 -0.00000000000E+00 -0.21009657663E+04  0.21009657663E+04  0.00000000000E+00 0. -1.
   -9000010    2    1    2    0  502 -0.38054384890E+02  0.14182174573E+03 -0.18611542908E+04  0.21021229538E+04  0.96615944586E+03 0.  0.
         13    1    3    3    0    0  0.10308862048E+02 -0.76064866064E+02  0.10125534225E+03  0.12706215796E+03  0.10566000000E+00 0. -1.
         -4    1    3    3    0  502 -0.48363246938E+02  0.21788661179E+03 -0.19624096331E+04  0.19750607958E+04  0.00000000000E+00 0. -1.
        -13    1    1    2    0    0  0.38054384890E+02 -0.14182174573E+03 -0.74153945661E+02  0.16450034222E+03  0.10566000000E+00 0.  1.
<mgrwt>
<rscale>  1 0.60843711E+03</rscale>
<asrwt>0</asrwt>
<pdfrwt beam="1">  1       21 0.25485772E-01 0.97725412E+03</pdfrwt>
<pdfrwt beam="2">  1       -4 0.32322552E+00 0.97725412E+03</pdfrwt>
<totfact> 0.13514079E+01</totfact>
</mgrwt>
</event>
<event>
 6    2  0.2220137E-005  0.9944692E+03  0.7818608E-02  0.9849980E-01
         21   -1    0    0  501  502  0.00000000000E+00  0.00000000000E+00  0.87628093112E+03  0.87628093112E+03  0.00000000000E+00 0. -1.
         -4   -1    0    0    0  501 -0.00000000000E+00 -0.00000000000E+00 -0.41275871941E+03  0.41275871941E+03  0.00000000000E+00 0. -1.
   -9000010    2    1    2    0  502 -0.15603101916E+03  0.22355968471E+02  0.51923130831E+03  0.11218601575E+04  0.98189795463E+03 0.  0.
         13    1    3    3    0    0  0.80589483528E+02  0.35736489246E+03  0.60080146379E+03  0.70368085186E+03  0.10566000000E+00 0. -1.
         -4    1    3    3    0  502 -0.23662050268E+03 -0.33500892399E+03 -0.81570155479E+02  0.41817930569E+03  0.00000000000E+00 0. -1.
        -13    1    1    2    0    0  0.15603101916E+03 -0.22355968471E+02 -0.55709096600E+02  0.16717949298E+03  0.10566000000E+00 0.  1.
<mgrwt>
<rscale>  1 0.62747935E+03</rscale>
<asrwt>0</asrwt>
<pdfrwt beam="1">  1       21 0.13481245E+00 0.99446924E+03</pdfrwt>
<pdfrwt beam="2">  1       -4 0.63501342E-01 0.99446924E+03</pdfrwt>
<totfact> 0.33473559E+01</totfact>
</mgrwt>
</event>
<event>
 6    2  0.2220137E-005  0.1103697E+04  0.7818608E-02  0.9437518E-01
         21   -1    0    0  501  502  0.00000000000E+00  0.00000000000E+00  0.10595139190E+04  0.10595139190E+04  0.00000000000E+00 0.  1.
         -4   -1    0    0    0  501 -0.00000000000E+00 -0.00000000000E+00 -0.79521322141E+03  0.79521322141E+03  0.00000000000E+00 0. -1.
   -9000010    2    1    2    0  502 -0.23144701310E+03 -0.40647359827E+03 -0.27840097340E+03  0.11382680552E+04  0.99967922729E+03 0.  0.
         13    1    3    3    0    0 -0.45237849581E+03 -0.42566498176E+03  0.16482930922E+03  0.64265518944E+03  0.10566000000E+00 0. -1.
         -4    1    3    3    0  502  0.22093148271E+03  0.19191383484E+02 -0.44323028262E+03  0.49561286573E+03  0.00000000000E+00 0. -1.
        -13    1    1    2    0    0  0.23144701310E+03  0.40647359827E+03  0.54270167095E+03  0.71645908521E+03  0.10566000000E+00 0.  1.
<mgrwt>
<rscale>  1 0.89051352E+03</rscale>
<asrwt>0</asrwt>
<pdfrwt beam="1">  1       21 0.16300214E+00 0.11036970E+04</pdfrwt>
<pdfrwt beam="2">  1       -4 0.12234050E+00 0.11036970E+04</pdfrwt>
<totfact> 0.41683587E+00</totfact>
</mgrwt>
</event>
<event>
 6    2  0.2220137E-005  0.1160474E+04  0.7818608E-02  0.9352023E-01
         -4   -1    0    0    0  501 -0.00000000000E+00  0.00000000000E+00  0.21467464902E+04  0.21467464902E+04  0.00000000000E+00 0. -1.
         21   -1    0    0  501  502  0.00000000000E+00 -0.00000000000E+00 -0.37823040624E+03  0.37823040624E+03  0.00000000000E+00 0.  1.
   -9000010    2    1    2    0  502  0.18171744433E+03  0.51535763750E+03  0.78883185212E+03  0.14031944178E+04  0.10237598152E+04 0.  0.
         13    1    3    3    0    0 -0.17859953437E+01 -0.18864441093E+03  0.63119889078E+03  0.65878824705E+03  0.10566000000E+00 0. -1.
         -4    1    3    3    0  502  0.18350343967E+03  0.70400204843E+03  0.15763296133E+03  0.74440617076E+03  0.00000000000E+00 0. -1.
        -13    1    1    2    0    0 -0.18171744433E+03 -0.51535763750E+03  0.97968423181E+03  0.11217824786E+04  0.10566000000E+00 0.  1.
<mgrwt>
<rscale>  1 0.96131417E+03</rscale>
<asrwt>0</asrwt>
<pdfrwt beam="2">  1       21 0.58189295E-01 0.11604736E+04</pdfrwt>
<pdfrwt beam="1">  1       -4 0.33026868E+00 0.11604736E+04</pdfrwt>
<totfact> 0.21187158E+00</totfact>
</mgrwt>
</event>
<event>
 6    2  0.2220137E-005  0.9961449E+03  0.7818608E-02  0.9647398E-01
         -4   -1    0    0    0  501 -0.00000000000E+00  0.00000000000E+00  0.49180038516E+03  0.49180038516E+03  0.00000000000E+00 0. -1.
         21   -1    0    0  501  502  0.00000000000E+00 -0.00000000000E+00 -0.13980649720E+04  0.13980649720E+04  0.00000000000E+00 0. -1.
   -9000010    2    1    2    0  502  0.87931681927E+02 -0.29441414647E+03 -0.11325246572E+04  0.15082827305E+04  0.94757217427E+03 0.  0.
         13    1    3    3    0    0 -0.47769362183E+02 -0.42009052735E+03 -0.68510454406E+02  0.42831256888E+03  0.10566000000E+00 0. -1.
         -4    1    3    3    0  502  0.13570104411E+03  0.12567638088E+03 -0.10640142028E+04  0.10799701616E+04  0.00000000000E+00 0. -1.
        -13    1    1    2    0    0 -0.87931681927E+02  0.29441414647E+03  0.22626007044E+03  0.38158262666E+03  0.10566000000E+00 0.  1.
<mgrwt>
<rscale>  1 0.74236948E+03</rscale>
<asrwt>0</asrwt>
<pdfrwt beam="2">  1       21 0.21508692E+00 0.99614492E+03</pdfrwt>
<pdfrwt beam="1">  1       -4 0.75661599E-01 0.99614492E+03</pdfrwt>
<totfact> 0.56951771E+00</totfact>
</mgrwt>
</event>
<event>
 6    2  0.2220137E-005  0.1055869E+04  0.7818608E-02  0.9470045E-01
         21   -1    0    0  501  502  0.00000000000E+00  0.00000000000E+00  0.11062142114E+04  0.11062142114E+04  0.00000000000E+00 0. -1.
         -4   -1    0    0    0  501 -0.00000000000E+00 -0.00000000000E+00 -0.63895018549E+03  0.63895018549E+03  0.00000000000E+00 0. -1.
   -9000010    2    1    2    0  502 -0.36213128777E+03 -0.30927634435E+03  0.64449858584E+03  0.12370275776E+04  0.94237353203E+03 0.  0.
         13    1    3    3    0    0 -0.32518678688E+03 -0.59951155073E+03  0.21078625550E+03  0.71385671006E+03  0.10566000000E+00 0. -1.
         -4    1    3    3    0  502 -0.36944500888E+02  0.29023520638E+03  0.43371233034E+03  0.52317086756E+03  0.00000000000E+00 0. -1.
        -13    1    1    2    0    0  0.36213128777E+03  0.30927634435E+03 -0.17723455990E+03  0.50813681931E+03  0.10566000000E+00 0.  1.
<mgrwt>
<rscale>  1 0.86528796E+03</rscale>
<asrwt>0</asrwt>
<pdfrwt beam="1">  1       21 0.17018680E+00 0.10558687E+04</pdfrwt>
<pdfrwt beam="2">  1       -4 0.98300029E-01 0.10558687E+04</pdfrwt>
<totfact> 0.63435079E+00</totfact>
</mgrwt>
</event>
<event>
 6    2  0.2220137E-005  0.1010507E+04  0.7818608E-02  0.1018627E+00
         -4   -1    0    0    0  501 -0.00000000000E+00  0.00000000000E+00  0.33641291340E+03  0.33641291340E+03  0.00000000000E+00 0. -1.
         21   -1    0    0  501  502  0.00000000000E+00 -0.00000000000E+00 -0.10022978557E+04  0.10022978557E+04  0.00000000000E+00 0. -1.
   -9000010    2    1    2    0  502  0.52198857679E+02 -0.21965286259E+01 -0.73682072493E+03  0.12506117230E+04  0.10091557638E+04 0.  0.
         13    1    3    3    0    0  0.11897927930E+03 -0.23965940503E+03  0.16587909538E+03  0.31481515969E+03  0.10566000000E+00 0. -1.
         -4    1    3    3    0  502 -0.66780421625E+02  0.23746287640E+03 -0.90269982032E+03  0.93579656335E+03  0.00000000000E+00 0. -1.
        -13    1    1    2    0    0 -0.52198857679E+02  0.21965286259E+01  0.70935782672E+02  0.88099046012E+02  0.10566000000E+00 0.  1.
<mgrwt>
<rscale>  1 0.48185469E+03</rscale>
<asrwt>0</asrwt>
<pdfrwt beam="2">  1       21 0.15419967E+00 0.10105072E+04</pdfrwt>
<pdfrwt beam="1">  1       -4 0.51755833E-01 0.10105072E+04</pdfrwt>
<totfact> 0.35928705E+01</totfact>
</mgrwt>
</event>
<event>
 6    2  0.2220137E-005  0.1044091E+04  0.7818608E-02  0.9594140E-01
         -4   -1    0    0    0  501 -0.00000000000E+00  0.00000000000E+00  0.19069773114E+03  0.19069773114E+03  0.00000000000E+00 0. -1.
         21   -1    0    0  501  502  0.00000000000E+00 -0.00000000000E+00 -0.25233101187E+04  0.25233101187E+04  0.00000000000E+00 0. -1.
   -9000010    2    1    2    0  502 -0.13791003180E+03 -0.28874904061E+03 -0.19759482364E+04  0.22348371984E+04  0.99384640918E+03 0.  0.
         13    1    3    3    0    0  0.40101769463E+03 -0.29730877922E+03 -0.10689556037E+04  0.11797770109E+04  0.10566000000E+00 0. -1.
         -4    1    3    3    0  502 -0.53892772643E+03  0.85597386100E+01 -0.90699263266E+03  0.10550601875E+04  0.00000000000E+00 0. -1.
        -13    1    1    2    0    0  0.13791003180E+03  0.28874904061E+03 -0.35666415114E+03  0.47917065144E+03  0.10566000000E+00 0.  1.
<mgrwt>
<rscale>  1 0.77685272E+03</rscale>
<asrwt>0</asrwt>
<pdfrwt beam="2">  1       21 0.38820154E+00 0.10440909E+04</pdfrwt>
<pdfrwt beam="1">  1       -4 0.29338114E-01 0.10440909E+04</pdfrwt>
<totfact> 0.32946053E+00</totfact>
</mgrwt>
</event>
<event>
 6    2  0.2220137E-005  0.1007196E+04  0.7818608E-02  0.9910893E-01
         -4   -1    0    0    0  501 -0.00000000000E+00  0.00000000000E+00  0.40004010227E+03  0.40004010227E+03  0.00000000000E+00 0. -1.
         21   -1    0    0  501  502  0.00000000000E+00 -0.00000000000E+00 -0.80134034698E+03  0.80134034698E+03  0.00000000000E+00 0. -1.
   -9000010    2    1    2    0  502 -0.56143905473E+01 -0.12449984366E+03 -0.34519937104E+03  0.10647091222E+04  0.99945544003E+03 0.  0.
         13    1    3    3    0    0 -0.37426767321E+03 -0.20815372338E+03  0.13915390188E+03  0.45029777186E+03  0.10566000000E+00 0. -1.
         -4    1    3    3    0  502  0.36865328266E+03  0.83653879714E+02 -0.48435327292E+03  0.61441135031E+03  0.00000000000E+00 0. -1.
        -13    1    1    2    0    0  0.56143905473E+01  0.12449984366E+03 -0.56100873669E+02  0.13667132707E+03  0.10566000000E+00 0.  1.
<mgrwt>
<rscale>  1 0.59736247E+03</rscale>
<asrwt>0</asrwt>
<pdfrwt beam="2">  1       21 0.12328313E+00 0.10071956E+04</pdfrwt>
<pdfrwt beam="1">  1       -4 0.61544631E-01 0.10071956E+04</pdfrwt>
<totfact> 0.45382231E+01</totfact>
</mgrwt>
</event>
<event>
 6    2  0.2220137E-005  0.1028128E+04  0.7818608E-02  0.9834023E-01
         -4   -1    0    0    0  501 -0.00000000000E+00  0.00000000000E+00  0.35014261155E+03  0.35014261155E+03  0.00000000000E+00 0. -1.
         21   -1    0    0  501  502  0.00000000000E+00 -0.00000000000E+00 -0.12757187890E+04  0.12757187890E+04  0.00000000000E+00 0. -1.
   -9000010    2    1    2    0  502  0.14716685492E+03  0.30288824607E+02 -0.44134130497E+03  0.11188516186E+04  0.10170896229E+04 0.  0.
         13    1    3    3    0    0 -0.33693358726E+03  0.56806541676E+02 -0.52545714632E+03  0.62678261717E+03  0.10566000000E+00 0. -1.
         -4    1    3    3    0  502  0.48410044218E+03 -0.26517717069E+02  0.84115841351E+02  0.49206900146E+03  0.00000000000E+00 0. -1.
        -13    1    1    2    0    0 -0.14716685492E+03 -0.30288824607E+02 -0.48423487251E+03  0.50700978195E+03  0.10566000000E+00 0.  1.
<mgrwt>
<rscale>  1 0.63568223E+03</rscale>
<asrwt>0</asrwt>
<pdfrwt beam="2">  1       21 0.19626443E+00 0.10281278E+04</pdfrwt>
<pdfrwt beam="1">  1       -4 0.53868094E-01 0.10281278E+04</pdfrwt>
<totfact> 0.16093802E+01</totfact>
</mgrwt>
</event>
<event>
 6    2  0.2220137E-005  0.1018416E+04  0.7818608E-02  0.9734911E-01
         21   -1    0    0  501  502  0.00000000000E+00  0.00000000000E+00  0.14448195143E+04  0.14448195143E+04  0.00000000000E+00 0. -1.
         -4   -1    0    0    0  501 -0.00000000000E+00 -0.00000000000E+00 -0.30321536659E+03  0.30321536659E+03  0.00000000000E+00 0. -1.
   -9000010    2    1    2    0  502  0.17635537196E+03  0.12174016004E+03  0.11467353830E+04  0.15336795112E+04  0.99561484550E+03 0.  0.
         13    1    3    3    0    0 -0.29024416280E+03  0.35691514816E+03  0.74076960732E+03  0.87199181150E+03  0.10566000000E+00 0. -1.
         -4    1    3    3    0  502  0.46659953476E+03 -0.23517498812E+03  0.40596577565E+03  0.66168769965E+03  0.00000000000E+00 0. -1.
        -13    1    1    2    0    0 -0.17635537196E+03 -0.12174016004E+03 -0.51312352775E+01  0.21435536971E+03  0.10566000000E+00 0.  1.
<mgrwt>
<rscale>  1 0.68975734E+03</rscale>
<asrwt>0</asrwt>
<pdfrwt beam="1">  1       21 0.22227992E+00 0.10184158E+04</pdfrwt>
<pdfrwt beam="2">  1       -4 0.46648519E-01 0.10184158E+04</pdfrwt>
<totfact> 0.14573087E+01</totfact>
</mgrwt>
</event>
<event>
 6    2  0.2220137E-005  0.9791758E+03  0.7818608E-02  0.1026364E+00
         -4   -1    0    0    0  501 -0.00000000000E+00  0.00000000000E+00  0.73610183912E+03  0.73610183912E+03  0.00000000000E+00 0. -1.
         21   -1    0    0  501  502  0.00000000000E+00 -0.00000000000E+00 -0.37225889763E+03  0.37225889763E+03  0.00000000000E+00 0. -1.
   -9000010    2    1    2    0  502  0.12614473973E+02  0.43700486708E+02  0.28926922640E+03  0.10210102494E+04  0.97811879982E+03 0.  0.
         13    1    3    3    0    0  0.29271877842E+03 -0.35040685608E+03  0.28355635183E+03  0.53746950040E+03  0.10566000000E+00 0. -1.
         -4    1    3    3    0  502 -0.28010430445E+03  0.39410734279E+03  0.57128745669E+01  0.48354074901E+03  0.00000000000E+00 0. -1.
        -13    1    1    2    0    0 -0.12614473973E+02 -0.43700486708E+02  0.74573715090E+02  0.87350487340E+02  0.10566000000E+00 0.  1.
<mgrwt>
<rscale>  1 0.45458188E+03</rscale>
<asrwt>0</asrwt>
<pdfrwt beam="2">  1       21 0.57270600E-01 0.97917580E+03</pdfrwt>
<pdfrwt beam="1">  1       -4 0.11324644E+00 0.97917580E+03</pdfrwt>
<totfact> 0.68921483E+01</totfact>
</mgrwt>
</event>
<event>
 6    2  0.2220137E-005  0.1077478E+04  0.7818608E-02  0.9692314E-01
         21   -1    0    0  501  502  0.00000000000E+00  0.00000000000E+00  0.82441722750E+03  0.82441722750E+03  0.00000000000E+00 0. -1.
         -4   -1    0    0    0  501 -0.00000000000E+00 -0.00000000000E+00 -0.50780131160E+03  0.50780131160E+03  0.00000000000E+00 0. -1.
   -9000010    2    1    2    0  502 -0.19570503369E+03  0.72353609718E+02  0.20942011653E+03  0.10976413543E+04  0.10570828976E+04 0.  0.
         13    1    3    3    0    0 -0.55187440076E+03  0.85339667366E+02 -0.16342132410E+03  0.58185458095E+03  0.10566000000E+00 0. -1.
         -4    1    3    3    0  502  0.35616936707E+03 -0.12986057648E+02  0.37284144063E+03  0.51578677337E+03  0.00000000000E+00 0. -1.
        -13    1    1    2    0    0  0.19570503369E+03 -0.72353609718E+02  0.10719579938E+03  0.23457718478E+03  0.10566000000E+00 0.  1.
<mgrwt>
<rscale>  1 0.71476282E+03</rscale>
<asrwt>0</asrwt>
<pdfrwt beam="1">  1       21 0.12683342E+00 0.10774784E+04</pdfrwt>
<pdfrwt beam="2">  1       -4 0.78123279E-01 0.10774784E+04</pdfrwt>
<totfact> 0.24537752E+01</totfact>
</mgrwt>
</event>
<event>
 6    2  0.2220137E-005  0.1033172E+04  0.7818608E-02  0.9679504E-01
         21   -1    0    0  501  502  0.00000000000E+00  0.00000000000E+00  0.39127761961E+03  0.39127761961E+03  0.00000000000E+00 0. -1.
         -4   -1    0    0    0  501 -0.00000000000E+00 -0.00000000000E+00 -0.17192180030E+04  0.17192180030E+04  0.00000000000E+00 0. -1.
   -9000010    2    1    2    0  502 -0.14707632202E+03  0.19853975974E+03 -0.33326646629E+03  0.10855928500E+04  0.10031928119E+04 0.  0.
         13    1    3    3    0    0 -0.55366140216E+03  0.23045362157E+03 -0.31486983870E+03  0.67734248828E+03  0.10566000000E+00 0. -1.
         -4    1    3    3    0  502  0.40658508015E+03 -0.31913861828E+02 -0.18396627598E+02  0.40825036177E+03  0.00000000000E+00 0. -1.
        -13    1    1    2    0    0  0.14707632202E+03 -0.19853975974E+03 -0.99467391707E+03  0.10249027725E+04  0.10566000000E+00 0.  1.
<mgrwt>
<rscale>  1 0.72250335E+03</rscale>
<asrwt>0</asrwt>
<pdfrwt beam="1">  1       21 0.60196557E-01 0.10331724E+04</pdfrwt>
<pdfrwt beam="2">  1       -4 0.26449508E+00 0.10331724E+04</pdfrwt>
<totfact> 0.51278433E+00</totfact>
</mgrwt>
</event>
<event>
 6    2  0.2220137E-005  0.1040919E+04  0.7818608E-02  0.9618057E-01
         -4   -1    0    0    0  501 -0.00000000000E+00  0.00000000000E+00  0.50652154057E+03  0.50652154057E+03  0.00000000000E+00 0. -1.
         21   -1    0    0  501  502  0.00000000000E+00 -0.00000000000E+00 -0.14444583336E+04  0.14444583336E+04  0.00000000000E+00 0. -1.
   -9000010    2    1    2    0  502 -0.14037896444E+02  0.29722767339E+03 -0.11755650037E+04  0.15701800186E+04  0.99748226080E+03 0.  0.
         13    1    3    3    0    0 -0.16777944077E+03  0.61671956205E+03 -0.51629755571E+03  0.82161799892E+03  0.10566000000E+00 0. -1.
         -4    1    3    3    0  502  0.15374154433E+03 -0.31949188866E+03 -0.65926744794E+03  0.74856201967E+03  0.00000000000E+00 0. -1.
        -13    1    1    2    0    0  0.14037896444E+02 -0.29722767339E+03  0.23762821062E+03  0.38079985558E+03  0.10566000000E+00 0.  1.
<mgrwt>
<rscale>  1 0.76112494E+03</rscale>
<asrwt>0</asrwt>
<pdfrwt beam="2">  1       21 0.22222436E+00 0.10409189E+04</pdfrwt>
<pdfrwt beam="1">  1       -4 0.77926391E-01 0.10409189E+04</pdfrwt>
<totfact> 0.47431986E+00</totfact>
</mgrwt>
</event>
<event>
 6    2  0.2220137E-005  0.1029156E+04  0.7818608E-02  0.9720154E-01
         21   -1    0    0  501  502  0.00000000000E+00  0.00000000000E+00  0.34184529328E+03  0.34184529328E+03  0.00000000000E+00 0. -1.
         -4   -1    0    0    0  501 -0.00000000000E+00 -0.00000000000E+00 -0.12313534508E+04  0.12313534508E+04  0.00000000000E+00 0. -1.
   -9000010    2    1    2    0  502  0.20993288649E+03 -0.59226227185E+02 -0.88126878501E+03  0.13549157598E+04  0.10057745681E+04 0.  0.
         13    1    3    3    0    0 -0.28179643882E+03  0.23936675050E+03 -0.62268787651E+03  0.72418635508E+03  0.10566000000E+00 0. -1.
         -4    1    3    3    0  502  0.49172932531E+03 -0.29859297769E+03 -0.25858090851E+03  0.63072940468E+03  0.00000000000E+00 0. -1.
        -13    1    1    2    0    0 -0.20993288649E+03  0.59226227185E+02 -0.82393724962E+01  0.21828298431E+03  0.10566000000E+00 0.  1.
<mgrwt>
<rscale>  1 0.69829435E+03</rscale>
<asrwt>0</asrwt>
<pdfrwt beam="1">  1       21 0.52591585E-01 0.10291560E+04</pdfrwt>
<pdfrwt beam="2">  1       -4 0.18943899E+00 0.10291560E+04</pdfrwt>
<totfact> 0.20798542E+01</totfact>
</mgrwt>
</event>
<event>
 6    2  0.2220137E-005  0.1055035E+04  0.7818608E-02  0.9584947E-01
         21   -1    0    0  501  502  0.00000000000E+00  0.00000000000E+00  0.31524920806E+03  0.31524920806E+03  0.00000000000E+00 0. -1.
         -4   -1    0    0    0  501 -0.00000000000E+00 -0.00000000000E+00 -0.15085446022E+04  0.15085446022E+04  0.00000000000E+00 0. -1.
   -9000010    2    1    2    0  502 -0.11167152431E+03 -0.29996882374E+03 -0.85409278148E+03  0.13574138706E+04  0.10053089635E+04 0.  0.
         13    1    3    3    0    0 -0.42810610005E+03 -0.11922628911E+03 -0.17323573889E+02  0.44473571735E+03  0.10566000000E+00 0. -1.
         -4    1    3    3    0  502  0.31643457575E+03 -0.18074253463E+03 -0.83676920760E+03  0.91267815320E+03  0.00000000000E+00 0. -1.
        -13    1    1    2    0    0  0.11167152431E+03  0.29996882374E+03 -0.33920261264E+03  0.46637993968E+03  0.10566000000E+00 0.  1.
<mgrwt>
<rscale>  1 0.78300581E+03</rscale>
<asrwt>0</asrwt>
<pdfrwt beam="1">  1       21 0.48499879E-01 0.10550346E+04</pdfrwt>
<pdfrwt beam="2">  1       -4 0.23208378E+00 0.10550346E+04</pdfrwt>
<totfact> 0.13053973E+01</totfact>
</mgrwt>
</event>
<event>
 6    2  0.2220137E-005  0.1016989E+04  0.7818608E-02  0.9881145E-01
         21   -1    0    0  501  502  0.00000000000E+00  0.00000000000E+00  0.82982046439E+03  0.82982046439E+03  0.00000000000E+00 0. -1.
         -4   -1    0    0    0  501 -0.00000000000E+00 -0.00000000000E+00 -0.63974238515E+03  0.63974238515E+03  0.00000000000E+00 0. -1.
   -9000010    2    1    2    0  502  0.85954959164E+02 -0.10179231202E+03  0.49923758553E+03  0.11329183170E+04  0.10082240904E+04 0.  0.
         13    1    3    3    0    0 -0.16387686238E+03 -0.16096507441E+02 -0.27186021230E+03  0.31784069873E+03  0.10566000000E+00 0. -1.
         -4    1    3    3    0  502  0.24983182154E+03 -0.85695804578E+02  0.77109779783E+03  0.81507761827E+03  0.00000000000E+00 0. -1.
        -13    1    1    2    0    0 -0.85954959164E+02  0.10179231202E+03 -0.30915950629E+03  0.33664453253E+03  0.10566000000E+00 0.  1.
<mgrwt>
<rscale>  1 0.61183831E+03</rscale>
<asrwt>0</asrwt>
<pdfrwt beam="1">  1       21 0.12766469E+00 0.10169886E+04</pdfrwt>
<pdfrwt beam="2">  1       -4 0.98421905E-01 0.10169886E+04</pdfrwt>
<totfact> 0.14124558E+01</totfact>
</mgrwt>
</event>
<event>
 6    2  0.2220137E-005  0.9779996E+03  0.7818608E-02  0.9932912E-01
         21   -1    0    0  501  502  0.00000000000E+00  0.00000000000E+00  0.29210651515E+03  0.29210651515E+03  0.00000000000E+00 0. -1.
         -4   -1    0    0    0  501 -0.00000000000E+00 -0.00000000000E+00 -0.12406544572E+04  0.12406544572E+04  0.00000000000E+00 0. -1.
   -9000010    2    1    2    0  502  0.49065298600E+02 -0.11698311196E+03 -0.56654660495E+03  0.11302470164E+04  0.96973749567E+03 0.  0.
         13    1    3    3    0    0  0.91654591082E+02  0.30934826829E+03  0.10007963875E+03  0.33780595083E+03  0.10566000000E+00 0. -1.
         -4    1    3    3    0  502 -0.42589292482E+02 -0.42633138026E+03 -0.66662624369E+03  0.79244106557E+03  0.00000000000E+00 0. -1.
        -13    1    1    2    0    0 -0.49065298600E+02  0.11698311196E+03 -0.38200133707E+03  0.40251395591E+03  0.10566000000E+00 0.  1.
<mgrwt>
<rscale>  1 0.58692395E+03</rscale>
<asrwt>0</asrwt>
<pdfrwt beam="1">  1       21 0.44939464E-01 0.97799962E+03</pdfrwt>
<pdfrwt beam="2">  1       -4 0.19086991E+00 0.97799962E+03</pdfrwt>
<totfact> 0.28679592E+01</totfact>
</mgrwt>
</event>
<event>
 6    2  0.2220137E-005  0.1015366E+04  0.7818608E-02  0.1006386E+00
         21   -1    0    0  501  502  0.00000000000E+00  0.00000000000E+00  0.12655356442E+04  0.12655356442E+04  0.00000000000E+00 0. -1.
         -4   -1    0    0    0  501 -0.00000000000E+00 -0.00000000000E+00 -0.27222654360E+03  0.27222654360E+03  0.00000000000E+00 0. -1.
   -9000010    2    1    2    0  502 -0.58805201686E+02  0.46578386927E+02  0.10366933245E+04  0.14511030861E+04  0.10125904994E+04 0.  0.
         13    1    3    3    0    0 -0.27799215192E+03  0.41940545694E+02 -0.96238341156E+02  0.29715395904E+03  0.10566000000E+00 0. -1.
         -4    1    3    3    0  502  0.21918695023E+03  0.46378412325E+01  0.11329316657E+04  0.11539491270E+04  0.00000000000E+00 0. -1.
        -13    1    1    2    0    0  0.58805201686E+02 -0.46578386927E+02 -0.43384223860E+02  0.86659101760E+02  0.10566000000E+00 0.  1.
<mgrwt>
<rscale>  1 0.52936752E+03</rscale>
<asrwt>0</asrwt>
<pdfrwt beam="1">  1       21 0.19469779E+00 0.10153655E+04</pdfrwt>
<pdfrwt beam="2">  1       -4 0.41881007E-01 0.10153655E+04</pdfrwt>
<totfact> 0.28005133E+01</totfact>
</mgrwt>
</event>
<event>
 6    2  0.2220137E-005  0.1023461E+04  0.7818608E-02  0.9703966E-01
         21   -1    0    0  501  502  0.00000000000E+00  0.00000000000E+00  0.12272118084E+04  0.12272118084E+04  0.00000000000E+00 0. -1.
         -4   -1    0    0    0  501 -0.00000000000E+00 -0.00000000000E+00 -0.33043537948E+03  0.33043537948E+03  0.00000000000E+00 0. -1.
   -9000010    2    1    2    0  502  0.53831424941E+02  0.22785720954E+03  0.81939662505E+03  0.13110617555E+04  0.99632091588E+03 0.  0.
         13    1    3    3    0    0 -0.33825317362E+03  0.34984784297E+03  0.75085281928E+03  0.89475621824E+03  0.10566000000E+00 0. -1.
         -4    1    3    3    0  502  0.39208459856E+03 -0.12199063343E+03  0.68543805769E+02  0.41630553729E+03  0.00000000000E+00 0. -1.
        -13    1    1    2    0    0 -0.53831424941E+02 -0.22785720954E+03  0.77379803909E+02  0.24658543239E+03  0.10566000000E+00 0.  1.
<mgrwt>
<rscale>  1 0.70781144E+03</rscale>
<asrwt>0</asrwt>
<pdfrwt beam="1">  1       21 0.18880181E+00 0.10234608E+04</pdfrwt>
<pdfrwt beam="2">  1       -4 0.50836213E-01 0.10234608E+04</pdfrwt>
<totfact> 0.20547745E+01</totfact>
</mgrwt>
</event>
<event>
 6    2  0.2220137E-005  0.1124083E+04  0.7818608E-02  0.9441639E-01
         -4   -1    0    0    0  501 -0.00000000000E+00  0.00000000000E+00  0.25418200734E+04  0.25418200734E+04  0.00000000000E+00 0. -1.
         21   -1    0    0  501  502  0.00000000000E+00 -0.00000000000E+00 -0.26156800523E+03  0.26156800523E+03  0.00000000000E+00 0. -1.
   -9000010    2    1    2    0  502  0.20533851298E+03 -0.38500255962E+03  0.12309209013E+04  0.16669520775E+04  0.10359401949E+04 0.  0.
         13    1    3    3    0    0 -0.89898976505E+02  0.14690925629E+03 -0.10312179390E+03  0.20074429283E+03  0.10566000000E+00 0. -1.
         -4    1    3    3    0  502  0.29523748948E+03 -0.53191181591E+03  0.13340426952E+04  0.14662077846E+04  0.00000000000E+00 0. -1.
        -13    1    1    2    0    0 -0.20533851298E+03  0.38500255962E+03  0.10493311669E+04  0.11364360012E+04  0.10566000000E+00 0.  1.
<mgrwt>
<rscale>  1 0.88726756E+03</rscale>
<asrwt>0</asrwt>
<pdfrwt beam="2">  1       21 0.40241233E-01 0.11240832E+04</pdfrwt>
<pdfrwt beam="1">  1       -4 0.39104922E+00 0.11240832E+04</pdfrwt>
<totfact> 0.18783800E+00</totfact>
</mgrwt>
</event>
<event>
 6    2  0.2220137E-005  0.1027886E+04  0.7818608E-02  0.1002842E+00
         -4   -1    0    0    0  501 -0.00000000000E+00  0.00000000000E+00  0.65701771924E+03  0.65701771924E+03  0.00000000000E+00 0. -1.
         21   -1    0    0  501  502  0.00000000000E+00 -0.00000000000E+00 -0.61165671741E+03  0.61165671741E+03  0.00000000000E+00 0. -1.
   -9000010    2    1    2    0  502  0.57740193864E+02 -0.56477096393E+02 -0.16709938591E+03  0.10413794303E+04  0.10247074317E+04 0.  0.
         13    1    3    3    0    0  0.40421895862E+03 -0.17778777095E+03  0.23224719691E+03  0.49893910415E+03  0.10566000000E+00 0. -1.
         -4    1    3    3    0  502 -0.34647876476E+03  0.12131067456E+03 -0.39934658282E+03  0.54244032612E+03  0.00000000000E+00 0. -1.
        -13    1    1    2    0    0 -0.57740193864E+02  0.56477096393E+02  0.21246038774E+03  0.22729500639E+03  0.10566000000E+00 0.  1.
<mgrwt>
<rscale>  1 0.54421380E+03</rscale>
<asrwt>0</asrwt>
<pdfrwt beam="2">  1       21 0.94101033E-01 0.10278857E+04</pdfrwt>
<pdfrwt beam="1">  1       -4 0.10107965E+00 0.10278857E+04</pdfrwt>
<totfact> 0.28696163E+01</totfact>
</mgrwt>
</event>
<event>
 6    2  0.2220137E-005  0.1023259E+04  0.7818608E-02  0.9731094E-01
         -4   -1    0    0    0  501 -0.00000000000E+00  0.00000000000E+00  0.58985996274E+03  0.58985996274E+03  0.00000000000E+00 0. -1.
         21   -1    0    0  501  502  0.00000000000E+00 -0.00000000000E+00 -0.92550633898E+03  0.92550633898E+03  0.00000000000E+00 0. -1.
   -9000010    2    1    2    0  502  0.30561416734E+02 -0.21177382432E+03 -0.59143394850E+03  0.11818854984E+04  0.10006383278E+04 0.  0.
         13    1    3    3    0    0 -0.13472631857E+03 -0.18901824709E+03 -0.84613814688E+03  0.87739891350E+03  0.10566000000E+00 0. -1.
         -4    1    3    3    0  502  0.16528773531E+03 -0.22755577237E+02  0.25470419838E+03  0.30448658494E+03  0.00000000000E+00 0. -1.
        -13    1    1    2    0    0 -0.30561416734E+02  0.21177382432E+03  0.25578757226E+03  0.33348080327E+03  0.10566000000E+00 0.  1.
<mgrwt>
<rscale>  1 0.69195246E+03</rscale>
<asrwt>0</asrwt>
<pdfrwt beam="2">  1       21 0.14238559E+00 0.10232591E+04</pdfrwt>
<pdfrwt beam="1">  1       -4 0.90747687E-01 0.10232591E+04</pdfrwt>
<totfact> 0.12766402E+01</totfact>
</mgrwt>
</event>
<event>
 6    2  0.2220137E-005  0.1003664E+04  0.7818608E-02  0.9801831E-01
         -4   -1    0    0    0  501 -0.00000000000E+00  0.00000000000E+00  0.22972201278E+03  0.22972201278E+03  0.00000000000E+00 0. -1.
         21   -1    0    0  501  502  0.00000000000E+00 -0.00000000000E+00 -0.15234152016E+04  0.15234152016E+04  0.00000000000E+00 0. -1.
   -9000010    2    1    2    0  502  0.17185864320E+03 -0.51636313169E+02 -0.10923168563E+04  0.14834074597E+04  0.98749170878E+03 0.  0.
         13    1    3    3    0    0 -0.27054370490E+03 -0.31632877735E+03 -0.77028030217E+03  0.87555099607E+03  0.10566000000E+00 0. -1.
         -4    1    3    3    0  502  0.44240234811E+03  0.26469246418E+03 -0.32203655413E+03  0.60785646365E+03  0.00000000000E+00 0. -1.
        -13    1    1    2    0    0 -0.17185864320E+03  0.51636313169E+02 -0.20137633247E+03  0.26972975462E+03  0.10566000000E+00 0.  1.
<mgrwt>
<rscale>  1 0.65264379E+03</rscale>
<asrwt>0</asrwt>
<pdfrwt beam="2">  1       21 0.23437157E+00 0.10036641E+04</pdfrwt>
<pdfrwt beam="1">  1       -4 0.35341848E-01 0.10036641E+04</pdfrwt>
<totfact> 0.21475395E+01</totfact>
</mgrwt>
</event>
<event>
 6    2  0.2220137E-005  0.9379100E+03  0.7818608E-02  0.9895941E-01
         21   -1    0    0  501  502  0.00000000000E+00  0.00000000000E+00  0.32491025224E+03  0.32491025224E+03  0.00000000000E+00 0. -1.
         -4   -1    0    0    0  501 -0.00000000000E+00 -0.00000000000E+00 -0.12159754504E+04  0.12159754504E+04  0.00000000000E+00 0. -1.
   -9000010    2    1    2    0  502  0.14680666665E+03 -0.68344984768E+02 -0.39257925444E+03  0.10167564423E+04  0.92382463574E+03 0.  0.
         13    1    3    3    0    0  0.49731796383E+03  0.14008459039E+03 -0.13357648458E+03  0.53365863434E+03  0.10566000000E+00 0. -1.
         -4    1    3    3    0  502 -0.35051129717E+03 -0.20842957515E+03 -0.25900276986E+03  0.48309780795E+03  0.00000000000E+00 0. -1.
        -13    1    1    2    0    0 -0.14680666665E+03  0.68344984768E+02 -0.49848594374E+03  0.52412926038E+03  0.10566000000E+00 0.  1.
<mgrwt>
<rscale>  1 0.60458405E+03</rscale>
<asrwt>0</asrwt>
<pdfrwt beam="1">  1       21 0.49986192E-01 0.93791001E+03</pdfrwt>
<pdfrwt beam="2">  1       -4 0.18707315E+00 0.93791001E+03</pdfrwt>
<totfact> 0.24321862E+01</totfact>
</mgrwt>
</event>
<event>
 6    2  0.2220137E-005  0.1015665E+04  0.7818608E-02  0.9802794E-01
         -4   -1    0    0    0  501 -0.00000000000E+00  0.00000000000E+00  0.14429024819E+04  0.14429024819E+04  0.00000000000E+00 0. -1.
         21   -1    0    0  501  502  0.00000000000E+00 -0.00000000000E+00 -0.31774818801E+03  0.31774818801E+03  0.00000000000E+00 0. -1.
   -9000010    2    1    2    0  502 -0.10268326862E+03  0.13875306855E+03  0.53944159536E+03  0.11500316037E+04  0.10008891981E+04 0.  0.
         13    1    3    3    0    0 -0.54164529657E+02  0.56559745643E+03  0.41231235605E+03  0.70202262720E+03  0.10566000000E+00 0. -1.
         -4    1    3    3    0  502 -0.48518738965E+02 -0.42684438788E+03  0.12712923931E+03  0.44800897645E+03  0.00000000000E+00 0. -1.
        -13    1    1    2    0    0  0.10268326862E+03 -0.13875306855E+03  0.58571269849E+03  0.61061906622E+03  0.10566000000E+00 0.  1.
<mgrwt>
<rscale>  1 0.65212842E+03</rscale>
<asrwt>0</asrwt>
<pdfrwt beam="2">  1       21 0.48884337E-01 0.10156650E+04</pdfrwt>
<pdfrwt beam="1">  1       -4 0.22198499E+00 0.10156650E+04</pdfrwt>
<totfact> 0.14930676E+01</totfact>
</mgrwt>
</event>
<event>
 6    2  0.2220137E-005  0.1022747E+04  0.7818608E-02  0.9750615E-01
         -4   -1    0    0    0  501 -0.00000000000E+00  0.00000000000E+00  0.16429452183E+03  0.16429452183E+03  0.00000000000E+00 0. -1.
         21   -1    0    0  501  502  0.00000000000E+00 -0.00000000000E+00 -0.30990331784E+04  0.30990331784E+04  0.00000000000E+00 0. -1.
   -9000010    2    1    2    0  502  0.19885732996E+03 -0.28028517415E+02 -0.28784757308E+04  0.30547722796E+04  0.10028366328E+04 0.  0.
         13    1    3    3    0    0 -0.38717012163E+03 -0.15428509812E+03 -0.10146903034E+04  0.10969507817E+04  0.10566000000E+00 0. -1.
         -4    1    3    3    0  502  0.58602745159E+03  0.12625658071E+03 -0.18637854274E+04  0.19578214979E+04  0.00000000000E+00 0. -1.
        -13    1    1    2    0    0 -0.19885732996E+03  0.28028517415E+02 -0.56262925715E+02  0.20855542055E+03  0.10566000000E+00 0.  1.
<mgrwt>
<rscale>  1 0.68081551E+03</rscale>
<asrwt>0</asrwt>
<pdfrwt beam="2">  1       21 0.47677434E+00 0.10227469E+04</pdfrwt>
<pdfrwt beam="1">  1       -4 0.25276080E-01 0.10227469E+04</pdfrwt>
<totfact> 0.11112426E+00</totfact>
</mgrwt>
</event>
<event>
 6    2  0.2220137E-005  0.1007914E+04  0.7818608E-02  0.9871886E-01
         -4   -1    0    0    0  501 -0.00000000000E+00  0.00000000000E+00  0.94968431773E+03  0.94968431773E+03  0.00000000000E+00 0. -1.
         21   -1    0    0  501  502  0.00000000000E+00 -0.00000000000E+00 -0.43575887135E+03  0.43575887135E+03  0.00000000000E+00 0. -1.
   -9000010    2    1    2    0  502  0.12829919965E+03 -0.58527411289E+02  0.18120650883E+03  0.10240735098E+04  0.99800030672E+03 0.  0.
         13    1    3    3    0    0  0.15400445620E+03  0.42342154952E+03  0.28131060927E+03  0.53116744175E+03  0.10566000000E+00 0. -1.
         -4    1    3    3    0  502 -0.25705256551E+02 -0.48194896081E+03 -0.10010410044E+03  0.49290606809E+03  0.00000000000E+00 0. -1.
        -13    1    1    2    0    0 -0.12829919965E+03  0.58527411289E+02  0.33271893755E+03  0.36136967923E+03  0.10566000000E+00 0.  1.
<mgrwt>
<rscale>  1 0.61643385E+03</rscale>
<asrwt>0</asrwt>
<pdfrwt beam="2">  1       21 0.67039827E-01 0.10079141E+04</pdfrwt>
<pdfrwt beam="1">  1       -4 0.14610528E+00 0.10079141E+04</pdfrwt>
<totfact> 0.25131882E+01</totfact>
</mgrwt>
</event>
<event>
 6    2  0.2220137E-005  0.1016547E+04  0.7818608E-02  0.9721765E-01
         -4   -1    0    0    0  501 -0.00000000000E+00  0.00000000000E+00  0.21216910655E+04  0.21216910655E+04  0.00000000000E+00 0. -1.
         21   -1    0    0  501  502  0.00000000000E+00 -0.00000000000E+00 -0.18477164832E+03  0.18477164832E+03  0.00000000000E+00 0. -1.
   -9000010    2    1    2    0  502 -0.92098070020E+02  0.20543090406E+03  0.16912127574E+04  0.19732125306E+04  0.99130378241E+03 0.  0.
         13    1    3    3    0    0 -0.43667140623E+02 -0.30499068609E+03  0.13805640577E+03  0.33761771297E+03  0.10566000000E+00 0. -1.
         -4    1    3    3    0  502 -0.48430929397E+02  0.51042159015E+03  0.15531563517E+04  0.16355948176E+04  0.00000000000E+00 0. -1.
        -13    1    1    2    0    0  0.92098070020E+02 -0.20543090406E+03  0.24570665977E+03  0.33325018329E+03  0.10566000000E+00 0.  1.
<mgrwt>
<rscale>  1 0.69735564E+03</rscale>
<asrwt>0</asrwt>
<pdfrwt beam="2">  1       21 0.28426409E-01 0.10165467E+04</pdfrwt>
<pdfrwt beam="1">  1       -4 0.32641399E+00 0.10165467E+04</pdfrwt>
<totfact> 0.10326911E+01</totfact>
</mgrwt>
</event>
<event>
 6    2  0.2220137E-005  0.9528506E+03  0.7818608E-02  0.1020227E+00
         21   -1    0    0  501  502  0.00000000000E+00  0.00000000000E+00  0.32619004516E+03  0.32619004516E+03  0.00000000000E+00 0. -1.
         -4   -1    0    0    0  501 -0.00000000000E+00 -0.00000000000E+00 -0.84212385246E+03  0.84212385246E+03  0.00000000000E+00 0. -1.
   -9000010    2    1    2    0  502  0.24886971780E+02 -0.53896373180E+02 -0.39092545781E+03  0.10299257514E+04  0.95099955807E+03 0.  0.
         13    1    3    3    0    0 -0.32228264002E+03 -0.33128169301E+03 -0.35746958734E+03  0.58429288650E+03  0.10566000000E+00 0. -1.
         -4    1    3    3    0  502  0.34716961180E+03  0.27738531983E+03 -0.33455870478E+02  0.44563286491E+03  0.00000000000E+00 0. -1.
        -13    1    1    2    0    0 -0.24886971780E+02  0.53896373180E+02 -0.12500834949E+03  0.13838814621E+03  0.10566000000E+00 0.  1.
<mgrwt>
<rscale>  1 0.47604835E+03</rscale>
<asrwt>0</asrwt>
<pdfrwt beam="1">  1       21 0.50183085E-01 0.95285064E+03</pdfrwt>
<pdfrwt beam="2">  1       -4 0.12955751E+00 0.95285064E+03</pdfrwt>
<totfact> 0.65659686E+01</totfact>
</mgrwt>
</event>
<event>
 6    2  0.2220137E-005  0.1068739E+04  0.7818608E-02  0.9529756E-01
         21   -1    0    0  501  502  0.00000000000E+00  0.00000000000E+00  0.10244787184E+04  0.10244787184E+04  0.00000000000E+00 0. -1.
         -4   -1    0    0    0  501 -0.00000000000E+00 -0.00000000000E+00 -0.61346668160E+03  0.61346668160E+03  0.00000000000E+00 0. -1.
   -9000010    2    1    2    0  502 -0.58559445274E+02 -0.36800982990E+03 -0.19037095713E+02  0.10689087482E+04  0.10016701341E+04 0.  0.
         13    1    3    3    0    0  0.41833064815E+03 -0.40260388862E+03  0.62186624343E+02  0.58391575568E+03  0.10566000000E+00 0. -1.
         -4    1    3    3    0  502 -0.47689009343E+03  0.34594058728E+02 -0.81223720056E+02  0.48499299254E+03  0.00000000000E+00 0. -1.
        -13    1    1    2    0    0  0.58559445274E+02  0.36800982990E+03  0.43004913252E+03  0.56903665179E+03  0.10566000000E+00 0.  1.
<mgrwt>
<rscale>  1 0.82125152E+03</rscale>
<asrwt>0</asrwt>
<pdfrwt beam="1">  1       21 0.15761211E+00 0.10687392E+04</pdfrwt>
<pdfrwt beam="2">  1       -4 0.94379489E-01 0.10687392E+04</pdfrwt>
<totfact> 0.87157799E+00</totfact>
</mgrwt>
</event>
<event>
 6    2  0.2220137E-005  0.1014062E+04  0.7818608E-02  0.9783596E-01
         -4   -1    0    0    0  501 -0.00000000000E+00  0.00000000000E+00  0.70046499062E+03  0.70046499062E+03  0.00000000000E+00 0. -1.
         21   -1    0    0  501  502  0.00000000000E+00 -0.00000000000E+00 -0.63599481865E+03  0.63599481865E+03  0.00000000000E+00 0. -1.
   -9000010    2    1    2    0  502  0.89579607074E+02  0.16156735041E+03 -0.18012830494E+03  0.10299358448E+04  0.99709233447E+03 0.  0.
         13    1    3    3    0    0  0.17692671288E+03 -0.37056285847E+03 -0.25819727417E+03  0.48506261179E+03  0.10566000000E+00 0. -1.
         -4    1    3    3    0  502 -0.87347105806E+02  0.53213020888E+03  0.78068969228E+02  0.54487323301E+03  0.00000000000E+00 0. -1.
        -13    1    1    2    0    0 -0.89579607074E+02 -0.16156735041E+03  0.24459847691E+03  0.30652396447E+03  0.10566000000E+00 0.  1.
<mgrwt>
<rscale>  1 0.66250332E+03</rscale>
<asrwt>0</asrwt>
<pdfrwt beam="2">  1       21 0.97845356E-01 0.10140619E+04</pdfrwt>
<pdfrwt beam="1">  1       -4 0.10776384E+00 0.10140619E+04</pdfrwt>
<totfact> 0.22335709E+01</totfact>
</mgrwt>
</event>
<event>
 6    2  0.2220137E-005  0.1003005E+04  0.7818608E-02  0.1072702E+00
         -4   -1    0    0    0  501 -0.00000000000E+00  0.00000000000E+00  0.41329126258E+03  0.41329126258E+03  0.00000000000E+00 0. -1.
         21   -1    0    0  501  502  0.00000000000E+00 -0.00000000000E+00 -0.70049997940E+03  0.70049997940E+03  0.00000000000E+00 0. -1.
   -9000010    2    1    2    0  502 -0.86221379402E+01  0.72418156600E+01 -0.34057536257E+03  0.10592495589E+04  0.10029413069E+04 0.  0.
         13    1    3    3    0    0  0.17955769789E+03  0.46727609213E+03 -0.22568249924E+03  0.54910883691E+03  0.10566000000E+00 0. -1.
         -4    1    3    3    0  502 -0.18817983583E+03 -0.46003427647E+03 -0.11489286333E+03  0.51014072194E+03  0.00000000000E+00 0. -1.
        -13    1    1    2    0    0  0.86221379402E+01 -0.72418156600E+01  0.53366645745E+02  0.54541683132E+02  0.10566000000E+00 0.  1.
<mgrwt>
<rscale>  1 0.32648670E+03</rscale>
<asrwt>0</asrwt>
<pdfrwt beam="2">  1       21 0.10776923E+00 0.10030045E+04</pdfrwt>
<pdfrwt beam="1">  1       -4 0.63583272E-01 0.10030045E+04</pdfrwt>
<totfact> 0.59678925E+01</totfact>
</mgrwt>
</event>
<event>
 6    2  0.2220137E-005  0.1008421E+04  0.7818608E-02  0.1025875E+00
         21   -1    0    0  501  502  0.00000000000E+00  0.00000000000E+00  0.13838931746E+03  0.13838931746E+03  0.00000000000E+00 0. -1.
         -4   -1    0    0    0  501 -0.00000000000E+00 -0.00000000000E+00 -0.20954296013E+04  0.20954296013E+04  0.00000000000E+00 0. -1.
   -9000010    2    1    2    0  502  0.49984784574E+01 -0.41957718155E+02 -0.17264196791E+04  0.19993593073E+04  0.10075352582E+04 0.  0.
         13    1    3    3    0    0 -0.84081660012E+02  0.40449115838E+03 -0.32439874366E+03  0.52527838220E+03  0.10566000000E+00 0. -1.
         -4    1    3    3    0  502  0.89080138470E+02 -0.44644887653E+03 -0.14020209354E+04  0.14740809251E+04  0.00000000000E+00 0. -1.
        -13    1    1    2    0    0 -0.49984784574E+01  0.41957718155E+02 -0.23062060477E+03  0.23445961147E+03  0.10566000000E+00 0.  1.
<mgrwt>
<rscale>  1 0.45624669E+03</rscale>
<asrwt>0</asrwt>
<pdfrwt beam="1">  1       21 0.21290665E-01 0.10084209E+04</pdfrwt>
<pdfrwt beam="2">  1       -4 0.32237378E+00 0.10084209E+04</pdfrwt>
<totfact> 0.19395176E+01</totfact>
</mgrwt>
</event>
<event>
 6    2  0.2220137E-005  0.1009734E+04  0.7818608E-02  0.9702829E-01
         21   -1    0    0  501  502  0.00000000000E+00  0.00000000000E+00  0.11703484857E+04  0.11703484857E+04  0.00000000000E+00 0. -1.
         -4   -1    0    0    0  501 -0.00000000000E+00 -0.00000000000E+00 -0.33708642501E+03  0.33708642501E+03  0.00000000000E+00 0. -1.
   -9000010    2    1    2    0  502  0.22071153455E+03 -0.10575334285E+03  0.63868059648E+03  0.11947700608E+04  0.97962505217E+03 0.  0.
         13    1    3    3    0    0  0.61478373664E+02 -0.51682566277E+03  0.16109824848E+03  0.54483117839E+03  0.10566000000E+00 0. -1.
         -4    1    3    3    0  502  0.15923316088E+03  0.41107231992E+03  0.47758234800E+03  0.64993888240E+03  0.00000000000E+00 0. -1.
        -13    1    1    2    0    0 -0.22071153455E+03  0.10575334285E+03  0.19458146423E+03  0.31266484995E+03  0.10566000000E+00 0.  1.
<mgrwt>
<rscale>  1 0.70848592E+03</rscale>
<asrwt>0</asrwt>
<pdfrwt beam="1">  1       21 0.18005361E+00 0.10097339E+04</pdfrwt>
<pdfrwt beam="2">  1       -4 0.51859451E-01 0.10097339E+04</pdfrwt>
<totfact> 0.22791156E+01</totfact>
</mgrwt>
</event>
<event>
 6    2  0.2220137E-005  0.1017691E+04  0.7818608E-02  0.9710566E-01
         21   -1    0    0  501  502  0.00000000000E+00  0.00000000000E+00  0.13035483772E+04  0.13035483772E+04  0.00000000000E+00 0. -1.
         -4   -1    0    0    0  501 -0.00000000000E+00 -0.00000000000E+00 -0.32022545870E+03  0.32022545870E+03  0.00000000000E+00 0. -1.
   -9000010    2    1    2    0  502 -0.17171545534E+03  0.15738499579E+03  0.94291396148E+03  0.13873650174E+04  0.99067588955E+03 0.  0.
         13    1    3    3    0    0 -0.14785840032E+03  0.23202383781E+03 -0.13509694388E+03  0.30650997254E+03  0.10566000000E+00 0. -1.
         -4    1    3    3    0  502 -0.23857055017E+02 -0.74638842027E+02  0.10780109054E+04  0.10808550448E+04  0.00000000000E+00 0. -1.
        -13    1    1    2    0    0  0.17171545534E+03 -0.15738499579E+03  0.40408956984E+02  0.23640881851E+03  0.10566000000E+00 0.  1.
<mgrwt>
<rscale>  1 0.70391167E+03</rscale>
<asrwt>0</asrwt>
<pdfrwt beam="1">  1       21 0.20054590E+00 0.10176910E+04</pdfrwt>
<pdfrwt beam="2">  1       -4 0.49265456E-01 0.10176910E+04</pdfrwt>
<totfact> 0.18194713E+01</totfact>
</mgrwt>
</event>
<event>
 6    2  0.2220137E-005  0.1025015E+04  0.7818608E-02  0.9696301E-01
         21   -1    0    0  501  502  0.00000000000E+00  0.00000000000E+00  0.49242163446E+03  0.49242163446E+03  0.00000000000E+00 0. -1.
         -4   -1    0    0    0  501 -0.00000000000E+00 -0.00000000000E+00 -0.81713308031E+03  0.81713308031E+03  0.00000000000E+00 0. -1.
   -9000010    2    1    2    0  502 -0.23131439845E+03 -0.60657124094E+02 -0.30587043236E+03  0.10696784288E+04  0.99672944270E+03 0.  0.
         13    1    3    3    0    0 -0.40221681662E+02  0.23336014343E+03  0.29237244127E+03  0.37623981155E+03  0.10566000000E+00 0. -1.
         -4    1    3    3    0  502 -0.19109271678E+03 -0.29401726752E+03 -0.59824287363E+03  0.69343861722E+03  0.00000000000E+00 0. -1.
        -13    1    1    2    0    0  0.23131439845E+03  0.60657124094E+02 -0.18841013498E+02  0.23987628600E+03  0.10566000000E+00 0.  1.
<mgrwt>
<rscale>  1 0.71237475E+03</rscale>
<asrwt>0</asrwt>
<pdfrwt beam="1">  1       21 0.75757175E-01 0.10250147E+04</pdfrwt>
<pdfrwt beam="2">  1       -4 0.12571278E+00 0.10250147E+04</pdfrwt>
<totfact> 0.28013892E+01</totfact>
</mgrwt>
</event>
<event>
 6    2  0.2220137E-005  0.1066541E+04  0.7818608E-02  0.9523279E-01
         21   -1    0    0  501  502  0.00000000000E+00  0.00000000000E+00  0.20318425006E+04  0.20318425006E+04  0.00000000000E+00 0. -1.
         -4   -1    0    0    0  501 -0.00000000000E+00 -0.00000000000E+00 -0.25872739804E+03  0.25872739804E+03  0.00000000000E+00 0. -1.
   -9000010    2    1    2    0  502 -0.36161197178E+03 -0.12768717531E+03  0.13133151728E+04  0.16918352167E+04  0.99520973884E+03 0.  0.
         13    1    3    3    0    0 -0.53440012261E+03  0.15082814145E+03  0.30915689376E+03  0.63553962538E+03  0.10566000000E+00 0. -1.
         -4    1    3    3    0  502  0.17278815084E+03 -0.27851531676E+03  0.10041582791E+04  0.10562955913E+04  0.00000000000E+00 0. -1.
        -13    1    1    2    0    0  0.36161197178E+03  0.12768717531E+03  0.45979992973E+03  0.59873468198E+03  0.10566000000E+00 0.  1.
<mgrwt>
<rscale>  1 0.82589085E+03</rscale>
<asrwt>0</asrwt>
<pdfrwt beam="1">  1       21 0.31259114E+00 0.10665410E+04</pdfrwt>
<pdfrwt beam="2">  1       -4 0.39804216E-01 0.10665410E+04</pdfrwt>
<totfact> 0.53869116E+00</totfact>
</mgrwt>
</event>
<event>
 6    2  0.2220137E-005  0.1054443E+04  0.7818608E-02  0.9615869E-01
         21   -1    0    0  501  502  0.00000000000E+00  0.00000000000E+00  0.62007864218E+03  0.62007864218E+03  0.00000000000E+00 0.  1.
         -4   -1    0    0    0  501 -0.00000000000E+00 -0.00000000000E+00 -0.10101864717E+04  0.10101864717E+04  0.00000000000E+00 0. -1.
   -9000010    2    1    2    0  502 -0.28092438923E+03 -0.65241458299E+02 -0.65279927076E+03  0.12401603013E+04  0.10142365230E+04 0.  0.
         13    1    3    3    0    0 -0.91273499002E+02  0.30657830305E+02 -0.90514254979E+03  0.91024930694E+03  0.10566000000E+00 0. -1.
         -4    1    3    3    0  502 -0.18965089022E+03 -0.95899288604E+02  0.25234327903E+03  0.32991099434E+03  0.00000000000E+00 0. -1.
        -13    1    1    2    0    0  0.28092438923E+03  0.65241458299E+02  0.26269144125E+03  0.39010481260E+03  0.10566000000E+00 0.  1.
<mgrwt>
<rscale>  1 0.76254690E+03</rscale>
<asrwt>0</asrwt>
<pdfrwt beam="1">  1       21 0.95396714E-01 0.10544433E+04</pdfrwt>
<pdfrwt beam="2">  1       -4 0.15541330E+00 0.10544433E+04</pdfrwt>
<totfact> 0.92250249E+00</totfact>
</mgrwt>
</event>
<event>
 6    2  0.2220137E-005  0.1002070E+04  0.7818608E-02  0.9993146E-01
         -4   -1    0    0    0  501 -0.00000000000E+00  0.00000000000E+00  0.28684500877E+03  0.28684500877E+03  0.00000000000E+00 0. -1.
         21   -1    0    0  501  502  0.00000000000E+00 -0.00000000000E+00 -0.10957438286E+04  0.10957438286E+04  0.00000000000E+00 0. -1.
   -9000010    2    1    2    0  502  0.19392567071E+02 -0.95450496763E+02 -0.80455984485E+03  0.12850916228E+04  0.99732495508E+03 0.  0.
         13    1    3    3    0    0  0.68078731581E+02  0.37154317017E+03 -0.29464436125E+02  0.37887623989E+03  0.10566000000E+00 0. -1.
         -4    1    3    3    0  502 -0.48686164510E+02 -0.46699366694E+03 -0.77509540872E+03  0.90621538290E+03  0.00000000000E+00 0. -1.
        -13    1    1    2    0    0 -0.19392567071E+02  0.95450496763E+02 -0.43389750217E+01  0.97497214618E+02  0.10566000000E+00 0.  1.
<mgrwt>
<rscale>  1 0.55951781E+03</rscale>
<asrwt>0</asrwt>
<pdfrwt beam="2">  1       21 0.16857597E+00 0.10020698E+04</pdfrwt>
<pdfrwt beam="1">  1       -4 0.44130002E-01 0.10020698E+04</pdfrwt>
<totfact> 0.38889993E+01</totfact>
</mgrwt>
</event>
<event>
 6    2  0.2220137E-005  0.1177581E+04  0.7818608E-02  0.9313284E-01
         21   -1    0    0  501  502  0.00000000000E+00  0.00000000000E+00  0.23145312527E+04  0.23145312527E+04  0.00000000000E+00 0. -1.
         -4   -1    0    0    0  501 -0.00000000000E+00 -0.00000000000E+00 -0.35293452248E+03  0.35293452248E+03  0.00000000000E+00 0. -1.
   -9000010    2    1    2    0  502 -0.55860743744E+03  0.22414918482E+03  0.15105213562E+04  0.19152994834E+04  0.10121325099E+04 0.  0.
         13    1    3    3    0    0  0.18523821683E+03  0.37249069861E+03  0.46994763532E+03  0.62762513384E+03  0.10566000000E+00 0. -1.
         -4    1    3    3    0  502 -0.74384565427E+03 -0.14834151379E+03  0.10405737209E+04  0.12876743496E+04  0.00000000000E+00 0. -1.
        -13    1    1    2    0    0  0.55860743744E+03 -0.22414918482E+03  0.45107537408E+03  0.75216629178E+03  0.10566000000E+00 0.  1.
<mgrwt>
<rscale>  1 0.99569069E+03</rscale>
<asrwt>0</asrwt>
<pdfrwt beam="1">  1       21 0.35608172E+00 0.11775811E+04</pdfrwt>
<pdfrwt beam="2">  1       -4 0.54297620E-01 0.11775811E+04</pdfrwt>
<totfact> 0.14699195E+00</totfact>
</mgrwt>
</event>
<event>
 6    2  0.2220137E-005  0.1016999E+04  0.7818608E-02  0.9764347E-01
         21   -1    0    0  501  502  0.00000000000E+00  0.00000000000E+00  0.31788360094E+03  0.31788360094E+03  0.00000000000E+00 0. -1.
         -4   -1    0    0    0  501 -0.00000000000E+00 -0.00000000000E+00 -0.18316595206E+04  0.18316595206E+04  0.00000000000E+00 0. -1.
   -9000010    2    1    2    0  502 -0.29373439938E+02  0.19293852255E+03 -0.53042456834E+03  0.11470123421E+04  0.99809769948E+03 0.  0.
         13    1    3    3    0    0  0.23426745498E+03  0.53490665111E+03 -0.27680034769E+03  0.64623897245E+03  0.10566000000E+00 0. -1.
         -4    1    3    3    0  502 -0.26364089492E+03 -0.34196812856E+03 -0.25362422065E+03  0.50077336962E+03  0.00000000000E+00 0. -1.
        -13    1    1    2    0    0  0.29373439938E+02 -0.19293852255E+03 -0.98335135135E+03  0.10025307795E+04  0.10566000000E+00 0.  1.
<mgrwt>
<rscale>  1 0.67311467E+03</rscale>
<asrwt>0</asrwt>
<pdfrwt beam="1">  1       21 0.48905169E-01 0.10169991E+04</pdfrwt>
<pdfrwt beam="2">  1       -4 0.28179377E+00 0.10169991E+04</pdfrwt>
<totfact> 0.63407081E+00</totfact>
</mgrwt>
</event>
<event>
 6    2  0.2220137E-005  0.1027932E+04  0.7818608E-02  0.9696171E-01
         -4   -1    0    0    0  501 -0.00000000000E+00  0.00000000000E+00  0.18322106727E+03  0.18322106727E+03  0.00000000000E+00 0. -1.
         21   -1    0    0  501  502  0.00000000000E+00 -0.00000000000E+00 -0.25169787742E+04  0.25169787742E+04  0.00000000000E+00 0. -1.
   -9000010    2    1    2    0  502 -0.13280220581E+03 -0.19654850711E+03 -0.21989788673E+04  0.24273755605E+04  0.10001881380E+04 0.  0.
         13    1    3    3    0    0 -0.42717849555E+03 -0.30782238341E+03 -0.60240001117E+03  0.80007616601E+03  0.10566000000E+00 0. -1.
         -4    1    3    3    0  502  0.29437628975E+03  0.11127387629E+03 -0.15965788561E+04  0.16272993945E+04  0.00000000000E+00 0. -1.
        -13    1    1    2    0    0  0.13280220581E+03  0.19654850711E+03 -0.13477883967E+03  0.27282428100E+03  0.10566000000E+00 0.  1.
<mgrwt>
<rscale>  1 0.71245217E+03</rscale>
<asrwt>0</asrwt>
<pdfrwt beam="2">  1       21 0.38722750E+00 0.10279319E+04</pdfrwt>
<pdfrwt beam="1">  1       -4 0.28187857E-01 0.10279319E+04</pdfrwt>
<totfact> 0.36258546E+00</totfact>
</mgrwt>
</event>
<event>
 6    2  0.2220137E-005  0.1029367E+04  0.7818608E-02  0.9712097E-01
         21   -1    0    0  501  502  0.00000000000E+00  0.00000000000E+00  0.19983633218E+03  0.19983633218E+03  0.00000000000E+00 0. -1.
         -4   -1    0    0    0  501 -0.00000000000E+00 -0.00000000000E+00 -0.20067097630E+04  0.20067097630E+04  0.00000000000E+00 0. -1.
   -9000010    2    1    2    0  502  0.22367327467E+03  0.10995933649E+02 -0.13493575169E+04  0.16971626767E+04  0.10047113011E+04 0.  0.
         13    1    3    3    0    0 -0.36282839354E+03  0.18721757557E+03 -0.64980390346E+03  0.76742425546E+03  0.10566000000E+00 0. -1.
         -4    1    3    3    0  502  0.58650166821E+03 -0.17622164192E+03 -0.69955361347E+03  0.92973842128E+03  0.00000000000E+00 0. -1.
        -13    1    1    2    0    0 -0.22367327467E+03 -0.10995933649E+02 -0.45751591391E+03  0.50938341846E+03  0.10566000000E+00 0.  1.
<mgrwt>
<rscale>  1 0.70301098E+03</rscale>
<asrwt>0</asrwt>
<pdfrwt beam="1">  1       21 0.30744050E-01 0.10293665E+04</pdfrwt>
<pdfrwt beam="2">  1       -4 0.30872459E+00 0.10293665E+04</pdfrwt>
<totfact> 0.11364403E+01</totfact>
</mgrwt>
</event>
<event>
 6    2  0.2220137E-005  0.1045751E+04  0.7818608E-02  0.9579218E-01
         21   -1    0    0  501  502  0.00000000000E+00  0.00000000000E+00  0.79720947288E+03  0.79720947288E+03  0.00000000000E+00 0. -1.
         -4   -1    0    0    0  501 -0.00000000000E+00 -0.00000000000E+00 -0.62647410936E+03  0.62647410936E+03  0.00000000000E+00 0. -1.
   -9000010    2    1    2    0  502  0.13574646253E+03  0.30650470215E+03  0.25837646726E+03  0.10771966290E+04  0.99056647641E+03 0.  0.
         13    1    3    3    0    0  0.21144175954E+03  0.33494974084E+03 -0.31006642322E+03  0.50303095784E+03  0.10566000000E+00 0. -1.
         -4    1    3    3    0  502 -0.75695297014E+02 -0.28445038693E+02  0.56844289048E+03  0.57416567118E+03  0.00000000000E+00 0. -1.
        -13    1    1    2    0    0 -0.13574646253E+03 -0.30650470215E+03 -0.87641103734E+02  0.34648695323E+03  0.10566000000E+00 0.  1.
<mgrwt>
<rscale>  1 0.78687084E+03</rscale>
<asrwt>0</asrwt>
<pdfrwt beam="1">  1       21 0.12264761E+00 0.10457505E+04</pdfrwt>
<pdfrwt beam="2">  1       -4 0.96380632E-01 0.10457505E+04</pdfrwt>
<totfact> 0.16455000E+01</totfact>
</mgrwt>
</event>
<event>
 6    2  0.2220137E-005  0.1114644E+04  0.7818608E-02  0.9408911E-01
         -4   -1    0    0    0  501 -0.00000000000E+00  0.00000000000E+00  0.21945676211E+04  0.21945676211E+04  0.00000000000E+00 0. -1.
         21   -1    0    0  501  502  0.00000000000E+00 -0.00000000000E+00 -0.31775635021E+03  0.31775635021E+03  0.00000000000E+00 0. -1.
   -9000010    2    1    2    0  502  0.48828304543E+03  0.11972704406E+03  0.97993822484E+03  0.14841526969E+04  0.99482430900E+03 0.  0.
         13    1    3    3    0    0  0.68844521361E+03  0.37944451213E+03  0.66805827870E+03  0.10316185462E+04  0.10566000000E+00 0. -1.
         -4    1    3    3    0  502 -0.20016216818E+03 -0.25971746807E+03  0.31187994615E+03  0.45253415075E+03  0.00000000000E+00 0. -1.
        -13    1    1    2    0    0 -0.48828304543E+03 -0.11972704406E+03  0.89687304605E+03  0.10281712744E+04  0.10566000000E+00 0.  1.
<mgrwt>
<rscale>  1 0.91345985E+03</rscale>
<asrwt>0</asrwt>
<pdfrwt beam="2">  1       21 0.48885594E-01 0.11146436E+04</pdfrwt>
<pdfrwt beam="1">  1       -4 0.33762578E+00 0.11146436E+04</pdfrwt>
<totfact> 0.28029547E+00</totfact>
</mgrwt>
</event>
<event>
 6    2  0.2220137E-005  0.1118956E+04  0.7818608E-02  0.9406627E-01
         -4   -1    0    0    0  501 -0.00000000000E+00  0.00000000000E+00  0.72674487704E+03  0.72674487704E+03  0.00000000000E+00 0. -1.
         21   -1    0    0  501  502  0.00000000000E+00 -0.00000000000E+00 -0.12006406311E+04  0.12006406311E+04  0.00000000000E+00 0. -1.
   -9000010    2    1    2    0  502 -0.33273353906E+03  0.37458450625E+03 -0.75789473992E+03  0.13514683306E+04  0.10005183914E+04 0.  0.
         13    1    3    3    0    0 -0.11260217286E+03  0.53958938837E+03 -0.88954493110E+03  0.10464827533E+04  0.10566000000E+00 0. -1.
         -4    1    3    3    0  502 -0.22013136620E+03 -0.16500488212E+03  0.13165019118E+03  0.30498557728E+03  0.00000000000E+00 0. -1.
        -13    1    1    2    0    0  0.33273353906E+03 -0.37458450625E+03  0.28399898582E+03  0.57591717759E+03  0.10566000000E+00 0.  1.
<mgrwt>
<rscale>  1 0.91532300E+03</rscale>
<asrwt>0</asrwt>
<pdfrwt beam="2">  1       21 0.18471394E+00 0.11189559E+04</pdfrwt>
<pdfrwt beam="1">  1       -4 0.11180690E+00 0.11189559E+04</pdfrwt>
<totfact> 0.35952832E+00</totfact>
</mgrwt>
</event>
<event>
 6    2  0.2220137E-005  0.1002227E+04  0.7818608E-02  0.9897931E-01
         -4   -1    0    0    0  501 -0.00000000000E+00  0.00000000000E+00  0.14419994108E+04  0.14419994108E+04  0.00000000000E+00 0. -1.
         21   -1    0    0  501  502  0.00000000000E+00 -0.00000000000E+00 -0.22555873570E+03  0.22555873570E+03  0.00000000000E+00 0.  1.
   -9000010    2    1    2    0  502 -0.12987946069E+03  0.22826485261E+02  0.10121046906E+04  0.14243649549E+04  0.99351391392E+03 0.  0.
         13    1    3    3    0    0 -0.80877112019E+02  0.49921023159E+03  0.38648365839E+03  0.63649162755E+03  0.10566000000E+00 0. -1.
         -4    1    3    3    0  502 -0.49002348669E+02 -0.47638374633E+03  0.62562103225E+03  0.78787332734E+03  0.00000000000E+00 0. -1.
        -13    1    1    2    0    0  0.12987946069E+03 -0.22826485261E+02  0.20433598449E+03  0.24319319164E+03  0.10566000000E+00 0.  1.
<mgrwt>
<rscale>  1 0.60361677E+03</rscale>
<asrwt>0</asrwt>
<pdfrwt beam="2">  1       21 0.34701345E-01 0.10022273E+04</pdfrwt>
<pdfrwt beam="1">  1       -4 0.22184606E+00 0.10022273E+04</pdfrwt>
<totfact> 0.30800441E+01</totfact>
</mgrwt>
</event>
<event>
 6    2  0.2220137E-005  0.1003483E+04  0.7818608E-02  0.9686951E-01
         21   -1    0    0  501  502  0.00000000000E+00  0.00000000000E+00  0.45385263602E+03  0.45385263602E+03  0.00000000000E+00 0. -1.
         -4   -1    0    0    0  501 -0.00000000000E+00 -0.00000000000E+00 -0.13182634466E+04  0.13182634466E+04  0.00000000000E+00 0. -1.
   -9000010    2    1    2    0  502  0.26271127842E+03 -0.12183159812E+02 -0.15481903652E+03  0.10153557889E+04  0.96840735165E+03 0.  0.
         13    1    3    3    0    0 -0.18196158586E+03 -0.10141703589E+03 -0.43496225246E+03  0.48227337282E+03  0.10566000000E+00 0. -1.
         -4    1    3    3    0  502  0.44467286429E+03  0.89233876080E+02  0.28014321594E+03  0.53308241606E+03  0.00000000000E+00 0. -1.
        -13    1    1    2    0    0 -0.26271127842E+03  0.12183159812E+02 -0.70959177402E+03  0.75676029370E+03  0.10566000000E+00 0.  1.
<mgrwt>
<rscale>  1 0.71799080E+03</rscale>
<asrwt>0</asrwt>
<pdfrwt beam="1">  1       21 0.69823483E-01 0.10034832E+04</pdfrwt>
<pdfrwt beam="2">  1       -4 0.20280976E+00 0.10034832E+04</pdfrwt>
<totfact> 0.90131976E+00</totfact>
</mgrwt>
</event>
<event>
 6    2  0.2220137E-005  0.1015346E+04  0.7818608E-02  0.9739379E-01
         -4   -1    0    0    0  501 -0.00000000000E+00  0.00000000000E+00  0.22860467760E+04  0.22860467760E+04  0.00000000000E+00 0. -1.
         21   -1    0    0  501  502  0.00000000000E+00 -0.00000000000E+00 -0.16502114350E+03  0.16502114350E+03  0.00000000000E+00 0. -1.
   -9000010    2    1    2    0  502 -0.15037084335E+03 -0.15092941818E+03  0.17566952921E+04  0.20290161598E+04  0.99274223616E+03 0.  0.
         13    1    3    3    0    0  0.22955133524E+03 -0.41995743945E+03  0.12620855673E+04  0.13497844483E+04  0.10566000000E+00 0. -1.
         -4    1    3    3    0  502 -0.37992217860E+03  0.26902802126E+03  0.49460972481E+03  0.67923171149E+03  0.00000000000E+00 0. -1.
        -13    1    1    2    0    0  0.15037084335E+03  0.15092941818E+03  0.36433034042E+03  0.42205175976E+03  0.10566000000E+00 0.  1.
<mgrwt>
<rscale>  1 0.68719825E+03</rscale>
<asrwt>0</asrwt>
<pdfrwt beam="2">  1       21 0.25387870E-01 0.10153464E+04</pdfrwt>
<pdfrwt beam="1">  1       -4 0.35169948E+00 0.10153464E+04</pdfrwt>
<totfact> 0.89152682E+00</totfact>
</mgrwt>
</event>
<event>
 6    2  0.2220137E-005  0.1043248E+04  0.7818608E-02  0.9645557E-01
         21   -1    0    0  501  502  0.00000000000E+00  0.00000000000E+00  0.87669499989E+03  0.87669499989E+03  0.00000000000E+00 0. -1.
         -4   -1    0    0    0  501 -0.00000000000E+00 -0.00000000000E+00 -0.70009984030E+03  0.70009984030E+03  0.00000000000E+00 0. -1.
   -9000010    2    1    2    0  502  0.26677553846E+03 -0.35837091824E+02  0.49929241174E+03  0.11565722649E+04  0.10079250996E+04 0.  0.
         13    1    3    3    0    0 -0.23708379404E+03 -0.22662878848E+03 -0.10746523815E+03  0.34513493265E+03  0.10566000000E+00 0. -1.
         -4    1    3    3    0  502  0.50385933250E+03  0.19079169666E+03  0.60675764989E+03  0.81143733224E+03  0.00000000000E+00 0. -1.
        -13    1    1    2    0    0 -0.26677553846E+03  0.35837091824E+02 -0.32269725215E+03  0.42022257529E+03  0.10566000000E+00 0.  1.
<mgrwt>
<rscale>  1 0.74352933E+03</rscale>
<asrwt>0</asrwt>
<pdfrwt beam="1">  1       21 0.13487615E+00 0.10432480E+04</pdfrwt>
<pdfrwt beam="2">  1       -4 0.10770767E+00 0.10432480E+04</pdfrwt>
<totfact> 0.97709915E+00</totfact>
</mgrwt>
</event>
<event>
 6    2  0.2220137E-005  0.1148751E+04  0.7818608E-02  0.9434344E-01
         21   -1    0    0  501  502  0.00000000000E+00  0.00000000000E+00  0.91218316111E+03  0.91218316111E+03  0.00000000000E+00 0. -1.
         -4   -1    0    0    0  501 -0.00000000000E+00 -0.00000000000E+00 -0.77035075722E+03  0.77035075722E+03  0.00000000000E+00 0. -1.
   -9000010    2    1    2    0  502  0.31562010739E+03 -0.27640401525E+03  0.36756038754E+03  0.12061219479E+04  0.10693990288E+04 0.  0.
         13    1    3    3    0    0 -0.12568407506E+03  0.34360020626E+03  0.23171690294E+03  0.43307080568E+03  0.10566000000E+00 0. -1.
         -4    1    3    3    0  502  0.44130418245E+03 -0.62000422151E+03  0.13584348460E+03  0.77305114219E+03  0.00000000000E+00 0. -1.
        -13    1    1    2    0    0 -0.31562010739E+03  0.27640401525E+03 -0.22572798365E+03  0.47641197046E+03  0.10566000000E+00 0.  1.
<mgrwt>
<rscale>  1 0.89302433E+03</rscale>
<asrwt>0</asrwt>
<pdfrwt beam="1">  1       21 0.14033587E+00 0.11487513E+04</pdfrwt>
<pdfrwt beam="2">  1       -4 0.11851550E+00 0.11487513E+04</pdfrwt>
<totfact> 0.68430867E+00</totfact>
</mgrwt>
</event>
<event>
 6    2  0.2220137E-005  0.1086695E+04  0.7818608E-02  0.9472181E-01
         21   -1    0    0  501  502  0.00000000000E+00  0.00000000000E+00  0.12109028293E+04  0.12109028293E+04  0.00000000000E+00 0. -1.
         -4   -1    0    0    0  501 -0.00000000000E+00 -0.00000000000E+00 -0.48604426016E+03  0.48604426016E+03  0.00000000000E+00 0. -1.
   -9000010    2    1    2    0  502 -0.26307041668E+03 -0.34463122328E+03  0.61908226852E+03  0.12506676242E+04  0.99645869300E+03 0.  0.
         13    1    3    3    0    0 -0.14114965032E+03 -0.69535540642E+03  0.34379961009E+03  0.78844184826E+03  0.10566000000E+00 0. -1.
         -4    1    3    3    0  502 -0.12192076636E+03  0.35072418315E+03  0.27528265843E+03  0.46222577594E+03  0.00000000000E+00 0. -1.
        -13    1    1    2    0    0  0.26307041668E+03  0.34463122328E+03  0.10577630065E+03  0.44627946528E+03  0.10566000000E+00 0.  1.
<mgrwt>
<rscale>  1 0.86366208E+03</rscale>
<asrwt>0</asrwt>
<pdfrwt beam="1">  1       21 0.18629274E+00 0.10866953E+04</pdfrwt>
<pdfrwt beam="2">  1       -4 0.74776041E-01 0.10866953E+04</pdfrwt>
<totfact> 0.91217232E+00</totfact>
</mgrwt>
</event>
<event>
 6    2  0.2220137E-005  0.1021280E+04  0.7818608E-02  0.9737620E-01
         -4   -1    0    0    0  501 -0.00000000000E+00  0.00000000000E+00  0.10592710183E+04  0.10592710183E+04  0.00000000000E+00 0. -1.
         21   -1    0    0  501  502  0.00000000000E+00 -0.00000000000E+00 -0.49670463129E+03  0.49670463129E+03  0.00000000000E+00 0. -1.
   -9000010    2    1    2    0  502  0.96410682169E+02 -0.18722269727E+03  0.74001622131E+02  0.10239578880E+04  0.99933285661E+03 0.  0.
         13    1    3    3    0    0 -0.44434545952E+02 -0.57887160004E+03 -0.67206356005E+02  0.58445142113E+03  0.10566000000E+00 0. -1.
         -4    1    3    3    0  502  0.14084522812E+03  0.39164890277E+03  0.14120797814E+03  0.43950646686E+03  0.00000000000E+00 0. -1.
        -13    1    1    2    0    0 -0.96410682169E+02  0.18722269727E+03  0.48856476487E+03  0.53201776159E+03  0.10566000000E+00 0.  1.
<mgrwt>
<rscale>  1 0.68820403E+03</rscale>
<asrwt>0</asrwt>
<pdfrwt beam="2">  1       21 0.76416097E-01 0.10212803E+04</pdfrwt>
<pdfrwt beam="1">  1       -4 0.16296477E+00 0.10212803E+04</pdfrwt>
<totfact> 0.13802629E+01</totfact>
</mgrwt>
</event>
<event>
 6    2  0.2220137E-005  0.9445860E+03  0.7818608E-02  0.1005810E+00
         21   -1    0    0  501  502  0.00000000000E+00  0.00000000000E+00  0.11135648144E+04  0.11135648144E+04  0.00000000000E+00 0. -1.
         -4   -1    0    0    0  501 -0.00000000000E+00 -0.00000000000E+00 -0.29780130163E+03  0.29780130163E+03  0.00000000000E+00 0. -1.
   -9000010    2    1    2    0  502 -0.89756031601E+02 -0.30695198730E+02  0.88462898733E+03  0.12941449355E+04  0.93981079390E+03 0.  0.
         13    1    3    3    0    0 -0.17453805233E+02 -0.48396422136E+03  0.42011011499E+03  0.64110726306E+03  0.10566000000E+00 0. -1.
         -4    1    3    3    0  502 -0.72302226368E+02  0.45326902263E+03  0.46451887234E+03  0.65303767240E+03  0.00000000000E+00 0. -1.
        -13    1    1    2    0    0  0.89756031601E+02  0.30695198730E+02 -0.68865474525E+02  0.11722118059E+03  0.10566000000E+00 0.  1.
<mgrwt>
<rscale>  1 0.53174264E+03</rscale>
<asrwt>0</asrwt>
<pdfrwt beam="1">  1       21 0.17131766E+00 0.94458598E+03</pdfrwt>
<pdfrwt beam="2">  1       -4 0.45815585E-01 0.94458598E+03</pdfrwt>
<totfact> 0.34537717E+01</totfact>
</mgrwt>
</event>
<event>
 6    2  0.2220137E-005  0.1009786E+04  0.7818608E-02  0.9972556E-01
         21   -1    0    0  501  502  0.00000000000E+00  0.00000000000E+00  0.10417218632E+04  0.10417218632E+04  0.00000000000E+00 0. -1.
         -4   -1    0    0    0  501 -0.00000000000E+00 -0.00000000000E+00 -0.48529127193E+03  0.48529127193E+03  0.00000000000E+00 0. -1.
   -9000010    2    1    2    0  502 -0.31491194272E+02 -0.96585600151E+02  0.78360098155E+03  0.12781620334E+04  0.10046627354E+04 0.  0.
         13    1    3    3    0    0  0.25257651791E+02 -0.20216522738E+03 -0.20105487397E+03  0.28623731701E+03  0.10566000000E+00 0. -1.
         -4    1    3    3    0  502 -0.56748846063E+02  0.10557962722E+03  0.98465585553E+03  0.99192471642E+03  0.00000000000E+00 0. -1.
        -13    1    1    2    0    0  0.31491194272E+02  0.96585600151E+02 -0.22717039025E+03  0.24885110175E+03  0.10566000000E+00 0.  1.
<mgrwt>
<rscale>  1 0.56870168E+03</rscale>
<asrwt>0</asrwt>
<pdfrwt beam="1">  1       21 0.16026490E+00 0.10097860E+04</pdfrwt>
<pdfrwt beam="2">  1       -4 0.74660196E-01 0.10097860E+04</pdfrwt>
<totfact> 0.14417428E+01</totfact>
</mgrwt>
</event>
<event>
 6    2  0.2220137E-005  0.1310401E+04  0.7818608E-02  0.9132791E-01
         21   -1    0    0  501  502  0.00000000000E+00  0.00000000000E+00  0.13803627652E+04  0.13803627652E+04  0.00000000000E+00 0.  1.
         -4   -1    0    0    0  501 -0.00000000000E+00 -0.00000000000E+00 -0.92845998967E+03  0.92845998967E+03  0.00000000000E+00 0. -1.
   -9000010    2    1    2    0  502  0.38383014762E+03 -0.76323333040E+03  0.60091204591E+03  0.14416120119E+04  0.99362931076E+03 0.  0.
         13    1    3    3    0    0  0.15072548502E+03  0.20173254557E+03 -0.46991448105E+02  0.25616869273E+03  0.10566000000E+00 0. -1.
         -4    1    3    3    0  502  0.23310466260E+03 -0.96496587597E+03  0.64790349402E+03  0.11854433192E+04  0.00000000000E+00 0. -1.
        -13    1    1    2    0    0 -0.38383014762E+03  0.76323333040E+03 -0.14900927036E+03  0.86721074294E+03  0.10566000000E+00 0.  1.
<mgrwt>
<rscale>  1 0.11774903E+04</rscale>
<asrwt>0</asrwt>
<pdfrwt beam="1">  1       21 0.21236350E+00 0.13104007E+04</pdfrwt>
<pdfrwt beam="2">  1       -4 0.14284000E+00 0.13104007E+04</pdfrwt>
<totfact> 0.12020783E+00</totfact>
</mgrwt>
</event>
<event>
 6    2  0.2220137E-005  0.9964924E+03  0.7818608E-02  0.9997139E-01
         -4   -1    0    0    0  501 -0.00000000000E+00  0.00000000000E+00  0.10086476219E+03  0.10086476219E+03  0.00000000000E+00 0. -1.
         21   -1    0    0  501  502  0.00000000000E+00 -0.00000000000E+00 -0.31420960176E+04  0.31420960176E+04  0.00000000000E+00 0. -1.
   -9000010    2    1    2    0  502  0.63397673982E+02 -0.74475771894E+02 -0.29301383818E+04  0.30949488093E+04  0.99168104255E+03 0.  0.
         13    1    3    3    0    0 -0.28259018066E+03 -0.17379360785E+03 -0.25497559492E+04  0.25712481094E+04  0.10566000000E+00 0. -1.
         -4    1    3    3    0  502  0.34598785465E+03  0.99317835960E+02 -0.38038243264E+03  0.52370069999E+03  0.00000000000E+00 0. -1.
        -13    1    1    2    0    0 -0.63397673982E+02  0.74475771894E+02 -0.11109287357E+03  0.14801197042E+03  0.10566000000E+00 0.  1.
<mgrwt>
<rscale>  1 0.55775867E+03</rscale>
<asrwt>0</asrwt>
<pdfrwt beam="2">  1       21 0.48339942E+00 0.99649245E+03</pdfrwt>
<pdfrwt beam="1">  1       -4 0.15517655E-01 0.99649245E+03</pdfrwt>
<totfact> 0.24901908E+00</totfact>
</mgrwt>
</event>
<event>
 6    2  0.2220137E-005  0.1057535E+04  0.7818608E-02  0.9678537E-01
         -4   -1    0    0    0  501 -0.00000000000E+00  0.00000000000E+00  0.68172958672E+03  0.68172958672E+03  0.00000000000E+00 0. -1.
         21   -1    0    0  501  502  0.00000000000E+00 -0.00000000000E+00 -0.74586113765E+03  0.74586113765E+03  0.00000000000E+00 0. -1.
   -9000010    2    1    2    0  502 -0.16146387932E+03 -0.16540427784E+03 -0.29805029820E+03  0.10987333830E+04  0.10319650708E+04 0.  0.
         13    1    3    3    0    0 -0.23270877161E+03  0.13138075390E+03 -0.60775118736E+03  0.66390947559E+03  0.10566000000E+00 0. -1.
         -4    1    3    3    0  502  0.71244892289E+02 -0.29678503174E+03  0.30970088916E+03  0.43482390745E+03  0.00000000000E+00 0. -1.
        -13    1    1    2    0    0  0.16146387932E+03  0.16540427784E+03  0.23391874727E+03  0.32885734132E+03  0.10566000000E+00 0.  1.
<mgrwt>
<rscale>  1 0.72309187E+03</rscale>
<asrwt>0</asrwt>
<pdfrwt beam="2">  1       21 0.11474787E+00 0.10575354E+04</pdfrwt>
<pdfrwt beam="1">  1       -4 0.10488148E+00 0.10575354E+04</pdfrwt>
<totfact> 0.15917460E+01</totfact>
</mgrwt>
</event>
<event>
 6    2  0.2220137E-005  0.1075582E+04  0.7818608E-02  0.9510705E-01
         -4   -1    0    0    0  501 -0.00000000000E+00  0.00000000000E+00  0.21241761062E+04  0.21241761062E+04  0.00000000000E+00 0. -1.
         21   -1    0    0  501  502  0.00000000000E+00 -0.00000000000E+00 -0.25500293043E+03  0.25500293043E+03  0.00000000000E+00 0. -1.
   -9000010    2    1    2    0  502 -0.24737214071E+03  0.30235885871E+03  0.12749874746E+04  0.16680739009E+04  0.10021295440E+04 0.  0.
         13    1    3    3    0    0  0.11991657013E+03 -0.81126678319E+02 -0.11191590413E+03  0.18299372254E+03  0.10566000000E+00 0. -1.
         -4    1    3    3    0  502 -0.36728871085E+03  0.38348553703E+03  0.13869033787E+04  0.14850801783E+04  0.00000000000E+00 0. -1.
        -13    1    1    2    0    0  0.24737214071E+03 -0.30235885871E+03  0.59418570118E+03  0.71110513575E+03  0.10566000000E+00 0.  1.
<mgrwt>
<rscale>  1 0.83499142E+03</rscale>
<asrwt>0</asrwt>
<pdfrwt beam="2">  1       21 0.39231222E-01 0.10755824E+04</pdfrwt>
<pdfrwt beam="1">  1       -4 0.32679631E+00 0.10755824E+04</pdfrwt>
<totfact> 0.52704063E+00</totfact>
</mgrwt>
</event>
<event>
 6    2  0.2220137E-005  0.1027607E+04  0.7818608E-02  0.9717971E-01
         21   -1    0    0  501  502  0.00000000000E+00  0.00000000000E+00  0.86670968208E+03  0.86670968208E+03  0.00000000000E+00 0. -1.
         -4   -1    0    0    0  501 -0.00000000000E+00 -0.00000000000E+00 -0.68584962201E+03  0.68584962201E+03  0.00000000000E+00 0. -1.
   -9000010    2    1    2    0  502 -0.83393138806E+01  0.22056070795E+03  0.51707714346E+03  0.11503671754E+04  0.10036230846E+04 0.  0.
         13    1    3    3    0    0  0.21434525628E+02  0.59934551385E+03  0.48084314362E+03  0.76869020014E+03  0.10566000000E+00 0. -1.
         -4    1    3    3    0  502 -0.29773839509E+02 -0.37878480591E+03  0.36233999834E+02  0.38167697527E+03  0.00000000000E+00 0. -1.
        -13    1    1    2    0    0  0.83393138806E+01 -0.22056070795E+03 -0.33621708339E+03  0.40219212868E+03  0.10566000000E+00 0.  1.
<mgrwt>
<rscale>  1 0.69956786E+03</rscale>
<asrwt>0</asrwt>
<pdfrwt beam="1">  1       21 0.13333995E+00 0.10276069E+04</pdfrwt>
<pdfrwt beam="2">  1       -4 0.10551533E+00 0.10276069E+04</pdfrwt>
<totfact> 0.10614871E+01</totfact>
</mgrwt>
</event>
<event>
 6    2  0.2220137E-005  0.1045280E+04  0.7818608E-02  0.9543448E-01
         21   -1    0    0  501  502  0.00000000000E+00  0.00000000000E+00  0.19927246865E+04  0.19927246865E+04  0.00000000000E+00 0. -1.
         -4   -1    0    0    0  501 -0.00000000000E+00 -0.00000000000E+00 -0.28103692271E+03  0.28103692271E+03  0.00000000000E+00 0. -1.
   -9000010    2    1    2    0  502  0.31529107849E+03  0.21176533837E+03  0.15293934745E+04  0.18524728225E+04  0.97383681164E+03 0.  0.
         13    1    3    3    0    0 -0.19913212920E+03  0.41913563587E+02  0.12028226338E+04  0.12199150181E+04  0.10566000000E+00 0. -1.
         -4    1    3    3    0  502  0.51442320769E+03  0.16985177479E+03  0.32657084062E+03  0.63255780444E+03  0.00000000000E+00 0. -1.
        -13    1    1    2    0    0 -0.31529107849E+03 -0.21176533837E+03  0.18229428932E+03  0.42128878670E+03  0.10566000000E+00 0.  1.
<mgrwt>
<rscale>  1 0.81154991E+03</rscale>
<asrwt>0</asrwt>
<pdfrwt beam="1">  1       21 0.30657302E+00 0.10452804E+04</pdfrwt>
<pdfrwt beam="2">  1       -4 0.43236451E-01 0.10452804E+04</pdfrwt>
<totfact> 0.49739146E+00</totfact>
</mgrwt>
</event>
<event>
 6    2  0.2220137E-005  0.1040034E+04  0.7818608E-02  0.9589563E-01
         -4   -1    0    0    0  501 -0.00000000000E+00  0.00000000000E+00  0.47919648772E+03  0.47919648772E+03  0.00000000000E+00 0. -1.
         21   -1    0    0  501  502  0.00000000000E+00 -0.00000000000E+00 -0.13107279671E+04  0.13107279671E+04  0.00000000000E+00 0. -1.
   -9000010    2    1    2    0  502 -0.14736629211E+03  0.29401106959E+03 -0.98007183967E+03  0.14290594068E+04  0.98666643002E+03 0.  0.
         13    1    3    3    0    0  0.32024665883E+03 -0.17471913349E+03 -0.24326979722E+03  0.43848022019E+03  0.10566000000E+00 0. -1.
         -4    1    3    3    0  502 -0.46761295093E+03  0.46873020308E+03 -0.73680204245E+03  0.99057918660E+03  0.00000000000E+00 0. -1.
        -13    1    1    2    0    0  0.14736629211E+03 -0.29401106959E+03  0.14854036030E+03  0.36086504803E+03  0.10566000000E+00 0.  1.
<mgrwt>
<rscale>  1 0.77990831E+03</rscale>
<asrwt>0</asrwt>
<pdfrwt beam="2">  1       21 0.20165046E+00 0.10400336E+04</pdfrwt>
<pdfrwt beam="1">  1       -4 0.73722537E-01 0.10400336E+04</pdfrwt>
<totfact> 0.73986682E+00</totfact>
</mgrwt>
</event>
<event>
 6    2  0.2220137E-005  0.1005191E+04  0.7818608E-02  0.9969237E-01
         21   -1    0    0  501  502  0.00000000000E+00  0.00000000000E+00  0.16410733108E+03  0.16410733108E+03  0.00000000000E+00 0. -1.
         -4   -1    0    0    0  501 -0.00000000000E+00 -0.00000000000E+00 -0.19549695824E+04  0.19549695824E+04  0.00000000000E+00 0. -1.
   -9000010    2    1    2    0  502 -0.10353405221E+03 -0.10630972707E+02 -0.14626269380E+04  0.17747358767E+04  0.99978875502E+03 0.  0.
         13    1    3    3    0    0  0.37475747362E+03 -0.95611717349E+01 -0.11341778087E+04  0.11945266397E+04  0.10566000000E+00 0. -1.
         -4    1    3    3    0  502 -0.47829152583E+03 -0.10698009723E+01 -0.32844912932E+03  0.58020923700E+03  0.00000000000E+00 0. -1.
        -13    1    1    2    0    0  0.10353405221E+03  0.10630972707E+02 -0.32823531332E+03  0.34434103680E+03  0.10566000000E+00 0.  1.
<mgrwt>
<rscale>  1 0.57019949E+03</rscale>
<asrwt>0</asrwt>
<pdfrwt beam="1">  1       21 0.25247283E-01 0.10051915E+04</pdfrwt>
<pdfrwt beam="2">  1       -4 0.30076454E+00 0.10051915E+04</pdfrwt>
<totfact> 0.18945499E+01</totfact>
</mgrwt>
</event>
<event>
 6    2  0.2220137E-005  0.1002223E+04  0.7818608E-02  0.9707685E-01
         21   -1    0    0  501  502  0.00000000000E+00  0.00000000000E+00  0.73617844545E+03  0.73617844545E+03  0.00000000000E+00 0. -1.
         -4   -1    0    0    0  501 -0.00000000000E+00 -0.00000000000E+00 -0.55376717567E+03  0.55376717567E+03  0.00000000000E+00 0. -1.
   -9000010    2    1    2    0  502  0.82175556257E+01 -0.24610727655E+03  0.25322994726E+03  0.10337199081E+04  0.97150147829E+03 0.  0.
         13    1    3    3    0    0  0.16313303775E+03  0.13235039354E+03 -0.28731273499E+03  0.35591801518E+03  0.10566000000E+00 0. -1.
         -4    1    3    3    0  502 -0.15491548212E+03 -0.37845767009E+03  0.54054268225E+03  0.67780189288E+03  0.00000000000E+00 0. -1.
        -13    1    1    2    0    0 -0.82175556257E+01  0.24610727655E+03 -0.70818677486E+02  0.25622571307E+03  0.10566000000E+00 0.  1.
<mgrwt>
<rscale>  1 0.70561039E+03</rscale>
<asrwt>0</asrwt>
<pdfrwt beam="1">  1       21 0.11325822E+00 0.10022232E+04</pdfrwt>
<pdfrwt beam="2">  1       -4 0.85194950E-01 0.10022232E+04</pdfrwt>
<totfact> 0.27148747E+01</totfact>
</mgrwt>
</event>
<event>
 6    2  0.2220137E-005  0.9588405E+03  0.7818608E-02  0.9742438E-01
         21   -1    0    0  501  502  0.00000000000E+00  0.00000000000E+00  0.78689804194E+03  0.78689804194E+03  0.00000000000E+00 0. -1.
         -4   -1    0    0    0  501 -0.00000000000E+00 -0.00000000000E+00 -0.66050545157E+03  0.66050545157E+03  0.00000000000E+00 0. -1.
   -9000010    2    1    2    0  502  0.11989997030E+03 -0.21985218926E+03  0.43253592046E+03  0.10518851782E+04  0.92556151481E+03 0.  0.
         13    1    3    3    0    0  0.83747934444E+02  0.35294352245E+03  0.27939657435E+03  0.45787040032E+03  0.10566000000E+00 0. -1.
         -4    1    3    3    0  502  0.36152035856E+02 -0.57279571171E+03  0.15313934611E+03  0.59401477791E+03  0.00000000000E+00 0. -1.
        -13    1    1    2    0    0 -0.11989997030E+03  0.21985218926E+03 -0.30614333009E+03  0.39551831528E+03  0.10566000000E+00 0.  1.
<mgrwt>
<rscale>  1 0.68545310E+03</rscale>
<asrwt>0</asrwt>
<pdfrwt beam="1">  1       21 0.12106124E+00 0.95884050E+03</pdfrwt>
<pdfrwt beam="2">  1       -4 0.10161622E+00 0.95884050E+03</pdfrwt>
<totfact> 0.15131450E+01</totfact>
</mgrwt>
</event>
<event>
 6    2  0.2220137E-005  0.1274773E+04  0.7818608E-02  0.9176929E-01
         21   -1    0    0  501  502  0.00000000000E+00  0.00000000000E+00  0.48544727976E+03  0.48544727976E+03  0.00000000000E+00 0. -1.
         -4   -1    0    0    0  501 -0.00000000000E+00 -0.00000000000E+00 -0.22320858173E+04  0.22320858173E+04  0.00000000000E+00 0. -1.
   -9000010    2    1    2    0  502 -0.75992413646E+03  0.19926141312E+03 -0.88709273836E+03  0.15530551900E+04  0.10039208599E+04 0.  0.
         13    1    3    3    0    0 -0.77400066057E+02  0.34069944291E+03  0.82435697947E+02  0.35897428332E+03  0.10566000000E+00 0. -1.
         -4    1    3    3    0  502 -0.68252407040E+03 -0.14143802979E+03 -0.96952843631E+03  0.11940809067E+04  0.00000000000E+00 0. -1.
        -13    1    1    2    0    0  0.75992413646E+03 -0.19926141312E+03 -0.85954579922E+03  0.11644779071E+04  0.10566000000E+00 0.  1.
<mgrwt>
<rscale>  1 0.11294761E+04</rscale>
<asrwt>0</asrwt>
<pdfrwt beam="1">  1       21 0.74684196E-01 0.12747733E+04</pdfrwt>
<pdfrwt beam="2">  1       -4 0.34339782E+00 0.12747733E+04</pdfrwt>
<totfact> 0.97345931E-01</totfact>
</mgrwt>
</event>
<event>
 6    2  0.2220137E-005  0.1403134E+04  0.7818608E-02  0.9041814E-01
         21   -1    0    0  501  502  0.00000000000E+00  0.00000000000E+00  0.12079798886E+04  0.12079798886E+04  0.00000000000E+00 0.  1.
         -4   -1    0    0    0  501 -0.00000000000E+00 -0.00000000000E+00 -0.11821211963E+04  0.11821211963E+04  0.00000000000E+00 0. -1.
   -9000010    2    1    2    0  502 -0.15341224731E+03 -0.97396224061E+03 -0.16313525405E+02  0.14032291221E+04  0.99832263039E+03 0.  0.
         13    1    3    3    0    0 -0.56813845800E+03 -0.40205502193E+03  0.13609539258E+02  0.69614278624E+03  0.10566000000E+00 0. -1.
         -4    1    3    3    0  502  0.41472621069E+03 -0.57190721868E+03 -0.29923064663E+02  0.70708633590E+03  0.00000000000E+00 0. -1.
        -13    1    1    2    0    0  0.15341224731E+03  0.97396224061E+03  0.42172217770E+02  0.98687196276E+03  0.10566000000E+00 0.  1.
<mgrwt>
<rscale>  1 0.12846667E+04</rscale>
<asrwt>0</asrwt>
<pdfrwt beam="1">  1       21 0.18584306E+00 0.14031343E+04</pdfrwt>
<pdfrwt beam="2">  1       -4 0.18186480E+00 0.14031343E+04</pdfrwt>
<totfact> 0.92833836E-01</totfact>
</mgrwt>
</event>
<event>
 6    2  0.2973303E-005  0.8397424E+03  0.7818608E-02  0.9939590E-01
         -4   -1    0    0    0  501 -0.00000000000E+00  0.00000000000E+00  0.67146901413E+03  0.67146901413E+03  0.00000000000E+00 0. -1.
         21   -1    0    0  501  502  0.00000000000E+00 -0.00000000000E+00 -0.41388089480E+03  0.41388089480E+03  0.00000000000E+00 0. -1.
   -9000010    2    1    2    0  502  0.16043987937E+03  0.11287614569E+03  0.12601844283E+03  0.84914539988E+03  0.81650798100E+03 0.  0.
         13    1    3    3    0    0  0.17480898804E+03  0.90353473225E+02  0.46718434603E+03  0.50693506168E+03  0.10566000000E+00 0. -1.
         -4    1    3    3    0  502 -0.14369108668E+02  0.22522672462E+02 -0.34116590320E+03  0.34221033819E+03  0.00000000000E+00 0. -1.
        -13    1    1    2    0    0 -0.16043987937E+03 -0.11287614569E+03  0.13156967650E+03  0.23620450905E+03  0.10566000000E+00 0.  1.
<mgrwt>
<rscale>  1 0.58380357E+03</rscale>
<asrwt>0</asrwt>
<pdfrwt beam="2">  1       21 0.63673984E-01 0.83974238E+03</pdfrwt>
<pdfrwt beam="1">  1       -4 0.10330293E+00 0.83974238E+03</pdfrwt>
<totfact> 0.68935691E+01</totfact>
</mgrwt>
</event>
<event>
 6    2  0.2220137E-005  0.1138862E+04  0.7818608E-02  0.9378069E-01
         -4   -1    0    0    0  501 -0.00000000000E+00  0.00000000000E+00  0.95073249274E+03  0.95073249274E+03  0.00000000000E+00 0. -1.
         21   -1    0    0  501  502  0.00000000000E+00 -0.00000000000E+00 -0.76392649343E+03  0.76392649343E+03  0.00000000000E+00 0. -1.
   -9000010    2    1    2    0  502  0.48977265943E+03 -0.19286623543E+03  0.29682048161E+03  0.11769064035E+04  0.10099166508E+04 0.  0.
         13    1    3    3    0    0 -0.15550163644E+03  0.26598582158E+03 -0.50635464399E+02  0.31223897520E+03  0.10566000000E+00 0. -1.
         -4    1    3    3    0  502  0.64527429587E+03 -0.45885205701E+03  0.34745594601E+03  0.86466742829E+03  0.00000000000E+00 0. -1.
        -13    1    1    2    0    0 -0.48977265943E+03  0.19286623543E+03 -0.11001448230E+03  0.53775258267E+03  0.10566000000E+00 0.  1.
<mgrwt>
<rscale>  1 0.93902669E+03</rscale>
<asrwt>0</asrwt>
<pdfrwt beam="2">  1       21 0.11752715E+00 0.11388618E+04</pdfrwt>
<pdfrwt beam="1">  1       -4 0.14626654E+00 0.11388618E+04</pdfrwt>
<totfact> 0.63664927E+00</totfact>
</mgrwt>
</event>
<event>
 6    2  0.2220137E-005  0.1098362E+04  0.7818608E-02  0.9418429E-01
         -4   -1    0    0    0  501 -0.00000000000E+00  0.00000000000E+00  0.11623142423E+04  0.11623142423E+04  0.00000000000E+00 0. -1.
         21   -1    0    0  501  502  0.00000000000E+00 -0.00000000000E+00 -0.61392156492E+03  0.61392156492E+03  0.00000000000E+00 0. -1.
   -9000010    2    1    2    0  502  0.27974224232E+03 -0.42392839517E+03  0.62320457941E+03  0.12628472232E+04  0.97387276119E+03 0.  0.
         13    1    3    3    0    0  0.57137635159E+03 -0.27109213807E+03  0.68010462335E+03  0.92871103813E+03  0.10566000000E+00 0. -1.
         -4    1    3    3    0  502 -0.29163410927E+03 -0.15283625710E+03 -0.56900043945E+02  0.33413618507E+03  0.00000000000E+00 0. -1.
        -13    1    1    2    0    0 -0.27974224232E+03  0.42392839517E+03 -0.74811902008E+02  0.51338858404E+03  0.10566000000E+00 0.  1.
<mgrwt>
<rscale>  1 0.90574418E+03</rscale>
<asrwt>0</asrwt>
<pdfrwt beam="2">  1       21 0.94449471E-01 0.10983620E+04</pdfrwt>
<pdfrwt beam="1">  1       -4 0.17881758E+00 0.10983620E+04</pdfrwt>
<totfact> 0.63480660E+00</totfact>
</mgrwt>
</event>
<event>
 6    2  0.2220137E-005  0.1024198E+04  0.7818608E-02  0.9744234E-01
         -4   -1    0    0    0  501 -0.00000000000E+00  0.00000000000E+00  0.27282099583E+03  0.27282099583E+03  0.00000000000E+00 0. -1.
         21   -1    0    0  501  502  0.00000000000E+00 -0.00000000000E+00 -0.13899869369E+04  0.13899869369E+04  0.00000000000E+00 0. -1.
   -9000010    2    1    2    0  502 -0.14172683534E+02  0.20375999297E+03 -0.97393355208E+03  0.14133394415E+04  0.10036248370E+04 0.  0.
         13    1    3    3    0    0 -0.25604597208E+02  0.59328866007E+03 -0.38699241051E+03  0.70880897745E+03  0.10566000000E+00 0. -1.
         -4    1    3    3    0  502  0.11431913674E+02 -0.38952866710E+03 -0.58694114157E+03  0.70453046407E+03  0.00000000000E+00 0. -1.
        -13    1    1    2    0    0  0.14172683534E+02 -0.20375999297E+03 -0.14323238904E+03  0.24946849125E+03  0.10566000000E+00 0.  1.
<mgrwt>
<rscale>  1 0.68443110E+03</rscale>
<asrwt>0</asrwt>
<pdfrwt beam="2">  1       21 0.21384414E+00 0.10241981E+04</pdfrwt>
<pdfrwt beam="1">  1       -4 0.41972462E-01 0.10241981E+04</pdfrwt>
<totfact> 0.20616932E+01</totfact>
</mgrwt>
</event>
<event>
 6    2  0.2220137E-005  0.1016566E+04  0.7818608E-02  0.9818961E-01
         -4   -1    0    0    0  501 -0.00000000000E+00  0.00000000000E+00  0.46501772292E+03  0.46501772292E+03  0.00000000000E+00 0. -1.
         21   -1    0    0  501  502  0.00000000000E+00 -0.00000000000E+00 -0.79545993271E+03  0.79545993271E+03  0.00000000000E+00 0. -1.
   -9000010    2    1    2    0  502 -0.10491269575E+03  0.12510751088E+03 -0.38692092489E+03  0.10877107044E+04  0.10033684325E+04 0.  0.
         13    1    3    3    0    0 -0.12267401037E+03 -0.77444766750E+02  0.32041643531E+03  0.35172902624E+03  0.10566000000E+00 0. -1.
         -4    1    3    3    0  502  0.17761314619E+02  0.20255227763E+03 -0.70733736021E+03  0.73598167818E+03  0.00000000000E+00 0. -1.
        -13    1    1    2    0    0  0.10491269575E+03 -0.12510751088E+03  0.56478715107E+02  0.17276695122E+03  0.10566000000E+00 0.  1.
<mgrwt>
<rscale>  1 0.64354861E+03</rscale>
<asrwt>0</asrwt>
<pdfrwt beam="2">  1       21 0.12237845E+00 0.10165662E+04</pdfrwt>
<pdfrwt beam="1">  1       -4 0.71541188E-01 0.10165662E+04</pdfrwt>
<totfact> 0.33105972E+01</totfact>
</mgrwt>
</event>
<event>
 6    2  0.2220137E-005  0.1040538E+04  0.7818608E-02  0.9631412E-01
         -4   -1    0    0    0  501 -0.00000000000E+00  0.00000000000E+00  0.32974118078E+03  0.32974118078E+03  0.00000000000E+00 0. -1.
         21   -1    0    0  501  502  0.00000000000E+00 -0.00000000000E+00 -0.15439021000E+04  0.15439021000E+04  0.00000000000E+00 0. -1.
   -9000010    2    1    2    0  502  0.60749997964E+02  0.27807698905E+03 -0.12004934717E+04  0.15886798018E+04  0.10008504198E+04 0.  0.
         13    1    3    3    0    0  0.26783421386E+03 -0.22625278952E+03 -0.90062525997E+03  0.96646332623E+03  0.10566000000E+00 0. -1.
         -4    1    3    3    0  502 -0.20708421589E+03  0.50432977857E+03 -0.29986821171E+03  0.62221647552E+03  0.00000000000E+00 0. -1.
        -13    1    1    2    0    0 -0.60749997964E+02 -0.27807698905E+03 -0.13667447526E+02  0.28496347902E+03  0.10566000000E+00 0.  1.
<mgrwt>
<rscale>  1 0.75251589E+03</rscale>
<asrwt>0</asrwt>
<pdfrwt beam="2">  1       21 0.23752340E+00 0.10405378E+04</pdfrwt>
<pdfrwt beam="1">  1       -4 0.50729412E-01 0.10405378E+04</pdfrwt>
<totfact> 0.96896968E+00</totfact>
</mgrwt>
</event>
<event>
 6    2  0.2220137E-005  0.1007369E+04  0.7818608E-02  0.9778508E-01
         -4   -1    0    0    0  501 -0.00000000000E+00  0.00000000000E+00  0.20871652646E+04  0.20871652646E+04  0.00000000000E+00 0. -1.
         21   -1    0    0  501  502  0.00000000000E+00 -0.00000000000E+00 -0.18316496356E+03  0.18316496356E+03  0.00000000000E+00 0. -1.
   -9000010    2    1    2    0  502 -0.19134900849E+03 -0.10452149258E+02  0.17696784860E+04  0.20363087513E+04  0.98897305141E+03 0.  0.
         13    1    3    3    0    0 -0.38356289796E+03  0.44951726153E+02  0.17937269146E+04  0.18348289865E+04  0.10566000000E+00 0. -1.
         -4    1    3    3    0  502  0.19221388948E+03 -0.55403875411E+02 -0.24048428588E+02  0.20147976483E+03  0.00000000000E+00 0. -1.
        -13    1    1    2    0    0  0.19134900849E+03  0.10452149258E+02  0.13432181508E+03  0.23402147688E+03  0.10566000000E+00 0.  1.
<mgrwt>
<rscale>  1 0.66528794E+03</rscale>
<asrwt>0</asrwt>
<pdfrwt beam="2">  1       21 0.28179227E-01 0.10073685E+04</pdfrwt>
<pdfrwt beam="1">  1       -4 0.32110233E+00 0.10073685E+04</pdfrwt>
<totfact> 0.11364768E+01</totfact>
</mgrwt>
</event>
<event>
 6    2  0.2220137E-005  0.1009904E+04  0.7818608E-02  0.9843422E-01
         21   -1    0    0  501  502  0.00000000000E+00  0.00000000000E+00  0.69688803528E+03  0.69688803528E+03  0.00000000000E+00 0. -1.
         -4   -1    0    0    0  501 -0.00000000000E+00 -0.00000000000E+00 -0.48625218825E+03  0.48625218825E+03  0.00000000000E+00 0. -1.
   -9000010    2    1    2    0  502 -0.28470614919E+01 -0.15372546877E+03  0.17003706018E+03  0.10241185327E+04  0.99813152521E+03 0.  0.
         13    1    3    3    0    0  0.49522507902E+03 -0.12298963803E+03  0.68090330603E+02  0.51479183583E+03  0.10566000000E+00 0. -1.
         -4    1    3    3    0  502 -0.49807214051E+03 -0.30735830735E+02  0.10194672958E+03  0.50932669684E+03  0.00000000000E+00 0. -1.
        -13    1    1    2    0    0  0.28470614919E+01  0.15372546877E+03  0.40598786845E+02  0.15902169086E+03  0.10566000000E+00 0.  1.
<mgrwt>
<rscale>  1 0.63083421E+03</rscale>
<asrwt>0</asrwt>
<pdfrwt beam="1">  1       21 0.10721354E+00 0.10099040E+04</pdfrwt>
<pdfrwt beam="2">  1       -4 0.74808029E-01 0.10099040E+04</pdfrwt>
<totfact> 0.42025782E+01</totfact>
</mgrwt>
</event>
<event>
 6    2  0.2220137E-005  0.1072264E+04  0.7818608E-02  0.9590934E-01
         -4   -1    0    0    0  501 -0.00000000000E+00  0.00000000000E+00  0.26537870038E+03  0.26537870038E+03  0.00000000000E+00 0. -1.
         21   -1    0    0  501  502  0.00000000000E+00 -0.00000000000E+00 -0.18351577261E+04  0.18351577261E+04  0.00000000000E+00 0. -1.
   -9000010    2    1    2    0  502  0.28956956568E+03 -0.73259332585E+02 -0.13761470781E+04  0.17445718138E+04  0.10298216204E+04 0.  0.
         13    1    3    3    0    0  0.31598166068E+03 -0.76496383626E+02  0.40546773266E+02  0.32762807965E+03  0.10566000000E+00 0. -1.
         -4    1    3    3    0  502 -0.26412095001E+02  0.32370510405E+01 -0.14166938514E+04  0.14169437342E+04  0.00000000000E+00 0. -1.
        -13    1    1    2    0    0 -0.28956956568E+03  0.73259332585E+02 -0.19363194763E+03  0.35596461268E+03  0.10566000000E+00 0.  1.
<mgrwt>
<rscale>  1 0.77899116E+03</rscale>
<asrwt>0</asrwt>
<pdfrwt beam="2">  1       21 0.28233196E+00 0.10722640E+04</pdfrwt>
<pdfrwt beam="1">  1       -4 0.40827493E-01 0.10722640E+04</pdfrwt>
<totfact> 0.78907387E+00</totfact>
</mgrwt>
</event>
<event>
 6    2  0.2220137E-005  0.1061657E+04  0.7818608E-02  0.9545822E-01
         -4   -1    0    0    0  501 -0.00000000000E+00  0.00000000000E+00  0.92149700920E+03  0.92149700920E+03  0.00000000000E+00 0. -1.
         21   -1    0    0  501  502  0.00000000000E+00 -0.00000000000E+00 -0.60997884456E+03  0.60997884456E+03  0.00000000000E+00 0. -1.
   -9000010    2    1    2    0  502 -0.13070553563E+03 -0.33492946360E+03  0.44063044400E+03  0.11494658088E+04  0.99892681148E+03 0.  0.
         13    1    3    3    0    0 -0.25872717094E+03 -0.32491321678E+03 -0.22444567247E+03  0.47210615170E+03  0.10566000000E+00 0. -1.
         -4    1    3    3    0  502  0.12802163531E+03 -0.10016246822E+02  0.66507611647E+03  0.67735965706E+03  0.00000000000E+00 0. -1.
        -13    1    1    2    0    0  0.13070553563E+03  0.33492946360E+03 -0.12911227937E+03  0.38201004500E+03  0.10566000000E+00 0.  1.
<mgrwt>
<rscale>  1 0.80988262E+03</rscale>
<asrwt>0</asrwt>
<pdfrwt beam="2">  1       21 0.93842899E-01 0.10616574E+04</pdfrwt>
<pdfrwt beam="1">  1       -4 0.14176877E+00 0.10616574E+04</pdfrwt>
<totfact> 0.12275315E+01</totfact>
</mgrwt>
</event>
<event>
 6    2  0.2220137E-005  0.1024073E+04  0.7818608E-02  0.9745485E-01
         -4   -1    0    0    0  501 -0.00000000000E+00  0.00000000000E+00  0.16042603657E+04  0.16042603657E+04  0.00000000000E+00 0. -1.
         21   -1    0    0  501  502  0.00000000000E+00 -0.00000000000E+00 -0.26992455935E+03  0.26992455935E+03  0.00000000000E+00 0. -1.
   -9000010    2    1    2    0  502  0.69337791500E+02  0.19130116705E+03  0.79097290161E+03  0.12939719269E+04  0.10036539994E+04 0.  0.
         13    1    3    3    0    0  0.41053951830E+03  0.29645052088E+01  0.80537048236E+03  0.90397627701E+03  0.10566000000E+00 0. -1.
         -4    1    3    3    0  502 -0.34120172680E+03  0.18833666185E+03 -0.14397580755E+02  0.38999564985E+03  0.00000000000E+00 0. -1.
        -13    1    1    2    0    0 -0.69337791500E+02 -0.19130116705E+03  0.54336290478E+03  0.58021299822E+03  0.10566000000E+00 0.  1.
<mgrwt>
<rscale>  1 0.68371997E+03</rscale>
<asrwt>0</asrwt>
<pdfrwt beam="2">  1       21 0.41526856E-01 0.10240729E+04</pdfrwt>
<pdfrwt beam="1">  1       -4 0.24680928E+00 0.10240729E+04</pdfrwt>
<totfact> 0.14752343E+01</totfact>
</mgrwt>
</event>
<event>
 6    2  0.2220137E-005  0.1032036E+04  0.7818608E-02  0.9714553E-01
         21   -1    0    0  501  502  0.00000000000E+00  0.00000000000E+00  0.60983758177E+03  0.60983758177E+03  0.00000000000E+00 0. -1.
         -4   -1    0    0    0  501 -0.00000000000E+00 -0.00000000000E+00 -0.66637021221E+03  0.66637021221E+03  0.00000000000E+00 0. -1.
   -9000010    2    1    2    0  502 -0.35808541542E+02  0.21746453842E+03  0.46153119439E+02  0.10330669880E+04  0.10082282550E+04 0.  0.
         13    1    3    3    0    0 -0.21500217347E+03  0.61176041841E+02 -0.43908094093E+03  0.49270734371E+03  0.10566000000E+00 0. -1.
         -4    1    3    3    0  502  0.17919363193E+03  0.15628849658E+03  0.48523406037E+03  0.54035964434E+03  0.00000000000E+00 0. -1.
        -13    1    1    2    0    0  0.35808541542E+02 -0.21746453842E+03 -0.10268574988E+03  0.24314080594E+03  0.10566000000E+00 0.  1.
<mgrwt>
<rscale>  1 0.70156909E+03</rscale>
<asrwt>0</asrwt>
<pdfrwt beam="1">  1       21 0.93821167E-01 0.10320355E+04</pdfrwt>
<pdfrwt beam="2">  1       -4 0.10251849E+00 0.10320355E+04</pdfrwt>
<totfact> 0.27919552E+01</totfact>
</mgrwt>
</event>
<event>
 6    2  0.2220137E-005  0.1045889E+04  0.7818608E-02  0.9728239E-01
         21   -1    0    0  501  502  0.00000000000E+00  0.00000000000E+00  0.26981779123E+03  0.26981779123E+03  0.00000000000E+00 0. -1.
         -4   -1    0    0    0  501 -0.00000000000E+00 -0.00000000000E+00 -0.20460516499E+04  0.20460516499E+04  0.00000000000E+00 0. -1.
   -9000010    2    1    2    0  502 -0.84696677306E+02  0.18370900261E+03 -0.79430185545E+03  0.13133162032E+04  0.10261391169E+04 0.  0.
         13    1    3    3    0    0  0.38292128857E+02  0.60444586127E+03 -0.49949139144E+03  0.78505588822E+03  0.10566000000E+00 0. -1.
         -4    1    3    3    0  502 -0.12298880616E+03 -0.42073685866E+03 -0.29481046400E+03  0.52826031496E+03  0.00000000000E+00 0. -1.
        -13    1    1    2    0    0  0.84696677306E+02 -0.18370900261E+03 -0.98193200323E+03  0.10025532379E+04  0.10566000000E+00 0.  1.
<mgrwt>
<rscale>  1 0.69360074E+03</rscale>
<asrwt>0</asrwt>
<pdfrwt beam="1">  1       21 0.41510430E-01 0.10458891E+04</pdfrwt>
<pdfrwt beam="2">  1       -4 0.31477717E+00 0.10458891E+04</pdfrwt>
<totfact> 0.55938089E+00</totfact>
</mgrwt>
</event>
<event>
 6    2  0.2220137E-005  0.1037315E+04  0.7818608E-02  0.1007558E+00
         -4   -1    0    0    0  501 -0.00000000000E+00  0.00000000000E+00  0.91066179188E+03  0.91066179188E+03  0.00000000000E+00 0. -1.
         21   -1    0    0  501  502  0.00000000000E+00 -0.00000000000E+00 -0.33535421589E+03  0.33535421589E+03  0.00000000000E+00 0. -1.
   -9000010    2    1    2    0  502 -0.31195477647E+02 -0.60239644181E+02  0.54391238989E+03  0.11712654798E+04  0.10350942777E+04 0.  0.
         13    1    3    3    0    0 -0.18879433417E+03  0.14755824592E+03  0.78214982123E+03  0.81803122835E+03  0.10566000000E+00 0. -1.
         -4    1    3    3    0  502  0.15759885653E+03 -0.20779789010E+03 -0.23823743133E+03  0.35323425145E+03  0.00000000000E+00 0. -1.
        -13    1    1    2    0    0  0.31195477647E+02  0.60239644181E+02  0.31395186100E+02  0.74750527964E+02  0.10566000000E+00 0.  1.
<mgrwt>
<rscale>  1 0.52456721E+03</rscale>
<asrwt>0</asrwt>
<pdfrwt beam="2">  1       21 0.51592957E-01 0.10373149E+04</pdfrwt>
<pdfrwt beam="1">  1       -4 0.14010181E+00 0.10373149E+04</pdfrwt>
<totfact> 0.50144468E+01</totfact>
</mgrwt>
</event>
<event>
 6    2  0.2220137E-005  0.1061731E+04  0.7818608E-02  0.9572941E-01
         21   -1    0    0  501  502  0.00000000000E+00  0.00000000000E+00  0.54168371234E+03  0.54168371234E+03  0.00000000000E+00 0. -1.
         -4   -1    0    0    0  501 -0.00000000000E+00 -0.00000000000E+00 -0.95588738817E+03  0.95588738817E+03  0.00000000000E+00 0. -1.
   -9000010    2    1    2    0  502  0.32001982867E+03 -0.68678335884E+02 -0.14065939664E+03  0.10710082231E+04  0.10100218530E+04 0.  0.
         13    1    3    3    0    0 -0.19164921794E+03  0.33008724753E+03  0.71825681957E+02  0.38838892038E+03  0.10566000000E+00 0. -1.
         -4    1    3    3    0  502  0.51166904662E+03 -0.39876558342E+03 -0.21248507860E+03  0.68261930269E+03  0.00000000000E+00 0. -1.
        -13    1    1    2    0    0 -0.32001982867E+03  0.68678335884E+02 -0.27354427919E+03  0.42656287744E+03  0.10566000000E+00 0.  1.
<mgrwt>
<rscale>  1 0.79113316E+03</rscale>
<asrwt>0</asrwt>
<pdfrwt beam="1">  1       21 0.83335956E-01 0.10617314E+04</pdfrwt>
<pdfrwt beam="2">  1       -4 0.14705960E+00 0.10617314E+04</pdfrwt>
<totfact> 0.14822423E+01</totfact>
</mgrwt>
</event>
<event>
 6    2  0.2220137E-005  0.9330692E+03  0.7818608E-02  0.9779395E-01
         -4   -1    0    0    0  501 -0.00000000000E+00  0.00000000000E+00  0.93295685228E+03  0.93295685228E+03  0.00000000000E+00 0. -1.
         21   -1    0    0  501  502  0.00000000000E+00 -0.00000000000E+00 -0.50835497910E+03  0.50835497910E+03  0.00000000000E+00 0. -1.
   -9000010    2    1    2    0  502 -0.21784848024E+02 -0.23946226442E+03 -0.22846010594E+02  0.93334886468E+03  0.90155499406E+03 0.  0.
         13    1    3    3    0    0 -0.42678157437E+03  0.47169020993E+02 -0.69604605920E+02  0.43498533435E+03  0.10566000000E+00 0. -1.
         -4    1    3    3    0  502  0.40499672635E+03 -0.28663128542E+03  0.46758595326E+02  0.49836353034E+03  0.00000000000E+00 0. -1.
        -13    1    1    2    0    0  0.21784848024E+02  0.23946226442E+03  0.44744788377E+03  0.50796296671E+03  0.10566000000E+00 0.  1.
<mgrwt>
<rscale>  1 0.66480170E+03</rscale>
<asrwt>0</asrwt>
<pdfrwt beam="2">  1       21 0.78208459E-01 0.93306922E+03</pdfrwt>
<pdfrwt beam="1">  1       -4 0.14353182E+00 0.93306922E+03</pdfrwt>
<totfact> 0.18608018E+01</totfact>
</mgrwt>
</event>
<event>
 6    2  0.2220137E-005  0.1071735E+04  0.7818608E-02  0.9558110E-01
         21   -1    0    0  501  502  0.00000000000E+00  0.00000000000E+00  0.17754473245E+03  0.17754473245E+03  0.00000000000E+00 0. -1.
         -4   -1    0    0    0  501 -0.00000000000E+00 -0.00000000000E+00 -0.30654948791E+04  0.30654948791E+04  0.00000000000E+00 0. -1.
   -9000010    2    1    2    0  502 -0.28736729594E+03  0.17204884033E+03 -0.17073784134E+04  0.20158760550E+04  0.10180542500E+04 0.  0.
         13    1    3    3    0    0 -0.63758852052E+03  0.27395296506E+03 -0.12618874799E+04  0.14401143606E+04  0.10566000000E+00 0. -1.
         -4    1    3    3    0  502  0.35022122458E+03 -0.10190412473E+03 -0.44549093356E+03  0.57576169434E+03  0.00000000000E+00 0. -1.
        -13    1    1    2    0    0  0.28736729594E+03 -0.17204884033E+03 -0.11805717332E+04  0.12271635566E+04  0.10566000000E+00 0.  1.
<mgrwt>
<rscale>  1 0.80131868E+03</rscale>
<asrwt>0</asrwt>
<pdfrwt beam="1">  1       21 0.27314573E-01 0.10717347E+04</pdfrwt>
<pdfrwt beam="2">  1       -4 0.47161462E+00 0.10717347E+04</pdfrwt>
<totfact> 0.10872300E+00</totfact>
</mgrwt>
</event>
<event>
 6    2  0.2220137E-005  0.1324394E+04  0.7818608E-02  0.9108877E-01
         21   -1    0    0  501  502  0.00000000000E+00  0.00000000000E+00  0.16464897675E+04  0.16464897675E+04  0.00000000000E+00 0. -1.
         -4   -1    0    0    0  501 -0.00000000000E+00 -0.00000000000E+00 -0.91107393862E+03  0.91107393862E+03  0.00000000000E+00 0. -1.
   -9000010    2    1    2    0  502  0.90449668542E+03  0.56663583822E+02  0.94549739195E+03  0.16272630612E+04  0.96576122132E+03 0.  0.
         13    1    3    3    0    0  0.26730922160E+03 -0.32633365768E+03 -0.33550617777E+01  0.42185204005E+03  0.10566000000E+00 0. -1.
         -4    1    3    3    0  502  0.63718746382E+03  0.38299724150E+03  0.94885245372E+03  0.12054110212E+04  0.00000000000E+00 0. -1.
        -13    1    1    2    0    0 -0.90449668542E+03 -0.56663583822E+02 -0.21008156303E+03  0.93030064493E+03  0.10566000000E+00 0.  1.
<mgrwt>
<rscale>  1 0.12045569E+04</rscale>
<asrwt>0</asrwt>
<pdfrwt beam="1">  1       21 0.25330612E+00 0.13243941E+04</pdfrwt>
<pdfrwt beam="2">  1       -4 0.14016522E+00 0.13243941E+04</pdfrwt>
<totfact> 0.67974465E-01</totfact>
</mgrwt>
</event>
<event>
 6    2  0.2220137E-005  0.1005722E+04  0.7818608E-02  0.9576617E-01
         21   -1    0    0  501  502  0.00000000000E+00  0.00000000000E+00  0.11716642987E+04  0.11716642987E+04  0.00000000000E+00 0. -1.
         -4   -1    0    0    0  501 -0.00000000000E+00 -0.00000000000E+00 -0.41008603084E+03  0.41008603084E+03  0.00000000000E+00 0. -1.
   -9000010    2    1    2    0  502 -0.34120858769E+03  0.16782432727E+03  0.53627536576E+03  0.11397664905E+04  0.93106824656E+03 0.  0.
         13    1    3    3    0    0  0.16106018095E+03  0.36802084737E+03  0.36334600753E+02  0.40336080668E+03  0.10566000000E+00 0. -1.
         -4    1    3    3    0  502 -0.50226876865E+03 -0.20019652010E+03  0.49994076501E+03  0.73640568380E+03  0.00000000000E+00 0. -1.
        -13    1    1    2    0    0  0.34120858769E+03 -0.16782432727E+03  0.22530290212E+03  0.44198383908E+03  0.10566000000E+00 0.  1.
<mgrwt>
<rscale>  1 0.78863330E+03</rscale>
<asrwt>0</asrwt>
<pdfrwt beam="1">  1       21 0.18025604E+00 0.10057218E+04</pdfrwt>
<pdfrwt beam="2">  1       -4 0.63090159E-01 0.10057218E+04</pdfrwt>
<totfact> 0.14880151E+01</totfact>
</mgrwt>
</event>
<event>
 6    2  0.2220137E-005  0.1057771E+04  0.7818608E-02  0.9553887E-01
         21   -1    0    0  501  502  0.00000000000E+00  0.00000000000E+00  0.15309407432E+04  0.15309407432E+04  0.00000000000E+00 0. -1.
         -4   -1    0    0    0  501 -0.00000000000E+00 -0.00000000000E+00 -0.32584175846E+03  0.32584175846E+03  0.00000000000E+00 0. -1.
   -9000010    2    1    2    0  502 -0.24133729017E+03 -0.25829775116E+03  0.93731923053E+03  0.14133104915E+04  0.99695425652E+03 0.  0.
         13    1    3    3    0    0  0.50858991615E+02 -0.57300921842E+03  0.74892682595E+03  0.94436094964E+03  0.10566000000E+00 0. -1.
         -4    1    3    3    0  502 -0.29219628178E+03  0.31471146725E+03  0.18839240459E+03  0.46894954187E+03  0.00000000000E+00 0. -1.
        -13    1    1    2    0    0  0.24133729017E+03  0.25829775116E+03  0.26777975425E+03  0.44347201020E+03  0.10566000000E+00 0.  1.
<mgrwt>
<rscale>  1 0.80424931E+03</rscale>
<asrwt>0</asrwt>
<pdfrwt beam="1">  1       21 0.23552934E+00 0.10577709E+04</pdfrwt>
<pdfrwt beam="2">  1       -4 0.50129502E-01 0.10577709E+04</pdfrwt>
<totfact> 0.10211332E+01</totfact>
</mgrwt>
</event>
<event>
 6    2  0.2220137E-005  0.9975926E+03  0.7818608E-02  0.1070859E+00
         -4   -1    0    0    0  501 -0.00000000000E+00  0.00000000000E+00  0.11804168659E+04  0.11804168659E+04  0.00000000000E+00 0. -1.
         21   -1    0    0  501  502  0.00000000000E+00 -0.00000000000E+00 -0.21924704038E+03  0.21924704038E+03  0.00000000000E+00 0. -1.
   -9000010    2    1    2    0  502 -0.94042466853E+01  0.75118704864E+01  0.96404350572E+03  0.13872890424E+04  0.99751999391E+03 0.  0.
         13    1    3    3    0    0 -0.32188659502E+03 -0.30575063371E+03  0.16444423263E+03  0.47343040342E+03  0.10566000000E+00 0. -1.
         -4    1    3    3    0  502  0.31248234834E+03  0.31326250420E+03  0.79959927309E+03  0.91385863900E+03  0.00000000000E+00 0. -1.
        -13    1    1    2    0    0  0.94042466853E+01 -0.75118704864E+01 -0.28736801899E+01  0.12374863870E+02  0.10566000000E+00 0.  1.
<mgrwt>
<rscale>  1 0.33062884E+03</rscale>
<asrwt>0</asrwt>
<pdfrwt beam="2">  1       21 0.33730314E-01 0.99759261E+03</pdfrwt>
<pdfrwt beam="1">  1       -4 0.18160259E+00 0.99759261E+03</pdfrwt>
<totfact> 0.60275934E+01</totfact>
</mgrwt>
</event>
<event>
 6    2  0.2220137E-005  0.1140690E+04  0.7818608E-02  0.9335138E-01
         -4   -1    0    0    0  501 -0.00000000000E+00  0.00000000000E+00  0.48577825953E+03  0.48577825953E+03  0.00000000000E+00 0. -1.
         21   -1    0    0  501  502  0.00000000000E+00 -0.00000000000E+00 -0.15820114803E+04  0.15820114803E+04  0.00000000000E+00 0.  1.
   -9000010    2    1    2    0  502  0.16240756952E+03 -0.58968654417E+03 -0.74599206423E+03  0.13629668416E+04  0.96284371127E+03 0.  0.
         13    1    3    3    0    0 -0.10181878627E+03  0.16047478100E+03  0.88959018414E+02  0.20984026948E+03  0.10566000000E+00 0. -1.
         -4    1    3    3    0  502  0.26422635579E+03 -0.75016132517E+03 -0.83495108264E+03  0.11531265721E+04  0.00000000000E+00 0. -1.
        -13    1    1    2    0    0 -0.16240756952E+03  0.58968654417E+03 -0.35024115655E+03  0.70482289826E+03  0.10566000000E+00 0.  1.
<mgrwt>
<rscale>  1 0.97611328E+03</rscale>
<asrwt>0</asrwt>
<pdfrwt beam="2">  1       21 0.24338638E+00 0.11406903E+04</pdfrwt>
<pdfrwt beam="1">  1       -4 0.74735118E-01 0.11406903E+04</pdfrwt>
<totfact> 0.37463010E+00</totfact>
</mgrwt>
</event>
<event>
 6    2  0.2220137E-005  0.7324462E+03  0.7818608E-02  0.1027231E+00
         -4   -1    0    0    0  501 -0.00000000000E+00  0.00000000000E+00  0.36968736413E+03  0.36968736413E+03  0.00000000000E+00 0. -1.
         21   -1    0    0  501  502  0.00000000000E+00 -0.00000000000E+00 -0.10181459606E+04  0.10181459606E+04  0.00000000000E+00 0. -1.
   -9000010    2    1    2    0  502 -0.10404065074E+03  0.19731884640E+02 -0.87300593168E+03  0.11395687055E+04  0.72475076646E+03 0.  0.
         13    1    3    3    0    0 -0.39790864973E+03  0.11841405150E+03 -0.57794744377E+03  0.71160132100E+03  0.10566000000E+00 0. -1.
         -4    1    3    3    0  502  0.29386799899E+03 -0.98682166862E+02 -0.29505848791E+03  0.42796738448E+03  0.00000000000E+00 0. -1.
        -13    1    1    2    0    0  0.10404065074E+03 -0.19731884640E+02  0.22454733519E+03  0.24826461928E+03  0.10566000000E+00 0.  1.
<mgrwt>
<rscale>  1 0.45164893E+03</rscale>
<asrwt>0</asrwt>
<pdfrwt beam="2">  1       21 0.15663784E+00 0.73244623E+03</pdfrwt>
<pdfrwt beam="1">  1       -4 0.56874980E-01 0.73244623E+03</pdfrwt>
<totfact> 0.29055433E+01</totfact>
</mgrwt>
</event>
<event>
 6    2  0.2220137E-005  0.1061977E+04  0.7818608E-02  0.9560548E-01
         21   -1    0    0  501  502  0.00000000000E+00  0.00000000000E+00  0.29093764240E+03  0.29093764240E+03  0.00000000000E+00 0. -1.
         -4   -1    0    0    0  501 -0.00000000000E+00 -0.00000000000E+00 -0.18581342108E+04  0.18581342108E+04  0.00000000000E+00 0. -1.
   -9000010    2    1    2    0  502  0.26820798848E+03  0.21117386278E+03 -0.87019413471E+03  0.13729646898E+04  0.10056163691E+04 0.  0.
         13    1    3    3    0    0  0.27927095354E+03  0.60583633512E+03 -0.55330420895E+03  0.86670380711E+03  0.10566000000E+00 0. -1.
         -4    1    3    3    0  502 -0.11062965067E+02 -0.39466247234E+03 -0.31688992576E+03  0.50626088267E+03  0.00000000000E+00 0. -1.
        -13    1    1    2    0    0 -0.26820798848E+03 -0.21117386278E+03 -0.69700243370E+03  0.77610716345E+03  0.10566000000E+00 0.  1.
<mgrwt>
<rscale>  1 0.79963333E+03</rscale>
<asrwt>0</asrwt>
<pdfrwt beam="1">  1       21 0.44759636E-01 0.10619766E+04</pdfrwt>
<pdfrwt beam="2">  1       -4 0.28586681E+00 0.10619766E+04</pdfrwt>
<totfact> 0.71933987E+00</totfact>
</mgrwt>
</event>
<event>
 6    2  0.2220137E-005  0.1065899E+04  0.7818608E-02  0.9578326E-01
         21   -1    0    0  501  502  0.00000000000E+00  0.00000000000E+00  0.98184784751E+03  0.98184784751E+03  0.00000000000E+00 0. -1.
         -4   -1    0    0    0  501 -0.00000000000E+00 -0.00000000000E+00 -0.64641600164E+03  0.64641600164E+03  0.00000000000E+00 0. -1.
   -9000010    2    1    2    0  502  0.40806819539E+02 -0.31490645266E+03 -0.12045989663E+03  0.10726843656E+04  0.10175017893E+04 0.  0.
         13    1    3    3    0    0  0.16972395678E+03 -0.46369805437E+03 -0.46345189519E+03  0.67720733712E+03  0.10566000000E+00 0. -1.
         -4    1    3    3    0  502 -0.12891713724E+03  0.14879160171E+03  0.34299199856E+03  0.39547702852E+03  0.00000000000E+00 0. -1.
        -13    1    1    2    0    0 -0.40806819539E+02  0.31490645266E+03  0.45589174250E+03  0.55557948351E+03  0.10566000000E+00 0.  1.
<mgrwt>
<rscale>  1 0.78747464E+03</rscale>
<asrwt>0</asrwt>
<pdfrwt beam="1">  1       21 0.15105351E+00 0.10658992E+04</pdfrwt>
<pdfrwt beam="2">  1       -4 0.99448616E-01 0.10658992E+04</pdfrwt>
<totfact> 0.86727847E+00</totfact>
</mgrwt>
</event>
<event>
 6    2  0.2220137E-005  0.1069964E+04  0.7818608E-02  0.9547307E-01
         21   -1    0    0  501  502  0.00000000000E+00  0.00000000000E+00  0.69988576361E+03  0.69988576361E+03  0.00000000000E+00 0.  1.
         -4   -1    0    0    0  501 -0.00000000000E+00 -0.00000000000E+00 -0.10177650003E+04  0.10177650003E+04  0.00000000000E+00 0. -1.
   -9000010    2    1    2    0  502 -0.42469879579E+01  0.34939310715E+03  0.20435260435E+03  0.10893039750E+04  0.10113009358E+04 0.  0.
         13    1    3    3    0    0  0.93874887488E+02 -0.31186424423E+03 -0.11895347121E+03  0.34673006908E+03  0.10566000000E+00 0. -1.
         -4    1    3    3    0  502 -0.98121875446E+02  0.66125735138E+03  0.32330607555E+03  0.74257390588E+03  0.00000000000E+00 0. -1.
        -13    1    1    2    0    0  0.42469879579E+01 -0.34939310715E+03 -0.52223184107E+03  0.62834678898E+03  0.10566000000E+00 0.  1.
<mgrwt>
<rscale>  1 0.80884166E+03</rscale>
<asrwt>0</asrwt>
<pdfrwt beam="1">  1       21 0.10767473E+00 0.10699641E+04</pdfrwt>
<pdfrwt beam="2">  1       -4 0.15657923E+00 0.10699641E+04</pdfrwt>
<totfact> 0.66730999E+00</totfact>
</mgrwt>
</event>
<event>
 6    2  0.2220137E-005  0.1060484E+04  0.7818608E-02  0.9584719E-01
         -4   -1    0    0    0  501 -0.00000000000E+00  0.00000000000E+00  0.51163557959E+03  0.51163557959E+03  0.00000000000E+00 0. -1.
         21   -1    0    0  501  502  0.00000000000E+00 -0.00000000000E+00 -0.11025666570E+04  0.11025666570E+04  0.00000000000E+00 0. -1.
   -9000010    2    1    2    0  502 -0.30109159123E+02  0.31397758499E+03 -0.71092500820E+03  0.12767306972E+04  0.10124911953E+04 0.  0.
         13    1    3    3    0    0  0.23881299631E+03  0.60867268366E+03 -0.36581840243E+03  0.74922439747E+03  0.10566000000E+00 0. -1.
         -4    1    3    3    0  502 -0.26892215544E+03 -0.29469509868E+03 -0.34510660577E+03  0.52750629969E+03  0.00000000000E+00 0. -1.
        -13    1    1    2    0    0  0.30109159123E+02 -0.31397758499E+03  0.11999393078E+03  0.33747153943E+03  0.10566000000E+00 0.  1.
<mgrwt>
<rscale>  1 0.78315871E+03</rscale>
<asrwt>0</asrwt>
<pdfrwt beam="2">  1       21 0.16962564E+00 0.10604843E+04</pdfrwt>
<pdfrwt beam="1">  1       -4 0.78713166E-01 0.10604843E+04</pdfrwt>
<totfact> 0.10778533E+01</totfact>
</mgrwt>
</event>
<event>
 6    2  0.2220137E-005  0.1274830E+04  0.7818608E-02  0.9179239E-01
         -4   -1    0    0    0  501 -0.00000000000E+00  0.00000000000E+00  0.87457811047E+03  0.87457811047E+03  0.00000000000E+00 0. -1.
         21   -1    0    0  501  502  0.00000000000E+00 -0.00000000000E+00 -0.12106830844E+04  0.12106830844E+04  0.00000000000E+00 0. -1.
   -9000010    2    1    2    0  502 -0.62253002200E+03 -0.46784034847E+03 -0.27488668724E+03  0.13041300217E+04  0.10093434513E+04 0.  0.
         13    1    3    3    0    0  0.23753845459E+03  0.15113005412E+02  0.87046266627E+02  0.25343635107E+03  0.10566000000E+00 0. -1.
         -4    1    3    3    0  502 -0.86006847659E+03 -0.48295335388E+03 -0.36193295387E+03  0.10506936707E+04  0.00000000000E+00 0. -1.
        -13    1    1    2    0    0  0.62253002200E+03  0.46784034847E+03 -0.61218286723E+02  0.78113117320E+03  0.10566000000E+00 0.  1.
<mgrwt>
<rscale>  1 0.11270309E+04</rscale>
<asrwt>0</asrwt>
<pdfrwt beam="2">  1       21 0.18625894E+00 0.12748304E+04</pdfrwt>
<pdfrwt beam="1">  1       -4 0.13455048E+00 0.12748304E+04</pdfrwt>
<totfact> 0.21474216E+00</totfact>
</mgrwt>
</event>
<event>
 6    2  0.2220137E-005  0.1013065E+04  0.7818608E-02  0.9820932E-01
         21   -1    0    0  501  502  0.00000000000E+00  0.00000000000E+00  0.24765980501E+03  0.24765980501E+03  0.00000000000E+00 0. -1.
         -4   -1    0    0    0  501 -0.00000000000E+00 -0.00000000000E+00 -0.14218666164E+04  0.14218666164E+04  0.00000000000E+00 0. -1.
   -9000010    2    1    2    0  502 -0.16185097591E+03  0.25915804647E+02 -0.10786545555E+04  0.14797960546E+04  0.99971663269E+03 0.  0.
         13    1    3    3    0    0  0.10454774347E+03 -0.44785685779E+03 -0.59667284694E+03  0.75334221518E+03  0.10566000000E+00 0. -1.
         -4    1    3    3    0  502 -0.26639871938E+03  0.47377266244E+03 -0.48198170856E+03  0.72645383938E+03  0.00000000000E+00 0. -1.
        -13    1    1    2    0    0  0.16185097591E+03 -0.25915804647E+02 -0.95552255889E+02  0.18973036684E+03  0.10566000000E+00 0.  1.
<mgrwt>
<rscale>  1 0.64251194E+03</rscale>
<asrwt>0</asrwt>
<pdfrwt beam="1">  1       21 0.38101509E-01 0.10130650E+04</pdfrwt>
<pdfrwt beam="2">  1       -4 0.21874871E+00 0.10130650E+04</pdfrwt>
<totfact> 0.26544270E+01</totfact>
</mgrwt>
</event>
<event>
 6    2  0.2220137E-005  0.1022254E+04  0.7818608E-02  0.9771749E-01
         -4   -1    0    0    0  501 -0.00000000000E+00  0.00000000000E+00  0.77184473876E+03  0.77184473876E+03  0.00000000000E+00 0. -1.
         21   -1    0    0  501  502  0.00000000000E+00 -0.00000000000E+00 -0.47517274591E+03  0.47517274591E+03  0.00000000000E+00 0. -1.
   -9000010    2    1    2    0  502  0.59663585171E+02 -0.17777768385E+03  0.27244848734E+03  0.10579369789E+04  0.10049068737E+04 0.  0.
         13    1    3    3    0    0  0.26508634459E+03 -0.37736497694E+03  0.50872530888E+03  0.68664149814E+03  0.10566000000E+00 0. -1.
         -4    1    3    3    0  502 -0.20542275942E+03  0.19958729309E+03 -0.23627682154E+03  0.37129548078E+03  0.00000000000E+00 0. -1.
        -13    1    1    2    0    0 -0.59663585171E+02  0.17777768385E+03  0.24223505508E+02  0.18908050575E+03  0.10566000000E+00 0.  1.
<mgrwt>
<rscale>  1 0.66900960E+03</rscale>
<asrwt>0</asrwt>
<pdfrwt beam="2">  1       21 0.73103499E-01 0.10222536E+04</pdfrwt>
<pdfrwt beam="1">  1       -4 0.11874534E+00 0.10222536E+04</pdfrwt>
<totfact> 0.35169434E+01</totfact>
</mgrwt>
</event>
<event>
 6    2  0.2220137E-005  0.1026206E+04  0.7818608E-02  0.9747559E-01
         -4   -1    0    0    0  501 -0.00000000000E+00  0.00000000000E+00  0.12824239511E+04  0.12824239511E+04  0.00000000000E+00 0. -1.
         21   -1    0    0  501  502  0.00000000000E+00 -0.00000000000E+00 -0.29409980551E+03  0.29409980551E+03  0.00000000000E+00 0. -1.
   -9000010    2    1    2    0  502  0.19951632784E+03  0.22894590189E+02  0.79971065822E+03  0.13010133464E+04  0.10063635841E+04 0.  0.
         13    1    3    3    0    0  0.18931633911E+03  0.27134485953E+03  0.95306912901E+03  0.10088654444E+04  0.10566000000E+00 0. -1.
         -4    1    3    3    0  502  0.10199988722E+02 -0.24845026934E+03 -0.15335847079E+03  0.29214790204E+03  0.00000000000E+00 0. -1.
        -13    1    1    2    0    0 -0.19951632784E+03 -0.22894590189E+02  0.18861348734E+03  0.27551041015E+03  0.10566000000E+00 0.  1.
<mgrwt>
<rscale>  1 0.68254404E+03</rscale>
<asrwt>0</asrwt>
<pdfrwt beam="2">  1       21 0.45246125E-01 0.10262059E+04</pdfrwt>
<pdfrwt beam="1">  1       -4 0.19729599E+00 0.10262059E+04</pdfrwt>
<totfact> 0.25475094E+01</totfact>
</mgrwt>
</event>
<event>
 6    2  0.2220137E-005  0.1005238E+04  0.7818608E-02  0.1007878E+00
         -4   -1    0    0    0  501 -0.00000000000E+00  0.00000000000E+00  0.84360545779E+03  0.84360545779E+03  0.00000000000E+00 0. -1.
         21   -1    0    0  501  502  0.00000000000E+00 -0.00000000000E+00 -0.37510894825E+03  0.37510894825E+03  0.00000000000E+00 0. -1.
   -9000010    2    1    2    0  502 -0.37377808706E+02  0.63641607425E+02  0.32349118086E+03  0.10560063507E+04  0.10025245701E+04 0.  0.
         13    1    3    3    0    0  0.60235720272E+02 -0.17496695188E+03  0.62935059221E+03  0.65599081955E+03  0.10566000000E+00 0. -1.
         -4    1    3    3    0  502 -0.97613528978E+02  0.23860855931E+03 -0.30585941135E+03  0.40001553110E+03  0.00000000000E+00 0. -1.
        -13    1    1    2    0    0  0.37377808706E+02 -0.63641607425E+02  0.14500532868E+03  0.16270805539E+03  0.10566000000E+00 0.  1.
<mgrwt>
<rscale>  1 0.52326887E+03</rscale>
<asrwt>0</asrwt>
<pdfrwt beam="2">  1       21 0.57709069E-01 0.10052377E+04</pdfrwt>
<pdfrwt beam="1">  1       -4 0.12978545E+00 0.10052377E+04</pdfrwt>
<totfact> 0.47957485E+01</totfact>
</mgrwt>
</event>
<event>
 6    2  0.2220137E-005  0.1013366E+04  0.7818608E-02  0.1050623E+00
         21   -1    0    0  501  502  0.00000000000E+00  0.00000000000E+00  0.15170722588E+04  0.15170722588E+04  0.00000000000E+00 0. -1.
         -4   -1    0    0    0  501 -0.00000000000E+00 -0.00000000000E+00 -0.26517259682E+03  0.26517259682E+03  0.00000000000E+00 0. -1.
   -9000010    2    1    2    0  502 -0.13414843837E+02  0.15122412529E+02  0.13466612594E+04  0.16853510122E+04  0.10131647652E+04 0.  0.
         13    1    3    3    0    0 -0.46970861957E+03 -0.18645333892E+03  0.56453090936E+03  0.75768475878E+03  0.10566000000E+00 0. -1.
         -4    1    3    3    0  502  0.45629377573E+03  0.20157575145E+03  0.78213035000E+03  0.92766625342E+03  0.00000000000E+00 0. -1.
        -13    1    1    2    0    0  0.13414843837E+02 -0.15122412529E+02 -0.94761597363E+02  0.96893843430E+02  0.10566000000E+00 0.  1.
<mgrwt>
<rscale>  1 0.38084187E+03</rscale>
<asrwt>0</asrwt>
<pdfrwt beam="1">  1       21 0.23339573E+00 0.10133664E+04</pdfrwt>
<pdfrwt beam="2">  1       -4 0.40795785E-01 0.10133664E+04</pdfrwt>
<totfact> 0.16277610E+01</totfact>
</mgrwt>
</event>
<event>
 6    2  0.2220137E-005  0.1002759E+04  0.7818608E-02  0.1012065E+00
         -4   -1    0    0    0  501 -0.00000000000E+00  0.00000000000E+00  0.14449148242E+04  0.14449148242E+04  0.00000000000E+00 0. -1.
         21   -1    0    0  501  502  0.00000000000E+00 -0.00000000000E+00 -0.20747731928E+03  0.20747731928E+03  0.00000000000E+00 0. -1.
   -9000010    2    1    2    0  502  0.97568000957E+01 -0.64600923654E+02  0.10411500332E+04  0.14455171638E+04  0.10006288047E+04 0.  0.
         13    1    3    3    0    0 -0.47221156273E+03 -0.13399464280E+03  0.36228322360E+03  0.61007169213E+03  0.10566000000E+00 0. -1.
         -4    1    3    3    0  502  0.48196836282E+03  0.69393719141E+02  0.67886680957E+03  0.83544547168E+03  0.00000000000E+00 0. -1.
        -13    1    1    2    0    0 -0.97568000957E+01  0.64600923654E+02  0.19628747177E+03  0.20687497969E+03  0.10566000000E+00 0.  1.
<mgrwt>
<rscale>  1 0.50661938E+03</rscale>
<asrwt>0</asrwt>
<pdfrwt beam="2">  1       21 0.31919588E-01 0.10027594E+04</pdfrwt>
<pdfrwt beam="1">  1       -4 0.22229458E+00 0.10027594E+04</pdfrwt>
<totfact> 0.36294324E+01</totfact>
</mgrwt>
</event>
<event>
 6    2  0.2220137E-005  0.1157670E+04  0.7818608E-02  0.9341113E-01
         21   -1    0    0  501  502  0.00000000000E+00  0.00000000000E+00  0.11835928380E+04  0.11835928380E+04  0.00000000000E+00 0.  1.
         -4   -1    0    0    0  501 -0.00000000000E+00 -0.00000000000E+00 -0.64290238738E+03  0.64290238738E+03  0.00000000000E+00 0. -1.
   -9000010    2    1    2    0  502  0.52286752269E+03  0.23338687772E+03  0.25005782905E+03  0.11843681251E+04  0.10061506135E+04 0.  0.
         13    1    3    3    0    0 -0.12612123633E+03 -0.20896111563E+03 -0.16638456169E+03  0.29538982317E+03  0.10566000000E+00 0. -1.
         -4    1    3    3    0  502  0.64898875902E+03  0.44234799334E+03  0.41644239074E+03  0.88897830196E+03  0.00000000000E+00 0. -1.
        -13    1    1    2    0    0 -0.52286752269E+03 -0.23338687772E+03  0.29063262153E+03  0.64212710022E+03  0.10566000000E+00 0.  1.
<mgrwt>
<rscale>  1 0.97084426E+03</rscale>
<asrwt>0</asrwt>
<pdfrwt beam="1">  1       21 0.18209121E+00 0.11576696E+04</pdfrwt>
<pdfrwt beam="2">  1       -4 0.98908060E-01 0.11576696E+04</pdfrwt>
<totfact> 0.50439150E+00</totfact>
</mgrwt>
</event>
<event>
 6    2  0.2220137E-005  0.1008856E+04  0.7818608E-02  0.9799173E-01
         21   -1    0    0  501  502  0.00000000000E+00  0.00000000000E+00  0.33142622401E+03  0.33142622401E+03  0.00000000000E+00 0. -1.
         -4   -1    0    0    0  501 -0.00000000000E+00 -0.00000000000E+00 -0.15830082594E+04  0.15830082594E+04  0.00000000000E+00 0. -1.
   -9000010    2    1    2    0  502 -0.15576729590E+03 -0.86640034965E+02 -0.47032296705E+03  0.11131007894E+04  0.99298526067E+03 0.  0.
         13    1    3    3    0    0  0.39567091577E+03  0.13777715498E+01 -0.20780077379E+02  0.39621861973E+03  0.10566000000E+00 0. -1.
         -4    1    3    3    0  502 -0.55143821167E+03 -0.88017806515E+02 -0.44954288967E+03  0.71688216968E+03  0.00000000000E+00 0. -1.
        -13    1    1    2    0    0  0.15576729590E+03  0.86640034965E+02 -0.78125906830E+03  0.80133369397E+03  0.10566000000E+00 0.  1.
<mgrwt>
<rscale>  1 0.65406942E+03</rscale>
<asrwt>0</asrwt>
<pdfrwt beam="1">  1       21 0.50988650E-01 0.10088556E+04</pdfrwt>
<pdfrwt beam="2">  1       -4 0.24353973E+00 0.10088556E+04</pdfrwt>
<totfact> 0.99868431E+00</totfact>
</mgrwt>
</event>
<event>
 6    2  0.2220137E-005  0.1002472E+04  0.7818608E-02  0.9802338E-01
         -4   -1    0    0    0  501 -0.00000000000E+00  0.00000000000E+00  0.97136326191E+03  0.97136326191E+03  0.00000000000E+00 0. -1.
         21   -1    0    0  501  502  0.00000000000E+00 -0.00000000000E+00 -0.53058001224E+03  0.53058001224E+03  0.00000000000E+00 0. -1.
   -9000010    2    1    2    0  502  0.29441146897E+02  0.17736289046E+03 -0.24876281837E+02  0.10027807891E+04  0.98621808213E+03 0.  0.
         13    1    3    3    0    0  0.23727789764E+03  0.46796835518E+03 -0.24926190616E+03  0.58088440432E+03  0.10566000000E+00 0. -1.
         -4    1    3    3    0  502 -0.20783675074E+03 -0.29060546472E+03  0.22438562432E+03  0.42189638477E+03  0.00000000000E+00 0. -1.
        -13    1    1    2    0    0 -0.29441146897E+02 -0.17736289046E+03  0.46565953151E+03  0.49916248506E+03  0.10566000000E+00 0.  1.
<mgrwt>
<rscale>  1 0.65237234E+03</rscale>
<asrwt>0</asrwt>
<pdfrwt beam="2">  1       21 0.81627694E-01 0.10024722E+04</pdfrwt>
<pdfrwt beam="1">  1       -4 0.14944050E+00 0.10024722E+04</pdfrwt>
<totfact> 0.15002833E+01</totfact>
</mgrwt>
</event>
<event>
 6    2  0.2220137E-005  0.1183813E+04  0.7818608E-02  0.9297244E-01
         21   -1    0    0  501  502  0.00000000000E+00  0.00000000000E+00  0.48673628160E+03  0.48673628160E+03  0.00000000000E+00 0.  1.
         -4   -1    0    0    0  501 -0.00000000000E+00 -0.00000000000E+00 -0.17007449235E+04  0.17007449235E+04  0.00000000000E+00 0. -1.
   -9000010    2    1    2    0  502  0.47672852598E+03 -0.40904756672E+03 -0.69580154105E+03  0.13731541149E+04  0.10034054213E+04 0.  0.
         13    1    3    3    0    0  0.90548499035E+02 -0.18122392358E+03 -0.86914248299E+03  0.89244036667E+03  0.10566000000E+00 0. -1.
         -4    1    3    3    0  502  0.38618002695E+03 -0.22782364314E+03  0.17334094194E+03  0.48071374823E+03  0.00000000000E+00 0. -1.
        -13    1    1    2    0    0 -0.47672852598E+03  0.40904756672E+03 -0.51820710090E+03  0.81432709024E+03  0.10566000000E+00 0.  1.
<mgrwt>
<rscale>  1 0.10103701E+04</rscale>
<asrwt>0</asrwt>
<pdfrwt beam="1">  1       21 0.74882505E-01 0.11838127E+04</pdfrwt>
<pdfrwt beam="2">  1       -4 0.26165306E+00 0.11838127E+04</pdfrwt>
<totfact> 0.31846681E+00</totfact>
</mgrwt>
</event>
<event>
 6    2  0.2220137E-005  0.1124553E+04  0.7818608E-02  0.9403482E-01
         -4   -1    0    0    0  501 -0.00000000000E+00  0.00000000000E+00  0.16091533023E+04  0.16091533023E+04  0.00000000000E+00 0. -1.
         21   -1    0    0  501  502  0.00000000000E+00 -0.00000000000E+00 -0.50172974383E+03  0.50172974383E+03  0.00000000000E+00 0. -1.
   -9000010    2    1    2    0  502  0.21989960223E+03  0.44810749860E+03  0.30381826750E+03  0.11648716085E+04  0.10077024160E+04 0.  0.
         13    1    3    3    0    0  0.23014999257E+03  0.74953721273E+03  0.77697969491E+02  0.78791626331E+03  0.10566000000E+00 0. -1.
         -4    1    3    3    0  502 -0.10250390341E+02 -0.30142971414E+03  0.22612029801E+03  0.37695534515E+03  0.00000000000E+00 0. -1.
        -13    1    1    2    0    0 -0.21989960223E+03 -0.44810749860E+03  0.80360529093E+03  0.94601143764E+03  0.10566000000E+00 0.  1.
<mgrwt>
<rscale>  1 0.91789714E+03</rscale>
<asrwt>0</asrwt>
<pdfrwt beam="2">  1       21 0.77189192E-01 0.11245534E+04</pdfrwt>
<pdfrwt beam="1">  1       -4 0.24756205E+00 0.11245534E+04</pdfrwt>
<totfact> 0.36551501E+00</totfact>
</mgrwt>
</event>
<event>
 6    2  0.2220137E-005  0.9755277E+03  0.7818608E-02  0.1025387E+00
         -4   -1    0    0    0  501 -0.00000000000E+00  0.00000000000E+00  0.50839261108E+03  0.50839261108E+03  0.00000000000E+00 0. -1.
         21   -1    0    0  501  502  0.00000000000E+00 -0.00000000000E+00 -0.77746709793E+03  0.77746709793E+03  0.00000000000E+00 0. -1.
   -9000010    2    1    2    0  502 -0.37559345534E+02  0.28852686985E+02 -0.46756924871E+03  0.10817926523E+04  0.97437731822E+03 0.  0.
         13    1    3    3    0    0 -0.24986213434E+03 -0.36445218400E+03 -0.45559809032E+03  0.63468583698E+03  0.10566000000E+00 0. -1.
         -4    1    3    3    0  502  0.21230278880E+03  0.39330487098E+03 -0.11971158391E+02  0.44710681532E+03  0.00000000000E+00 0. -1.
        -13    1    1    2    0    0  0.37559345534E+02 -0.28852686985E+02  0.19849476186E+03  0.20406705670E+03  0.10566000000E+00 0.  1.
<mgrwt>
<rscale>  1 0.45791835E+03</rscale>
<asrwt>0</asrwt>
<pdfrwt beam="2">  1       21 0.11961032E+00 0.97552772E+03</pdfrwt>
<pdfrwt beam="1">  1       -4 0.78214248E-01 0.97552772E+03</pdfrwt>
<totfact> 0.28821920E+01</totfact>
</mgrwt>
</event>
<event>
 6    2  0.2220137E-005  0.1159979E+04  0.7818608E-02  0.9341957E-01
         -4   -1    0    0    0  501 -0.00000000000E+00  0.00000000000E+00  0.20035243226E+04  0.20035243226E+04  0.00000000000E+00 0. -1.
         21   -1    0    0  501  502  0.00000000000E+00 -0.00000000000E+00 -0.59484598689E+03  0.59484598689E+03  0.00000000000E+00 0. -1.
   -9000010    2    1    2    0  502 -0.56325301036E+03  0.68825581705E+02  0.90807978524E+02  0.11635277384E+04  0.10117113198E+04 0.  0.
         13    1    3    3    0    0 -0.42177286342E+02  0.17711754593E+03  0.47397048377E+03  0.50773770710E+03  0.10566000000E+00 0. -1.
         -4    1    3    3    0  502 -0.52107572402E+03 -0.10829196422E+03 -0.38316250525E+03  0.65579003127E+03  0.00000000000E+00 0. -1.
        -13    1    1    2    0    0  0.56325301036E+03 -0.68825581705E+02  0.13178703571E+04  0.14348425711E+04  0.10566000000E+00 0.  1.
<mgrwt>
<rscale>  1 0.97010330E+03</rscale>
<asrwt>0</asrwt>
<pdfrwt beam="2">  1       21 0.91514768E-01 0.11599788E+04</pdfrwt>
<pdfrwt beam="1">  1       -4 0.30823451E+00 0.11599788E+04</pdfrwt>
<totfact> 0.10199771E+00</totfact>
</mgrwt>
</event>
<event>
 6    2  0.2220137E-005  0.1159962E+04  0.7818608E-02  0.9338321E-01
         -4   -1    0    0    0  501 -0.00000000000E+00  0.00000000000E+00  0.14555911073E+04  0.14555911073E+04  0.00000000000E+00 0. -1.
         21   -1    0    0  501  502  0.00000000000E+00 -0.00000000000E+00 -0.72665289538E+03  0.72665289538E+03  0.00000000000E+00 0.  1.
   -9000010    2    1    2    0  502 -0.53672692317E+03  0.20624284665E+03 -0.11000955587E+03  0.11651671766E+04  0.10074227242E+04 0.  0.
         13    1    3    3    0    0 -0.49608978780E+03  0.48991247390E+03 -0.36018494097E+03  0.78476271095E+03  0.10566000000E+00 0. -1.
         -4    1    3    3    0  502 -0.40637135370E+02 -0.28366962724E+03  0.25017538511E+03  0.38040446567E+03  0.00000000000E+00 0. -1.
        -13    1    1    2    0    0  0.53672692317E+03 -0.20624284665E+03  0.83894776781E+03  0.10170768261E+04  0.10566000000E+00 0.  1.
<mgrwt>
<rscale>  1 0.97330220E+03</rscale>
<asrwt>0</asrwt>
<pdfrwt beam="2">  1       21 0.11179275E+00 0.11599623E+04</pdfrwt>
<pdfrwt beam="1">  1       -4 0.22393709E+00 0.11599623E+04</pdfrwt>
<totfact> 0.20718601E+00</totfact>
</mgrwt>
</event>
<event>
 6    2  0.2220137E-005  0.1016594E+04  0.7818608E-02  0.1010704E+00
         -4   -1    0    0    0  501 -0.00000000000E+00  0.00000000000E+00  0.41506489776E+03  0.41506489776E+03  0.00000000000E+00 0. -1.
         21   -1    0    0  501  502  0.00000000000E+00 -0.00000000000E+00 -0.10250847664E+04  0.10250847664E+04  0.00000000000E+00 0. -1.
   -9000010    2    1    2    0  502 -0.49253419791E+02  0.43006487394E+02 -0.76477931524E+03  0.12721438465E+04  0.10144885943E+04 0.  0.
         13    1    3    3    0    0 -0.45374399472E+03  0.49011380517E+02 -0.61078800340E+02  0.46045234192E+03  0.10566000000E+00 0. -1.
         -4    1    3    3    0  502  0.40449057493E+03 -0.60048931231E+01 -0.70370051490E+03  0.81169150459E+03  0.00000000000E+00 0. -1.
        -13    1    1    2    0    0  0.49253419791E+02 -0.43006487394E+02  0.15475944655E+03  0.16800581770E+03  0.10566000000E+00 0.  1.
<mgrwt>
<rscale>  1 0.51195701E+03</rscale>
<asrwt>0</asrwt>
<pdfrwt beam="2">  1       21 0.15770535E+00 0.10165936E+04</pdfrwt>
<pdfrwt beam="1">  1       -4 0.63856139E-01 0.10165936E+04</pdfrwt>
<totfact> 0.21390292E+01</totfact>
</mgrwt>
</event>
<event>
 6    2  0.2220137E-005  0.9023290E+03  0.7818608E-02  0.9732338E-01
         21   -1    0    0  501  502  0.00000000000E+00  0.00000000000E+00  0.26764476115E+04  0.26764476115E+04  0.00000000000E+00 0. -1.
         -4   -1    0    0    0  501 -0.00000000000E+00 -0.00000000000E+00 -0.16209700465E+03  0.16209700465E+03  0.00000000000E+00 0. -1.
   -9000010    2    1    2    0  502  0.30987770315E+03  0.23266182640E+02  0.12826182031E+04  0.15682177953E+04  0.84713168537E+03 0.  0.
         13    1    3    3    0    0 -0.28995447705E+03 -0.48390254522E+02  0.35040518890E+03  0.45738279708E+03  0.10566000000E+00 0. -1.
         -4    1    3    3    0  502  0.59983218020E+03  0.71656437161E+02  0.93221301418E+03  0.11108349982E+04  0.00000000000E+00 0. -1.
        -13    1    1    2    0    0 -0.30987770315E+03 -0.23266182640E+02  0.12317324038E+04  0.12703268209E+04  0.10566000000E+00 0.  1.
<mgrwt>
<rscale>  1 0.69123623E+03</rscale>
<asrwt>0</asrwt>
<pdfrwt beam="1">  1       21 0.41176114E+00 0.90232899E+03</pdfrwt>
<pdfrwt beam="2">  1       -4 0.24938003E-01 0.90232899E+03</pdfrwt>
<totfact> 0.32586212E+00</totfact>
</mgrwt>
</event>
<event>
 6    2  0.2220137E-005  0.1038474E+04  0.7818608E-02  0.9658285E-01
         21   -1    0    0  501  502  0.00000000000E+00  0.00000000000E+00  0.77975821760E+03  0.77975821760E+03  0.00000000000E+00 0. -1.
         -4   -1    0    0    0  501 -0.00000000000E+00 -0.00000000000E+00 -0.12789671933E+04  0.12789671933E+04  0.00000000000E+00 0. -1.
   -9000010    2    1    2    0  502  0.22407291657E+03 -0.13458451737E+03  0.40714375440E+03  0.11154349218E+04  0.10050409762E+04 0.  0.
         13    1    3    3    0    0  0.20839282467E+03  0.56044246236E+02 -0.30748389504E+03  0.37565261051E+03  0.10566000000E+00 0. -1.
         -4    1    3    3    0  502  0.15680091900E+02 -0.19062876360E+03  0.71462764944E+03  0.73978231132E+03  0.00000000000E+00 0. -1.
        -13    1    1    2    0    0 -0.22407291657E+03  0.13458451737E+03 -0.90635273010E+03  0.94329048908E+03  0.10566000000E+00 0.  1.
<mgrwt>
<rscale>  1 0.73555754E+03</rscale>
<asrwt>0</asrwt>
<pdfrwt beam="1">  1       21 0.11996280E+00 0.10384744E+04</pdfrwt>
<pdfrwt beam="2">  1       -4 0.19676418E+00 0.10384744E+04</pdfrwt>
<totfact> 0.26399264E+00</totfact>
</mgrwt>
</event>
<event>
 6    2  0.2220137E-005  0.1056141E+04  0.7818608E-02  0.9616763E-01
         21   -1    0    0  501  502  0.00000000000E+00  0.00000000000E+00  0.14493479856E+03  0.14493479856E+03  0.00000000000E+00 0. -1.
         -4   -1    0    0    0  501 -0.00000000000E+00 -0.00000000000E+00 -0.31697338476E+04  0.31697338476E+04  0.00000000000E+00 0. -1.
   -9000010    2    1    2    0  502 -0.13375943175E+03 -0.25295027053E+03 -0.21723762265E+04  0.24155023075E+04  0.10166403019E+04 0.  0.
         13    1    3    3    0    0 -0.23733386092E+01  0.15492022316E+03 -0.19031268228E+04  0.19094233745E+04  0.10566000000E+00 0. -1.
         -4    1    3    3    0  502 -0.13138609314E+03 -0.40787049369E+03 -0.26924940372E+03  0.50607893307E+03  0.00000000000E+00 0. -1.
        -13    1    1    2    0    0  0.13375943175E+03  0.25295027053E+03 -0.85242282254E+03  0.89916633861E+03  0.10566000000E+00 0.  1.
<mgrwt>
<rscale>  1 0.76196584E+03</rscale>
<asrwt>0</asrwt>
<pdfrwt beam="1">  1       21 0.22297662E-01 0.10561406E+04</pdfrwt>
<pdfrwt beam="2">  1       -4 0.48765134E+00 0.10561406E+04</pdfrwt>
<totfact> 0.12207454E+00</totfact>
</mgrwt>
</event>
<event>
 6    2  0.2220137E-005  0.9989781E+03  0.7818608E-02  0.9929083E-01
         21   -1    0    0  501  502  0.00000000000E+00  0.00000000000E+00  0.20763818245E+03  0.20763818245E+03  0.00000000000E+00 0. -1.
         -4   -1    0    0    0  501 -0.00000000000E+00 -0.00000000000E+00 -0.15137018430E+04  0.15137018430E+04  0.00000000000E+00 0. -1.
   -9000010    2    1    2    0  502 -0.43716186852E+02 -0.11228667706E+03 -0.11939725091E+04  0.15567683382E+04  0.99168437701E+03 0.  0.
         13    1    3    3    0    0 -0.47110843476E+03  0.13360574082E+03 -0.73465175836E+03  0.88289686176E+03  0.10566000000E+00 0. -1.
         -4    1    3    3    0  502  0.42739224790E+03 -0.24589241789E+03 -0.45932075073E+03  0.67387147647E+03  0.00000000000E+00 0. -1.
        -13    1    1    2    0    0  0.43716186852E+02  0.11228667706E+03 -0.11209115146E+03  0.16457168723E+03  0.10566000000E+00 0.  1.
<mgrwt>
<rscale>  1 0.58872256E+03</rscale>
<asrwt>0</asrwt>
<pdfrwt beam="1">  1       21 0.31944337E-01 0.99897813E+03</pdfrwt>
<pdfrwt beam="2">  1       -4 0.23287720E+00 0.99897813E+03</pdfrwt>
<totfact> 0.31080999E+01</totfact>
</mgrwt>
</event>
<event>
 6    2  0.2220137E-005  0.1026767E+04  0.7818608E-02  0.9642500E-01
         21   -1    0    0  501  502  0.00000000000E+00  0.00000000000E+00  0.46731819267E+03  0.46731819267E+03  0.00000000000E+00 0. -1.
         -4   -1    0    0    0  501 -0.00000000000E+00 -0.00000000000E+00 -0.93356755583E+03  0.93356755583E+03  0.00000000000E+00 0. -1.
   -9000010    2    1    2    0  502  0.28458252645E+03  0.20020433048E+02 -0.29566251053E+03  0.10684885199E+04  0.98633836233E+03 0.  0.
         13    1    3    3    0    0 -0.80248042665E+02  0.35766358251E+03 -0.41860927270E+03  0.55641416316E+03  0.10566000000E+00 0. -1.
         -4    1    3    3    0  502  0.36483056912E+03 -0.33764314947E+03  0.12294676217E+03  0.51207435678E+03  0.00000000000E+00 0. -1.
        -13    1    1    2    0    0 -0.28458252645E+03 -0.20020433048E+02 -0.17058685262E+03  0.33239722856E+03  0.10566000000E+00 0.  1.
<mgrwt>
<rscale>  1 0.74545966E+03</rscale>
<asrwt>0</asrwt>
<pdfrwt beam="1">  1       21 0.71895107E-01 0.10267675E+04</pdfrwt>
<pdfrwt beam="2">  1       -4 0.14362578E+00 0.10267675E+04</pdfrwt>
<totfact> 0.22372736E+01</totfact>
</mgrwt>
</event>
<event>
 6    2  0.2220137E-005  0.1005376E+04  0.7818608E-02  0.1004232E+00
         -4   -1    0    0    0  501 -0.00000000000E+00  0.00000000000E+00  0.11249771005E+04  0.11249771005E+04  0.00000000000E+00 0. -1.
         21   -1    0    0  501  502  0.00000000000E+00 -0.00000000000E+00 -0.34653949407E+03  0.34653949407E+03  0.00000000000E+00 0. -1.
   -9000010    2    1    2    0  502 -0.56676354129E+02 -0.60145111135E+02  0.39649516695E+03  0.10807357330E+04  0.10019738837E+04 0.  0.
         13    1    3    3    0    0  0.17828579528E+03 -0.44121722749E+03  0.41678673189E+03  0.63258964398E+03  0.10566000000E+00 0. -1.
         -4    1    3    3    0  502 -0.23496214940E+03  0.38107211635E+03 -0.20291564934E+02  0.44814608904E+03  0.00000000000E+00 0. -1.
        -13    1    1    2    0    0  0.56676354129E+02  0.60145111135E+02  0.38194243948E+03  0.39078086155E+03  0.10566000000E+00 0.  1.
<mgrwt>
<rscale>  1 0.53832716E+03</rscale>
<asrwt>0</asrwt>
<pdfrwt beam="2">  1       21 0.53313769E-01 0.10053762E+04</pdfrwt>
<pdfrwt beam="1">  1       -4 0.17307340E+00 0.10053762E+04</pdfrwt>
<totfact> 0.26299458E+01</totfact>
</mgrwt>
</event>
<event>
 6    2  0.2220137E-005  0.1024590E+04  0.7818608E-02  0.9699290E-01
         -4   -1    0    0    0  501 -0.00000000000E+00  0.00000000000E+00  0.14278046916E+04  0.14278046916E+04  0.00000000000E+00 0. -1.
         21   -1    0    0  501  502  0.00000000000E+00 -0.00000000000E+00 -0.29832236477E+03  0.29832236477E+03  0.00000000000E+00 0. -1.
   -9000010    2    1    2    0  502 -0.22188583032E+03 -0.83405710886E+02  0.71756321291E+03  0.12508721754E+04  0.99679205472E+03 0.  0.
         13    1    3    3    0    0 -0.11220731268E+03 -0.11230758412E+03  0.96537259269E+03  0.97833927057E+03  0.10566000000E+00 0. -1.
         -4    1    3    3    0  502 -0.10967851764E+03  0.28901873237E+02 -0.24780937977E+03  0.27253290482E+03  0.00000000000E+00 0. -1.
        -13    1    1    2    0    0  0.22188583032E+03  0.83405710886E+02  0.41191911391E+03  0.47525488096E+03  0.10566000000E+00 0.  1.
<mgrwt>
<rscale>  1 0.71059107E+03</rscale>
<asrwt>0</asrwt>
<pdfrwt beam="2">  1       21 0.45895749E-01 0.10245898E+04</pdfrwt>
<pdfrwt beam="1">  1       -4 0.21966226E+00 0.10245898E+04</pdfrwt>
<totfact> 0.17670933E+01</totfact>
</mgrwt>
</event>
<event>
 6    2  0.2220137E-005  0.1057318E+04  0.7818608E-02  0.9539860E-01
         21   -1    0    0  501  502  0.00000000000E+00  0.00000000000E+00  0.45751628605E+03  0.45751628605E+03  0.00000000000E+00 0. -1.
         -4   -1    0    0    0  501 -0.00000000000E+00 -0.00000000000E+00 -0.14504868876E+04  0.14504868876E+04  0.00000000000E+00 0. -1.
   -9000010    2    1    2    0  502 -0.14797928628E+03 -0.34083889619E+03 -0.26397688042E+03  0.10897728400E+04  0.98987475321E+03 0.  0.
         13    1    3    3    0    0  0.18134334163E+03 -0.26505052132E+03 -0.55669839792E+03  0.64268989709E+03  0.10566000000E+00 0. -1.
         -4    1    3    3    0  502 -0.32932262792E+03 -0.75788374876E+02  0.29272151750E+03  0.44708294290E+03  0.00000000000E+00 0. -1.
        -13    1    1    2    0    0  0.14797928628E+03  0.34083889619E+03 -0.72899372117E+03  0.81823033371E+03  0.10566000000E+00 0.  1.
<mgrwt>
<rscale>  1 0.81407836E+03</rscale>
<asrwt>0</asrwt>
<pdfrwt beam="1">  1       21 0.70387121E-01 0.10573179E+04</pdfrwt>
<pdfrwt beam="2">  1       -4 0.22315183E+00 0.10573179E+04</pdfrwt>
<totfact> 0.64960300E+00</totfact>
</mgrwt>
</event>
<event>
 6    2  0.2220137E-005  0.1016068E+04  0.7818608E-02  0.9950587E-01
         -4   -1    0    0    0  501 -0.00000000000E+00  0.00000000000E+00  0.24558895235E+03  0.24558895235E+03  0.00000000000E+00 0. -1.
         21   -1    0    0  501  502  0.00000000000E+00 -0.00000000000E+00 -0.13335336805E+04  0.13335336805E+04  0.00000000000E+00 0. -1.
   -9000010    2    1    2    0  502  0.83855792363E+02  0.66340348399E+02 -0.87525564470E+03  0.13410690819E+04  0.10104261492E+04 0.  0.
         13    1    3    3    0    0 -0.54801736671E+02  0.39341021175E+03 -0.80147977079E+00  0.39720961543E+03  0.10566000000E+00 0. -1.
         -4    1    3    3    0  502  0.13865752903E+03 -0.32706986335E+03 -0.87445416493E+03  0.94385946646E+03  0.00000000000E+00 0. -1.
        -13    1    1    2    0    0 -0.83855792363E+02 -0.66340348399E+02 -0.21268908346E+03  0.23805355096E+03  0.10566000000E+00 0.  1.
<mgrwt>
<rscale>  1 0.57871052E+03</rscale>
<asrwt>0</asrwt>
<pdfrwt beam="2">  1       21 0.20515903E+00 0.10160678E+04</pdfrwt>
<pdfrwt beam="1">  1       -4 0.37782916E-01 0.10160678E+04</pdfrwt>
<totfact> 0.29260536E+01</totfact>
</mgrwt>
</event>
<event>
 6    2  0.2220137E-005  0.9976832E+03  0.7818608E-02  0.9928371E-01
         21   -1    0    0  501  502  0.00000000000E+00  0.00000000000E+00  0.92254384863E+03  0.92254384863E+03  0.00000000000E+00 0. -1.
         -4   -1    0    0    0  501 -0.00000000000E+00 -0.00000000000E+00 -0.62842212112E+03  0.62842212112E+03  0.00000000000E+00 0. -1.
   -9000010    2    1    2    0  502 -0.65514872631E+02  0.10201711790E+03  0.63941911629E+03  0.11850015060E+04  0.99028888311E+03 0.  0.
         13    1    3    3    0    0  0.27170518002E+03 -0.18607200018E+03  0.66360174660E+03  0.74081966993E+03  0.10566000000E+00 0. -1.
         -4    1    3    3    0  502 -0.33722005265E+03  0.28808911808E+03 -0.24182630311E+02  0.44418183605E+03  0.00000000000E+00 0. -1.
        -13    1    1    2    0    0  0.65514872631E+02 -0.10201711790E+03 -0.34529738878E+03  0.36596446377E+03  0.10566000000E+00 0.  1.
<mgrwt>
<rscale>  1 0.58905800E+03</rscale>
<asrwt>0</asrwt>
<pdfrwt beam="1">  1       21 0.14192982E+00 0.99768320E+03</pdfrwt>
<pdfrwt beam="2">  1       -4 0.96680326E-01 0.99768320E+03</pdfrwt>
<totfact> 0.11114750E+01</totfact>
</mgrwt>
</event>
<event>
 6    2  0.2220137E-005  0.1018810E+04  0.7818608E-02  0.9729076E-01
         -4   -1    0    0    0  501 -0.00000000000E+00  0.00000000000E+00  0.13197783707E+04  0.13197783707E+04  0.00000000000E+00 0. -1.
         21   -1    0    0  501  502  0.00000000000E+00 -0.00000000000E+00 -0.29590117551E+03  0.29590117551E+03  0.00000000000E+00 0. -1.
   -9000010    2    1    2    0  502 -0.21461190349E+03 -0.39661706252E+02  0.74800356845E+03  0.12639160047E+04  0.99515979039E+03 0.  0.
         13    1    3    3    0    0 -0.27246813402E+03 -0.36504925185E+03  0.80844287593E+03  0.92794382111E+03  0.10566000000E+00 0. -1.
         -4    1    3    3    0  502  0.57856230532E+02  0.32538754560E+03 -0.60439307476E+02  0.33597218357E+03  0.00000000000E+00 0. -1.
        -13    1    1    2    0    0  0.21461190349E+03  0.39661706252E+02  0.27587362677E+03  0.35176354157E+03  0.10566000000E+00 0.  1.
<mgrwt>
<rscale>  1 0.69311703E+03</rscale>
<asrwt>0</asrwt>
<pdfrwt beam="2">  1       21 0.45523258E-01 0.10188103E+04</pdfrwt>
<pdfrwt beam="1">  1       -4 0.20304282E+00 0.10188103E+04</pdfrwt>
<totfact> 0.23052129E+01</totfact>
</mgrwt>
</event>
<event>
 6    2  0.2220137E-005  0.1113038E+04  0.7818608E-02  0.9662739E-01
         21   -1    0    0  501  502  0.00000000000E+00  0.00000000000E+00  0.28198373632E+03  0.28198373632E+03  0.00000000000E+00 0. -1.
         -4   -1    0    0    0  501 -0.00000000000E+00 -0.00000000000E+00 -0.15533115682E+04  0.15533115682E+04  0.00000000000E+00 0. -1.
   -9000010    2    1    2    0  502 -0.13855150886E+03 -0.15663445410E+03 -0.11010367284E+04  0.15656104071E+04  0.10932169028E+04 0.  0.
         13    1    3    3    0    0  0.46375676323E+03 -0.20809776989E+03 -0.51877784108E+03  0.72629572272E+03  0.10566000000E+00 0. -1.
         -4    1    3    3    0  502 -0.60230827210E+03  0.51463315787E+02 -0.58225888732E+03  0.83931468436E+03  0.00000000000E+00 0. -1.
        -13    1    1    2    0    0  0.13855150886E+03  0.15663445410E+03 -0.17029110346E+03  0.26968489743E+03  0.10566000000E+00 0.  1.
<mgrwt>
<rscale>  1 0.73279272E+03</rscale>
<asrwt>0</asrwt>
<pdfrwt beam="1">  1       21 0.43382113E-01 0.11130382E+04</pdfrwt>
<pdfrwt beam="2">  1       -4 0.23897101E+00 0.11130382E+04</pdfrwt>
<totfact> 0.14908959E+01</totfact>
</mgrwt>
</event>
<event>
 6    2  0.2220137E-005  0.1129848E+04  0.7818608E-02  0.9414386E-01
         -4   -1    0    0    0  501 -0.00000000000E+00  0.00000000000E+00  0.47021639544E+03  0.47021639544E+03  0.00000000000E+00 0. -1.
         21   -1    0    0  501  502  0.00000000000E+00 -0.00000000000E+00 -0.13665981221E+04  0.13665981221E+04  0.00000000000E+00 0.  1.
   -9000010    2    1    2    0  502 -0.29259367665E+03  0.37213588930E+03 -0.62923967054E+03  0.12932512103E+04  0.10258947072E+04 0.  0.
         13    1    3    3    0    0 -0.58782879406E+03  0.49993832522E+03 -0.58534486208E+03  0.96856060155E+03  0.10566000000E+00 0. -1.
         -4    1    3    3    0  502  0.29523511741E+03 -0.12780243593E+03 -0.43894808463E+02  0.32469060872E+03  0.00000000000E+00 0. -1.
        -13    1    1    2    0    0  0.29259367665E+03 -0.37213588930E+03 -0.26714205616E+03  0.54356330731E+03  0.10566000000E+00 0.  1.
<mgrwt>
<rscale>  1 0.90901140E+03</rscale>
<asrwt>0</asrwt>
<pdfrwt beam="2">  1       21 0.21024586E+00 0.11298478E+04</pdfrwt>
<pdfrwt beam="1">  1       -4 0.72340985E-01 0.11298478E+04</pdfrwt>
<totfact> 0.66710875E+00</totfact>
</mgrwt>
</event>
<event>
 6    2  0.2220137E-005  0.1029737E+04  0.7818608E-02  0.9872742E-01
         21   -1    0    0  501  502  0.00000000000E+00  0.00000000000E+00  0.20759854493E+04  0.20759854493E+04  0.00000000000E+00 0. -1.
         -4   -1    0    0    0  501 -0.00000000000E+00 -0.00000000000E+00 -0.16316599011E+03  0.16316599011E+03  0.00000000000E+00 0. -1.
   -9000010    2    1    2    0  502 -0.29527179807E+02 -0.12852732434E+03  0.16469020098E+04  0.19423295594E+04  0.10212574405E+04 0.  0.
         13    1    3    3    0    0 -0.21331630524E+03  0.84096582396E+01  0.16947924428E+04  0.17081850027E+04  0.10566000000E+00 0. -1.
         -4    1    3    3    0  502  0.18378912543E+03 -0.13693698258E+03 -0.47890432912E+02  0.23414455661E+03  0.00000000000E+00 0. -1.
        -13    1    1    2    0    0  0.29527179807E+02  0.12852732434E+03  0.26591744933E+03  0.29682188004E+03  0.10566000000E+00 0.  1.
<mgrwt>
<rscale>  1 0.61600712E+03</rscale>
<asrwt>0</asrwt>
<pdfrwt beam="1">  1       21 0.31938236E+00 0.10297368E+04</pdfrwt>
<pdfrwt beam="2">  1       -4 0.25102461E-01 0.10297368E+04</pdfrwt>
<totfact> 0.12214004E+01</totfact>
</mgrwt>
</event>
<event>
 6    2  0.2220137E-005  0.8421021E+03  0.7818608E-02  0.1045704E+00
         -4   -1    0    0    0  501 -0.00000000000E+00  0.00000000000E+00  0.60469980000E+03  0.60469980000E+03  0.00000000000E+00 0. -1.
         21   -1    0    0  501  502  0.00000000000E+00 -0.00000000000E+00 -0.38256644254E+03  0.38256644254E+03  0.00000000000E+00 0. -1.
   -9000010    2    1    2    0  502  0.22098858688E+02  0.34006280930E+02  0.87475085541E+02  0.84663321633E+03  0.84112491683E+03 0.  0.
         13    1    3    3    0    0 -0.21508227670E+03  0.16047727354E+03  0.36973992405E+03  0.45685989501E+03  0.10566000000E+00 0. -1.
         -4    1    3    3    0  502  0.23718113539E+03 -0.12647099261E+03 -0.28226483851E+03  0.38977332132E+03  0.00000000000E+00 0. -1.
        -13    1    1    2    0    0 -0.22098858688E+02 -0.34006280930E+02  0.13465827193E+03  0.14063302621E+03  0.10566000000E+00 0.  1.
<mgrwt>
<rscale>  1 0.39449147E+03</rscale>
<asrwt>0</asrwt>
<pdfrwt beam="2">  1       21 0.58856376E-01 0.84210208E+03</pdfrwt>
<pdfrwt beam="1">  1       -4 0.93030738E-01 0.84210208E+03</pdfrwt>
<totfact> 0.10552492E+02</totfact>
</mgrwt>
</event>
<event>
 6    2  0.2220137E-005  0.1039430E+04  0.7818608E-02  0.9849227E-01
         21   -1    0    0  501  502  0.00000000000E+00  0.00000000000E+00  0.58704447895E+03  0.58704447895E+03  0.00000000000E+00 0. -1.
         -4   -1    0    0    0  501 -0.00000000000E+00 -0.00000000000E+00 -0.80560190924E+03  0.80560190924E+03  0.00000000000E+00 0. -1.
   -9000010    2    1    2    0  502 -0.39295379883E+02 -0.13268393249E+03  0.10108702975E+03  0.10443336769E+04  0.10301772121E+04 0.  0.
         13    1    3    3    0    0  0.30098972058E+03  0.31737819087E+03  0.18309338953E+03  0.47418026992E+03  0.10566000000E+00 0. -1.
         -4    1    3    3    0  502 -0.34028510046E+03 -0.45006212336E+03 -0.82006359774E+02  0.57015340701E+03  0.00000000000E+00 0. -1.
        -13    1    1    2    0    0  0.39295379883E+02  0.13268393249E+03 -0.31964446005E+03  0.34831271126E+03  0.10566000000E+00 0.  1.
<mgrwt>
<rscale>  1 0.62786329E+03</rscale>
<asrwt>0</asrwt>
<pdfrwt beam="1">  1       21 0.90314535E-01 0.10394298E+04</pdfrwt>
<pdfrwt beam="2">  1       -4 0.12393876E+00 0.10394298E+04</pdfrwt>
<totfact> 0.19118951E+01</totfact>
</mgrwt>
</event>
<event>
 6    2  0.2220137E-005  0.1067814E+04  0.7818608E-02  0.9531027E-01
         21   -1    0    0  501  502  0.00000000000E+00  0.00000000000E+00  0.10950726294E+04  0.10950726294E+04  0.00000000000E+00 0. -1.
         -4   -1    0    0    0  501 -0.00000000000E+00 -0.00000000000E+00 -0.58504958696E+03  0.58504958696E+03  0.00000000000E+00 0. -1.
   -9000010    2    1    2    0  502 -0.22451502519E+03  0.29656205204E+03  0.68543220921E+03  0.12688748040E+04  0.10009345172E+04 0.  0.
         13    1    3    3    0    0 -0.59274141572E+03  0.35896418715E+03  0.47582589273E+03  0.84059976500E+03  0.10566000000E+00 0. -1.
         -4    1    3    3    0  502  0.36822639053E+03 -0.62402135116E+02  0.20960631648E+03  0.42827503903E+03  0.00000000000E+00 0. -1.
        -13    1    1    2    0    0  0.22451502519E+03 -0.29656205204E+03 -0.17540916673E+03  0.41124741237E+03  0.10566000000E+00 0.  1.
<mgrwt>
<rscale>  1 0.82034468E+03</rscale>
<asrwt>0</asrwt>
<pdfrwt beam="1">  1       21 0.16847271E+00 0.10678136E+04</pdfrwt>
<pdfrwt beam="2">  1       -4 0.90007629E-01 0.10678136E+04</pdfrwt>
<totfact> 0.80457223E+00</totfact>
</mgrwt>
</event>
<event>
 6    2  0.2220137E-005  0.1011637E+04  0.7818608E-02  0.9721015E-01
         -4   -1    0    0    0  501 -0.00000000000E+00  0.00000000000E+00  0.16438572369E+04  0.16438572369E+04  0.00000000000E+00 0. -1.
         21   -1    0    0  501  502  0.00000000000E+00 -0.00000000000E+00 -0.24198677832E+03  0.24198677832E+03  0.00000000000E+00 0. -1.
   -9000010    2    1    2    0  502  0.65559327124E+02 -0.21941193057E+03  0.12623373542E+04  0.16176852580E+04  0.98537829169E+03 0.  0.
         13    1    3    3    0    0  0.38363145730E+03  0.11716970870E+03  0.10177978155E+04  0.10939900548E+04  0.10566000000E+00 0. -1.
         -4    1    3    3    0  502 -0.31807213018E+03 -0.33658163928E+03  0.24453953865E+03  0.52369520320E+03  0.00000000000E+00 0. -1.
        -13    1    1    2    0    0 -0.65559327124E+02  0.21941193057E+03  0.13953310440E+03  0.26815875715E+03  0.10566000000E+00 0.  1.
<mgrwt>
<rscale>  1 0.69779223E+03</rscale>
<asrwt>0</asrwt>
<pdfrwt beam="2">  1       21 0.37228736E-01 0.10116373E+04</pdfrwt>
<pdfrwt beam="1">  1       -4 0.25290111E+00 0.10116373E+04</pdfrwt>
<totfact> 0.17015078E+01</totfact>
</mgrwt>
</event>
<event>
 6    2  0.2220137E-005  0.1001438E+04  0.7818608E-02  0.1001172E+00
         21   -1    0    0  501  502  0.00000000000E+00  0.00000000000E+00  0.18903473870E+04  0.18903473870E+04  0.00000000000E+00 0. -1.
         -4   -1    0    0    0  501 -0.00000000000E+00 -0.00000000000E+00 -0.31081780280E+03  0.31081780280E+03  0.00000000000E+00 0. -1.
   -9000010    2    1    2    0  502 -0.82972755178E+02 -0.39830845110E+02  0.17449312311E+04  0.20118805093E+04  0.99719968305E+03 0.  0.
         13    1    3    3    0    0 -0.40876771648E+03 -0.30206948379E+03  0.56476301253E+03  0.75979884875E+03  0.10566000000E+00 0. -1.
         -4    1    3    3    0  502  0.32579496130E+03  0.26223863868E+03  0.11801682186E+04  0.12520816605E+04  0.00000000000E+00 0. -1.
        -13    1    1    2    0    0  0.82972755178E+02  0.39830845110E+02 -0.16540164692E+03  0.18928468055E+03  0.10566000000E+00 0.  1.
<mgrwt>
<rscale>  1 0.55139117E+03</rscale>
<asrwt>0</asrwt>
<pdfrwt beam="1">  1       21 0.29082267E+00 0.10014381E+04</pdfrwt>
<pdfrwt beam="2">  1       -4 0.47818125E-01 0.10014381E+04</pdfrwt>
<totfact> 0.50944030E+00</totfact>
</mgrwt>
</event>
<event>
 6    2  0.2220137E-005  0.9940490E+03  0.7818608E-02  0.1006665E+00
         21   -1    0    0  501  502  0.00000000000E+00  0.00000000000E+00  0.30848222685E+03  0.30848222685E+03  0.00000000000E+00 0. -1.
         -4   -1    0    0    0  501 -0.00000000000E+00 -0.00000000000E+00 -0.97473931994E+03  0.97473931994E+03  0.00000000000E+00 0. -1.
   -9000010    2    1    2    0  502  0.78192731886E+02  0.12933219295E+02 -0.53235897331E+03  0.11276256306E+04  0.99088451139E+03 0.  0.
         13    1    3    3    0    0 -0.59844093933E+02  0.26285243358E+03 -0.73145805951E+03  0.77955347565E+03  0.10566000000E+00 0. -1.
         -4    1    3    3    0  502  0.13803682582E+03 -0.24991921428E+03  0.19909908620E+03  0.34807215498E+03  0.00000000000E+00 0. -1.
        -13    1    1    2    0    0 -0.78192731886E+02 -0.12933219295E+02 -0.13389811978E+03  0.15559591616E+03  0.10566000000E+00 0.  1.
<mgrwt>
<rscale>  1 0.52821747E+03</rscale>
<asrwt>0</asrwt>
<pdfrwt beam="1">  1       21 0.47458803E-01 0.99404904E+03</pdfrwt>
<pdfrwt beam="2">  1       -4 0.14995990E+00 0.99404904E+03</pdfrwt>
<totfact> 0.50293672E+01</totfact>
</mgrwt>
</event>
<event>
 6    2  0.2220137E-005  0.1018047E+04  0.7818608E-02  0.9699858E-01
         21   -1    0    0  501  502  0.00000000000E+00  0.00000000000E+00  0.41708543291E+03  0.41708543291E+03  0.00000000000E+00 0. -1.
         -4   -1    0    0    0  501 -0.00000000000E+00 -0.00000000000E+00 -0.11302112621E+04  0.11302112621E+04  0.00000000000E+00 0. -1.
   -9000010    2    1    2    0  502 -0.45271849513E+02  0.23689687621E+03 -0.28712841036E+03  0.10577627510E+04  0.98906503480E+03 0.  0.
         13    1    3    3    0    0  0.20308225891E+03  0.28978045645E+03 -0.57421675602E+03  0.67449240981E+03  0.10566000000E+00 0. -1.
         -4    1    3    3    0  502 -0.24835410842E+03 -0.52883580243E+02  0.28708834566E+03  0.38327034120E+03  0.00000000000E+00 0. -1.
        -13    1    1    2    0    0  0.45271849513E+02 -0.23689687621E+03 -0.42599741882E+03  0.48953394400E+03  0.10566000000E+00 0.  1.
<mgrwt>
<rscale>  1 0.71025271E+03</rscale>
<asrwt>0</asrwt>
<pdfrwt beam="1">  1       21 0.64166991E-01 0.10180468E+04</pdfrwt>
<pdfrwt beam="2">  1       -4 0.17387865E+00 0.10180468E+04</pdfrwt>
<totfact> 0.17181575E+01</totfact>
</mgrwt>
</event>
<event>
 6    2  0.2220137E-005  0.8819051E+03  0.7818608E-02  0.1039185E+00
         -4   -1    0    0    0  501 -0.00000000000E+00  0.00000000000E+00  0.79986530334E+03  0.79986530334E+03  0.00000000000E+00 0. -1.
         21   -1    0    0  501  502  0.00000000000E+00 -0.00000000000E+00 -0.32043961510E+03  0.32043961510E+03  0.00000000000E+00 0. -1.
   -9000010    2    1    2    0  502 -0.19310644730E+02 -0.38021775210E+02  0.29336378861E+03  0.92941856992E+03  0.88087343543E+03 0.  0.
         13    1    3    3    0    0 -0.23332328378E+02 -0.40635347733E+03  0.37353038606E+03  0.55244231062E+03  0.10566000000E+00 0. -1.
         -4    1    3    3    0  502  0.40216836481E+01  0.36833170212E+03 -0.80166597454E+02  0.37697625930E+03  0.00000000000E+00 0. -1.
        -13    1    1    2    0    0  0.19310644730E+02  0.38021775210E+02  0.18606189964E+03  0.19088634852E+03  0.10566000000E+00 0.  1.
<mgrwt>
<rscale>  1 0.41355432E+03</rscale>
<asrwt>0</asrwt>
<pdfrwt beam="2">  1       21 0.49298403E-01 0.88190508E+03</pdfrwt>
<pdfrwt beam="1">  1       -4 0.12305620E+00 0.88190508E+03</pdfrwt>
<totfact> 0.78222982E+01</totfact>
</mgrwt>
</event>
<event>
 6    2  0.2220137E-005  0.9920355E+03  0.7818608E-02  0.9970906E-01
         -4   -1    0    0    0  501 -0.00000000000E+00  0.00000000000E+00  0.52617284425E+03  0.52617284425E+03  0.00000000000E+00 0. -1.
         21   -1    0    0  501  502  0.00000000000E+00 -0.00000000000E+00 -0.84180781552E+03  0.84180781552E+03  0.00000000000E+00 0. -1.
   -9000010    2    1    2    0  502 -0.29685250292E+02 -0.10353104735E+03 -0.53244586671E+03  0.11258921070E+04  0.98617166037E+03 0.  0.
         13    1    3    3    0    0  0.13808916483E+03  0.31958769124E+03 -0.57135148697E+03  0.66906460276E+03  0.10566000000E+00 0. -1.
         -4    1    3    3    0  502 -0.16777441512E+03 -0.42311873859E+03  0.38905620261E+02  0.45682750421E+03  0.00000000000E+00 0. -1.
        -13    1    1    2    0    0  0.29685250292E+02  0.10353104735E+03  0.21681089543E+03  0.24208855279E+03  0.10566000000E+00 0.  1.
<mgrwt>
<rscale>  1 0.56944555E+03</rscale>
<asrwt>0</asrwt>
<pdfrwt beam="2">  1       21 0.12950889E+00 0.99203550E+03</pdfrwt>
<pdfrwt beam="1">  1       -4 0.80949669E-01 0.99203550E+03</pdfrwt>
<totfact> 0.21579697E+01</totfact>
</mgrwt>
</event>
<event>
 6    2  0.2220137E-005  0.1057729E+04  0.7818608E-02  0.9689118E-01
         -4   -1    0    0    0  501 -0.00000000000E+00  0.00000000000E+00  0.47529551367E+03  0.47529551367E+03  0.00000000000E+00 0. -1.
         21   -1    0    0  501  502  0.00000000000E+00 -0.00000000000E+00 -0.10565807216E+04  0.10565807216E+04  0.00000000000E+00 0. -1.
   -9000010    2    1    2    0  502 -0.22149944050E+03  0.25301326342E+02 -0.18016325012E+03  0.10729633945E+04  0.10339678380E+04 0.  0.
         13    1    3    3    0    0 -0.53805374875E+03 -0.22527455380E+03 -0.29439134728E+03  0.65338865742E+03  0.10566000000E+00 0. -1.
         -4    1    3    3    0  502  0.31655430826E+03  0.25057588014E+03  0.11422809716E+03  0.41957473704E+03  0.00000000000E+00 0. -1.
        -13    1    1    2    0    0  0.22149944050E+03 -0.25301326342E+02 -0.40112195781E+03  0.45891284080E+03  0.10566000000E+00 0.  1.
<mgrwt>
<rscale>  1 0.71668436E+03</rscale>
<asrwt>0</asrwt>
<pdfrwt beam="2">  1       21 0.16255088E+00 0.10577295E+04</pdfrwt>
<pdfrwt beam="1">  1       -4 0.73122387E-01 0.10577295E+04</pdfrwt>
<totfact> 0.14430818E+01</totfact>
</mgrwt>
</event>
<event>
 6    2  0.2220137E-005  0.9444326E+03  0.7818608E-02  0.9819157E-01
         -4   -1    0    0    0  501 -0.00000000000E+00  0.00000000000E+00  0.11262051400E+04  0.11262051400E+04  0.00000000000E+00 0. -1.
         21   -1    0    0  501  502  0.00000000000E+00 -0.00000000000E+00 -0.35780561508E+03  0.35780561508E+03  0.00000000000E+00 0. -1.
   -9000010    2    1    2    0  502  0.12712349796E+03  0.15888976127E+03  0.32954626517E+03  0.10002768047E+04  0.92225083639E+03 0.  0.
         13    1    3    3    0    0 -0.50633721740E+02 -0.37457148052E+03  0.17872826151E+03  0.41810449701E+03  0.10566000000E+00 0. -1.
         -4    1    3    3    0  502  0.17775721970E+03  0.53346124178E+03  0.15081800366E+03  0.58217230772E+03  0.00000000000E+00 0. -1.
        -13    1    1    2    0    0 -0.12712349796E+03 -0.15888976127E+03  0.43885325978E+03  0.48373395038E+03  0.10566000000E+00 0.  1.
<mgrwt>
<rscale>  1 0.64344525E+03</rscale>
<asrwt>0</asrwt>
<pdfrwt beam="2">  1       21 0.55047018E-01 0.94443260E+03</pdfrwt>
<pdfrwt beam="1">  1       -4 0.17326233E+00 0.94443260E+03</pdfrwt>
<totfact> 0.24591249E+01</totfact>
</mgrwt>
</event>
<event>
 6    2  0.2220137E-005  0.1076153E+04  0.7818608E-02  0.9495554E-01
         -4   -1    0    0    0  501 -0.00000000000E+00  0.00000000000E+00  0.11292439216E+04  0.11292439216E+04  0.00000000000E+00 0. -1.
         21   -1    0    0  501  502  0.00000000000E+00 -0.00000000000E+00 -0.50756029732E+03  0.50756029732E+03  0.00000000000E+00 0.  1.
   -9000010    2    1    2    0  502  0.25732211227E+03 -0.32080784105E+03  0.30736629636E+03  0.11191868562E+04  0.99447113518E+03 0.  0.
         13    1    3    3    0    0  0.16016050721E+03 -0.63630078315E+03 -0.17017139953E+02  0.65636854657E+03  0.10566000000E+00 0. -1.
         -4    1    3    3    0  502  0.97161605056E+02  0.31549294210E+03  0.32438343632E+03  0.46281830967E+03  0.00000000000E+00 0. -1.
        -13    1    1    2    0    0 -0.25732211227E+03  0.32080784105E+03  0.31431732791E+03  0.51761736267E+03  0.10566000000E+00 0.  1.
<mgrwt>
<rscale>  1 0.84612366E+03</rscale>
<asrwt>0</asrwt>
<pdfrwt beam="2">  1       21 0.78086200E-01 0.10761530E+04</pdfrwt>
<pdfrwt beam="1">  1       -4 0.17372983E+00 0.10761530E+04</pdfrwt>
<totfact> 0.10902066E+01</totfact>
</mgrwt>
</event>
<event>
 6    2  0.2220137E-005  0.1038338E+04  0.7818608E-02  0.9727126E-01
         21   -1    0    0  501  502  0.00000000000E+00  0.00000000000E+00  0.75107085483E+03  0.75107085483E+03  0.00000000000E+00 0. -1.
         -4   -1    0    0    0  501 -0.00000000000E+00 -0.00000000000E+00 -0.52709508782E+03  0.52709508782E+03  0.00000000000E+00 0. -1.
   -9000010    2    1    2    0  502  0.58979071824E+02 -0.19894884205E+03  0.25279276896E+03  0.10686674858E+04  0.10173921753E+04 0.  0.
         13    1    3    3    0    0  0.15905190336E+03  0.33357240916E+03  0.36045492580E+03  0.51623233608E+03  0.10566000000E+00 0. -1.
         -4    1    3    3    0  502 -0.10007283154E+03 -0.53252125121E+03 -0.10766215684E+03  0.55243514969E+03  0.00000000000E+00 0. -1.
        -13    1    1    2    0    0 -0.58979071824E+02  0.19894884205E+03 -0.28817001960E+02  0.20949845687E+03  0.10566000000E+00 0.  1.
<mgrwt>
<rscale>  1 0.69424429E+03</rscale>
<asrwt>0</asrwt>
<pdfrwt beam="1">  1       21 0.11554936E+00 0.10383381E+04</pdfrwt>
<pdfrwt beam="2">  1       -4 0.81091552E-01 0.10383381E+04</pdfrwt>
<totfact> 0.28820740E+01</totfact>
</mgrwt>
</event>
<event>
 6    2  0.2220137E-005  0.1022843E+04  0.7818608E-02  0.9723772E-01
         21   -1    0    0  501  502  0.00000000000E+00  0.00000000000E+00  0.66231211884E+03  0.66231211884E+03  0.00000000000E+00 0. -1.
         -4   -1    0    0    0  501 -0.00000000000E+00 -0.00000000000E+00 -0.75282703025E+03  0.75282703025E+03  0.00000000000E+00 0. -1.
   -9000010    2    1    2    0  502 -0.78565549585E+02 -0.20498336092E+03  0.20881459789E+03  0.10439398897E+04  0.99900762422E+03 0.  0.
         13    1    3    3    0    0 -0.45189547155E+03  0.68329861939E+02 -0.12451566783E+03  0.47369045794E+03  0.10566000000E+00 0. -1.
         -4    1    3    3    0  502  0.37332992196E+03 -0.27331322286E+03  0.33333026572E+03  0.57024943180E+03  0.00000000000E+00 0. -1.
        -13    1    1    2    0    0  0.78565549585E+02  0.20498336092E+03 -0.29932950930E+03  0.37119925935E+03  0.10566000000E+00 0.  1.
<mgrwt>
<rscale>  1 0.69618882E+03</rscale>
<asrwt>0</asrwt>
<pdfrwt beam="1">  1       21 0.10189417E+00 0.10228426E+04</pdfrwt>
<pdfrwt beam="2">  1       -4 0.11581954E+00 0.10228426E+04</pdfrwt>
<totfact> 0.16892037E+01</totfact>
</mgrwt>
</event>
<event>
 6    2  0.2220137E-005  0.1104436E+04  0.7818608E-02  0.9429298E-01
         -4   -1    0    0    0  501 -0.00000000000E+00  0.00000000000E+00  0.10962339429E+04  0.10962339429E+04  0.00000000000E+00 0. -1.
         21   -1    0    0  501  502  0.00000000000E+00 -0.00000000000E+00 -0.69323562920E+03  0.69323562920E+03  0.00000000000E+00 0.  1.
   -9000010    2    1    2    0  502 -0.16834398093E+02 -0.48033494009E+03  0.61504290998E+03  0.12641430322E+04  0.99437154680E+03 0.  0.
         13    1    3    3    0    0 -0.28709390392E+03 -0.14472760114E+03 -0.17365612340E+03  0.36541134158E+03  0.10566000000E+00 0. -1.
         -4    1    3    3    0  502  0.27025950583E+03 -0.33560733895E+03  0.78869903338E+03  0.89873169060E+03  0.00000000000E+00 0. -1.
        -13    1    1    2    0    0  0.16834398093E+02  0.48033494009E+03 -0.21204459624E+03  0.52532653996E+03  0.10566000000E+00 0.  1.
<mgrwt>
<rscale>  1 0.89703272E+03</rscale>
<asrwt>0</asrwt>
<pdfrwt beam="2">  1       21 0.10665164E+00 0.11044364E+04</pdfrwt>
<pdfrwt beam="1">  1       -4 0.16865138E+00 0.11044364E+04</pdfrwt>
<totfact> 0.55407489E+00</totfact>
</mgrwt>
</event>
<event>
 6    2  0.2220137E-005  0.9396857E+03  0.7818608E-02  0.1019933E+00
         21   -1    0    0  501  502  0.00000000000E+00  0.00000000000E+00  0.40114383984E+03  0.40114383984E+03  0.00000000000E+00 0. -1.
         -4   -1    0    0    0  501 -0.00000000000E+00 -0.00000000000E+00 -0.74381580499E+03  0.74381580499E+03  0.00000000000E+00 0. -1.
   -9000010    2    1    2    0  502  0.12062442797E+02  0.61272745640E+02 -0.16167533989E+03  0.95349256828E+03  0.93760829260E+03 0.  0.
         13    1    3    3    0    0 -0.19777287300E+03  0.41965636048E+03  0.83277829942E+02  0.47133934517E+03  0.10566000000E+00 0. -1.
         -4    1    3    3    0  502  0.20983531580E+03 -0.35838361484E+03 -0.24495316983E+03  0.48215322311E+03  0.00000000000E+00 0. -1.
        -13    1    1    2    0    0 -0.12062442797E+02 -0.61272745640E+02 -0.18099662526E+03  0.19146707656E+03  0.10566000000E+00 0.  1.
<mgrwt>
<rscale>  1 0.47710956E+03</rscale>
<asrwt>0</asrwt>
<pdfrwt beam="1">  1       21 0.61714437E-01 0.93968567E+03</pdfrwt>
<pdfrwt beam="2">  1       -4 0.11443320E+00 0.93968567E+03</pdfrwt>
<totfact> 0.57058053E+01</totfact>
</mgrwt>
</event>
<event>
 6    2  0.2220137E-005  0.1012773E+04  0.7818608E-02  0.9775389E-01
         -4   -1    0    0    0  501 -0.00000000000E+00  0.00000000000E+00  0.11370914563E+04  0.11370914563E+04  0.00000000000E+00 0. -1.
         21   -1    0    0  501  502  0.00000000000E+00 -0.00000000000E+00 -0.33746161806E+03  0.33746161806E+03  0.00000000000E+00 0. -1.
   -9000010    2    1    2    0  502  0.15522140624E+03 -0.11049624315E+03  0.52627512701E+03  0.11413475612E+04  0.99468871583E+03 0.  0.
         13    1    3    3    0    0  0.44810481893E+03  0.12897089726E+03  0.59591986096E+03  0.75667160178E+03  0.10566000000E+00 0. -1.
         -4    1    3    3    0  502 -0.29288341270E+03 -0.23946714041E+03 -0.69644733948E+02  0.38467595940E+03  0.00000000000E+00 0. -1.
        -13    1    1    2    0    0 -0.15522140624E+03  0.11049624315E+03  0.27335471125E+03  0.33320551320E+03  0.10566000000E+00 0.  1.
<mgrwt>
<rscale>  1 0.66700181E+03</rscale>
<asrwt>0</asrwt>
<pdfrwt beam="2">  1       21 0.51917173E-01 0.10127728E+04</pdfrwt>
<pdfrwt beam="1">  1       -4 0.17493715E+00 0.10127728E+04</pdfrwt>
<totfact> 0.27009630E+01</totfact>
</mgrwt>
</event>
<event>
 6    2  0.2220137E-005  0.1017114E+04  0.7818608E-02  0.9870213E-01
         -4   -1    0    0    0  501 -0.00000000000E+00  0.00000000000E+00  0.71849994328E+03  0.71849994328E+03  0.00000000000E+00 0. -1.
         21   -1    0    0  501  502  0.00000000000E+00 -0.00000000000E+00 -0.46537240096E+03  0.46537240096E+03  0.00000000000E+00 0. -1.
   -9000010    2    1    2    0  502  0.12296454515E+03 -0.62575353079E+02  0.20367362912E+03  0.10373061310E+04  0.10077128103E+04 0.  0.
         13    1    3    3    0    0 -0.39009108063E+03 -0.11449522662E+03 -0.12555705117E+03  0.42549358675E+03  0.10566000000E+00 0. -1.
         -4    1    3    3    0  502  0.51305562578E+03  0.51919873540E+02  0.32923068029E+03  0.61181254421E+03  0.00000000000E+00 0. -1.
        -13    1    1    2    0    0 -0.12296454515E+03  0.62575353079E+02  0.49453913202E+02  0.14656621327E+03  0.10566000000E+00 0.  1.
<mgrwt>
<rscale>  1 0.61726850E+03</rscale>
<asrwt>0</asrwt>
<pdfrwt beam="2">  1       21 0.71595754E-01 0.10171141E+04</pdfrwt>
<pdfrwt beam="1">  1       -4 0.11053845E+00 0.10171141E+04</pdfrwt>
<totfact> 0.44091925E+01</totfact>
</mgrwt>
</event>
<event>
 6    2  0.2220137E-005  0.1013884E+04  0.7818608E-02  0.9868502E-01
         21   -1    0    0  501  502  0.00000000000E+00  0.00000000000E+00  0.89510886936E+03  0.89510886936E+03  0.00000000000E+00 0. -1.
         -4   -1    0    0    0  501 -0.00000000000E+00 -0.00000000000E+00 -0.38065886711E+03  0.38065886711E+03  0.00000000000E+00 0. -1.
   -9000010    2    1    2    0  502  0.13933194712E+03  0.14337231187E+02  0.51165523295E+03  0.11356721634E+04  0.10041619579E+04 0.  0.
         13    1    3    3    0    0  0.39583103514E+03  0.27478216279E+03 -0.29346180660E+02  0.48275113138E+03  0.10566000000E+00 0. -1.
         -4    1    3    3    0  502 -0.25649908802E+03 -0.26044493160E+03  0.54100141361E+03  0.65292103204E+03  0.00000000000E+00 0. -1.
        -13    1    1    2    0    0 -0.13933194712E+03 -0.14337231187E+02  0.27947692970E+01  0.14009557304E+03  0.10566000000E+00 0.  1.
<mgrwt>
<rscale>  1 0.61812400E+03</rscale>
<asrwt>0</asrwt>
<pdfrwt beam="1">  1       21 0.13770906E+00 0.10138837E+04</pdfrwt>
<pdfrwt beam="2">  1       -4 0.58562903E-01 0.10138837E+04</pdfrwt>
<totfact> 0.37654569E+01</totfact>
</mgrwt>
</event>
<event>
 6    2  0.2220137E-005  0.9054687E+03  0.7818608E-02  0.1021495E+00
         21   -1    0    0  501  502  0.00000000000E+00  0.00000000000E+00  0.71458083472E+03  0.71458083472E+03  0.00000000000E+00 0. -1.
         -4   -1    0    0    0  501 -0.00000000000E+00 -0.00000000000E+00 -0.38242185598E+03  0.38242185598E+03  0.00000000000E+00 0. -1.
   -9000010    2    1    2    0  502  0.10731343567E+02  0.65708562816E+02  0.41051425741E+03  0.99418081645E+03  0.90301758748E+03 0.  0.
         13    1    3    3    0    0 -0.25606155296E+03  0.33057832180E+03  0.45223641025E+03  0.61592802150E+03  0.10566000000E+00 0. -1.
         -4    1    3    3    0  502  0.26679289652E+03 -0.26486975898E+03 -0.41722152835E+02  0.37825279496E+03  0.00000000000E+00 0. -1.
        -13    1    1    2    0    0 -0.10731343567E+02 -0.65708562816E+02 -0.78355278680E+02  0.10282187424E+03  0.10566000000E+00 0.  1.
<mgrwt>
<rscale>  1 0.47150869E+03</rscale>
<asrwt>0</asrwt>
<pdfrwt beam="1">  1       21 0.10993551E+00 0.90546869E+03</pdfrwt>
<pdfrwt beam="2">  1       -4 0.58834132E-01 0.90546869E+03</pdfrwt>
<totfact> 0.67798614E+01</totfact>
</mgrwt>
</event>
<event>
 6    2  0.2220137E-005  0.9370892E+03  0.7818608E-02  0.1006889E+00
         -4   -1    0    0    0  501 -0.00000000000E+00  0.00000000000E+00  0.23476509114E+03  0.23476509114E+03  0.00000000000E+00 0. -1.
         21   -1    0    0  501  502  0.00000000000E+00 -0.00000000000E+00 -0.17601682000E+04  0.17601682000E+04  0.00000000000E+00 0. -1.
   -9000010    2    1    2    0  502  0.85272498486E+02 -0.39429079080E+02 -0.16136675429E+04  0.18660276173E+04  0.93236799496E+03 0.  0.
         13    1    3    3    0    0  0.13956760222E+03  0.22869529544E+03 -0.42557262275E+02  0.27127805935E+03  0.10566000000E+00 0. -1.
         -4    1    3    3    0  502 -0.54295103738E+02 -0.26812437452E+03 -0.15711102806E+04  0.15947495579E+04  0.00000000000E+00 0. -1.
        -13    1    1    2    0    0 -0.85272498486E+02  0.39429079080E+02  0.88264434056E+02  0.12890567388E+03  0.10566000000E+00 0.  1.
<mgrwt>
<rscale>  1 0.52729854E+03</rscale>
<asrwt>0</asrwt>
<pdfrwt beam="2">  1       21 0.27079510E+00 0.93708918E+03</pdfrwt>
<pdfrwt beam="1">  1       -4 0.36117707E-01 0.93708918E+03</pdfrwt>
<totfact> 0.12203504E+01</totfact>
</mgrwt>
</event>
<event>
 6    2  0.2220137E-005  0.1006719E+04  0.7818608E-02  0.9898145E-01
         -4   -1    0    0    0  501 -0.00000000000E+00  0.00000000000E+00  0.66492107466E+03  0.66492107466E+03  0.00000000000E+00 0. -1.
         21   -1    0    0  501  502  0.00000000000E+00 -0.00000000000E+00 -0.51415691075E+03  0.51415691075E+03  0.00000000000E+00 0. -1.
   -9000010    2    1    2    0  502  0.12912094776E+03  0.15291976841E+02  0.38759162262E+02  0.10074644799E+04  0.99828670329E+03 0.  0.
         13    1    3    3    0    0  0.27417204042E+03 -0.41586895578E+03  0.18233771886E+03  0.53043788611E+03  0.10566000000E+00 0. -1.
         -4    1    3    3    0  502 -0.14505109266E+03  0.43116093262E+03 -0.14357855660E+03  0.47702659383E+03  0.00000000000E+00 0. -1.
        -13    1    1    2    0    0 -0.12912094776E+03 -0.15291976841E+02  0.11200500164E+03  0.17161350548E+03  0.10566000000E+00 0.  1.
<mgrwt>
<rscale>  1 0.60351272E+03</rscale>
<asrwt>0</asrwt>
<pdfrwt beam="2">  1       21 0.79101063E-01 0.10067186E+04</pdfrwt>
<pdfrwt beam="1">  1       -4 0.10229555E+00 0.10067186E+04</pdfrwt>
<totfact> 0.42312718E+01</totfact>
</mgrwt>
</event>
<event>
 6    2  0.2220137E-005  0.1171820E+04  0.7818608E-02  0.9390162E-01
         -4   -1    0    0    0  501 -0.00000000000E+00  0.00000000000E+00  0.15321983050E+04  0.15321983050E+04  0.00000000000E+00 0. -1.
         21   -1    0    0  501  502  0.00000000000E+00 -0.00000000000E+00 -0.52614879939E+03  0.52614879939E+03  0.00000000000E+00 0. -1.
   -9000010    2    1    2    0  502 -0.40774507456E+03  0.21868747831E+03  0.10754050461E+04  0.15904897959E+04  0.10766064827E+04 0.  0.
         13    1    3    3    0    0 -0.45779241269E+03  0.61677229137E+03  0.65639829947E+03  0.10103666123E+04  0.10566000000E+00 0. -1.
         -4    1    3    3    0  502  0.50047338136E+02 -0.39808481306E+03  0.41900674663E+03  0.58012318361E+03  0.00000000000E+00 0. -1.
        -13    1    1    2    0    0  0.40774507456E+03 -0.21868747831E+03 -0.69355540446E+02  0.46785730854E+03  0.10566000000E+00 0.  1.
<mgrwt>
<rscale>  1 0.92889746E+03</rscale>
<asrwt>0</asrwt>
<pdfrwt beam="2">  1       21 0.80945969E-01 0.11718199E+04</pdfrwt>
<pdfrwt beam="1">  1       -4 0.23572282E+00 0.11718199E+04</pdfrwt>
<totfact> 0.38531594E+00</totfact>
</mgrwt>
</event>
<event>
 6    2  0.2220137E-005  0.9988609E+03  0.7818608E-02  0.9780036E-01
         21   -1    0    0  501  502  0.00000000000E+00  0.00000000000E+00  0.75293133858E+03  0.75293133858E+03  0.00000000000E+00 0. -1.
         -4   -1    0    0    0  501 -0.00000000000E+00 -0.00000000000E+00 -0.55392968758E+03  0.55392968758E+03  0.00000000000E+00 0. -1.
   -9000010    2    1    2    0  502 -0.14577349978E+03 -0.13039736988E+03  0.35144482444E+03  0.10588845765E+04  0.97952523927E+03 0.  0.
         13    1    3    3    0    0  0.12569179520E+03 -0.79194586629E+02 -0.30907366031E+03  0.34292382331E+03  0.10566000000E+00 0. -1.
         -4    1    3    3    0  502 -0.27146529498E+03 -0.51202783254E+02  0.66051848474E+03  0.71596075317E+03  0.00000000000E+00 0. -1.
        -13    1    1    2    0    0  0.14577349978E+03  0.13039736988E+03 -0.15244317343E+03  0.24797644969E+03  0.10566000000E+00 0.  1.
<mgrwt>
<rscale>  1 0.66445031E+03</rscale>
<asrwt>0</asrwt>
<pdfrwt beam="1">  1       21 0.11583559E+00 0.99886089E+03</pdfrwt>
<pdfrwt beam="2">  1       -4 0.85219952E-01 0.99886089E+03</pdfrwt>
<totfact> 0.25624472E+01</totfact>
</mgrwt>
</event>
<event>
 6    2  0.2220137E-005  0.1003075E+04  0.7818608E-02  0.1023172E+00
         -4   -1    0    0    0  501 -0.00000000000E+00  0.00000000000E+00  0.47265565620E+03  0.47265565620E+03  0.00000000000E+00 0. -1.
         21   -1    0    0  501  502  0.00000000000E+00 -0.00000000000E+00 -0.85068672654E+03  0.85068672654E+03  0.00000000000E+00 0. -1.
   -9000010    2    1    2    0  502 -0.46333592927E+02 -0.45977542752E+01 -0.55084022180E+03  0.11443704431E+04  0.10019934231E+04 0.  0.
         13    1    3    3    0    0  0.33888306081E+03 -0.26184423276E+03 -0.47514447912E+01  0.42828345582E+03  0.10566000000E+00 0. -1.
         -4    1    3    3    0  502 -0.38521665374E+03  0.25724647849E+03 -0.54608877701E+03  0.71608698730E+03  0.00000000000E+00 0. -1.
        -13    1    1    2    0    0  0.46333592927E+02  0.45977542752E+01  0.17280915145E+03  0.17897193961E+03  0.10566000000E+00 0.  1.
<mgrwt>
<rscale>  1 0.46559270E+03</rscale>
<asrwt>0</asrwt>
<pdfrwt beam="2">  1       21 0.13087488E+00 0.10030747E+04</pdfrwt>
<pdfrwt beam="1">  1       -4 0.72716255E-01 0.10030747E+04</pdfrwt>
<totfact> 0.26767776E+01</totfact>
</mgrwt>
</event>
<event>
 6    2  0.2220137E-005  0.1259099E+04  0.7818608E-02  0.9295513E-01
         21   -1    0    0  501  502  0.00000000000E+00  0.00000000000E+00  0.21825433545E+04  0.21825433545E+04  0.00000000000E+00 0.  1.
         -4   -1    0    0    0  501 -0.00000000000E+00 -0.00000000000E+00 -0.37514460119E+03  0.37514460119E+03  0.00000000000E+00 0. -1.
   -9000010    2    1    2    0  502  0.21383834195E+03 -0.47991663825E+03  0.14594474650E+04  0.19275158155E+04  0.11442392667E+04 0.  0.
         13    1    3    3    0    0  0.37052412842E+03 -0.70586239555E+03  0.52766766784E+03  0.95601413694E+03  0.10566000000E+00 0. -1.
         -4    1    3    3    0  502 -0.15668578647E+03  0.22594575730E+03  0.93177979719E+03  0.97150167852E+03  0.00000000000E+00 0. -1.
        -13    1    1    2    0    0 -0.21383834195E+03  0.47991663825E+03  0.34795128833E+03  0.63017214027E+03  0.10566000000E+00 0.  1.
<mgrwt>
<rscale>  1 0.10119703E+04</rscale>
<asrwt>0</asrwt>
<pdfrwt beam="1">  1       21 0.33577589E+00 0.12590990E+04</pdfrwt>
<pdfrwt beam="2">  1       -4 0.57714556E-01 0.12590990E+04</pdfrwt>
<totfact> 0.17092711E+00</totfact>
</mgrwt>
</event>
<event>
 6    2  0.2220137E-005  0.1005772E+04  0.7818608E-02  0.9995270E-01
         -4   -1    0    0    0  501 -0.00000000000E+00  0.00000000000E+00  0.24072815245E+03  0.24072815245E+03  0.00000000000E+00 0. -1.
         21   -1    0    0  501  502  0.00000000000E+00 -0.00000000000E+00 -0.17372142400E+04  0.17372142400E+04  0.00000000000E+00 0. -1.
   -9000010    2    1    2    0  502  0.79008982062E+01  0.95358851587E+02 -0.15649534069E+04  0.18602839047E+04  0.10012099209E+04 0.  0.
         13    1    3    3    0    0  0.42570104314E+03  0.23607598221E+03 -0.45635835390E+03  0.66724523666E+03  0.10566000000E+00 0. -1.
         -4    1    3    3    0  502 -0.41780014494E+03 -0.14071713062E+03 -0.11085950530E+04  0.11930386680E+04  0.00000000000E+00 0. -1.
        -13    1    1    2    0    0 -0.79008982062E+01 -0.95358851587E+02  0.68467319306E+02  0.11765848778E+03  0.10566000000E+00 0.  1.
<mgrwt>
<rscale>  1 0.55858122E+03</rscale>
<asrwt>0</asrwt>
<pdfrwt beam="2">  1       21 0.26726373E+00 0.10057719E+04</pdfrwt>
<pdfrwt beam="1">  1       -4 0.37035101E-01 0.10057719E+04</pdfrwt>
<totfact> 0.12075236E+01</totfact>
</mgrwt>
</event>
<event>
 6    2  0.2220137E-005  0.1005678E+04  0.7818608E-02  0.9845012E-01
         21   -1    0    0  501  502  0.00000000000E+00  0.00000000000E+00  0.96801252826E+03  0.96801252826E+03  0.00000000000E+00 0. -1.
         -4   -1    0    0    0  501 -0.00000000000E+00 -0.00000000000E+00 -0.71487919670E+03  0.71487919670E+03  0.00000000000E+00 0. -1.
   -9000010    2    1    2    0  502 -0.14299163521E+03  0.59547254292E+02  0.68983554062E+03  0.12195329937E+04  0.99367759685E+03 0.  0.
         13    1    3    3    0    0 -0.22718583584E+03 -0.38384042949E+03  0.68007101488E+02  0.45118937968E+03  0.10566000000E+00 0. -1.
         -4    1    3    3    0  502  0.84194200633E+02  0.44338768378E+03  0.62182843913E+03  0.76834361406E+03  0.00000000000E+00 0. -1.
        -13    1    1    2    0    0  0.14299163521E+03 -0.59547254292E+02 -0.43670220906E+03  0.46335873122E+03  0.10566000000E+00 0.  1.
<mgrwt>
<rscale>  1 0.63001885E+03</rscale>
<asrwt>0</asrwt>
<pdfrwt beam="1">  1       21 0.14892500E+00 0.10056777E+04</pdfrwt>
<pdfrwt beam="2">  1       -4 0.10998142E+00 0.10056777E+04</pdfrwt>
<totfact> 0.71091373E+00</totfact>
</mgrwt>
</event>
<event>
 6    2  0.2220137E-005  0.9464435E+03  0.7818608E-02  0.1004984E+00
         -4   -1    0    0    0  501 -0.00000000000E+00  0.00000000000E+00  0.63438955799E+03  0.63438955799E+03  0.00000000000E+00 0. -1.
         21   -1    0    0  501  502  0.00000000000E+00 -0.00000000000E+00 -0.83250666197E+03  0.83250666197E+03  0.00000000000E+00 0. -1.
   -9000010    2    1    2    0  502  0.76161728991E+02  0.59686267095E+02 -0.55497201064E+03  0.10971551011E+04  0.94148410700E+03 0.  0.
         13    1    3    3    0    0 -0.21451264612E+03 -0.38926366994E+02 -0.71746023217E+03  0.74985340788E+03  0.10566000000E+00 0. -1.
         -4    1    3    3    0  502  0.29067437511E+03  0.98612634089E+02  0.16248822154E+03  0.34730169318E+03  0.00000000000E+00 0. -1.
        -13    1    1    2    0    0 -0.76161728991E+02 -0.59686267095E+02  0.35685490665E+03  0.36974111891E+03  0.10566000000E+00 0.  1.
<mgrwt>
<rscale>  1 0.53517809E+03</rscale>
<asrwt>0</asrwt>
<pdfrwt beam="2">  1       21 0.12807795E+00 0.94644354E+03</pdfrwt>
<pdfrwt beam="1">  1       -4 0.97598394E-01 0.94644354E+03</pdfrwt>
<totfact> 0.14402903E+01</totfact>
</mgrwt>
</event>
<event>
 6    2  0.2220137E-005  0.1142449E+04  0.7818608E-02  0.9361722E-01
         21   -1    0    0  501  502  0.00000000000E+00  0.00000000000E+00  0.19935616891E+04  0.19935616891E+04  0.00000000000E+00 0.  1.
         -4   -1    0    0    0  501 -0.00000000000E+00 -0.00000000000E+00 -0.38004223692E+03  0.38004223692E+03  0.00000000000E+00 0. -1.
   -9000010    2    1    2    0  502 -0.38468905260E+03 -0.39731296786E+03  0.81951649995E+03  0.14059862531E+04  0.99967334095E+03 0.  0.
         13    1    3    3    0    0 -0.26102439461E+03 -0.73278023914E+03  0.63201048570E+03  0.10022663711E+04  0.10566000000E+00 0. -1.
         -4    1    3    3    0  502 -0.12366465800E+03  0.33546727128E+03  0.18750601426E+03  0.40371988200E+03  0.00000000000E+00 0. -1.
        -13    1    1    2    0    0  0.38468905260E+03  0.39731296786E+03  0.79400295221E+03  0.96761767290E+03  0.10566000000E+00 0.  1.
<mgrwt>
<rscale>  1 0.95293895E+03</rscale>
<asrwt>0</asrwt>
<pdfrwt beam="1">  1       21 0.30670179E+00 0.11424491E+04</pdfrwt>
<pdfrwt beam="2">  1       -4 0.58468038E-01 0.11424491E+04</pdfrwt>
<totfact> 0.25789303E+00</totfact>
</mgrwt>
</event>
<event>
 6    2  0.2220137E-005  0.9429495E+03  0.7818608E-02  0.1027882E+00
         -4   -1    0    0    0  501 -0.00000000000E+00  0.00000000000E+00  0.41559219355E+03  0.41559219355E+03  0.00000000000E+00 0. -1.
         21   -1    0    0  501  502  0.00000000000E+00 -0.00000000000E+00 -0.59235339591E+03  0.59235339591E+03  0.00000000000E+00 0. -1.
   -9000010    2    1    2    0  502  0.10002674958E+02  0.47637627090E+02 -0.17617190146E+03  0.95926545531E+03  0.94169224159E+03 0.  0.
         13    1    3    3    0    0 -0.35269557655E+03 -0.18218230893E+03 -0.31632732530E+03  0.50758994405E+03  0.10566000000E+00 0. -1.
         -4    1    3    3    0  502  0.36269825151E+03  0.22981993602E+03  0.14015542384E+03  0.45167551126E+03  0.00000000000E+00 0. -1.
        -13    1    1    2    0    0 -0.10002674958E+02 -0.47637627090E+02 -0.58930089247E+00  0.48680134148E+02  0.10566000000E+00 0.  1.
<mgrwt>
<rscale>  1 0.44946543E+03</rscale>
<asrwt>0</asrwt>
<pdfrwt beam="2">  1       21 0.91131291E-01 0.94294946E+03</pdfrwt>
<pdfrwt beam="1">  1       -4 0.63937261E-01 0.94294946E+03</pdfrwt>
<totfact> 0.89661534E+01</totfact>
</mgrwt>
</event>
<event>
 6    2  0.2220137E-005  0.9972402E+03  0.7818608E-02  0.9935702E-01
         -4   -1    0    0    0  501 -0.00000000000E+00  0.00000000000E+00  0.32027715717E+03  0.32027715717E+03  0.00000000000E+00 0. -1.
         21   -1    0    0  501  502  0.00000000000E+00 -0.00000000000E+00 -0.10621293895E+04  0.10621293895E+04  0.00000000000E+00 0.  1.
   -9000010    2    1    2    0  502  0.90099049991E+02  0.77112748416E+02 -0.77071395820E+03  0.12603523572E+04  0.99016354419E+03 0.  0.
         13    1    3    3    0    0  0.23182445165E+03  0.25868789201E+03 -0.92167000745E+03  0.98495564147E+03  0.10566000000E+00 0. -1.
         -4    1    3    3    0  502 -0.14172540166E+03 -0.18157514359E+03  0.15095604926E+03  0.27539671576E+03  0.00000000000E+00 0. -1.
        -13    1    1    2    0    0 -0.90099049991E+02 -0.77112748416E+02  0.28861725865E+02  0.12205418945E+03  0.10566000000E+00 0.  1.
<mgrwt>
<rscale>  1 0.58561787E+03</rscale>
<asrwt>0</asrwt>
<pdfrwt beam="2">  1       21 0.16340452E+00 0.99724022E+03</pdfrwt>
<pdfrwt beam="1">  1       -4 0.49273409E-01 0.99724022E+03</pdfrwt>
<totfact> 0.33833555E+01</totfact>
</mgrwt>
</event>
<event>
 6    2  0.2220137E-005  0.1327766E+04  0.7818608E-02  0.9111670E-01
         21   -1    0    0  501  502  0.00000000000E+00  0.00000000000E+00  0.25938016519E+04  0.25938016519E+04  0.00000000000E+00 0.  1.
         -4   -1    0    0    0  501 -0.00000000000E+00 -0.00000000000E+00 -0.48020091002E+03  0.48020091002E+03  0.00000000000E+00 0. -1.
   -9000010    2    1    2    0  502 -0.88494301476E+03  0.93449783600E+02  0.14340110355E+04  0.19543154710E+04  0.98544624856E+03 0.  0.
         13    1    3    3    0    0 -0.81504967425E+03  0.45181355021E+03  0.82692153305E+03  0.12458895170E+04  0.10566000000E+00 0. -1.
         -4    1    3    3    0  502 -0.69893340509E+02 -0.35836376661E+03  0.60708950247E+03  0.70842595399E+03  0.00000000000E+00 0. -1.
        -13    1    1    2    0    0  0.88494301476E+03 -0.93449783600E+02  0.67958970641E+03  0.11196870910E+04  0.10566000000E+00 0.  1.
<mgrwt>
<rscale>  1 0.12013565E+04</rscale>
<asrwt>0</asrwt>
<pdfrwt beam="1">  1       21 0.39904640E+00 0.13277655E+04</pdfrwt>
<pdfrwt beam="2">  1       -4 0.73877065E-01 0.13277655E+04</pdfrwt>
<totfact> 0.38196714E-01</totfact>
</mgrwt>
</event>
<event>
 6    2  0.2220137E-005  0.1017886E+04  0.7818608E-02  0.9760303E-01
         21   -1    0    0  501  502  0.00000000000E+00  0.00000000000E+00  0.12508655914E+04  0.12508655914E+04  0.00000000000E+00 0. -1.
         -4   -1    0    0    0  501 -0.00000000000E+00 -0.00000000000E+00 -0.30621099497E+03  0.30621099497E+03  0.00000000000E+00 0. -1.
   -9000010    2    1    2    0  502 -0.19249488186E+03 -0.43162906366E+02  0.66880987867E+03  0.12179488295E+04  0.99858669195E+03 0.  0.
         13    1    3    3    0    0 -0.50329779022E+03 -0.28502309010E+03  0.21495783283E+03  0.61705243586E+03  0.10566000000E+00 0. -1.
         -4    1    3    3    0  502  0.31080290836E+03  0.24186018374E+03  0.45385204584E+03  0.60089639360E+03  0.00000000000E+00 0. -1.
        -13    1    1    2    0    0  0.19249488186E+03  0.43162906366E+02  0.27584471776E+03  0.33912775691E+03  0.10566000000E+00 0.  1.
<mgrwt>
<rscale>  1 0.67537100E+03</rscale>
<asrwt>0</asrwt>
<pdfrwt beam="1">  1       21 0.19244086E+00 0.10178864E+04</pdfrwt>
<pdfrwt beam="2">  1       -4 0.47109385E-01 0.10178864E+04</pdfrwt>
<totfact> 0.22752454E+01</totfact>
</mgrwt>
</event>
<event>
 6    2  0.2220137E-005  0.1298807E+04  0.7818608E-02  0.9148082E-01
         21   -1    0    0  501  502  0.00000000000E+00  0.00000000000E+00  0.80522773984E+03  0.80522773984E+03  0.00000000000E+00 0.  1.
         -4   -1    0    0    0  501 -0.00000000000E+00 -0.00000000000E+00 -0.15397720448E+04  0.15397720448E+04  0.00000000000E+00 0. -1.
   -9000010    2    1    2    0  502 -0.17200453141E+03 -0.80999600368E+03 -0.78117574064E+03  0.15156303937E+04  0.10006102476E+04 0.  0.
         13    1    3    3    0    0  0.21193482576E+03 -0.54482782242E+03 -0.86253781067E+03  0.10419813878E+04  0.10566000000E+00 0. -1.
         -4    1    3    3    0  502 -0.38393935718E+03 -0.26516818126E+03  0.81362070036E+02  0.47364900589E+03  0.00000000000E+00 0. -1.
        -13    1    1    2    0    0  0.17200453141E+03  0.80999600368E+03  0.46631435644E+02  0.82936939102E+03  0.10566000000E+00 0.  1.
<mgrwt>
<rscale>  1 0.11605762E+04</rscale>
<asrwt>0</asrwt>
<pdfrwt beam="1">  1       21 0.12388119E+00 0.12988071E+04</pdfrwt>
<pdfrwt beam="2">  1       -4 0.23688801E+00 0.12988071E+04</pdfrwt>
<totfact> 0.12912803E+00</totfact>
</mgrwt>
</event>
<event>
 6    2  0.2220137E-005  0.1054635E+04  0.7818608E-02  0.9615092E-01
         21   -1    0    0  501  502  0.00000000000E+00  0.00000000000E+00  0.83103951469E+03  0.83103951469E+03  0.00000000000E+00 0. -1.
         -4   -1    0    0    0  501 -0.00000000000E+00 -0.00000000000E+00 -0.10497415756E+04  0.10497415756E+04  0.00000000000E+00 0. -1.
   -9000010    2    1    2    0  502  0.20518603251E+02  0.28828098073E+03  0.45431977192E+03  0.11483294977E+04  0.10142619204E+04 0.  0.
         13    1    3    3    0    0  0.36795039269E+03  0.19591026044E+03  0.62429152688E+03  0.75067186128E+03  0.10566000000E+00 0. -1.
         -4    1    3    3    0  502 -0.34743178944E+03  0.92370720283E+02 -0.16997175496E+03  0.39765763637E+03  0.00000000000E+00 0. -1.
        -13    1    1    2    0    0 -0.20518603251E+02 -0.28828098073E+03 -0.67302183283E+03  0.73245159264E+03  0.10566000000E+00 0.  1.
<mgrwt>
<rscale>  1 0.76305325E+03</rscale>
<asrwt>0</asrwt>
<pdfrwt beam="1">  1       21 0.12785223E+00 0.10546346E+04</pdfrwt>
<pdfrwt beam="2">  1       -4 0.16149870E+00 0.10546346E+04</pdfrwt>
<totfact> 0.39396569E+00</totfact>
</mgrwt>
</event>
<event>
 6    2  0.2220137E-005  0.1029114E+04  0.7818608E-02  0.9916761E-01
         21   -1    0    0  501  502  0.00000000000E+00  0.00000000000E+00  0.39943914482E+03  0.39943914482E+03  0.00000000000E+00 0. -1.
         -4   -1    0    0    0  501 -0.00000000000E+00 -0.00000000000E+00 -0.90026925796E+03  0.90026925796E+03  0.00000000000E+00 0. -1.
   -9000010    2    1    2    0  502 -0.11116299101E+03 -0.28073933107E+02 -0.30599723792E+03  0.10736437733E+04  0.10227078204E+04 0.  0.
         13    1    3    3    0    0 -0.31808820463E+03 -0.34317030000E+03 -0.46940188318E+03  0.66278510833E+03  0.10566000000E+00 0. -1.
         -4    1    3    3    0  502  0.20692521361E+03  0.31509636689E+03  0.16340464526E+03  0.41085866493E+03  0.00000000000E+00 0. -1.
        -13    1    1    2    0    0  0.11116299101E+03  0.28073933107E+02 -0.19483287521E+03  0.22606462952E+03  0.10566000000E+00 0.  1.
<mgrwt>
<rscale>  1 0.59455819E+03</rscale>
<asrwt>0</asrwt>
<pdfrwt beam="1">  1       21 0.61452176E-01 0.10291145E+04</pdfrwt>
<pdfrwt beam="2">  1       -4 0.13850296E+00 0.10291145E+04</pdfrwt>
<totfact> 0.35163344E+01</totfact>
</mgrwt>
</event>
<event>
 6    2  0.2220137E-005  0.1041107E+04  0.7818608E-02  0.9629775E-01
         21   -1    0    0  501  502  0.00000000000E+00  0.00000000000E+00  0.72573967326E+03  0.72573967326E+03  0.00000000000E+00 0. -1.
         -4   -1    0    0    0  501 -0.00000000000E+00 -0.00000000000E+00 -0.10606707391E+04  0.10606707391E+04  0.00000000000E+00 0. -1.
   -9000010    2    1    2    0  502 -0.13865810671E+03 -0.24986087238E+03  0.30559688369E+03  0.10850313484E+04  0.10011228923E+04 0.  0.
         13    1    3    3    0    0  0.12408376612E+03  0.27727590879E+03  0.38533045443E+03  0.49067125541E+03  0.10566000000E+00 0. -1.
         -4    1    3    3    0  502 -0.26274187283E+03 -0.52713678117E+03 -0.79733570743E+02  0.59436009296E+03  0.00000000000E+00 0. -1.
        -13    1    1    2    0    0  0.13865810671E+03  0.24986087238E+03 -0.64052794956E+03  0.70137906401E+03  0.10566000000E+00 0.  1.
<mgrwt>
<rscale>  1 0.75356438E+03</rscale>
<asrwt>0</asrwt>
<pdfrwt beam="1">  1       21 0.11165226E+00 0.10411069E+04</pdfrwt>
<pdfrwt beam="2">  1       -4 0.16318011E+00 0.10411069E+04</pdfrwt>
<totfact> 0.54502418E+00</totfact>
</mgrwt>
</event>
<event>
 6    2  0.2220137E-005  0.1022713E+04  0.7818608E-02  0.9681160E-01
         21   -1    0    0  501  502  0.00000000000E+00  0.00000000000E+00  0.78224809157E+03  0.78224809157E+03  0.00000000000E+00 0. -1.
         -4   -1    0    0    0  501 -0.00000000000E+00 -0.00000000000E+00 -0.69724004409E+03  0.69724004409E+03  0.00000000000E+00 0. -1.
   -9000010    2    1    2    0  502  0.97244349165E+01 -0.25313770054E+03  0.37966074018E+03  0.10909093399E+04  0.99084188954E+03 0.  0.
         13    1    3    3    0    0  0.29642124593E+03  0.18825463660E+03  0.43797224872E+03  0.56136001376E+03  0.10566000000E+00 0. -1.
         -4    1    3    3    0  502 -0.28669681102E+03 -0.44139233714E+03 -0.58311508538E+02  0.52954932609E+03  0.00000000000E+00 0. -1.
        -13    1    1    2    0    0 -0.97244349165E+01  0.25313770054E+03 -0.29465269271E+03  0.38857879581E+03  0.10566000000E+00 0.  1.
<mgrwt>
<rscale>  1 0.72149687E+03</rscale>
<asrwt>0</asrwt>
<pdfrwt beam="1">  1       21 0.12034586E+00 0.10227125E+04</pdfrwt>
<pdfrwt beam="2">  1       -4 0.10726770E+00 0.10227125E+04</pdfrwt>
<totfact> 0.13372562E+01</totfact>
</mgrwt>
</event>
<event>
 6    2  0.2220137E-005  0.1022328E+04  0.7818608E-02  0.9915934E-01
         21   -1    0    0  501  502  0.00000000000E+00  0.00000000000E+00  0.40202702320E+03  0.40202702320E+03  0.00000000000E+00 0. -1.
         -4   -1    0    0    0  501 -0.00000000000E+00 -0.00000000000E+00 -0.83489541499E+03  0.83489541499E+03  0.00000000000E+00 0. -1.
   -9000010    2    1    2    0  502 -0.11677473041E+03  0.10679170200E+02 -0.45256040364E+03  0.11180184062E+04  0.10155805508E+04 0.  0.
         13    1    3    3    0    0 -0.27892889410E+03 -0.42120084593E+03 -0.41748924429E+03  0.65536917904E+03  0.10566000000E+00 0. -1.
         -4    1    3    3    0  502  0.16215416370E+03  0.43188001613E+03 -0.35071159351E+02  0.46264922712E+03  0.00000000000E+00 0. -1.
        -13    1    1    2    0    0  0.11677473041E+03 -0.10679170200E+02  0.19692011848E+02  0.11890403203E+03  0.10566000000E+00 0.  1.
<mgrwt>
<rscale>  1 0.59495222E+03</rscale>
<asrwt>0</asrwt>
<pdfrwt beam="1">  1       21 0.61850312E-01 0.10223279E+04</pdfrwt>
<pdfrwt beam="2">  1       -4 0.12844545E+00 0.10223279E+04</pdfrwt>
<totfact> 0.42145524E+01</totfact>
</mgrwt>
</event>
<event>
 6    2  0.2220137E-005  0.1024048E+04  0.7818608E-02  0.9931429E-01
         21   -1    0    0  501  502  0.00000000000E+00  0.00000000000E+00  0.57292328829E+03  0.57292328829E+03  0.00000000000E+00 0. -1.
         -4   -1    0    0    0  501 -0.00000000000E+00 -0.00000000000E+00 -0.62811618626E+03  0.62811618626E+03  0.00000000000E+00 0. -1.
   -9000010    2    1    2    0  502  0.80893763229E+02  0.76045881652E+02  0.78741322168E+02  0.10270706166E+04  0.10180113352E+04 0.  0.
         13    1    3    3    0    0 -0.52068166162E+02 -0.43889841237E+03 -0.12217485975E+03  0.45855165230E+03  0.10566000000E+00 0. -1.
         -4    1    3    3    0  502  0.13296192939E+03  0.51494429402E+03  0.20091618192E+03  0.56851896430E+03  0.00000000000E+00 0. -1.
        -13    1    1    2    0    0 -0.80893763229E+02 -0.76045881652E+02 -0.13393422014E+03  0.17396885795E+03  0.10566000000E+00 0.  1.
<mgrwt>
<rscale>  1 0.58761978E+03</rscale>
<asrwt>0</asrwt>
<pdfrwt beam="1">  1       21 0.88142045E-01 0.10240478E+04</pdfrwt>
<pdfrwt beam="2">  1       -4 0.96633259E-01 0.10240478E+04</pdfrwt>
<totfact> 0.37477326E+01</totfact>
</mgrwt>
</event>
<event>
 6    2  0.2220137E-005  0.1018597E+04  0.7818608E-02  0.9825775E-01
         21   -1    0    0  501  502  0.00000000000E+00  0.00000000000E+00  0.57343984423E+03  0.57343984423E+03  0.00000000000E+00 0. -1.
         -4   -1    0    0    0  501 -0.00000000000E+00 -0.00000000000E+00 -0.61085994743E+03  0.61085994743E+03  0.00000000000E+00 0. -1.
   -9000010    2    1    2    0  502  0.59571857064E+02  0.14712104602E+03 -0.74446825952E+02  0.10213139098E+04  0.10061542447E+04 0.  0.
         13    1    3    3    0    0  0.50166236705E+03 -0.25619155179E+02 -0.18265676260E+03  0.53449506612E+03  0.10566000000E+00 0. -1.
         -4    1    3    3    0  502 -0.44209050998E+03  0.17274020120E+03  0.10820993665E+03  0.48681884363E+03  0.00000000000E+00 0. -1.
        -13    1    1    2    0    0 -0.59571857064E+02 -0.14712104602E+03  0.37026722756E+02  0.16298588190E+03  0.10566000000E+00 0.  1.
<mgrwt>
<rscale>  1 0.63997458E+03</rscale>
<asrwt>0</asrwt>
<pdfrwt beam="1">  1       21 0.88221515E-01 0.10185970E+04</pdfrwt>
<pdfrwt beam="2">  1       -4 0.93978453E-01 0.10185970E+04</pdfrwt>
<totfact> 0.39980882E+01</totfact>
</mgrwt>
</event>
<event>
 6    2  0.2220137E-005  0.9712913E+03  0.7818608E-02  0.9774475E-01
         -4   -1    0    0    0  501 -0.00000000000E+00  0.00000000000E+00  0.98274046301E+03  0.98274046301E+03  0.00000000000E+00 0. -1.
         21   -1    0    0  501  502  0.00000000000E+00 -0.00000000000E+00 -0.46134101168E+03  0.46134101168E+03  0.00000000000E+00 0. -1.
   -9000010    2    1    2    0  502 -0.63513696338E+02 -0.20713667837E+03  0.10790680354E+03  0.97726697825E+03  0.94681955799E+03 0.  0.
         13    1    3    3    0    0 -0.26637289389E+03 -0.43304468095E+03 -0.19861086234E+03  0.54582826979E+03  0.10566000000E+00 0. -1.
         -4    1    3    3    0  502  0.20285919755E+03  0.22590800258E+03  0.30651766588E+03  0.43143870846E+03  0.00000000000E+00 0. -1.
        -13    1    1    2    0    0  0.63513696338E+02  0.20713667837E+03  0.41349264778E+03  0.46681449644E+03  0.10566000000E+00 0.  1.
<mgrwt>
<rscale>  1 0.66750507E+03</rscale>
<asrwt>0</asrwt>
<pdfrwt beam="2">  1       21 0.70975540E-01 0.97129134E+03</pdfrwt>
<pdfrwt beam="1">  1       -4 0.15119084E+00 0.97129134E+03</pdfrwt>
<totfact> 0.20201967E+01</totfact>
</mgrwt>
</event>
<event>
 6    2  0.2220137E-005  0.9987162E+03  0.7818608E-02  0.9827543E-01
         -4   -1    0    0    0  501 -0.00000000000E+00  0.00000000000E+00  0.20732963744E+03  0.20732963744E+03  0.00000000000E+00 0. -1.
         21   -1    0    0  501  502  0.00000000000E+00 -0.00000000000E+00 -0.20830566167E+04  0.20830566167E+04  0.00000000000E+00 0. -1.
   -9000010    2    1    2    0  502  0.16499384179E+03  0.28419957413E+02 -0.18733566114E+04  0.21229458421E+04  0.98458285230E+03 0.  0.
         13    1    3    3    0    0 -0.86383375359E+02 -0.29096698090E+03 -0.12547982350E+03  0.32843426859E+03  0.10566000000E+00 0. -1.
         -4    1    3    3    0  502  0.25137721715E+03  0.31938693831E+03 -0.17478767879E+04  0.17945115735E+04  0.00000000000E+00 0. -1.
        -13    1    1    2    0    0 -0.16499384179E+03 -0.28419957413E+02 -0.23703679055E+01  0.16744041213E+03  0.10566000000E+00 0.  1.
<mgrwt>
<rscale>  1 0.63905136E+03</rscale>
<asrwt>0</asrwt>
<pdfrwt beam="2">  1       21 0.32047024E+00 0.99871620E+03</pdfrwt>
<pdfrwt beam="1">  1       -4 0.31896868E-01 0.99871620E+03</pdfrwt>
<totfact> 0.75910656E+00</totfact>
</mgrwt>
</event>
<event>
 6    2  0.2220137E-005  0.1000360E+04  0.7818608E-02  0.1007895E+00
         21   -1    0    0  501  502  0.00000000000E+00  0.00000000000E+00  0.13140403345E+04  0.13140403345E+04  0.00000000000E+00 0. -1.
         -4   -1    0    0    0  501 -0.00000000000E+00 -0.00000000000E+00 -0.28583835358E+03  0.28583835358E+03  0.00000000000E+00 0. -1.
   -9000010    2    1    2    0  502  0.73305293136E+02 -0.15132306255E+02  0.11064278692E+04  0.14916107174E+04  0.99755563739E+03 0.  0.
         13    1    3    3    0    0 -0.34858302938E+03 -0.24337097269E+03  0.84356348003E+03  0.94463692217E+03  0.10566000000E+00 0. -1.
         -4    1    3    3    0  502  0.42188832252E+03  0.22823866644E+03  0.26286438921E+03  0.54697379521E+03  0.00000000000E+00 0. -1.
        -13    1    1    2    0    0 -0.73305293136E+02  0.15132306255E+02 -0.78225888368E+02  0.10826797065E+03  0.10566000000E+00 0.  1.
<mgrwt>
<rscale>  1 0.52319854E+03</rscale>
<asrwt>0</asrwt>
<pdfrwt beam="1">  1       21 0.20216005E+00 0.10003599E+04</pdfrwt>
<pdfrwt beam="2">  1       -4 0.43975132E-01 0.10003599E+04</pdfrwt>
<totfact> 0.22531498E+01</totfact>
</mgrwt>
</event>
<event>
 6    2  0.2220137E-005  0.9256217E+03  0.7818608E-02  0.9802817E-01
         21   -1    0    0  501  502  0.00000000000E+00  0.00000000000E+00  0.19437343222E+04  0.19437343222E+04  0.00000000000E+00 0. -1.
         -4   -1    0    0    0  501 -0.00000000000E+00 -0.00000000000E+00 -0.17122399135E+03  0.17122399135E+03  0.00000000000E+00 0. -1.
   -9000010    2    1    2    0  502 -0.68579254555E+02  0.21747618597E+03  0.14086221566E+04  0.16855242439E+04  0.89709341276E+03 0.  0.
         13    1    3    3    0    0 -0.44311981997E+03  0.13213760154E+03  0.41914907538E+03  0.62410053609E+03  0.10566000000E+00 0. -1.
         -4    1    3    3    0  502  0.37454056542E+03  0.85338584429E+02  0.98947308118E+03  0.10614237078E+04  0.00000000000E+00 0. -1.
        -13    1    1    2    0    0  0.68579254555E+02 -0.21747618597E+03  0.36388817427E+03  0.42943406962E+03  0.10566000000E+00 0.  1.
<mgrwt>
<rscale>  1 0.65211562E+03</rscale>
<asrwt>0</asrwt>
<pdfrwt beam="1">  1       21 0.29903603E+00 0.92562174E+03</pdfrwt>
<pdfrwt beam="2">  1       -4 0.26342154E-01 0.92562174E+03</pdfrwt>
<totfact> 0.15168790E+01</totfact>
</mgrwt>
</event>
<event>
 6    2  0.2220137E-005  0.1016709E+04  0.7818608E-02  0.9754532E-01
         21   -1    0    0  501  502  0.00000000000E+00  0.00000000000E+00  0.33124230213E+03  0.33124230213E+03  0.00000000000E+00 0. -1.
         -4   -1    0    0    0  501 -0.00000000000E+00 -0.00000000000E+00 -0.14026495814E+04  0.14026495814E+04  0.00000000000E+00 0. -1.
   -9000010    2    1    2    0  502 -0.43848567607E+02 -0.19696089320E+03 -0.11335991382E+04  0.15227423422E+04  0.99648429201E+03 0.  0.
         13    1    3    3    0    0 -0.44711581106E+02 -0.44577303137E+03 -0.99228710547E+02  0.45886715849E+03  0.10566000000E+00 0. -1.
         -4    1    3    3    0  502  0.86301349861E+00  0.24881213816E+03 -0.10343704276E+04  0.10638751837E+04  0.00000000000E+00 0. -1.
        -13    1    1    2    0    0  0.43848567607E+02  0.19696089320E+03  0.62191858917E+02  0.21114954135E+03  0.10566000000E+00 0.  1.
<mgrwt>
<rscale>  1 0.67860742E+03</rscale>
<asrwt>0</asrwt>
<pdfrwt beam="1">  1       21 0.50960356E-01 0.10167090E+04</pdfrwt>
<pdfrwt beam="2">  1       -4 0.21579224E+00 0.10167090E+04</pdfrwt>
<totfact> 0.14947354E+01</totfact>
</mgrwt>
</event>
<event>
 6    2  0.2220137E-005  0.1057173E+04  0.7818608E-02  0.9529089E-01
         21   -1    0    0  501  502  0.00000000000E+00  0.00000000000E+00  0.99571030651E+03  0.99571030651E+03  0.00000000000E+00 0. -1.
         -4   -1    0    0    0  501 -0.00000000000E+00 -0.00000000000E+00 -0.12703288649E+04  0.12703288649E+04  0.00000000000E+00 0. -1.
   -9000010    2    1    2    0  502  0.10215004649E+03 -0.37213298396E+03  0.66591087419E+03  0.12494206518E+04  0.98422410200E+03 0.  0.
         13    1    3    3    0    0  0.48598700160E+03 -0.45320898516E+03  0.43420465857E+03  0.79379811454E+03  0.10566000000E+00 0. -1.
         -4    1    3    3    0  502 -0.38383695511E+03  0.81076001204E+02  0.23170621562E+03  0.45562253723E+03  0.00000000000E+00 0. -1.
        -13    1    1    2    0    0 -0.10215004649E+03  0.37213298396E+03 -0.94052943254E+03  0.10166185196E+04  0.10566000000E+00 0.  1.
<mgrwt>
<rscale>  1 0.82172744E+03</rscale>
<asrwt>0</asrwt>
<pdfrwt beam="1">  1       21 0.15318620E+00 0.10571730E+04</pdfrwt>
<pdfrwt beam="2">  1       -4 0.19543521E+00 0.10571730E+04</pdfrwt>
<totfact> 0.13886539E+00</totfact>
</mgrwt>
</event>
<event>
 6    2  0.2220137E-005  0.1131706E+04  0.7818608E-02  0.9379685E-01
         21   -1    0    0  501  502  0.00000000000E+00  0.00000000000E+00  0.34756481038E+03  0.34756481038E+03  0.00000000000E+00 0.  1.
         -4   -1    0    0    0  501 -0.00000000000E+00 -0.00000000000E+00 -0.19948367956E+04  0.19948367956E+04  0.00000000000E+00 0. -1.
   -9000010    2    1    2    0  502  0.37469341575E+03  0.37952294922E+03 -0.11404794422E+04  0.16066900337E+04  0.99816165095E+03 0.  0.
         13    1    3    3    0    0  0.52076997248E+03  0.19548505728E+02 -0.10986212431E+04  0.12159573000E+04  0.10566000000E+00 0. -1.
         -4    1    3    3    0  502 -0.14607655673E+03  0.35997444349E+03 -0.41858199125E+02  0.39073273375E+03  0.00000000000E+00 0. -1.
        -13    1    1    2    0    0 -0.37469341575E+03 -0.37952294922E+03 -0.50679254298E+03  0.73571157227E+03  0.10566000000E+00 0.  1.
<mgrwt>
<rscale>  1 0.93766535E+03</rscale>
<asrwt>0</asrwt>
<pdfrwt beam="1">  1       21 0.53471510E-01 0.11317065E+04</pdfrwt>
<pdfrwt beam="2">  1       -4 0.30689796E+00 0.11317065E+04</pdfrwt>
<totfact> 0.35964693E+00</totfact>
</mgrwt>
</event>
<event>
 6    2  0.2220137E-005  0.1053656E+04  0.7818608E-02  0.9492350E-01
         -4   -1    0    0    0  501 -0.00000000000E+00  0.00000000000E+00  0.15611674355E+04  0.15611674355E+04  0.00000000000E+00 0. -1.
         21   -1    0    0  501  502  0.00000000000E+00 -0.00000000000E+00 -0.36319854539E+03  0.36319854539E+03  0.00000000000E+00 0. -1.
   -9000010    2    1    2    0  502  0.43667216412E+03  0.75270954516E+02  0.93760098312E+03  0.14104206981E+04  0.95595117380E+03 0.  0.
         13    1    3    3    0    0  0.46214253004E+02 -0.40139991045E+03  0.55003354772E+03  0.68249143590E+03  0.10566000000E+00 0. -1.
         -4    1    3    3    0  502  0.39045791111E+03  0.47667086496E+03  0.38756743540E+03  0.72792926225E+03  0.00000000000E+00 0. -1.
        -13    1    1    2    0    0 -0.43667216412E+03 -0.75270954516E+02  0.26036790700E+03  0.51394528275E+03  0.10566000000E+00 0.  1.
<mgrwt>
<rscale>  1 0.84850143E+03</rscale>
<asrwt>0</asrwt>
<pdfrwt beam="2">  1       21 0.55876700E-01 0.10536560E+04</pdfrwt>
<pdfrwt beam="1">  1       -4 0.24017960E+00 0.10536560E+04</pdfrwt>
<totfact> 0.85336975E+00</totfact>
</mgrwt>
</event>
<event>
 6    2  0.2220137E-005  0.1269844E+04  0.7818608E-02  0.9168278E-01
         -4   -1    0    0    0  501 -0.00000000000E+00  0.00000000000E+00  0.10279522060E+04  0.10279522060E+04  0.00000000000E+00 0. -1.
         21   -1    0    0  501  502  0.00000000000E+00 -0.00000000000E+00 -0.11397463124E+04  0.11397463124E+04  0.00000000000E+00 0.  1.
   -9000010    2    1    2    0  502 -0.71827780812E+03  0.39777056942E+03  0.20759842360E+03  0.12867013363E+04  0.96868921120E+03 0.  0.
         13    1    3    3    0    0 -0.33852516522E+03 -0.24233227172E+03  0.33150489661E+03  0.53218392031E+03  0.10566000000E+00 0. -1.
         -4    1    3    3    0  502 -0.37975264290E+03  0.64010284113E+03 -0.12390647301E+03  0.75451741601E+03  0.00000000000E+00 0. -1.
        -13    1    1    2    0    0  0.71827780812E+03 -0.39777056942E+03 -0.31939252997E+03  0.88099718211E+03  0.10566000000E+00 0.  1.
<mgrwt>
<rscale>  1 0.11386936E+04</rscale>
<asrwt>0</asrwt>
<pdfrwt beam="2">  1       21 0.17534559E+00 0.12698438E+04</pdfrwt>
<pdfrwt beam="1">  1       -4 0.15814649E+00 0.12698438E+04</pdfrwt>
<totfact> 0.16745705E+00</totfact>
</mgrwt>
</event>
<event>
 6    2  0.2220137E-005  0.1002985E+04  0.7818608E-02  0.1016859E+00
         -4   -1    0    0    0  501 -0.00000000000E+00  0.00000000000E+00  0.74297031104E+03  0.74297031104E+03  0.00000000000E+00 0. -1.
         21   -1    0    0  501  502  0.00000000000E+00 -0.00000000000E+00 -0.60843130129E+03  0.60843130129E+03  0.00000000000E+00 0. -1.
   -9000010    2    1    2    0  502  0.55202120307E+02 -0.11462516336E+02 -0.19100593308E+03  0.10210106555E+04  0.10013994352E+04 0.  0.
         13    1    3    3    0    0  0.10913074623E+03 -0.42118096041E+03  0.17501472305E+03  0.46897023960E+03  0.10566000000E+00 0. -1.
         -4    1    3    3    0  502 -0.53928625923E+02  0.40971844407E+03 -0.36602065613E+03  0.55204041593E+03  0.00000000000E+00 0. -1.
        -13    1    1    2    0    0 -0.55202120307E+02  0.11462516336E+02  0.32554494282E+03  0.33039095679E+03  0.10566000000E+00 0.  1.
<mgrwt>
<rscale>  1 0.48837304E+03</rscale>
<asrwt>0</asrwt>
<pdfrwt beam="2">  1       21 0.93604816E-01 0.10029853E+04</pdfrwt>
<pdfrwt beam="1">  1       -4 0.11430312E+00 0.10029853E+04</pdfrwt>
<totfact> 0.21553676E+01</totfact>
</mgrwt>
</event>
<event>
 6    2  0.2220137E-005  0.1051391E+04  0.7818608E-02  0.9600964E-01
         21   -1    0    0  501  502  0.00000000000E+00  0.00000000000E+00  0.39326385160E+03  0.39326385160E+03  0.00000000000E+00 0. -1.
         -4   -1    0    0    0  501 -0.00000000000E+00 -0.00000000000E+00 -0.12322256063E+04  0.12322256063E+04  0.00000000000E+00 0. -1.
   -9000010    2    1    2    0  502  0.28933600498E+03 -0.99998228786E+02 -0.48604841725E+03  0.11583034088E+04  0.10058373395E+04 0.  0.
         13    1    3    3    0    0  0.50906881457E+03 -0.42182275544E+03 -0.28710109750E+03  0.72077218754E+03  0.10566000000E+00 0. -1.
         -4    1    3    3    0  502 -0.21973280959E+03  0.32182452666E+03 -0.19894731975E+03  0.43753122129E+03  0.00000000000E+00 0. -1.
        -13    1    1    2    0    0 -0.28933600498E+03  0.99998228786E+02 -0.35291333749E+03  0.46718604911E+03  0.10566000000E+00 0.  1.
<mgrwt>
<rscale>  1 0.77232380E+03</rscale>
<asrwt>0</asrwt>
<pdfrwt beam="1">  1       21 0.60502131E-01 0.10513913E+04</pdfrwt>
<pdfrwt beam="2">  1       -4 0.18957317E+00 0.10513913E+04</pdfrwt>
<totfact> 0.15200962E+01</totfact>
</mgrwt>
</event>
<event>
 6    2  0.2220137E-005  0.1021410E+04  0.7818608E-02  0.9838427E-01
         -4   -1    0    0    0  501 -0.00000000000E+00  0.00000000000E+00  0.17751872118E+04  0.17751872118E+04  0.00000000000E+00 0. -1.
         21   -1    0    0  501  502  0.00000000000E+00 -0.00000000000E+00 -0.25621005434E+03  0.25621005434E+03  0.00000000000E+00 0. -1.
   -9000010    2    1    2    0  502 -0.13587413004E+03  0.65991310580E+02  0.80190344242E+03  0.12985866793E+04  0.10101789942E+04 0.  0.
         13    1    3    3    0    0 -0.44200678258E+03  0.34223639043E+02  0.87619847437E+03  0.98196997458E+03  0.10566000000E+00 0. -1.
         -4    1    3    3    0  502  0.30613265254E+03  0.31767671537E+02 -0.74295031954E+02  0.31661670467E+03  0.00000000000E+00 0. -1.
        -13    1    1    2    0    0  0.13587413004E+03 -0.65991310580E+02  0.71707371506E+03  0.73281058690E+03  0.10566000000E+00 0.  1.
<mgrwt>
<rscale>  1 0.63340505E+03</rscale>
<asrwt>0</asrwt>
<pdfrwt beam="2">  1       21 0.39416933E-01 0.10214099E+04</pdfrwt>
<pdfrwt beam="1">  1       -4 0.27310572E+00 0.10214099E+04</pdfrwt>
<totfact> 0.11329215E+01</totfact>
</mgrwt>
</event>
<event>
 6    2  0.2220137E-005  0.1220099E+04  0.7818608E-02  0.9275526E-01
         21   -1    0    0  501  502  0.00000000000E+00  0.00000000000E+00  0.94316324761E+03  0.94316324761E+03  0.00000000000E+00 0. -1.
         -4   -1    0    0    0  501 -0.00000000000E+00 -0.00000000000E+00 -0.10356833206E+04  0.10356833206E+04  0.00000000000E+00 0. -1.
   -9000010    2    1    2    0  502  0.93852525277E+02 -0.61417224830E+03  0.28352173583E+03  0.12526074201E+04  0.10500594874E+04 0.  0.
         13    1    3    3    0    0 -0.16902551038E+03 -0.64817356410E+03 -0.20182601095E+03  0.69959441265E+03  0.10566000000E+00 0. -1.
         -4    1    3    3    0  502  0.26287803566E+03  0.34001315802E+02  0.48534774677E+03  0.55301300745E+03  0.00000000000E+00 0. -1.
        -13    1    1    2    0    0 -0.93852525277E+02  0.61417224830E+03 -0.37604180878E+03  0.72623914807E+03  0.10566000000E+00 0.  1.
<mgrwt>
<rscale>  1 0.10306753E+04</rscale>
<asrwt>0</asrwt>
<pdfrwt beam="1">  1       21 0.14510204E+00 0.12200987E+04</pdfrwt>
<pdfrwt beam="2">  1       -4 0.15933590E+00 0.12200987E+04</pdfrwt>
<totfact> 0.28446036E+00</totfact>
</mgrwt>
</event>
<event>
 6    2  0.2220137E-005  0.9815522E+03  0.7818608E-02  0.9860731E-01
         21   -1    0    0  501  502  0.00000000000E+00  0.00000000000E+00  0.92943176146E+03  0.92943176146E+03  0.00000000000E+00 0. -1.
         -4   -1    0    0    0  501 -0.00000000000E+00 -0.00000000000E+00 -0.74661147594E+03  0.74661147594E+03  0.00000000000E+00 0. -1.
   -9000010    2    1    2    0  502 -0.95291043335E+02  0.12641381647E+03  0.65367114059E+03  0.11792924198E+04  0.96870212932E+03 0.  0.
         13    1    3    3    0    0 -0.19601631413E+03  0.44371741064E+03  0.47094451390E+02  0.48736581171E+03  0.10566000000E+00 0. -1.
         -4    1    3    3    0  502  0.10072527079E+03 -0.31730359417E+03  0.60657668920E+03  0.69192660806E+03  0.00000000000E+00 0. -1.
        -13    1    1    2    0    0  0.95291043335E+02 -0.12641381647E+03 -0.47085085507E+03  0.49675081763E+03  0.10566000000E+00 0.  1.
<mgrwt>
<rscale>  1 0.62202739E+03</rscale>
<asrwt>0</asrwt>
<pdfrwt beam="1">  1       21 0.14298950E+00 0.98155216E+03</pdfrwt>
<pdfrwt beam="2">  1       -4 0.11486330E+00 0.98155216E+03</pdfrwt>
<totfact> 0.71672152E+00</totfact>
</mgrwt>
</event>
<event>
 6    2  0.2220137E-005  0.9371186E+03  0.7818608E-02  0.1041249E+00
         21   -1    0    0  501  502  0.00000000000E+00  0.00000000000E+00  0.78934341120E+03  0.78934341120E+03  0.00000000000E+00 0. -1.
         -4   -1    0    0    0  501 -0.00000000000E+00 -0.00000000000E+00 -0.47932179615E+03  0.47932179615E+03  0.00000000000E+00 0. -1.
   -9000010    2    1    2    0  502  0.23889938123E+02  0.23443070315E+02  0.50931538977E+03  0.10665802586E+04  0.93652067525E+03 0.  0.
         13    1    3    3    0    0  0.26742601858E+03  0.23901838165E+03 -0.10306581961E+03  0.37318766930E+03  0.10566000000E+00 0. -1.
         -4    1    3    3    0  502 -0.24353608046E+03 -0.21557531134E+03  0.61238120938E+03  0.69339258934E+03  0.00000000000E+00 0. -1.
        -13    1    1    2    0    0 -0.23889938123E+02 -0.23443070315E+02 -0.19929377473E+03  0.20208494872E+03  0.10566000000E+00 0.  1.
<mgrwt>
<rscale>  1 0.40739301E+03</rscale>
<asrwt>0</asrwt>
<pdfrwt beam="1">  1       21 0.12143745E+00 0.93711861E+03</pdfrwt>
<pdfrwt beam="2">  1       -4 0.73741815E-01 0.93711861E+03</pdfrwt>
<totfact> 0.31795383E+01</totfact>
</mgrwt>
</event>
<event>
 6    2  0.2220137E-005  0.1317930E+04  0.7818608E-02  0.9479793E-01
         21   -1    0    0  501  502  0.00000000000E+00  0.00000000000E+00  0.40206492607E+03  0.40206492607E+03  0.00000000000E+00 0. -1.
         -4   -1    0    0    0  501 -0.00000000000E+00 -0.00000000000E+00 -0.15127123376E+04  0.15127123376E+04  0.00000000000E+00 0. -1.
   -9000010    2    1    2    0  502 -0.15324255295E+03 -0.18030837929E+03 -0.99527877471E+03  0.16515201171E+04  0.12965124242E+04 0.  0.
         13    1    3    3    0    0 -0.51567925764E+03 -0.22196444430E+02  0.64691464262E+02  0.52019494001E+03  0.10566000000E+00 0. -1.
         -4    1    3    3    0  502  0.36243670468E+03 -0.15811193486E+03 -0.10599702390E+04  0.11313251771E+04  0.00000000000E+00 0. -1.
        -13    1    1    2    0    0  0.15324255295E+03  0.18030837929E+03 -0.11536863680E+03  0.26325714653E+03  0.10566000000E+00 0.  1.
<mgrwt>
<rscale>  1 0.85790131E+03</rscale>
<asrwt>0</asrwt>
<pdfrwt beam="1">  1       21 0.61856142E-01 0.13179298E+04</pdfrwt>
<pdfrwt beam="2">  1       -4 0.23272498E+00 0.13179298E+04</pdfrwt>
<totfact> 0.73712098E+00</totfact>
</mgrwt>
</event>
<event>
 6    2  0.2220137E-005  0.1018177E+04  0.7818608E-02  0.9884087E-01
         -4   -1    0    0    0  501 -0.00000000000E+00  0.00000000000E+00  0.26589118258E+03  0.26589118258E+03  0.00000000000E+00 0. -1.
         21   -1    0    0  501  502  0.00000000000E+00 -0.00000000000E+00 -0.16463985555E+04  0.16463985555E+04  0.00000000000E+00 0. -1.
   -9000010    2    1    2    0  502 -0.11545577216E+03  0.62962990149E+02 -0.14435116193E+04  0.17664682043E+04  0.10096483290E+04 0.  0.
         13    1    3    3    0    0  0.11125206895E+03  0.30037324756E+03 -0.37334322181E+02  0.32248251653E+03  0.10566000000E+00 0. -1.
         -4    1    3    3    0  502 -0.22670784111E+03 -0.23741025741E+03 -0.14061772972E+04  0.14439856878E+04  0.00000000000E+00 0. -1.
        -13    1    1    2    0    0  0.11545577216E+03 -0.62962990149E+02  0.63004246463E+02  0.14582153370E+03  0.10566000000E+00 0.  1.
<mgrwt>
<rscale>  1 0.61038740E+03</rscale>
<asrwt>0</asrwt>
<pdfrwt beam="2">  1       21 0.25329209E+00 0.10181769E+04</pdfrwt>
<pdfrwt beam="1">  1       -4 0.40906336E-01 0.10181769E+04</pdfrwt>
<totfact> 0.12063498E+01</totfact>
</mgrwt>
</event>
<event>
 6    2  0.2220137E-005  0.1118474E+04  0.7818608E-02  0.9415668E-01
         -4   -1    0    0    0  501 -0.00000000000E+00  0.00000000000E+00  0.80144108912E+03  0.80144108912E+03  0.00000000000E+00 0. -1.
         21   -1    0    0  501  502  0.00000000000E+00 -0.00000000000E+00 -0.80338804477E+03  0.80338804477E+03  0.00000000000E+00 0. -1.
   -9000010    2    1    2    0  502  0.25324395631E+03  0.41451599315E+03 -0.21528411613E+02  0.11186815693E+04  0.10074864619E+04 0.  0.
         13    1    3    3    0    0  0.54284230970E+03  0.42702870915E+03  0.23706865747E+03  0.73022794466E+03  0.10566000000E+00 0. -1.
         -4    1    3    3    0  502 -0.28959835339E+03 -0.12512716000E+02 -0.25859706908E+03  0.38845362463E+03  0.00000000000E+00 0. -1.
        -13    1    1    2    0    0 -0.25324395631E+03 -0.41451599315E+03  0.19581455965E+02  0.48614756460E+03  0.10566000000E+00 0.  1.
<mgrwt>
<rscale>  1 0.90797401E+03</rscale>
<asrwt>0</asrwt>
<pdfrwt beam="2">  1       21 0.12359816E+00 0.11184744E+04</pdfrwt>
<pdfrwt beam="1">  1       -4 0.12329863E+00 0.11184744E+04</pdfrwt>
<totfact> 0.87256776E+00</totfact>
</mgrwt>
</event>
<event>
 6    2  0.2220137E-005  0.1060336E+04  0.7818608E-02  0.9593650E-01
         21   -1    0    0  501  502  0.00000000000E+00  0.00000000000E+00  0.66803973095E+03  0.66803973095E+03  0.00000000000E+00 0. -1.
         -4   -1    0    0    0  501 -0.00000000000E+00 -0.00000000000E+00 -0.71045148723E+03  0.71045148723E+03  0.00000000000E+00 0. -1.
   -9000010    2    1    2    0  502  0.22374261190E+03  0.20878102119E+03  0.41581290739E+02  0.10611505270E+04  0.10152148373E+04 0.  0.
         13    1    3    3    0    0  0.56390888548E+02 -0.37686795452E+03 -0.16876391742E+03  0.41676211254E+03  0.10566000000E+00 0. -1.
         -4    1    3    3    0  502  0.16735172335E+03  0.58564897571E+03  0.21034520816E+03  0.64438841443E+03  0.00000000000E+00 0. -1.
        -13    1    1    2    0    0 -0.22374261190E+03 -0.20878102119E+03 -0.83993047020E+02  0.31734069121E+03  0.10566000000E+00 0.  1.
<mgrwt>
<rscale>  1 0.77717912E+03</rscale>
<asrwt>0</asrwt>
<pdfrwt beam="1">  1       21 0.10277534E+00 0.10603355E+04</pdfrwt>
<pdfrwt beam="2">  1       -4 0.10930023E+00 0.10603355E+04</pdfrwt>
<totfact> 0.19007675E+01</totfact>
</mgrwt>
</event>
<event>
 6    2  0.2220137E-005  0.1085191E+04  0.7818608E-02  0.9528645E-01
         21   -1    0    0  501  502  0.00000000000E+00  0.00000000000E+00  0.18034341856E+03  0.18034341856E+03  0.00000000000E+00 0. -1.
         -4   -1    0    0    0  501 -0.00000000000E+00 -0.00000000000E+00 -0.29631305895E+04  0.29631305895E+04  0.00000000000E+00 0. -1.
   -9000010    2    1    2    0  502 -0.29782011469E+03 -0.19744463163E+03 -0.18528982696E+04  0.21472940126E+04  0.10246747659E+04 0.  0.
         13    1    3    3    0    0  0.28584176610E+03 -0.15802622588E+03 -0.17542777883E+03  0.37074616662E+03  0.10566000000E+00 0. -1.
         -4    1    3    3    0  502 -0.58366188079E+03 -0.39418405743E+02 -0.16774704907E+04  0.17765478460E+04  0.00000000000E+00 0. -1.
        -13    1    1    2    0    0  0.29782011469E+03  0.19744463163E+03 -0.92988890136E+03  0.99617999544E+03  0.10566000000E+00 0.  1.
<mgrwt>
<rscale>  1 0.82204487E+03</rscale>
<asrwt>0</asrwt>
<pdfrwt beam="1">  1       21 0.27745144E-01 0.10851910E+04</pdfrwt>
<pdfrwt beam="2">  1       -4 0.45586620E+00 0.10851910E+04</pdfrwt>
<totfact> 0.13859897E+00</totfact>
</mgrwt>
</event>
<event>
 6    2  0.2220137E-005  0.1048535E+04  0.7818608E-02  0.9670579E-01
         21   -1    0    0  501  502  0.00000000000E+00  0.00000000000E+00  0.67590738423E+03  0.67590738423E+03  0.00000000000E+00 0. -1.
         -4   -1    0    0    0  501 -0.00000000000E+00 -0.00000000000E+00 -0.76426125709E+03  0.76426125709E+03  0.00000000000E+00 0. -1.
   -9000010    2    1    2    0  502 -0.78878759784E+02  0.23047610556E+03  0.19498272473E+03  0.10665100636E+04  0.10198452623E+04 0.  0.
         13    1    3    3    0    0  0.38000656200E+03  0.27147424472E+03 -0.15048183124E+03  0.49066082522E+03  0.10566000000E+00 0. -1.
         -4    1    3    3    0  502 -0.45888532178E+03 -0.40998139161E+02  0.34546455597E+03  0.57584923842E+03  0.00000000000E+00 0. -1.
        -13    1    1    2    0    0  0.78878759784E+02 -0.23047610556E+03 -0.28333659759E+03  0.37365857768E+03  0.10566000000E+00 0.  1.
<mgrwt>
<rscale>  1 0.72795850E+03</rscale>
<asrwt>0</asrwt>
<pdfrwt beam="1">  1       21 0.10398575E+00 0.10485349E+04</pdfrwt>
<pdfrwt beam="2">  1       -4 0.11757865E+00 0.10485349E+04</pdfrwt>
<totfact> 0.15423146E+01</totfact>
</mgrwt>
</event>
<event>
 6    2  0.2220137E-005  0.1010533E+04  0.7818608E-02  0.9955852E-01
         21   -1    0    0  501  502  0.00000000000E+00  0.00000000000E+00  0.43201610338E+03  0.43201610338E+03  0.00000000000E+00 0. -1.
         -4   -1    0    0    0  501 -0.00000000000E+00 -0.00000000000E+00 -0.96754671591E+03  0.96754671591E+03  0.00000000000E+00 0. -1.
   -9000010    2    1    2    0  502  0.67436504743E+02 -0.82926407261E+02 -0.17760891527E+03  0.10260224283E+04  0.10048644811E+04 0.  0.
         13    1    3    3    0    0  0.93565266199E+02 -0.26596658909E+03  0.36013876219E+03  0.45737580254E+03  0.10566000000E+00 0. -1.
         -4    1    3    3    0  502 -0.26128761457E+02  0.18304018183E+03 -0.53774767746E+03  0.56864662573E+03  0.00000000000E+00 0. -1.
        -13    1    1    2    0    0 -0.67436504743E+02  0.82926407261E+02 -0.35792169726E+03  0.37354039102E+03  0.10566000000E+00 0.  1.
<mgrwt>
<rscale>  1 0.57629183E+03</rscale>
<asrwt>0</asrwt>
<pdfrwt beam="1">  1       21 0.66464016E-01 0.10105331E+04</pdfrwt>
<pdfrwt beam="2">  1       -4 0.14885334E+00 0.10105331E+04</pdfrwt>
<totfact> 0.24378738E+01</totfact>
</mgrwt>
</event>
<event>
 6    2  0.2220137E-005  0.1089496E+04  0.7818608E-02  0.9468922E-01
         -4   -1    0    0    0  501 -0.00000000000E+00  0.00000000000E+00  0.42732875008E+03  0.42732875008E+03  0.00000000000E+00 0. -1.
         21   -1    0    0  501  502  0.00000000000E+00 -0.00000000000E+00 -0.13600116623E+04  0.13600116623E+04  0.00000000000E+00 0. -1.
   -9000010    2    1    2    0  502  0.36296170910E+03 -0.24010957404E+03 -0.66812053012E+03  0.12780398380E+04  0.99880277083E+03 0.  0.
         13    1    3    3    0    0  0.35587706840E+03  0.33466744210E+03 -0.44697744386E+03  0.66214774114E+03  0.10566000000E+00 0. -1.
         -4    1    3    3    0  502  0.70846407063E+01 -0.57477701614E+03 -0.22114308627E+03  0.61589209690E+03  0.00000000000E+00 0. -1.
        -13    1    1    2    0    0 -0.36296170910E+03  0.24010957404E+03 -0.26456238206E+03  0.50930057431E+03  0.10566000000E+00 0.  1.
<mgrwt>
<rscale>  1 0.86614350E+03</rscale>
<asrwt>0</asrwt>
<pdfrwt beam="2">  1       21 0.20923256E+00 0.10894957E+04</pdfrwt>
<pdfrwt beam="1">  1       -4 0.65742885E-01 0.10894957E+04</pdfrwt>
<totfact> 0.84367281E+00</totfact>
</mgrwt>
</event>
<event>
 6    2  0.2220137E-005  0.1136447E+04  0.7818608E-02  0.9379101E-01
         -4   -1    0    0    0  501 -0.00000000000E+00  0.00000000000E+00  0.14174806176E+04  0.14174806176E+04  0.00000000000E+00 0. -1.
         21   -1    0    0  501  502  0.00000000000E+00 -0.00000000000E+00 -0.62227539421E+03  0.62227539421E+03  0.00000000000E+00 0.  1.
   -9000010    2    1    2    0  502  0.25120128963E+03  0.46416895849E+03  0.64365960448E+02  0.11382678259E+04  0.10064570317E+04 0.  0.
         13    1    3    3    0    0  0.57428710803E+02  0.50127306766E+03  0.46851468015E+03  0.68853377685E+03  0.10566000000E+00 0. -1.
         -4    1    3    3    0  502  0.19377257883E+03 -0.37104109170E+02 -0.40414871970E+03  0.44973404903E+03  0.00000000000E+00 0. -1.
        -13    1    1    2    0    0 -0.25120128963E+03 -0.46416895849E+03  0.73083926291E+03  0.90148818590E+03  0.10566000000E+00 0.  1.
<mgrwt>
<rscale>  1 0.93815717E+03</rscale>
<asrwt>0</asrwt>
<pdfrwt beam="2">  1       21 0.95734676E-01 0.11364465E+04</pdfrwt>
<pdfrwt beam="1">  1       -4 0.21807394E+00 0.11364465E+04</pdfrwt>
<totfact> 0.33422505E+00</totfact>
</mgrwt>
</event>
<event>
 6    2  0.2220137E-005  0.1055543E+04  0.7818608E-02  0.9556798E-01
         -4   -1    0    0    0  501 -0.00000000000E+00  0.00000000000E+00  0.99288283405E+03  0.99288283405E+03  0.00000000000E+00 0. -1.
         21   -1    0    0  501  502  0.00000000000E+00 -0.00000000000E+00 -0.52504290438E+03  0.52504290438E+03  0.00000000000E+00 0. -1.
   -9000010    2    1    2    0  502  0.33296725037E+03  0.11472794958E+03  0.19728751213E+03  0.10738217934E+04  0.99505838483E+03 0.  0.
         13    1    3    3    0    0 -0.38291350012E+02 -0.73819708486E+02 -0.36488161547E+03  0.37423813450E+03  0.10566000000E+00 0. -1.
         -4    1    3    3    0  502  0.37125860038E+03  0.18854765806E+03  0.56216912760E+03  0.69958365885E+03  0.00000000000E+00 0. -1.
        -13    1    1    2    0    0 -0.33296725037E+03 -0.11472794958E+03  0.27055241754E+03  0.44410394508E+03  0.10566000000E+00 0.  1.
<mgrwt>
<rscale>  1 0.80222767E+03</rscale>
<asrwt>0</asrwt>
<pdfrwt beam="2">  1       21 0.80775832E-01 0.10555429E+04</pdfrwt>
<pdfrwt beam="1">  1       -4 0.15275121E+00 0.10555429E+04</pdfrwt>
<totfact> 0.14419928E+01</totfact>
</mgrwt>
</event>
<event>
 6    2  0.2220137E-005  0.1042639E+04  0.7818608E-02  0.9622284E-01
         21   -1    0    0  501  502  0.00000000000E+00  0.00000000000E+00  0.13066174743E+04  0.13066174743E+04  0.00000000000E+00 0. -1.
         -4   -1    0    0    0  501 -0.00000000000E+00 -0.00000000000E+00 -0.34715751377E+03  0.34715751377E+03  0.00000000000E+00 0. -1.
   -9000010    2    1    2    0  502  0.28038316504E+03 -0.81008580415E+02  0.65128915066E+03  0.12293384574E+04  0.10009587283E+04 0.  0.
         13    1    3    3    0    0 -0.43329199996E+02 -0.43707340343E+03  0.60257642530E+03  0.74566006937E+03  0.10566000000E+00 0. -1.
         -4    1    3    3    0  502  0.32371236503E+03  0.35606482301E+03  0.48712725360E+02  0.48367838806E+03  0.00000000000E+00 0. -1.
        -13    1    1    2    0    0 -0.28038316504E+03  0.81008580415E+02  0.30817080989E+03  0.42443653067E+03  0.10566000000E+00 0.  1.
<mgrwt>
<rscale>  1 0.75838687E+03</rscale>
<asrwt>0</asrwt>
<pdfrwt beam="1">  1       21 0.20101807E+00 0.10426387E+04</pdfrwt>
<pdfrwt beam="2">  1       -4 0.53408849E-01 0.10426387E+04</pdfrwt>
<totfact> 0.15169102E+01</totfact>
</mgrwt>
</event>
<event>
 6    2  0.2220137E-005  0.1016902E+04  0.7818608E-02  0.9794615E-01
         -4   -1    0    0    0  501 -0.00000000000E+00  0.00000000000E+00  0.18995389189E+04  0.18995389189E+04  0.00000000000E+00 0. -1.
         21   -1    0    0  501  502  0.00000000000E+00 -0.00000000000E+00 -0.28575400487E+03  0.28575400487E+03  0.00000000000E+00 0. -1.
   -9000010    2    1    2    0  502 -0.16668174400E+03  0.58563118212E+02  0.65325053285E+03  0.12086462368E+04  0.10014374790E+04 0.  0.
         13    1    3    3    0    0 -0.29409400477E+03 -0.38773047635E+03  0.11907214848E+03  0.50100338685E+03  0.10566000000E+00 0. -1.
         -4    1    3    3    0  502  0.12741226077E+03  0.44629359456E+03  0.53417838437E+03  0.70764284994E+03  0.00000000000E+00 0. -1.
        -13    1    1    2    0    0  0.16668174400E+03 -0.58563118212E+02  0.96053438120E+03  0.97664668700E+03  0.10566000000E+00 0.  1.
<mgrwt>
<rscale>  1 0.65652351E+03</rscale>
<asrwt>0</asrwt>
<pdfrwt beam="2">  1       21 0.43962156E-01 0.10169019E+04</pdfrwt>
<pdfrwt beam="1">  1       -4 0.29223675E+00 0.10169019E+04</pdfrwt>
<totfact> 0.68665517E+00</totfact>
</mgrwt>
</event>
<event>
 6    2  0.2220137E-005  0.1158276E+04  0.7818608E-02  0.9342312E-01
         21   -1    0    0  501  502  0.00000000000E+00  0.00000000000E+00  0.62193014354E+03  0.62193014354E+03  0.00000000000E+00 0.  1.
         -4   -1    0    0    0  501 -0.00000000000E+00 -0.00000000000E+00 -0.15519192906E+04  0.15519192906E+04  0.00000000000E+00 0. -1.
   -9000010    2    1    2    0  502  0.47144961416E+03 -0.31896764056E+03 -0.10816326097E+04  0.15847816577E+04  0.10087609755E+04 0.  0.
         13    1    3    3    0    0 -0.86827845132E+02 -0.26297133456E+03 -0.97512012398E+03  0.10136825267E+04  0.10566000000E+00 0. -1.
         -4    1    3    3    0  502  0.55827745930E+03 -0.55996305997E+02 -0.10651248570E+03  0.57109913102E+03  0.00000000000E+00 0. -1.
        -13    1    1    2    0    0 -0.47144961416E+03  0.31896764056E+03  0.15164346257E+03  0.58906777651E+03  0.10566000000E+00 0.  1.
<mgrwt>
<rscale>  1 0.96979098E+03</rscale>
<asrwt>0</asrwt>
<pdfrwt beam="1">  1       21 0.95681562E-01 0.11582762E+04</pdfrwt>
<pdfrwt beam="2">  1       -4 0.23875681E+00 0.11582762E+04</pdfrwt>
<totfact> 0.24683182E+00</totfact>
</mgrwt>
</event>
<event>
 6    2  0.2220137E-005  0.1312246E+04  0.7818608E-02  0.9123052E-01
         -4   -1    0    0    0  501 -0.00000000000E+00  0.00000000000E+00  0.25908339272E+04  0.25908339272E+04  0.00000000000E+00 0. -1.
         21   -1    0    0  501  502  0.00000000000E+00 -0.00000000000E+00 -0.95769573241E+03  0.95769573241E+03  0.00000000000E+00 0.  1.
   -9000010    2    1    2    0  502 -0.87879422289E+03 -0.83450234101E+02 -0.36670880790E+03  0.13625215917E+04  0.97095134286E+03 0.  0.
         13    1    3    3    0    0 -0.50806985165E+03  0.21956733580E+03 -0.61148236393E+03  0.82477601909E+03  0.10566000000E+00 0. -1.
         -4    1    3    3    0  502 -0.37072437125E+03 -0.30301756990E+03  0.24477355602E+03  0.53774557258E+03  0.00000000000E+00 0. -1.
        -13    1    1    2    0    0  0.87879422289E+03  0.83450234101E+02  0.19998470027E+04  0.21860080679E+04  0.10566000000E+00 0.  1.
<mgrwt>
<rscale>  1 0.11884217E+04</rscale>
<asrwt>0</asrwt>
<pdfrwt beam="2">  1       21 0.14733781E+00 0.13122461E+04</pdfrwt>
<pdfrwt beam="1">  1       -4 0.39858983E+00 0.13122461E+04</pdfrwt>
<totfact> 0.73944956E-02</totfact>
</mgrwt>
</event>
<event>
 6    2  0.2220137E-005  0.9876325E+03  0.7818608E-02  0.9644084E-01
         21   -1    0    0  501  502  0.00000000000E+00  0.00000000000E+00  0.30651893764E+04  0.30651893764E+04  0.00000000000E+00 0. -1.
         -4   -1    0    0    0  501 -0.00000000000E+00 -0.00000000000E+00 -0.17441824902E+03  0.17441824902E+03  0.00000000000E+00 0. -1.
   -9000010    2    1    2    0  502  0.31868553920E+03 -0.99916291452E+01  0.26830988646E+04  0.28590973293E+04  0.93475008204E+03 0.  0.
         13    1    3    3    0    0  0.22814178383E+03 -0.21696577971E+03  0.21631013727E+03  0.38198548368E+03  0.10566000000E+00 0. -1.
         -4    1    3    3    0  502  0.90543755372E+02  0.20697415056E+03  0.24667887273E+04  0.24771118456E+04  0.00000000000E+00 0. -1.
        -13    1    1    2    0    0 -0.31868553920E+03  0.99916291452E+01  0.20767226282E+03  0.38051029612E+03  0.10566000000E+00 0.  1.
<mgrwt>
<rscale>  1 0.74445847E+03</rscale>
<asrwt>0</asrwt>
<pdfrwt beam="1">  1       21 0.47156756E+00 0.98763253E+03</pdfrwt>
<pdfrwt beam="2">  1       -4 0.26833579E-01 0.98763253E+03</pdfrwt>
<totfact> 0.10865675E+00</totfact>
</mgrwt>
</event>
<event>
 6    2  0.2220137E-005  0.1047530E+04  0.7818608E-02  0.9662328E-01
         21   -1    0    0  501  502  0.00000000000E+00  0.00000000000E+00  0.33484504526E+03  0.33484504526E+03  0.00000000000E+00 0. -1.
         -4   -1    0    0    0  501 -0.00000000000E+00 -0.00000000000E+00 -0.12771200307E+04  0.12771200307E+04  0.00000000000E+00 0. -1.
   -9000010    2    1    2    0  502  0.19636669944E+03 -0.15666619239E+03 -0.68051982123E+03  0.12491704321E+04  0.10169637972E+04 0.  0.
         13    1    3    3    0    0  0.29784531791E+03 -0.53251980138E+03 -0.22588567202E+03  0.65062548386E+03  0.10566000000E+00 0. -1.
         -4    1    3    3    0  502 -0.10147861848E+03  0.37585360899E+03 -0.45463414921E+03  0.59854494821E+03  0.00000000000E+00 0. -1.
        -13    1    1    2    0    0 -0.19636669944E+03  0.15666619239E+03 -0.26175516424E+03  0.36279464392E+03  0.10566000000E+00 0.  1.
<mgrwt>
<rscale>  1 0.73304762E+03</rscale>
<asrwt>0</asrwt>
<pdfrwt beam="1">  1       21 0.51514623E-01 0.10475302E+04</pdfrwt>
<pdfrwt beam="2">  1       -4 0.19648000E+00 0.10475302E+04</pdfrwt>
<totfact> 0.19470050E+01</totfact>
</mgrwt>
</event>
<event>
 6    2  0.2220137E-005  0.1051287E+04  0.7818608E-02  0.9628655E-01
         21   -1    0    0  501  502  0.00000000000E+00  0.00000000000E+00  0.69110860279E+03  0.69110860279E+03  0.00000000000E+00 0.  1.
         -4   -1    0    0    0  501 -0.00000000000E+00 -0.00000000000E+00 -0.98001494846E+03  0.98001494846E+03  0.00000000000E+00 0. -1.
   -9000010    2    1    2    0  502 -0.22365276393E+03 -0.16611556954E+03 -0.63395729825E+03  0.12276428726E+04  0.10137012506E+04 0.  0.
         13    1    3    3    0    0 -0.46459396852E+03 -0.45093969991E+03 -0.25497708258E+03  0.69585019389E+03  0.10566000000E+00 0. -1.
         -4    1    3    3    0  502  0.24094120458E+03  0.28482413037E+03 -0.37898021567E+03  0.53179267875E+03  0.00000000000E+00 0. -1.
        -13    1    1    2    0    0  0.22365276393E+03  0.16611556954E+03  0.34505095257E+03  0.44348067860E+03  0.10566000000E+00 0.  1.
<mgrwt>
<rscale>  1 0.75428300E+03</rscale>
<asrwt>0</asrwt>
<pdfrwt beam="1">  1       21 0.10632440E+00 0.10512874E+04</pdfrwt>
<pdfrwt beam="2">  1       -4 0.15077153E+00 0.10512874E+04</pdfrwt>
<totfact> 0.76485984E+00</totfact>
</mgrwt>
</event>
<event>
 6    2  0.2220137E-005  0.1021284E+04  0.7818608E-02  0.9677171E-01
         -4   -1    0    0    0  501 -0.00000000000E+00  0.00000000000E+00  0.31586562237E+04  0.31586562237E+04  0.00000000000E+00 0. -1.
         21   -1    0    0  501  502  0.00000000000E+00 -0.00000000000E+00 -0.13913534933E+03  0.13913534933E+03  0.00000000000E+00 0. -1.
   -9000010    2    1    2    0  502 -0.21246389453E+03  0.14606531699E+03  0.19936103576E+04  0.22399785542E+04  0.98820325941E+03 0.  0.
         13    1    3    3    0    0  0.21258297801E+03  0.44480071196E+03  0.11175206205E+04  0.12214301226E+04  0.10566000000E+00 0. -1.
         -4    1    3    3    0  502 -0.42504687254E+03 -0.29873539498E+03  0.87608973714E+03  0.10185484316E+04  0.00000000000E+00 0. -1.
        -13    1    1    2    0    0  0.21246389453E+03 -0.14606531699E+03  0.10259105167E+04  0.10578130188E+04  0.10566000000E+00 0.  1.
<mgrwt>
<rscale>  1 0.72392422E+03</rscale>
<asrwt>0</asrwt>
<pdfrwt beam="2">  1       21 0.21405441E-01 0.10212843E+04</pdfrwt>
<pdfrwt beam="1">  1       -4 0.48594706E+00 0.10212843E+04</pdfrwt>
<totfact> 0.13715694E+00</totfact>
</mgrwt>
</event>
<event>
 6    2  0.2220137E-005  0.9296660E+03  0.7818608E-02  0.9742933E-01
         21   -1    0    0  501  502  0.00000000000E+00  0.00000000000E+00  0.13822293764E+03  0.13822293764E+03  0.00000000000E+00 0. -1.
         -4   -1    0    0    0  501 -0.00000000000E+00 -0.00000000000E+00 -0.26577234095E+04  0.26577234095E+04  0.00000000000E+00 0. -1.
   -9000010    2    1    2    0  502 -0.12660415223E+03  0.24332742897E+03 -0.20731102839E+04  0.22720178596E+04  0.88828039256E+03 0.  0.
         13    1    3    3    0    0  0.15260764215E+03  0.49086984466E+03 -0.85093753900E+03  0.99415139857E+03  0.10566000000E+00 0. -1.
         -4    1    3    3    0  502 -0.27921179437E+03 -0.24754241569E+03 -0.12221727449E+04  0.12778664610E+04  0.00000000000E+00 0. -1.
        -13    1    1    2    0    0  0.12660415223E+03 -0.24332742897E+03 -0.44639018793E+03  0.52392848758E+03  0.10566000000E+00 0.  1.
<mgrwt>
<rscale>  1 0.68517121E+03</rscale>
<asrwt>0</asrwt>
<pdfrwt beam="1">  1       21 0.21265070E-01 0.92966602E+03</pdfrwt>
<pdfrwt beam="2">  1       -4 0.40888047E+00 0.92966602E+03</pdfrwt>
<totfact> 0.52687443E+00</totfact>
</mgrwt>
</event>
<event>
 6    2  0.2220137E-005  0.1078603E+04  0.7818608E-02  0.9525140E-01
         -4   -1    0    0    0  501 -0.00000000000E+00  0.00000000000E+00  0.38649877251E+03  0.38649877251E+03  0.00000000000E+00 0. -1.
         21   -1    0    0  501  502  0.00000000000E+00 -0.00000000000E+00 -0.13926999506E+04  0.13926999506E+04  0.00000000000E+00 0. -1.
   -9000010    2    1    2    0  502  0.31366799019E+03  0.19316954128E+03 -0.87247954840E+03  0.13873013320E+04  0.10137466862E+04 0.  0.
         13    1    3    3    0    0  0.52356841692E+03 -0.83350743638E+02 -0.98781303853E+02  0.53928563009E+03  0.10566000000E+00 0. -1.
         -4    1    3    3    0  502 -0.20990042673E+03  0.27652028492E+03 -0.77369824455E+03  0.84801570194E+03  0.00000000000E+00 0. -1.
        -13    1    1    2    0    0 -0.31366799019E+03 -0.19316954128E+03 -0.13372162973E+03  0.39189739112E+03  0.10566000000E+00 0.  1.
<mgrwt>
<rscale>  1 0.82455482E+03</rscale>
<asrwt>0</asrwt>
<pdfrwt beam="2">  1       21 0.21426153E+00 0.10786030E+04</pdfrwt>
<pdfrwt beam="1">  1       -4 0.59461349E-01 0.10786030E+04</pdfrwt>
<totfact> 0.97437835E+00</totfact>
</mgrwt>
</event>
<event>
 6    2  0.2220137E-005  0.1025870E+04  0.7818608E-02  0.9753053E-01
         -4   -1    0    0    0  501 -0.00000000000E+00  0.00000000000E+00  0.35649753013E+03  0.35649753013E+03  0.00000000000E+00 0. -1.
         21   -1    0    0  501  502  0.00000000000E+00 -0.00000000000E+00 -0.10502194193E+04  0.10502194193E+04  0.00000000000E+00 0. -1.
   -9000010    2    1    2    0  502 -0.18035512716E+03 -0.80220020434E+02 -0.56671465189E+03  0.11719956827E+04  0.10067001341E+04 0.  0.
         13    1    3    3    0    0  0.39967516025E+03  0.11092434567E+03 -0.21374039798E+03  0.46661484447E+03  0.10566000000E+00 0. -1.
         -4    1    3    3    0  502 -0.58003028741E+03 -0.19114436610E+03 -0.35297425391E+03  0.70538083822E+03  0.00000000000E+00 0. -1.
        -13    1    1    2    0    0  0.18035512716E+03  0.80220020434E+02 -0.12700723723E+03  0.23472126670E+03  0.10566000000E+00 0.  1.
<mgrwt>
<rscale>  1 0.67943989E+03</rscale>
<asrwt>0</asrwt>
<pdfrwt beam="2">  1       21 0.16157221E+00 0.10258696E+04</pdfrwt>
<pdfrwt beam="1">  1       -4 0.54845775E-01 0.10258696E+04</pdfrwt>
<totfact> 0.27749143E+01</totfact>
</mgrwt>
</event>
<event>
 6    2  0.2220137E-005  0.1004863E+04  0.7818608E-02  0.9821938E-01
         -4   -1    0    0    0  501 -0.00000000000E+00  0.00000000000E+00  0.31212857762E+03  0.31212857762E+03  0.00000000000E+00 0. -1.
         21   -1    0    0  501  502  0.00000000000E+00 -0.00000000000E+00 -0.11238573371E+04  0.11238573371E+04  0.00000000000E+00 0. -1.
   -9000010    2    1    2    0  502  0.16462240735E+03 -0.30413040349E+02 -0.76274510096E+03  0.12615585659E+04  0.99082008267E+03 0.  0.
         13    1    3    3    0    0 -0.84530653858E+02  0.43514658686E+02  0.22284538810E+03  0.24227883755E+03  0.10566000000E+00 0. -1.
         -4    1    3    3    0  502  0.24915306120E+03 -0.73927699035E+02 -0.98559048906E+03  0.10192797284E+04  0.00000000000E+00 0. -1.
        -13    1    1    2    0    0 -0.16462240735E+03  0.30413040349E+02 -0.48983658477E+02  0.17442734873E+03  0.10566000000E+00 0.  1.
<mgrwt>
<rscale>  1 0.64198423E+03</rscale>
<asrwt>0</asrwt>
<pdfrwt beam="2">  1       21 0.17290113E+00 0.10048631E+04</pdfrwt>
<pdfrwt beam="1">  1       -4 0.48019781E-01 0.10048631E+04</pdfrwt>
<totfact> 0.30270579E+01</totfact>
</mgrwt>
</event>
<event>
 6    2  0.2220137E-005  0.1001854E+04  0.7818608E-02  0.9994496E-01
         21   -1    0    0  501  502  0.00000000000E+00  0.00000000000E+00  0.81423331689E+03  0.81423331689E+03  0.00000000000E+00 0. -1.
         -4   -1    0    0    0  501 -0.00000000000E+00 -0.00000000000E+00 -0.38990799763E+03  0.38990799763E+03  0.00000000000E+00 0. -1.
   -9000010    2    1    2    0  502 -0.77674393683E+02  0.58183066790E+02  0.29877708986E+03  0.10454562498E+04  0.99714213637E+03 0.  0.
         13    1    3    3    0    0 -0.14073484278E+03 -0.44029933263E+03  0.28453674926E+03  0.54279919964E+03  0.10566000000E+00 0. -1.
         -4    1    3    3    0  502  0.63060449097E+02  0.49848239942E+03  0.14240340594E+02  0.50265705016E+03  0.00000000000E+00 0. -1.
        -13    1    1    2    0    0  0.77674393683E+02 -0.58183066790E+02  0.12554822941E+03  0.15868506472E+03  0.10566000000E+00 0.  1.
<mgrwt>
<rscale>  1 0.55892246E+03</rscale>
<asrwt>0</asrwt>
<pdfrwt beam="1">  1       21 0.12526666E+00 0.10018538E+04</pdfrwt>
<pdfrwt beam="2">  1       -4 0.59985846E-01 0.10018538E+04</pdfrwt>
<totfact> 0.46047181E+01</totfact>
</mgrwt>
</event>
<event>
 6    2  0.2220137E-005  0.1074963E+04  0.7818608E-02  0.9511961E-01
         -4   -1    0    0    0  501 -0.00000000000E+00  0.00000000000E+00  0.12078258817E+04  0.12078258817E+04  0.00000000000E+00 0. -1.
         21   -1    0    0  501  502  0.00000000000E+00 -0.00000000000E+00 -0.52322200551E+03  0.52322200551E+03  0.00000000000E+00 0.  1.
   -9000010    2    1    2    0  502  0.35046174351E+03  0.17024083987E+03  0.17429198166E+03  0.10890014574E+04  0.10018688048E+04 0.  0.
         13    1    3    3    0    0  0.73913053921E+02  0.18817422031E+03  0.57063002364E+03  0.60538525896E+03  0.10566000000E+00 0. -1.
         -4    1    3    3    0  502  0.27654868959E+03 -0.17933380447E+02 -0.39633804197E+03  0.48361619841E+03  0.00000000000E+00 0. -1.
        -13    1    1    2    0    0 -0.35046174351E+03 -0.17024083987E+03  0.51031189455E+03  0.64204642987E+03  0.10566000000E+00 0.  1.
<mgrwt>
<rscale>  1 0.83407707E+03</rscale>
<asrwt>0</asrwt>
<pdfrwt beam="2">  1       21 0.80495694E-01 0.10749635E+04</pdfrwt>
<pdfrwt beam="1">  1       -4 0.18581937E+00 0.10749635E+04</pdfrwt>
<totfact> 0.83545387E+00</totfact>
</mgrwt>
</event>
<event>
 6    2  0.2220137E-005  0.1144887E+04  0.7818608E-02  0.9351033E-01
         21   -1    0    0  501  502  0.00000000000E+00  0.00000000000E+00  0.16775827089E+04  0.16775827089E+04  0.00000000000E+00 0.  1.
         -4   -1    0    0    0  501 -0.00000000000E+00 -0.00000000000E+00 -0.47925343871E+03  0.47925343871E+03  0.00000000000E+00 0. -1.
   -9000010    2    1    2    0  502  0.14863819704E+03  0.55143820306E+03  0.10793491130E+04  0.15734548877E+04  0.99226426446E+03 0.  0.
         13    1    3    3    0    0  0.41856390025E+03 -0.17876483125E+02  0.13873756758E+03  0.44132010045E+03  0.10566000000E+00 0. -1.
         -4    1    3    3    0  502 -0.26992570320E+03  0.56931468619E+03  0.94061154545E+03  0.11321347873E+04  0.00000000000E+00 0. -1.
        -13    1    1    2    0    0 -0.14863819704E+03 -0.55143820306E+03  0.11898015718E+03  0.58338125988E+03  0.10566000000E+00 0.  1.
<mgrwt>
<rscale>  1 0.96217406E+03</rscale>
<asrwt>0</asrwt>
<pdfrwt beam="1">  1       21 0.25808964E+00 0.11448868E+04</pdfrwt>
<pdfrwt beam="2">  1       -4 0.73731299E-01 0.11448868E+04</pdfrwt>
<totfact> 0.31102616E+00</totfact>
</mgrwt>
</event>
<event>
 6    2  0.2220137E-005  0.1064350E+04  0.7818608E-02  0.9530522E-01
         21   -1    0    0  501  502  0.00000000000E+00  0.00000000000E+00  0.35377548043E+03  0.35377548043E+03  0.00000000000E+00 0. -1.
         -4   -1    0    0    0  501 -0.00000000000E+00 -0.00000000000E+00 -0.14752335993E+04  0.14752335993E+04  0.00000000000E+00 0. -1.
   -9000010    2    1    2    0  502 -0.12119651654E+03 -0.35621207116E+03 -0.88853839804E+03  0.13864853597E+04  0.99562318810E+03 0.  0.
         13    1    3    3    0    0  0.87277561408E+02 -0.22553156909E+03  0.17265650390E+03  0.29713993485E+03  0.10566000000E+00 0. -1.
         -4    1    3    3    0  502 -0.20847407795E+03 -0.13068050207E+03 -0.10611949019E+04  0.10893454249E+04  0.00000000000E+00 0. -1.
        -13    1    1    2    0    0  0.12119651654E+03  0.35621207116E+03 -0.23291972086E+03  0.44252372003E+03  0.10566000000E+00 0.  1.
<mgrwt>
<rscale>  1 0.82070486E+03</rscale>
<asrwt>0</asrwt>
<pdfrwt beam="1">  1       21 0.54426997E-01 0.10643501E+04</pdfrwt>
<pdfrwt beam="2">  1       -4 0.22695902E+00 0.10643501E+04</pdfrwt>
<totfact> 0.10934269E+01</totfact>
</mgrwt>
</event>
<event>
 6    2  0.2220137E-005  0.1044565E+04  0.7818608E-02  0.1007357E+00
         21   -1    0    0  501  502  0.00000000000E+00  0.00000000000E+00  0.42694515724E+03  0.42694515724E+03  0.00000000000E+00 0. -1.
         -4   -1    0    0    0  501 -0.00000000000E+00 -0.00000000000E+00 -0.81813414411E+03  0.81813414411E+03  0.00000000000E+00 0. -1.
   -9000010    2    1    2    0  502 -0.37629117158E+02  0.55255924974E+02 -0.22860537349E+03  0.10692879187E+04  0.10424236512E+04 0.  0.
         13    1    3    3    0    0 -0.23139103867E+03  0.34254697674E+03  0.24645724375E+03  0.48127063926E+03  0.10566000000E+00 0. -1.
         -4    1    3    3    0  502  0.19376192151E+03 -0.28729105176E+03 -0.47506261724E+03  0.58801727947E+03  0.00000000000E+00 0. -1.
        -13    1    1    2    0    0  0.37629117158E+02 -0.55255924974E+02 -0.16258361338E+03  0.17579138263E+03  0.10566000000E+00 0.  1.
<mgrwt>
<rscale>  1 0.52538794E+03</rscale>
<asrwt>0</asrwt>
<pdfrwt beam="1">  1       21 0.65683870E-01 0.10445651E+04</pdfrwt>
<pdfrwt beam="2">  1       -4 0.12586679E+00 0.10445651E+04</pdfrwt>
<totfact> 0.38691301E+01</totfact>
</mgrwt>
</event>
<event>
 6    2  0.2220137E-005  0.1012883E+04  0.7818608E-02  0.9820042E-01
         -4   -1    0    0    0  501 -0.00000000000E+00  0.00000000000E+00  0.14145973189E+04  0.14145973189E+04  0.00000000000E+00 0. -1.
         21   -1    0    0  501  502  0.00000000000E+00 -0.00000000000E+00 -0.32433571697E+03  0.32433571697E+03  0.00000000000E+00 0. -1.
   -9000010    2    1    2    0  502 -0.61043333033E+02  0.15273191970E+03  0.50654238876E+03  0.11324831543E+04  0.99943963073E+03 0.  0.
         13    1    3    3    0    0  0.20360125864E+03  0.51036362830E+03  0.17177374773E+03  0.57570021468E+03  0.10566000000E+00 0. -1.
         -4    1    3    3    0  502 -0.26464459167E+03 -0.35763170859E+03  0.33476864103E+03  0.55678293967E+03  0.00000000000E+00 0. -1.
        -13    1    1    2    0    0  0.61043333033E+02 -0.15273191970E+03  0.58371921316E+03  0.60644988151E+03  0.10566000000E+00 0.  1.
<mgrwt>
<rscale>  1 0.64297964E+03</rscale>
<asrwt>0</asrwt>
<pdfrwt beam="2">  1       21 0.49897803E-01 0.10128835E+04</pdfrwt>
<pdfrwt beam="1">  1       -4 0.21763035E+00 0.10128835E+04</pdfrwt>
<totfact> 0.15232418E+01</totfact>
</mgrwt>
</event>
<event>
 6    2  0.2220137E-005  0.9939376E+03  0.7818608E-02  0.9868094E-01
         21   -1    0    0  501  502  0.00000000000E+00  0.00000000000E+00  0.62290000932E+03  0.62290000932E+03  0.00000000000E+00 0. -1.
         -4   -1    0    0    0  501 -0.00000000000E+00 -0.00000000000E+00 -0.11106772480E+04  0.11106772480E+04  0.00000000000E+00 0. -1.
   -9000010    2    1    2    0  502 -0.14874437170E+03  0.60481866168E+01  0.21355398444E+03  0.10166205192E+04  0.98272605903E+03 0.  0.
         13    1    3    3    0    0 -0.24511639846E+03 -0.32977596773E+03  0.43862560498E+03  0.60102135586E+03  0.10566000000E+00 0. -1.
         -4    1    3    3    0  502  0.96372026759E+02  0.33582415435E+03 -0.22507162054E+03  0.41559916333E+03  0.00000000000E+00 0. -1.
        -13    1    1    2    0    0  0.14874437170E+03 -0.60481866168E+01 -0.70133122310E+03  0.71695673812E+03  0.10566000000E+00 0.  1.
<mgrwt>
<rscale>  1 0.61832839E+03</rscale>
<asrwt>0</asrwt>
<pdfrwt beam="1">  1       21 0.95830770E-01 0.99393761E+03</pdfrwt>
<pdfrwt beam="2">  1       -4 0.17087342E+00 0.99393761E+03</pdfrwt>
<totfact> 0.70618880E+00</totfact>
</mgrwt>
</event>
<event>
 6    2  0.2220137E-005  0.9894907E+03  0.7818608E-02  0.9929887E-01
         21   -1    0    0  501  502  0.00000000000E+00  0.00000000000E+00  0.51792983803E+03  0.51792983803E+03  0.00000000000E+00 0. -1.
         -4   -1    0    0    0  501 -0.00000000000E+00 -0.00000000000E+00 -0.96732984273E+03  0.96732984273E+03  0.00000000000E+00 0. -1.
   -9000010    2    1    2    0  502  0.10647285345E+03 -0.62926012691E+02  0.30218149641E+02  0.98995196153E+03  0.98173091933E+03 0.  0.
         13    1    3    3    0    0 -0.14414463873E+03  0.12631373311E+03 -0.40803095288E+03  0.45080162569E+03  0.10566000000E+00 0. -1.
         -4    1    3    3    0  502  0.25061749218E+03 -0.18923974580E+03  0.43824910252E+03  0.53915033584E+03  0.00000000000E+00 0. -1.
        -13    1    1    2    0    0 -0.10647285345E+03  0.62926012691E+02 -0.47961815433E+03  0.49530771923E+03  0.10566000000E+00 0.  1.
<mgrwt>
<rscale>  1 0.58834435E+03</rscale>
<asrwt>0</asrwt>
<pdfrwt beam="1">  1       21 0.79681514E-01 0.98949065E+03</pdfrwt>
<pdfrwt beam="2">  1       -4 0.14881997E+00 0.98949065E+03</pdfrwt>
<totfact> 0.16080313E+01</totfact>
</mgrwt>
</event>
<event>
 6    2  0.2220137E-005  0.1014735E+04  0.7818608E-02  0.9739912E-01
         -4   -1    0    0    0  501 -0.00000000000E+00  0.00000000000E+00  0.31872741784E+03  0.31872741784E+03  0.00000000000E+00 0. -1.
         21   -1    0    0  501  502  0.00000000000E+00 -0.00000000000E+00 -0.11899423386E+04  0.11899423386E+04  0.00000000000E+00 0. -1.
   -9000010    2    1    2    0  502  0.19633756506E+03 -0.82739498823E+02 -0.76376860238E+03  0.12700508414E+04  0.99211511310E+03 0.  0.
         13    1    3    3    0    0  0.10766249422E+03 -0.23404706297E+03  0.17732766195E+03  0.31275285963E+03  0.10566000000E+00 0. -1.
         -4    1    3    3    0  502  0.88675070834E+02  0.15130756415E+03 -0.94109626433E+03  0.95729798177E+03  0.00000000000E+00 0. -1.
        -13    1    1    2    0    0 -0.19633756506E+03  0.82739498823E+02 -0.10744631839E+03  0.23861891505E+03  0.10566000000E+00 0.  1.
<mgrwt>
<rscale>  1 0.68689372E+03</rscale>
<asrwt>0</asrwt>
<pdfrwt beam="2">  1       21 0.18306805E+00 0.10147348E+04</pdfrwt>
<pdfrwt beam="1">  1       -4 0.49034988E-01 0.10147348E+04</pdfrwt>
<totfact> 0.24387384E+01</totfact>
</mgrwt>
</event>
<event>
 6    2  0.2220137E-005  0.1080747E+04  0.7818608E-02  0.9857838E-01
         -4   -1    0    0    0  501 -0.00000000000E+00  0.00000000000E+00  0.84762446495E+03  0.84762446495E+03  0.00000000000E+00 0. -1.
         21   -1    0    0  501  502  0.00000000000E+00 -0.00000000000E+00 -0.46914125911E+03  0.46914125911E+03  0.00000000000E+00 0. -1.
   -9000010    2    1    2    0  502  0.11929784025E+03  0.99662158795E+01  0.19578197498E+03  0.10983371292E+04  0.10740961630E+04 0.  0.
         13    1    3    3    0    0  0.21999003248E+03  0.11098368419E+03 -0.40871402406E+03  0.47724224161E+03  0.10566000000E+00 0. -1.
         -4    1    3    3    0  502 -0.10069219222E+03 -0.10101746831E+03  0.60449599904E+03  0.62109488755E+03  0.00000000000E+00 0. -1.
        -13    1    1    2    0    0 -0.11929784025E+03 -0.99662158795E+01  0.18270123087E+03  0.21842859491E+03  0.10566000000E+00 0.  1.
<mgrwt>
<rscale>  1 0.62348892E+03</rscale>
<asrwt>0</asrwt>
<pdfrwt beam="2">  1       21 0.72175578E-01 0.10807469E+04</pdfrwt>
<pdfrwt beam="1">  1       -4 0.13040376E+00 0.10807469E+04</pdfrwt>
<totfact> 0.28397311E+01</totfact>
</mgrwt>
</event>
<event>
 6    2  0.2220137E-005  0.1021862E+04  0.7818608E-02  0.9688272E-01
         -4   -1    0    0    0  501 -0.00000000000E+00  0.00000000000E+00  0.38448738164E+03  0.38448738164E+03  0.00000000000E+00 0. -1.
         21   -1    0    0  501  502  0.00000000000E+00 -0.00000000000E+00 -0.22557175458E+04  0.22557175458E+04  0.00000000000E+00 0. -1.
   -9000010    2    1    2    0  502 -0.24774530226E+03  0.10141218829E+02 -0.20790984529E+04  0.23166468712E+04  0.99132324195E+03 0.  0.
         13    1    3    3    0    0 -0.40399871617E+03 -0.20514396698E+03 -0.19825301385E+04  0.20336481434E+04  0.10566000000E+00 0. -1.
         -4    1    3    3    0  502  0.15625341391E+03  0.21528518581E+03 -0.96568314313E+02  0.28299872777E+03  0.00000000000E+00 0. -1.
        -13    1    1    2    0    0  0.24774530226E+03 -0.10141218829E+02  0.20786828874E+03  0.32355805621E+03  0.10566000000E+00 0.  1.
<mgrwt>
<rscale>  1 0.71719376E+03</rscale>
<asrwt>0</asrwt>
<pdfrwt beam="2">  1       21 0.34703346E+00 0.10218622E+04</pdfrwt>
<pdfrwt beam="1">  1       -4 0.59151906E-01 0.10218622E+04</pdfrwt>
<totfact> 0.14364141E+00</totfact>
</mgrwt>
</event>
<event>
 6    2  0.2220137E-005  0.1147637E+04  0.7818608E-02  0.9342069E-01
         21   -1    0    0  501  502  0.00000000000E+00  0.00000000000E+00  0.69729824826E+03  0.69729824826E+03  0.00000000000E+00 0.  1.
         -4   -1    0    0    0  501 -0.00000000000E+00 -0.00000000000E+00 -0.10864133722E+04  0.10864133722E+04  0.00000000000E+00 0. -1.
   -9000010    2    1    2    0  502 -0.34024240845E+03  0.47674980905E+03 -0.33487552012E+03  0.11954963344E+04  0.98692177741E+03 0.  0.
         13    1    3    3    0    0 -0.38465021447E+03  0.76387148832E+03 -0.27922619239E+03  0.89967922941E+03  0.10566000000E+00 0. -1.
         -4    1    3    3    0  502  0.44407806021E+02 -0.28712167927E+03 -0.55649327738E+02  0.29581710502E+03  0.00000000000E+00 0. -1.
        -13    1    1    2    0    0  0.34024240845E+03 -0.47674980905E+03 -0.54239603810E+02  0.58821528603E+03  0.10566000000E+00 0.  1.
<mgrwt>
<rscale>  1 0.97000478E+03</rscale>
<asrwt>0</asrwt>
<pdfrwt beam="1">  1       21 0.10727665E+00 0.11476366E+04</pdfrwt>
<pdfrwt beam="2">  1       -4 0.16714052E+00 0.11476366E+04</pdfrwt>
<totfact> 0.55721863E+00</totfact>
</mgrwt>
</event>
<event>
 6    2  0.2220137E-005  0.1041267E+04  0.7818608E-02  0.9610469E-01
         -4   -1    0    0    0  501 -0.00000000000E+00  0.00000000000E+00  0.51204040850E+03  0.51204040850E+03  0.00000000000E+00 0. -1.
         21   -1    0    0  501  502  0.00000000000E+00 -0.00000000000E+00 -0.88780181134E+03  0.88780181134E+03  0.00000000000E+00 0. -1.
   -9000010    2    1    2    0  502  0.25418758048E+03 -0.16867801898E+03 -0.25729922024E+03  0.10725855927E+04  0.99557690046E+03 0.  0.
         13    1    3    3    0    0  0.53954008419E+03 -0.20026308875E+03 -0.44680099700E+03  0.72858764006E+03  0.10566000000E+00 0. -1.
         -4    1    3    3    0  502 -0.28535250371E+03  0.31585069769E+02  0.18950177676E+03  0.34399795261E+03  0.00000000000E+00 0. -1.
        -13    1    1    2    0    0 -0.25418758048E+03  0.16867801898E+03 -0.11846218260E+03  0.32725662717E+03  0.10566000000E+00 0.  1.
<mgrwt>
<rscale>  1 0.76607117E+03</rscale>
<asrwt>0</asrwt>
<pdfrwt beam="2">  1       21 0.13658489E+00 0.10412670E+04</pdfrwt>
<pdfrwt beam="1">  1       -4 0.78775447E-01 0.10412670E+04</pdfrwt>
<totfact> 0.19828321E+01</totfact>
</mgrwt>
</event>
<event>
 6    2  0.2220137E-005  0.1023479E+04  0.7818608E-02  0.9632618E-01
         -4   -1    0    0    0  501 -0.00000000000E+00  0.00000000000E+00  0.17886370633E+03  0.17886370633E+03  0.00000000000E+00 0. -1.
         21   -1    0    0  501  502  0.00000000000E+00 -0.00000000000E+00 -0.30647366308E+04  0.30647366308E+04  0.00000000000E+00 0.  1.
   -9000010    2    1    2    0  502 -0.29783448756E+03  0.52562814005E+01 -0.14357819249E+04  0.17632297995E+04  0.97917137392E+03 0.  0.
         13    1    3    3    0    0  0.30989923415E+03  0.20950338941E+03 -0.64005562143E+03  0.74135039973E+03  0.10566000000E+00 0. -1.
         -4    1    3    3    0  502 -0.60773372171E+03 -0.20424710801E+03 -0.79572630350E+03  0.10218793998E+04  0.00000000000E+00 0. -1.
        -13    1    1    2    0    0  0.29783448756E+03 -0.52562814005E+01 -0.14500909995E+04  0.14803705376E+04  0.10566000000E+00 0.  1.
<mgrwt>
<rscale>  1 0.75174399E+03</rscale>
<asrwt>0</asrwt>
<pdfrwt beam="2">  1       21 0.47149794E+00 0.10234792E+04</pdfrwt>
<pdfrwt beam="1">  1       -4 0.27517493E-01 0.10234792E+04</pdfrwt>
<totfact> 0.10274794E+00</totfact>
</mgrwt>
</event>
<event>
 6    2  0.2220137E-005  0.8246306E+03  0.7818608E-02  0.1036179E+00
         21   -1    0    0  501  502  0.00000000000E+00  0.00000000000E+00  0.11970473449E+03  0.11970473449E+03  0.00000000000E+00 0. -1.
         -4   -1    0    0    0  501 -0.00000000000E+00 -0.00000000000E+00 -0.16231316721E+04  0.16231316721E+04  0.00000000000E+00 0. -1.
   -9000010    2    1    2    0  502 -0.56884236925E+02  0.27548496789E+01 -0.14062542125E+04  0.16302044605E+04  0.82266169676E+03 0.  0.
         13    1    3    3    0    0 -0.42249378587E+03  0.11269622472E+03 -0.65564378646E+03  0.78808008733E+03  0.10566000000E+00 0. -1.
         -4    1    3    3    0  502  0.36560954895E+03 -0.10994137504E+03 -0.75061042607E+03  0.84212437321E+03  0.00000000000E+00 0. -1.
        -13    1    1    2    0    0  0.56884236925E+02 -0.27548496789E+01 -0.97172725073E+02  0.11263194604E+03  0.10566000000E+00 0.  1.
<mgrwt>
<rscale>  1 0.42273669E+03</rscale>
<asrwt>0</asrwt>
<pdfrwt beam="1">  1       21 0.18416115E-01 0.82463063E+03</pdfrwt>
<pdfrwt beam="2">  1       -4 0.24971254E+00 0.82463063E+03</pdfrwt>
<totfact> 0.73528773E+01</totfact>
</mgrwt>
</event>
<event>
 6    2  0.2220137E-005  0.9822334E+03  0.7818608E-02  0.9984666E-01
         21   -1    0    0  501  502  0.00000000000E+00  0.00000000000E+00  0.16008665619E+03  0.16008665619E+03  0.00000000000E+00 0. -1.
         -4   -1    0    0    0  501 -0.00000000000E+00 -0.00000000000E+00 -0.18503209834E+04  0.18503209834E+04  0.00000000000E+00 0. -1.
   -9000010    2    1    2    0  502 -0.96780080999E+02  0.43798345704E+02 -0.15305733586E+04  0.18186361213E+04  0.97647214834E+03 0.  0.
         13    1    3    3    0    0  0.95599993619E+02 -0.32471839036E+03 -0.13836193658E+03  0.36568487592E+03  0.10566000000E+00 0. -1.
         -4    1    3    3    0  502 -0.19238007462E+03  0.36851673606E+03 -0.13922114220E+04  0.14529512454E+04  0.00000000000E+00 0. -1.
        -13    1    1    2    0    0  0.96780080999E+02 -0.43798345704E+02 -0.15966096861E+03  0.19177151829E+03  0.10566000000E+00 0.  1.
<mgrwt>
<rscale>  1 0.56327736E+03</rscale>
<asrwt>0</asrwt>
<pdfrwt beam="1">  1       21 0.24628716E-01 0.98223344E+03</pdfrwt>
<pdfrwt beam="2">  1       -4 0.28466478E+00 0.98223344E+03</pdfrwt>
<totfact> 0.25079830E+01</totfact>
</mgrwt>
</event>
<event>
 6    2  0.2220137E-005  0.1059925E+04  0.7818608E-02  0.9549288E-01
         21   -1    0    0  501  502  0.00000000000E+00  0.00000000000E+00  0.11670120872E+04  0.11670120872E+04  0.00000000000E+00 0. -1.
         -4   -1    0    0    0  501 -0.00000000000E+00 -0.00000000000E+00 -0.56266847330E+03  0.56266847330E+03  0.00000000000E+00 0. -1.
   -9000010    2    1    2    0  502 -0.18794429736E+03 -0.30350275879E+03  0.79503203098E+03  0.13249595861E+04  0.99800049650E+03 0.  0.
         13    1    3    3    0    0 -0.53360591016E+02 -0.15985818275E+02  0.96381485030E+03  0.96542321076E+03  0.10566000000E+00 0. -1.
         -4    1    3    3    0  502 -0.13458370635E+03 -0.28751694052E+03 -0.16878281931E+03  0.35953637534E+03  0.00000000000E+00 0. -1.
        -13    1    1    2    0    0  0.18794429736E+03  0.30350275879E+03 -0.19068841712E+03  0.40472097437E+03  0.10566000000E+00 0.  1.
<mgrwt>
<rscale>  1 0.80745519E+03</rscale>
<asrwt>0</asrwt>
<pdfrwt beam="1">  1       21 0.17954032E+00 0.10599255E+04</pdfrwt>
<pdfrwt beam="2">  1       -4 0.86564381E-01 0.10599255E+04</pdfrwt>
<totfact> 0.73073978E+00</totfact>
</mgrwt>
</event>
<event>
 6    2  0.2220137E-005  0.1033844E+04  0.7818608E-02  0.9642803E-01
         -4   -1    0    0    0  501 -0.00000000000E+00  0.00000000000E+00  0.68805857018E+03  0.68805857018E+03  0.00000000000E+00 0. -1.
         21   -1    0    0  501  502  0.00000000000E+00 -0.00000000000E+00 -0.64576706470E+03  0.64576706470E+03  0.00000000000E+00 0. -1.
   -9000010    2    1    2    0  502 -0.18815804529E+03  0.20624743963E+03  0.12811391873E+03  0.10417520925E+04  0.99543597972E+03 0.  0.
         13    1    3    3    0    0 -0.55796793716E+03 -0.64300742228E+02 -0.14543946705E+02  0.56184903835E+03  0.10566000000E+00 0. -1.
         -4    1    3    3    0  502  0.36980989186E+03  0.27054818186E+03  0.14265786544E+03  0.47990305417E+03  0.00000000000E+00 0. -1.
        -13    1    1    2    0    0  0.18815804529E+03 -0.20624743963E+03 -0.85822413259E+02  0.29207354236E+03  0.10566000000E+00 0.  1.
<mgrwt>
<rscale>  1 0.74526806E+03</rscale>
<asrwt>0</asrwt>
<pdfrwt beam="2">  1       21 0.99348779E-01 0.10338444E+04</pdfrwt>
<pdfrwt beam="1">  1       -4 0.10585516E+00 0.10338444E+04</pdfrwt>
<totfact> 0.22431425E+01</totfact>
</mgrwt>
</event>
<event>
 6    2  0.2220137E-005  0.1072822E+04  0.7818608E-02  0.9533296E-01
         21   -1    0    0  501  502  0.00000000000E+00  0.00000000000E+00  0.62763527284E+03  0.62763527284E+03  0.00000000000E+00 0. -1.
         -4   -1    0    0    0  501 -0.00000000000E+00 -0.00000000000E+00 -0.17948713324E+04  0.17948713324E+04  0.00000000000E+00 0. -1.
   -9000010    2    1    2    0  502 -0.32163858243E+03  0.17020513872E+03  0.12493587106E+03  0.10800724443E+04  0.10092206628E+04 0.  0.
         13    1    3    3    0    0  0.25871293641E+03  0.24563807120E+03 -0.20173643219E+03  0.40983904734E+03  0.10566000000E+00 0. -1.
         -4    1    3    3    0  502 -0.58035151884E+03 -0.75432932479E+02  0.32667230326E+03  0.67023339699E+03  0.00000000000E+00 0. -1.
        -13    1    1    2    0    0  0.32163858243E+03 -0.17020513872E+03 -0.12921719307E+04  0.13424341610E+04  0.10566000000E+00 0.  1.
<mgrwt>
<rscale>  1 0.81872962E+03</rscale>
<asrwt>0</asrwt>
<pdfrwt beam="1">  1       21 0.96559275E-01 0.10728222E+04</pdfrwt>
<pdfrwt beam="2">  1       -4 0.27613405E+00 0.10728222E+04</pdfrwt>
<totfact> 0.14329670E+00</totfact>
</mgrwt>
</event>
<event>
 6    2  0.2220137E-005  0.1182210E+04  0.7818608E-02  0.9292196E-01
         21   -1    0    0  501  502  0.00000000000E+00  0.00000000000E+00  0.69151020338E+03  0.69151020338E+03  0.00000000000E+00 0.  1.
         -4   -1    0    0    0  501 -0.00000000000E+00 -0.00000000000E+00 -0.16766997639E+04  0.16766997639E+04  0.00000000000E+00 0. -1.
   -9000010    2    1    2    0  502 -0.61160757762E+03 -0.19675820729E+03 -0.12060417850E+04  0.16888327985E+04  0.99239196539E+03 0.  0.
         13    1    3    3    0    0  0.25960569315E+03  0.62507885824E+02 -0.34989088282E+03  0.44014315030E+03  0.10566000000E+00 0. -1.
         -4    1    3    3    0  502 -0.87121327078E+03 -0.25926609312E+03 -0.85615090219E+03  0.12486896482E+04  0.00000000000E+00 0. -1.
        -13    1    1    2    0    0  0.61160757762E+03  0.19675820729E+03  0.22085222454E+03  0.67937716873E+03  0.10566000000E+00 0.  1.
<mgrwt>
<rscale>  1 0.10150453E+04</rscale>
<asrwt>0</asrwt>
<pdfrwt beam="1">  1       21 0.10638619E+00 0.11822096E+04</pdfrwt>
<pdfrwt beam="2">  1       -4 0.25795381E+00 0.11822096E+04</pdfrwt>
<totfact> 0.14341409E+00</totfact>
</mgrwt>
</event>
<event>
 6    2  0.2220137E-005  0.1008317E+04  0.7818608E-02  0.9899820E-01
         -4   -1    0    0    0  501 -0.00000000000E+00  0.00000000000E+00  0.57490192296E+03  0.57490192296E+03  0.00000000000E+00 0. -1.
         21   -1    0    0  501  502  0.00000000000E+00 -0.00000000000E+00 -0.69792448643E+03  0.69792448643E+03  0.00000000000E+00 0. -1.
   -9000010    2    1    2    0  502  0.11563400930E+03 -0.56526094687E+02 -0.30181995714E+03  0.10525199351E+04  0.10000682495E+04 0.  0.
         13    1    3    3    0    0  0.26510862091E+03 -0.33572075146E+03  0.18958875942E+03  0.46790481158E+03  0.10566000000E+00 0. -1.
         -4    1    3    3    0  502 -0.14947461162E+03  0.27919465677E+03 -0.49140871656E+03  0.58461512348E+03  0.00000000000E+00 0. -1.
        -13    1    1    2    0    0 -0.11563400930E+03  0.56526094687E+02  0.17879739367E+03  0.22030647433E+03  0.10566000000E+00 0.  1.
<mgrwt>
<rscale>  1 0.60270030E+03</rscale>
<asrwt>0</asrwt>
<pdfrwt beam="2">  1       21 0.10737300E+00 0.10083169E+04</pdfrwt>
<pdfrwt beam="1">  1       -4 0.88446450E-01 0.10083169E+04</pdfrwt>
<totfact> 0.28461747E+01</totfact>
</mgrwt>
</event>
<event>
 6    2  0.2220137E-005  0.1017122E+04  0.7818608E-02  0.9691230E-01
         -4   -1    0    0    0  501 -0.00000000000E+00  0.00000000000E+00  0.85852651618E+03  0.85852651618E+03  0.00000000000E+00 0. -1.
         21   -1    0    0  501  502  0.00000000000E+00 -0.00000000000E+00 -0.46717911006E+03  0.46717911006E+03  0.00000000000E+00 0. -1.
   -9000010    2    1    2    0  502  0.17325143543E+03  0.17877189003E+03  0.32990242837E+03  0.10692861554E+04  0.98618549038E+03 0.  0.
         13    1    3    3    0    0  0.52685555351E+03 -0.12732205874E+03  0.11265095013E+03  0.55360448756E+03  0.10566000000E+00 0. -1.
         -4    1    3    3    0  502 -0.35360411809E+03  0.30609394878E+03  0.21725147823E+03  0.51568166789E+03  0.00000000000E+00 0. -1.
        -13    1    1    2    0    0 -0.17325143543E+03 -0.17877189003E+03  0.61444977759E+02  0.25641947079E+03  0.10566000000E+00 0.  1.
<mgrwt>
<rscale>  1 0.71541382E+03</rscale>
<asrwt>0</asrwt>
<pdfrwt beam="2">  1       21 0.71873709E-01 0.10171221E+04</pdfrwt>
<pdfrwt beam="1">  1       -4 0.13208100E+00 0.10171221E+04</pdfrwt>
<totfact> 0.27898485E+01</totfact>
</mgrwt>
</event>
<event>
 6    2  0.2220137E-005  0.1074739E+04  0.7818608E-02  0.9529350E-01
         -4   -1    0    0    0  501 -0.00000000000E+00  0.00000000000E+00  0.30727941350E+03  0.30727941350E+03  0.00000000000E+00 0. -1.
         21   -1    0    0  501  502  0.00000000000E+00 -0.00000000000E+00 -0.18342845481E+04  0.18342845481E+04  0.00000000000E+00 0.  1.
   -9000010    2    1    2    0  502 -0.13403601875E+03  0.34159497558E+03 -0.13729779212E+04  0.17435976624E+04  0.10101542727E+04 0.  0.
         13    1    3    3    0    0 -0.39638041423E+03 -0.22071984955E+03 -0.55251062153E+03  0.71491445841E+03  0.10566000000E+00 0. -1.
         -4    1    3    3    0  502  0.26234439548E+03  0.56231482513E+03 -0.82046729962E+03  0.10286832040E+04  0.00000000000E+00 0. -1.
        -13    1    1    2    0    0  0.13403601875E+03 -0.34159497558E+03 -0.15402721345E+03  0.39796629921E+03  0.10566000000E+00 0.  1.
<mgrwt>
<rscale>  1 0.82154102E+03</rscale>
<asrwt>0</asrwt>
<pdfrwt beam="2">  1       21 0.28219763E+00 0.10747392E+04</pdfrwt>
<pdfrwt beam="1">  1       -4 0.47273755E-01 0.10747392E+04</pdfrwt>
<totfact> 0.58340157E+00</totfact>
</mgrwt>
</event>
<event>
 6    2  0.2220137E-005  0.1087739E+04  0.7818608E-02  0.9473860E-01
         -4   -1    0    0    0  501 -0.00000000000E+00  0.00000000000E+00  0.96257963312E+03  0.96257963312E+03  0.00000000000E+00 0. -1.
         21   -1    0    0  501  502  0.00000000000E+00 -0.00000000000E+00 -0.63247867036E+03  0.63247867036E+03  0.00000000000E+00 0. -1.
   -9000010    2    1    2    0  502 -0.24918680243E+03  0.35015386515E+03  0.64092388057E+02  0.10896254546E+04  0.99923671131E+03 0.  0.
         13    1    3    3    0    0  0.22138904724E+03  0.19761704768E+03  0.39530654143E+03  0.49430039514E+03  0.10566000000E+00 0. -1.
         -4    1    3    3    0  502 -0.47057584967E+03  0.15253681746E+03 -0.33121415338E+03  0.59532505942E+03  0.00000000000E+00 0. -1.
        -13    1    1    2    0    0  0.24918680243E+03 -0.35015386515E+03  0.26600857470E+03  0.50543284892E+03  0.10566000000E+00 0.  1.
<mgrwt>
<rscale>  1 0.86238734E+03</rscale>
<asrwt>0</asrwt>
<pdfrwt beam="2">  1       21 0.97304411E-01 0.10877388E+04</pdfrwt>
<pdfrwt beam="1">  1       -4 0.14808917E+00 0.10877388E+04</pdfrwt>
<totfact> 0.99740854E+00</totfact>
</mgrwt>
</event>
<event>
 6    2  0.2220137E-005  0.9070989E+03  0.7818608E-02  0.1026901E+00
         -4   -1    0    0    0  501 -0.00000000000E+00  0.00000000000E+00  0.59532082984E+03  0.59532082984E+03  0.00000000000E+00 0. -1.
         21   -1    0    0  501  502  0.00000000000E+00 -0.00000000000E+00 -0.40463288639E+03  0.40463288639E+03  0.00000000000E+00 0. -1.
   -9000010    2    1    2    0  502 -0.47543399167E+01 -0.56100146354E+02  0.12864917705E+03  0.91617633343E+03  0.90535000581E+03 0.  0.
         13    1    3    3    0    0 -0.79353756497E+02  0.24131289864E+03 -0.29748815711E+03  0.39118812418E+03  0.10566000000E+00 0. -1.
         -4    1    3    3    0  502  0.74599416581E+02 -0.29741304499E+03  0.42613733415E+03  0.52498820924E+03  0.00000000000E+00 0. -1.
        -13    1    1    2    0    0  0.47543399167E+01  0.56100146354E+02  0.62038766403E+02  0.83777382806E+02  0.10566000000E+00 0.  1.
<mgrwt>
<rscale>  1 0.45276274E+03</rscale>
<asrwt>0</asrwt>
<pdfrwt beam="2">  1       21 0.62251213E-01 0.90709893E+03</pdfrwt>
<pdfrwt beam="1">  1       -4 0.91587820E-01 0.90709893E+03</pdfrwt>
<totfact> 0.96167145E+01</totfact>
</mgrwt>
</event>
<event>
 6    2  0.2220137E-005  0.9985680E+03  0.7818608E-02  0.9795591E-01
         -4   -1    0    0    0  501 -0.00000000000E+00  0.00000000000E+00  0.41535595022E+03  0.41535595022E+03  0.00000000000E+00 0. -1.
         21   -1    0    0  501  502  0.00000000000E+00 -0.00000000000E+00 -0.86907214509E+03  0.86907214509E+03  0.00000000000E+00 0. -1.
   -9000010    2    1    2    0  502  0.17483917392E+03  0.63412976322E+02 -0.45755331570E+03  0.10984047716E+04  0.98109533851E+03 0.  0.
         13    1    3    3    0    0  0.52076961805E+02  0.48528096916E+03 -0.44247077687E+03  0.65877919558E+03  0.10566000000E+00 0. -1.
         -4    1    3    3    0  502  0.12276221212E+03 -0.42186799284E+03 -0.15082538826E+02  0.43962557601E+03  0.00000000000E+00 0. -1.
        -13    1    1    2    0    0 -0.17483917392E+03 -0.63412976322E+02  0.38371208324E+01  0.18602332371E+03  0.10566000000E+00 0.  1.
<mgrwt>
<rscale>  1 0.65599718E+03</rscale>
<asrwt>0</asrwt>
<pdfrwt beam="2">  1       21 0.13370340E+00 0.99856798E+03</pdfrwt>
<pdfrwt beam="1">  1       -4 0.63900917E-01 0.99856798E+03</pdfrwt>
<totfact> 0.33738876E+01</totfact>
</mgrwt>
</event>
<event>
 6    2  0.2220137E-005  0.1069288E+04  0.7818608E-02  0.9570049E-01
         -4   -1    0    0    0  501 -0.00000000000E+00  0.00000000000E+00  0.67897801236E+03  0.67897801236E+03  0.00000000000E+00 0. -1.
         21   -1    0    0  501  502  0.00000000000E+00 -0.00000000000E+00 -0.71439656879E+03  0.71439656879E+03  0.00000000000E+00 0.  1.
   -9000010    2    1    2    0  502  0.32360527323E+03 -0.34877537764E+01 -0.29609777694E+02  0.10696983689E+04  0.10191395019E+04 0.  0.
         13    1    3    3    0    0 -0.15968274432E+03 -0.61650783073E+02 -0.41494604864E+03  0.44886482635E+03  0.10566000000E+00 0. -1.
         -4    1    3    3    0  502  0.48328801754E+03  0.58163029297E+02  0.38533627095E+03  0.62083354258E+03  0.00000000000E+00 0. -1.
        -13    1    1    2    0    0 -0.32360527323E+03  0.34877537764E+01 -0.58087787295E+01  0.32367621223E+03  0.10566000000E+00 0.  1.
<mgrwt>
<rscale>  1 0.79310626E+03</rscale>
<asrwt>0</asrwt>
<pdfrwt beam="2">  1       21 0.10990716E+00 0.10692885E+04</pdfrwt>
<pdfrwt beam="1">  1       -4 0.10445816E+00 0.10692885E+04</pdfrwt>
<totfact> 0.17920105E+01</totfact>
</mgrwt>
</event>
<event>
 6    2  0.2220137E-005  0.1060510E+04  0.7818608E-02  0.9536431E-01
         -4   -1    0    0    0  501 -0.00000000000E+00  0.00000000000E+00  0.17086867122E+04  0.17086867122E+04  0.00000000000E+00 0. -1.
         21   -1    0    0  501  502  0.00000000000E+00 -0.00000000000E+00 -0.30333531894E+03  0.30333531894E+03  0.00000000000E+00 0.  1.
   -9000010    2    1    2    0  502  0.12874990307E+03  0.34969125208E+03  0.11220764510E+04  0.15439352727E+04  0.99288471389E+03 0.  0.
         13    1    3    3    0    0  0.25249075559E+02  0.57874995686E+03  0.24052458515E+03  0.62724884664E+03  0.10566000000E+00 0. -1.
         -4    1    3    3    0  502  0.10350082751E+03 -0.22905870478E+03  0.88155186589E+03  0.91668642610E+03  0.00000000000E+00 0. -1.
        -13    1    1    2    0    0 -0.12874990307E+03 -0.34969125208E+03  0.28327494217E+03  0.46808675836E+03  0.10566000000E+00 0.  1.
<mgrwt>
<rscale>  1 0.81650406E+03</rscale>
<asrwt>0</asrwt>
<pdfrwt beam="2">  1       21 0.46666973E-01 0.10605096E+04</pdfrwt>
<pdfrwt beam="1">  1       -4 0.26287487E+00 0.10605096E+04</pdfrwt>
<totfact> 0.91203698E+00</totfact>
</mgrwt>
</event>
<event>
 6    2  0.2220137E-005  0.1026016E+04  0.7818608E-02  0.9656671E-01
         -4   -1    0    0    0  501 -0.00000000000E+00  0.00000000000E+00  0.31821762257E+03  0.31821762257E+03  0.00000000000E+00 0. -1.
         21   -1    0    0  501  502  0.00000000000E+00 -0.00000000000E+00 -0.13286686010E+04  0.13286686010E+04  0.00000000000E+00 0. -1.
   -9000010    2    1    2    0  502 -0.26641631391E+03 -0.57285797512E+02 -0.83425078538E+03  0.13223776195E+04  0.98916574987E+03 0.  0.
         13    1    3    3    0    0  0.29855717851E+03  0.21613901976E+03 -0.16184889943E+03  0.40255129129E+03  0.10566000000E+00 0. -1.
         -4    1    3    3    0  502 -0.56497349243E+03 -0.27342481727E+03 -0.67240188595E+03  0.91982632821E+03  0.00000000000E+00 0. -1.
        -13    1    1    2    0    0  0.26641631391E+03  0.57285797512E+02 -0.17620019301E+03  0.32450860404E+03  0.10566000000E+00 0.  1.
<mgrwt>
<rscale>  1 0.73656211E+03</rscale>
<asrwt>0</asrwt>
<pdfrwt beam="2">  1       21 0.20441056E+00 0.10260157E+04</pdfrwt>
<pdfrwt beam="1">  1       -4 0.48956557E-01 0.10260157E+04</pdfrwt>
<totfact> 0.17329864E+01</totfact>
</mgrwt>
</event>
<event>
 6    2  0.2220137E-005  0.1019455E+04  0.7818608E-02  0.9688265E-01
         -4   -1    0    0    0  501 -0.00000000000E+00  0.00000000000E+00  0.37393701175E+03  0.37393701175E+03  0.00000000000E+00 0. -1.
         21   -1    0    0  501  502  0.00000000000E+00 -0.00000000000E+00 -0.10911960756E+04  0.10911960756E+04  0.00000000000E+00 0. -1.
   -9000010    2    1    2    0  502  0.12597533742E+03 -0.21561602831E+03 -0.64015813026E+03  0.12037815570E+04  0.98839645275E+03 0.  0.
         13    1    3    3    0    0  0.42465616410E+03 -0.14795596047E+03 -0.75328735517E+03  0.87730591846E+03  0.10566000000E+00 0. -1.
         -4    1    3    3    0  502 -0.29868082667E+03 -0.67660067840E+02  0.11312922491E+03  0.32647563849E+03  0.00000000000E+00 0. -1.
        -13    1    1    2    0    0 -0.12597533742E+03  0.21561602831E+03 -0.77100933557E+02  0.26135153036E+03  0.10566000000E+00 0.  1.
<mgrwt>
<rscale>  1 0.71719826E+03</rscale>
<asrwt>0</asrwt>
<pdfrwt beam="2">  1       21 0.16787632E+00 0.10194546E+04</pdfrwt>
<pdfrwt beam="1">  1       -4 0.57528771E-01 0.10194546E+04</pdfrwt>
<totfact> 0.22427432E+01</totfact>
</mgrwt>
</event>
<event>
 6    2  0.2220137E-005  0.1617832E+04  0.7818608E-02  0.8872968E-01
         21   -1    0    0  501  502  0.00000000000E+00  0.00000000000E+00  0.79334142800E+03  0.79334142800E+03  0.00000000000E+00 0.  1.
         -4   -1    0    0    0  501 -0.00000000000E+00 -0.00000000000E+00 -0.26429340218E+04  0.26429340218E+04  0.00000000000E+00 0. -1.
   -9000010    2    1    2    0  502 -0.12341940285E+04 -0.21020540808E+03 -0.12694525558E+04  0.20564262956E+04  0.10246746333E+04 0.  0.
         13    1    3    3    0    0 -0.11657189401E+04 -0.17533126651E+03 -0.14449682181E+04  0.18648256923E+04  0.10566000000E+00 0. -1.
         -4    1    3    3    0  502 -0.68475088349E+02 -0.34874141568E+02  0.17551566225E+03  0.19160060326E+03  0.00000000000E+00 0. -1.
        -13    1    1    2    0    0  0.12341940285E+04  0.21020540808E+03 -0.58014003801E+03  0.13798491542E+04  0.10566000000E+00 0.  1.
<mgrwt>
<rscale>  1 0.15173937E+04</rscale>
<asrwt>0</asrwt>
<pdfrwt beam="1">  1       21 0.12205253E+00 0.16178317E+04</pdfrwt>
<pdfrwt beam="2">  1       -4 0.40660523E+00 0.16178317E+04</pdfrwt>
<totfact> 0.10326006E-01</totfact>
</mgrwt>
</event>
<event>
 6    2  0.2220137E-005  0.9856769E+03  0.7818608E-02  0.1024699E+00
         21   -1    0    0  501  502  0.00000000000E+00  0.00000000000E+00  0.10078607462E+04  0.10078607462E+04  0.00000000000E+00 0. -1.
         -4   -1    0    0    0  501 -0.00000000000E+00 -0.00000000000E+00 -0.32402132347E+03  0.32402132347E+03  0.00000000000E+00 0. -1.
   -9000010    2    1    2    0  502  0.25025367970E+02 -0.39630705037E+02  0.75849424331E+03  0.12437332454E+04  0.98456183484E+03 0.  0.
         13    1    3    3    0    0 -0.33169349470E+03  0.90598577176E+02 -0.52882799264E+02  0.34788687563E+03  0.10566000000E+00 0. -1.
         -4    1    3    3    0  502  0.35671886267E+03 -0.13022928221E+03  0.81137704258E+03  0.89584636973E+03  0.00000000000E+00 0. -1.
        -13    1    1    2    0    0 -0.25025367970E+02  0.39630705037E+02 -0.74654820600E+02  0.88148824306E+02  0.10566000000E+00 0.  1.
<mgrwt>
<rscale>  1 0.46028470E+03</rscale>
<asrwt>0</asrwt>
<pdfrwt beam="1">  1       21 0.15505550E+00 0.98567686E+03</pdfrwt>
<pdfrwt beam="2">  1       -4 0.49849435E-01 0.98567686E+03</pdfrwt>
<totfact> 0.38395081E+01</totfact>
</mgrwt>
</event>
<event>
 6    2  0.2220137E-005  0.1426596E+04  0.7818608E-02  0.9018619E-01
         21   -1    0    0  501  502  0.00000000000E+00  0.00000000000E+00  0.66981229458E+03  0.66981229458E+03  0.00000000000E+00 0.  1.
         -4   -1    0    0    0  501 -0.00000000000E+00 -0.00000000000E+00 -0.22819104176E+04  0.22819104176E+04  0.00000000000E+00 0. -1.
   -9000010    2    1    2    0  502 -0.10240514623E+04  0.70147854428E+02 -0.11183063879E+04  0.18126738074E+04  0.99074468748E+03 0.  0.
         13    1    3    3    0    0 -0.30917487978E+03  0.34272244824E+03 -0.90901016322E+03  0.10194838257E+04  0.10566000000E+00 0. -1.
         -4    1    3    3    0  502 -0.71487658247E+03 -0.27257459381E+03 -0.20929622471E+03  0.79318998168E+03  0.00000000000E+00 0. -1.
        -13    1    1    2    0    0  0.10240514623E+04 -0.70147854428E+02 -0.49379173513E+03  0.11390489049E+04  0.10566000000E+00 0.  1.
<mgrwt>
<rscale>  1 0.13138944E+04</rscale>
<asrwt>0</asrwt>
<pdfrwt beam="1">  1       21 0.10304804E+00 0.14265964E+04</pdfrwt>
<pdfrwt beam="2">  1       -4 0.35106314E+00 0.14265964E+04</pdfrwt>
<totfact> 0.39019512E-01</totfact>
</mgrwt>
</event>
<event>
 6    2  0.2220137E-005  0.9877135E+03  0.7818608E-02  0.1009147E+00
         -4   -1    0    0    0  501 -0.00000000000E+00  0.00000000000E+00  0.38461733850E+03  0.38461733850E+03  0.00000000000E+00 0. -1.
         21   -1    0    0  501  502  0.00000000000E+00 -0.00000000000E+00 -0.86377179453E+03  0.86377179453E+03  0.00000000000E+00 0. -1.
   -9000010    2    1    2    0  502  0.74749992528E+02 -0.28964771698E+01 -0.56229107694E+03  0.11365514834E+04  0.98487667673E+03 0.  0.
         13    1    3    3    0    0  0.12921564582E+03 -0.23235116480E+03  0.20379583512E+03  0.33498731391E+03  0.10566000000E+00 0. -1.
         -4    1    3    3    0  502 -0.54465653289E+02  0.22945468763E+03 -0.76608691206E+03  0.80156416954E+03  0.00000000000E+00 0. -1.
        -13    1    1    2    0    0 -0.74749992528E+02  0.28964771698E+01  0.83136620907E+02  0.11183764958E+03  0.10566000000E+00 0.  1.
<mgrwt>
<rscale>  1 0.51815250E+03</rscale>
<asrwt>0</asrwt>
<pdfrwt beam="2">  1       21 0.13288797E+00 0.98771353E+03</pdfrwt>
<pdfrwt beam="1">  1       -4 0.59171899E-01 0.98771353E+03</pdfrwt>
<totfact> 0.40617227E+01</totfact>
</mgrwt>
</event>
<event>
 6    2  0.2220137E-005  0.1017624E+04  0.7818608E-02  0.9791823E-01
         -4   -1    0    0    0  501 -0.00000000000E+00  0.00000000000E+00  0.29573265719E+03  0.29573265719E+03  0.00000000000E+00 0. -1.
         21   -1    0    0  501  502  0.00000000000E+00 -0.00000000000E+00 -0.12332900867E+04  0.12332900867E+04  0.00000000000E+00 0. -1.
   -9000010    2    1    2    0  502 -0.17110868278E+03  0.48759927779E+02 -0.86959256982E+03  0.13385629182E+04  0.10019499672E+04 0.  0.
         13    1    3    3    0    0 -0.46657345757E+03 -0.29189892377E+03 -0.59541785424E+03  0.81081329868E+03  0.10566000000E+00 0. -1.
         -4    1    3    3    0  502  0.29546477479E+03  0.34065885155E+03 -0.27417471558E+03  0.52774961956E+03  0.00000000000E+00 0. -1.
        -13    1    1    2    0    0  0.17110868278E+03 -0.48759927779E+02 -0.67964859726E+02  0.19045982569E+03  0.10566000000E+00 0.  1.
<mgrwt>
<rscale>  1 0.65803223E+03</rscale>
<asrwt>0</asrwt>
<pdfrwt beam="2">  1       21 0.18973694E+00 0.10176244E+04</pdfrwt>
<pdfrwt beam="1">  1       -4 0.45497332E-01 0.10176244E+04</pdfrwt>
<totfact> 0.25561498E+01</totfact>
</mgrwt>
</event>
<event>
 6    2  0.2220137E-005  0.1055000E+04  0.7818608E-02  0.9583216E-01
         21   -1    0    0  501  502  0.00000000000E+00  0.00000000000E+00  0.56188512820E+03  0.56188512820E+03  0.00000000000E+00 0. -1.
         -4   -1    0    0    0  501 -0.00000000000E+00 -0.00000000000E+00 -0.10443608541E+04  0.10443608541E+04  0.00000000000E+00 0. -1.
   -9000010    2    1    2    0  502 -0.25727515624E+03 -0.19366888805E+03 -0.35816649973E+02  0.10556077295E+04  0.10046525279E+04 0.  0.
         13    1    3    3    0    0 -0.14493561225E+02 -0.58910395238E+03  0.97138252820E+01  0.58936228213E+03  0.10566000000E+00 0. -1.
         -4    1    3    3    0  502 -0.24278159501E+03  0.39543506433E+03 -0.45530475255E+02  0.46624544733E+03  0.00000000000E+00 0. -1.
        -13    1    1    2    0    0  0.25727515624E+03  0.19366888805E+03 -0.44665907588E+03  0.55063825280E+03  0.10566000000E+00 0.  1.
<mgrwt>
<rscale>  1 0.78417086E+03</rscale>
<asrwt>0</asrwt>
<pdfrwt beam="1">  1       21 0.86443865E-01 0.10549999E+04</pdfrwt>
<pdfrwt beam="2">  1       -4 0.16067090E+00 0.10549999E+04</pdfrwt>
<totfact> 0.10688824E+01</totfact>
</mgrwt>
</event>
<event>
 6    2  0.2220137E-005  0.1065595E+04  0.7818608E-02  0.9534326E-01
         -4   -1    0    0    0  501 -0.00000000000E+00  0.00000000000E+00  0.14576069676E+04  0.14576069676E+04  0.00000000000E+00 0. -1.
         21   -1    0    0  501  502  0.00000000000E+00 -0.00000000000E+00 -0.36561742720E+03  0.36561742720E+03  0.00000000000E+00 0. -1.
   -9000010    2    1    2    0  502  0.11096418018E+03 -0.35299497361E+03  0.65579261685E+03  0.12512224123E+04  0.99928728007E+03 0.  0.
         13    1    3    3    0    0  0.25914991280E+03  0.12428091267E+03 -0.13359343982E+03  0.31694106848E+03  0.10566000000E+00 0. -1.
         -4    1    3    3    0  502 -0.14818573262E+03 -0.47727588629E+03  0.78938605667E+03  0.93428134384E+03  0.00000000000E+00 0. -1.
        -13    1    1    2    0    0 -0.11096418018E+03  0.35299497361E+03  0.43619692358E+03  0.57200198250E+03  0.10566000000E+00 0.  1.
<mgrwt>
<rscale>  1 0.81799759E+03</rscale>
<asrwt>0</asrwt>
<pdfrwt beam="2">  1       21 0.56248836E-01 0.10655954E+04</pdfrwt>
<pdfrwt beam="1">  1       -4 0.22424722E+00 0.10655954E+04</pdfrwt>
<totfact> 0.10579403E+01</totfact>
</mgrwt>
</event>
<event>
 6    2  0.2220137E-005  0.1007265E+04  0.7818608E-02  0.9822032E-01
         21   -1    0    0  501  502  0.00000000000E+00  0.00000000000E+00  0.20378935720E+04  0.20378935720E+04  0.00000000000E+00 0. -1.
         -4   -1    0    0    0  501 -0.00000000000E+00 -0.00000000000E+00 -0.19361693416E+03  0.19361693416E+03  0.00000000000E+00 0. -1.
   -9000010    2    1    2    0  502 -0.71009808138E+02 -0.15022454897E+03  0.17948186154E+04  0.20581440875E+04  0.99346535672E+03 0.  0.
         13    1    3    3    0    0 -0.34856418095E+03  0.21353358492E+03  0.13844070782E+04  0.14434945617E+04  0.10566000000E+00 0. -1.
         -4    1    3    3    0  502  0.27755437281E+03 -0.36375813388E+03  0.41041153714E+03  0.61464952587E+03  0.00000000000E+00 0. -1.
        -13    1    1    2    0    0  0.71009808138E+02  0.15022454897E+03  0.49458022506E+02  0.17336641866E+03  0.10566000000E+00 0.  1.
<mgrwt>
<rscale>  1 0.64193466E+03</rscale>
<asrwt>0</asrwt>
<pdfrwt beam="1">  1       21 0.31352207E+00 0.10072652E+04</pdfrwt>
<pdfrwt beam="2">  1       -4 0.29787222E-01 0.10072652E+04</pdfrwt>
<totfact> 0.95783692E+00</totfact>
</mgrwt>
</event>
<event>
 6    2  0.2220137E-005  0.1037292E+04  0.7818608E-02  0.1000137E+00
         21   -1    0    0  501  502  0.00000000000E+00  0.00000000000E+00  0.58159302928E+03  0.58159302928E+03  0.00000000000E+00 0. -1.
         -4   -1    0    0    0  501 -0.00000000000E+00 -0.00000000000E+00 -0.75506028874E+03  0.75506028874E+03  0.00000000000E+00 0. -1.
   -9000010    2    1    2    0  502 -0.73065782529E+02 -0.44526120987E+02  0.10759304150E+03  0.10428573208E+04  0.10337571983E+04 0.  0.
         13    1    3    3    0    0  0.31358041536E+02  0.20523268887E+02 -0.46028362245E+03  0.46180683797E+03  0.10566000000E+00 0. -1.
         -4    1    3    3    0  502 -0.10442382406E+03 -0.65049389874E+02  0.56787666396E+03  0.58105048285E+03  0.00000000000E+00 0. -1.
        -13    1    1    2    0    0  0.73065782529E+02  0.44526120987E+02 -0.28106030096E+03  0.29379599719E+03  0.10566000000E+00 0.  1.
<mgrwt>
<rscale>  1 0.55590245E+03</rscale>
<asrwt>0</asrwt>
<pdfrwt beam="1">  1       21 0.89475851E-01 0.10372922E+04</pdfrwt>
<pdfrwt beam="2">  1       -4 0.11616312E+00 0.10372922E+04</pdfrwt>
<totfact> 0.23025777E+01</totfact>
</mgrwt>
</event>
<event>
 6    2  0.2220137E-005  0.1051802E+04  0.7818608E-02  0.9688746E-01
         21   -1    0    0  501  502  0.00000000000E+00  0.00000000000E+00  0.78405713506E+03  0.78405713506E+03  0.00000000000E+00 0. -1.
         -4   -1    0    0    0  501 -0.00000000000E+00 -0.00000000000E+00 -0.59626325250E+03  0.59626325250E+03  0.00000000000E+00 0. -1.
   -9000010    2    1    2    0  502  0.76963595281E+01  0.22688302164E+03  0.34186020875E+03  0.11059637155E+04  0.10270112941E+04 0.  0.
         13    1    3    3    0    0  0.34014521219E+03 -0.15396840661E+03 -0.14836589066E+03  0.40176794830E+03  0.10566000000E+00 0. -1.
         -4    1    3    3    0  502 -0.33244885266E+03  0.38085142825E+03  0.49022609941E+03  0.70419576723E+03  0.00000000000E+00 0. -1.
        -13    1    1    2    0    0 -0.76963595281E+01 -0.22688302164E+03 -0.15406632619E+03  0.27435667204E+03  0.10566000000E+00 0.  1.
<mgrwt>
<rscale>  1 0.71690799E+03</rscale>
<asrwt>0</asrwt>
<pdfrwt beam="1">  1       21 0.12062417E+00 0.10518019E+04</pdfrwt>
<pdfrwt beam="2">  1       -4 0.91732808E-01 0.10518019E+04</pdfrwt>
<totfact> 0.19317724E+01</totfact>
</mgrwt>
</event>
<event>
 6    2  0.2220137E-005  0.9358013E+03  0.7818608E-02  0.9819875E-01
         21   -1    0    0  501  502  0.00000000000E+00  0.00000000000E+00  0.71603241548E+03  0.71603241548E+03  0.00000000000E+00 0. -1.
         -4   -1    0    0    0  501 -0.00000000000E+00 -0.00000000000E+00 -0.60604230030E+03  0.60604230030E+03  0.00000000000E+00 0. -1.
   -9000010    2    1    2    0  502  0.30664000205E+02  0.20641218636E+03  0.35443347471E+03  0.10006733487E+04  0.91223779311E+03 0.  0.
         13    1    3    3    0    0  0.35258814371E+02  0.51406468221E+03  0.44404038404E+03  0.68020405417E+03  0.10566000000E+00 0. -1.
         -4    1    3    3    0  502 -0.45948141660E+01 -0.30765249585E+03 -0.89606909331E+02  0.32046929451E+03  0.00000000000E+00 0. -1.
        -13    1    1    2    0    0 -0.30664000205E+02 -0.20641218636E+03 -0.24444335954E+03  0.32140136710E+03  0.10566000000E+00 0.  1.
<mgrwt>
<rscale>  1 0.64306758E+03</rscale>
<asrwt>0</asrwt>
<pdfrwt beam="1">  1       21 0.11015883E+00 0.93580129E+03</pdfrwt>
<pdfrwt beam="2">  1       -4 0.93237277E-01 0.93580129E+03</pdfrwt>
<totfact> 0.23730200E+01</totfact>
</mgrwt>
</event>
<event>
 6    2  0.2220137E-005  0.1013469E+04  0.7818608E-02  0.9898164E-01
         21   -1    0    0  501  502  0.00000000000E+00  0.00000000000E+00  0.19695510150E+04  0.19695510150E+04  0.00000000000E+00 0. -1.
         -4   -1    0    0    0  501 -0.00000000000E+00 -0.00000000000E+00 -0.23512840284E+03  0.23512840284E+03  0.00000000000E+00 0. -1.
   -9000010    2    1    2    0  502  0.21262157284E+02 -0.12564857326E+03  0.17967116390E+04  0.20628359219E+04  0.10054251260E+04 0.  0.
         13    1    3    3    0    0 -0.47209464900E+03  0.79979672324E+02  0.83110273971E+03  0.95916728506E+03  0.10566000000E+00 0. -1.
         -4    1    3    3    0  502  0.49335680629E+03 -0.20562824558E+03  0.96560889926E+03  0.11036686369E+04  0.00000000000E+00 0. -1.
        -13    1    1    2    0    0 -0.21262157284E+02  0.12564857326E+03 -0.62289026843E+02  0.14184349588E+03  0.10566000000E+00 0.  1.
<mgrwt>
<rscale>  1 0.60350370E+03</rscale>
<asrwt>0</asrwt>
<pdfrwt beam="1">  1       21 0.30300784E+00 0.10134690E+04</pdfrwt>
<pdfrwt beam="2">  1       -4 0.36173602E-01 0.10134690E+04</pdfrwt>
<totfact> 0.75690997E+00</totfact>
</mgrwt>
</event>
<event>
 6    2  0.2220137E-005  0.1082480E+04  0.7818608E-02  0.9499307E-01
         21   -1    0    0  501  502  0.00000000000E+00  0.00000000000E+00  0.33819805557E+03  0.33819805557E+03  0.00000000000E+00 0. -1.
         -4   -1    0    0    0  501 -0.00000000000E+00 -0.00000000000E+00 -0.16290490548E+04  0.16290490548E+04  0.00000000000E+00 0. -1.
   -9000010    2    1    2    0  502 -0.82564401845E+02 -0.39017410499E+03 -0.88459924271E+03  0.13979552577E+04  0.10063351180E+04 0.  0.
         13    1    3    3    0    0  0.37358248213E+03 -0.47239646922E+03 -0.61948326893E+03  0.86399179784E+03  0.10566000000E+00 0. -1.
         -4    1    3    3    0  502 -0.45614688398E+03  0.82222364235E+02 -0.26511597379E+03  0.53396345989E+03  0.00000000000E+00 0. -1.
        -13    1    1    2    0    0  0.82564401845E+02  0.39017410499E+03 -0.40625175653E+03  0.56929185266E+03  0.10566000000E+00 0.  1.
<mgrwt>
<rscale>  1 0.84334945E+03</rscale>
<asrwt>0</asrwt>
<pdfrwt beam="1">  1       21 0.52030471E-01 0.10824801E+04</pdfrwt>
<pdfrwt beam="2">  1       -4 0.25062293E+00 0.10824801E+04</pdfrwt>
<totfact> 0.85621499E+00</totfact>
</mgrwt>
</event>
<event>
 6    2  0.2220137E-005  0.1062683E+04  0.7818608E-02  0.9562725E-01
         -4   -1    0    0    0  501 -0.00000000000E+00  0.00000000000E+00  0.96565272854E+03  0.96565272854E+03  0.00000000000E+00 0. -1.
         21   -1    0    0  501  502  0.00000000000E+00 -0.00000000000E+00 -0.57821801328E+03  0.57821801328E+03  0.00000000000E+00 0.  1.
   -9000010    2    1    2    0  502  0.17222876240E+03  0.29098255222E+03  0.51699152038E+03  0.11817677603E+04  0.10074528351E+04 0.  0.
         13    1    3    3    0    0  0.56296161538E+03  0.14645411777E+03  0.96145041538E+02  0.58959178181E+03  0.10566000000E+00 0. -1.
         -4    1    3    3    0  502 -0.39073285298E+03  0.14452843445E+03  0.42084647884E+03  0.59217597850E+03  0.00000000000E+00 0. -1.
        -13    1    1    2    0    0 -0.17222876240E+03 -0.29098255222E+03 -0.12955680512E+03  0.36210298150E+03  0.10566000000E+00 0.  1.
<mgrwt>
<rscale>  1 0.79813166E+03</rscale>
<asrwt>0</asrwt>
<pdfrwt beam="2">  1       21 0.88956618E-01 0.10626828E+04</pdfrwt>
<pdfrwt beam="1">  1       -4 0.14856196E+00 0.10626828E+04</pdfrwt>
<totfact> 0.12336720E+01</totfact>
</mgrwt>
</event>
<event>
 6    2  0.2220137E-005  0.1077847E+04  0.7818608E-02  0.9646219E-01
         -4   -1    0    0    0  501 -0.00000000000E+00  0.00000000000E+00  0.30577986672E+03  0.30577986672E+03  0.00000000000E+00 0. -1.
         21   -1    0    0  501  502  0.00000000000E+00 -0.00000000000E+00 -0.15088307340E+04  0.15088307340E+04  0.00000000000E+00 0. -1.
   -9000010    2    1    2    0  502  0.22750963228E+03  0.86859929339E+02 -0.11270842558E+04  0.15595101943E+04  0.10499751647E+04 0.  0.
         13    1    3    3    0    0  0.48633670675E+03 -0.14132276934E+03 -0.15753103363E+03  0.53038811750E+03  0.10566000000E+00 0. -1.
         -4    1    3    3    0  502 -0.25882707447E+03  0.22818269868E+03 -0.96955322214E+03  0.10291220768E+04  0.00000000000E+00 0. -1.
        -13    1    1    2    0    0 -0.22750963228E+03 -0.86859929339E+02 -0.75966611501E+02  0.25510040637E+03  0.10566000000E+00 0.  1.
<mgrwt>
<rscale>  1 0.74311217E+03</rscale>
<asrwt>0</asrwt>
<pdfrwt beam="2">  1       21 0.23212781E+00 0.10778465E+04</pdfrwt>
<pdfrwt beam="1">  1       -4 0.47043055E-01 0.10778465E+04</pdfrwt>
<totfact> 0.12247662E+01</totfact>
</mgrwt>
</event>
<event>
 6    2  0.2220137E-005  0.1043331E+04  0.7818608E-02  0.9695717E-01
         -4   -1    0    0    0  501 -0.00000000000E+00  0.00000000000E+00  0.76471910808E+03  0.76471910808E+03  0.00000000000E+00 0. -1.
         21   -1    0    0  501  502  0.00000000000E+00 -0.00000000000E+00 -0.81602316028E+03  0.81602316028E+03  0.00000000000E+00 0. -1.
   -9000010    2    1    2    0  502  0.90222938738E+02  0.20852385087E+03 -0.43855849345E+03  0.11317563126E+04  0.10182909328E+04 0.  0.
         13    1    3    3    0    0 -0.18070108184E+02  0.59254135033E+03 -0.43056998208E+03  0.73268158247E+03  0.10566000000E+00 0. -1.
         -4    1    3    3    0  502  0.10829304692E+03 -0.38401749946E+03 -0.79885113744E+01  0.39907473012E+03  0.00000000000E+00 0. -1.
        -13    1    1    2    0    0 -0.90222938738E+02 -0.20852385087E+03  0.38725444125E+03  0.44898595577E+03  0.10566000000E+00 0.  1.
<mgrwt>
<rscale>  1 0.71272374E+03</rscale>
<asrwt>0</asrwt>
<pdfrwt beam="2">  1       21 0.12554202E+00 0.10433306E+04</pdfrwt>
<pdfrwt beam="1">  1       -4 0.11764909E+00 0.10433306E+04</pdfrwt>
<totfact> 0.95048325E+00</totfact>
</mgrwt>
</event>
<event>
 6    2  0.2220137E-005  0.1101585E+04  0.7818608E-02  0.9445663E-01
         -4   -1    0    0    0  501 -0.00000000000E+00  0.00000000000E+00  0.83443861500E+03  0.83443861500E+03  0.00000000000E+00 0. -1.
         21   -1    0    0  501  502  0.00000000000E+00 -0.00000000000E+00 -0.90353361546E+03  0.90353361546E+03  0.00000000000E+00 0. -1.
   -9000010    2    1    2    0  502 -0.13271980335E+03  0.43736745968E+03 -0.40187216072E+03  0.11726002374E+04  0.10022899991E+04 0.  0.
         13    1    3    3    0    0 -0.10918979100E+03 -0.27755330282E+03 -0.34349476354E+03  0.45491417884E+03  0.10566000000E+00 0. -1.
         -4    1    3    3    0  502 -0.23530012349E+02  0.71492076251E+03 -0.58377397174E+02  0.71768605856E+03  0.00000000000E+00 0. -1.
        -13    1    1    2    0    0  0.13271980335E+03 -0.43736745968E+03  0.33277716026E+03  0.56537199307E+03  0.10566000000E+00 0.  1.
<mgrwt>
<rscale>  1 0.88411173E+03</rscale>
<asrwt>0</asrwt>
<pdfrwt beam="2">  1       21 0.13900517E+00 0.11015853E+04</pdfrwt>
<pdfrwt beam="1">  1       -4 0.12837517E+00 0.11015853E+04</pdfrwt>
<totfact> 0.57618138E+00</totfact>
</mgrwt>
</event>
<event>
 6    2  0.2220137E-005  0.1033122E+04  0.7818608E-02  0.9762565E-01
         21   -1    0    0  501  502  0.00000000000E+00  0.00000000000E+00  0.91656300315E+03  0.91656300315E+03  0.00000000000E+00 0. -1.
         -4   -1    0    0    0  501 -0.00000000000E+00 -0.00000000000E+00 -0.51429891951E+03  0.51429891951E+03  0.00000000000E+00 0. -1.
   -9000010    2    1    2    0  502 -0.27192234866E+02  0.18528282964E+03  0.56958588323E+03  0.11797329909E+04  0.10160082218E+04 0.  0.
         13    1    3    3    0    0  0.16498863838E+03  0.55110101528E+03  0.49690455807E+03  0.76016296333E+03  0.10566000000E+00 0. -1.
         -4    1    3    3    0  502 -0.19218087324E+03 -0.36581818563E+03  0.72681325169E+02  0.41957002754E+03  0.00000000000E+00 0. -1.
        -13    1    1    2    0    0  0.27192234866E+02 -0.18528282964E+03 -0.16732179959E+03  0.25112893178E+03  0.10566000000E+00 0.  1.
<mgrwt>
<rscale>  1 0.67410802E+03</rscale>
<asrwt>0</asrwt>
<pdfrwt beam="1">  1       21 0.14100969E+00 0.10331224E+04</pdfrwt>
<pdfrwt beam="2">  1       -4 0.79122911E-01 0.10331224E+04</pdfrwt>
<totfact> 0.18012378E+01</totfact>
</mgrwt>
</event>
<event>
 6    2  0.2220137E-005  0.1030256E+04  0.7818608E-02  0.9724548E-01
         21   -1    0    0  501  502  0.00000000000E+00  0.00000000000E+00  0.54010914824E+03  0.54010914824E+03  0.00000000000E+00 0. -1.
         -4   -1    0    0    0  501 -0.00000000000E+00 -0.00000000000E+00 -0.72901186069E+03  0.72901186069E+03  0.00000000000E+00 0. -1.
   -9000010    2    1    2    0  502  0.15536474937E+03 -0.14754912418E+03 -0.93223708741E+02  0.10344650218E+04  0.10077292652E+04 0.  0.
         13    1    3    3    0    0 -0.24081959957E+03  0.21186722816E+03 -0.32034386093E+03  0.45332328675E+03  0.10566000000E+00 0. -1.
         -4    1    3    3    0  502  0.39618434894E+03 -0.35941635233E+03  0.22712015219E+03  0.58114173504E+03  0.00000000000E+00 0. -1.
        -13    1    1    2    0    0 -0.15536474937E+03  0.14754912418E+03 -0.95679003707E+02  0.23465598715E+03  0.10566000000E+00 0.  1.
<mgrwt>
<rscale>  1 0.69573847E+03</rscale>
<asrwt>0</asrwt>
<pdfrwt beam="1">  1       21 0.83093716E-01 0.10302559E+04</pdfrwt>
<pdfrwt beam="2">  1       -4 0.11215567E+00 0.10302559E+04</pdfrwt>
<totfact> 0.30004622E+01</totfact>
</mgrwt>
</event>
<event>
 6    2  0.2220137E-005  0.8148624E+03  0.7818608E-02  0.9879948E-01
         21   -1    0    0  501  502  0.00000000000E+00  0.00000000000E+00  0.36154875529E+03  0.36154875529E+03  0.00000000000E+00 0.  1.
         -4   -1    0    0    0  501 -0.00000000000E+00 -0.00000000000E+00 -0.99235780662E+03  0.99235780662E+03  0.00000000000E+00 0. -1.
   -9000010    2    1    2    0  502 -0.20756211054E+03  0.15658146369E+03 -0.18155815422E+03  0.83484378707E+03  0.77227003110E+03 0.  0.
         13    1    3    3    0    0 -0.22037872985E+03 -0.23272470013E+03  0.11999845123E+03  0.34223852805E+03  0.10566000000E+00 0. -1.
         -4    1    3    3    0  502  0.12816619313E+02  0.38930616383E+03 -0.30155660545E+03  0.49260525902E+03  0.00000000000E+00 0. -1.
        -13    1    1    2    0    0  0.20756211054E+03 -0.15658146369E+03 -0.44925089711E+03  0.51906277483E+03  0.10566000000E+00 0.  1.
<mgrwt>
<rscale>  1 0.61242991E+03</rscale>
<asrwt>0</asrwt>
<pdfrwt beam="1">  1       21 0.55622886E-01 0.81486243E+03</pdfrwt>
<pdfrwt beam="2">  1       -4 0.15267043E+00 0.81486243E+03</pdfrwt>
<totfact> 0.34550144E+01</totfact>
</mgrwt>
</event>
<event>
 6    2  0.2220137E-005  0.1009215E+04  0.7818608E-02  0.9772686E-01
         21   -1    0    0  501  502  0.00000000000E+00  0.00000000000E+00  0.11336839763E+04  0.11336839763E+04  0.00000000000E+00 0. -1.
         -4   -1    0    0    0  501 -0.00000000000E+00 -0.00000000000E+00 -0.32835818699E+03  0.32835818699E+03  0.00000000000E+00 0. -1.
   -9000010    2    1    2    0  502  0.10853178695E+03 -0.16114100849E+03  0.57802630271E+03  0.11630260414E+04  0.99033812047E+03 0.  0.
         13    1    3    3    0    0  0.11287338143E+03 -0.36117109090E+03  0.78729043781E+03  0.87350512407E+03  0.10566000000E+00 0. -1.
         -4    1    3    3    0  502 -0.43415944719E+01  0.20003008241E+03 -0.20926413510E+03  0.28952091730E+03  0.00000000000E+00 0. -1.
        -13    1    1    2    0    0 -0.10853178695E+03  0.16114100849E+03  0.22729948659E+03  0.29901612191E+03  0.10566000000E+00 0.  1.
<mgrwt>
<rscale>  1 0.66849188E+03</rscale>
<asrwt>0</asrwt>
<pdfrwt beam="1">  1       21 0.17441292E+00 0.10092151E+04</pdfrwt>
<pdfrwt beam="2">  1       -4 0.50516645E-01 0.10092151E+04</pdfrwt>
<totfact> 0.26500762E+01</totfact>
</mgrwt>
</event>
<event>
 6    2  0.2220137E-005  0.9892315E+03  0.7818608E-02  0.9887357E-01
         21   -1    0    0  501  502  0.00000000000E+00  0.00000000000E+00  0.66515936204E+03  0.66515936204E+03  0.00000000000E+00 0. -1.
         -4   -1    0    0    0  501 -0.00000000000E+00 -0.00000000000E+00 -0.63804090027E+03  0.63804090027E+03  0.00000000000E+00 0. -1.
   -9000010    2    1    2    0  502  0.10199018127E+02 -0.14152114431E+03  0.26688091636E+03  0.10245996520E+04  0.97900294643E+03 0.  0.
         13    1    3    3    0    0 -0.29556644456E+03 -0.29329979497E+03  0.46956751128E+03  0.62759696597E+03  0.10566000000E+00 0. -1.
         -4    1    3    3    0  502  0.30576546269E+03  0.15177865065E+03 -0.20268659492E+03  0.39700268604E+03  0.00000000000E+00 0. -1.
        -13    1    1    2    0    0 -0.10199018127E+02  0.14152114431E+03 -0.23976245459E+03  0.27860061029E+03  0.10566000000E+00 0.  1.
<mgrwt>
<rscale>  1 0.60877953E+03</rscale>
<asrwt>0</asrwt>
<pdfrwt beam="1">  1       21 0.10233221E+00 0.98923153E+03</pdfrwt>
<pdfrwt beam="2">  1       -4 0.98160139E-01 0.98923153E+03</pdfrwt>
<totfact> 0.25132052E+01</totfact>
</mgrwt>
</event>
<event>
 6    2  0.2220137E-005  0.9971221E+03  0.7818608E-02  0.1009344E+00
         -4   -1    0    0    0  501 -0.00000000000E+00  0.00000000000E+00  0.34651024100E+03  0.34651024100E+03  0.00000000000E+00 0. -1.
         21   -1    0    0  501  502  0.00000000000E+00 -0.00000000000E+00 -0.83392122983E+03  0.83392122983E+03  0.00000000000E+00 0. -1.
   -9000010    2    1    2    0  502  0.15409225070E+02  0.70602601745E+02 -0.42124341108E+03  0.10824501915E+04  0.99449999200E+03 0.  0.
         13    1    3    3    0    0 -0.30341427787E+03  0.30085483436E+03 -0.52384891663E+03  0.67601150434E+03  0.10566000000E+00 0. -1.
         -4    1    3    3    0  502  0.31882350294E+03 -0.23025223262E+03  0.10260550555E+03  0.40643868716E+03  0.00000000000E+00 0. -1.
        -13    1    1    2    0    0 -0.15409225070E+02 -0.70602601745E+02 -0.66167577752E+02  0.97981279334E+02  0.10566000000E+00 0.  1.
<mgrwt>
<rscale>  1 0.51735995E+03</rscale>
<asrwt>0</asrwt>
<pdfrwt beam="2">  1       21 0.12829557E+00 0.99712206E+03</pdfrwt>
<pdfrwt beam="1">  1       -4 0.53309269E-01 0.99712206E+03</pdfrwt>
<totfact> 0.55776790E+01</totfact>
</mgrwt>
</event>
<event>
 6    2  0.2220137E-005  0.1136667E+04  0.7818608E-02  0.9362564E-01
         21   -1    0    0  501  502  0.00000000000E+00  0.00000000000E+00  0.11937619465E+04  0.11937619465E+04  0.00000000000E+00 0.  1.
         -4   -1    0    0    0  501 -0.00000000000E+00 -0.00000000000E+00 -0.61868485268E+03  0.61868485268E+03  0.00000000000E+00 0. -1.
   -9000010    2    1    2    0  502 -0.55548717886E+03 -0.69447774758E+02  0.51989756624E+03  0.12499223191E+04  0.98925392347E+03 0.  0.
         13    1    3    3    0    0 -0.71519359655E+03  0.24754802862E+03  0.47150842186E+03  0.89168498366E+03  0.10566000000E+00 0. -1.
         -4    1    3    3    0  502  0.15970641769E+03 -0.31699580338E+03  0.48389144374E+02  0.35823733545E+03  0.00000000000E+00 0. -1.
        -13    1    1    2    0    0  0.55548717886E+03  0.69447774758E+02  0.55179527622E+02  0.56252448012E+03  0.10566000000E+00 0.  1.
<mgrwt>
<rscale>  1 0.95221598E+03</rscale>
<asrwt>0</asrwt>
<pdfrwt beam="1">  1       21 0.18365568E+00 0.11366672E+04</pdfrwt>
<pdfrwt beam="2">  1       -4 0.95182285E-01 0.11366672E+04</pdfrwt>
<totfact> 0.54018629E+00</totfact>
</mgrwt>
</event>
<event>
 6    2  0.2220137E-005  0.1046443E+04  0.7818608E-02  0.9625563E-01
         21   -1    0    0  501  502  0.00000000000E+00  0.00000000000E+00  0.11161170432E+04  0.11161170432E+04  0.00000000000E+00 0. -1.
         -4   -1    0    0    0  501 -0.00000000000E+00 -0.00000000000E+00 -0.61684623591E+03  0.61684623591E+03  0.00000000000E+00 0. -1.
   -9000010    2    1    2    0  502  0.69235909148E+02  0.27694838685E+03  0.80082934853E+03  0.13177144560E+04  0.10067520658E+04 0.  0.
         13    1    3    3    0    0 -0.35875362192E+03  0.38487354007E+03  0.18023297936E+03  0.55616161419E+03  0.10566000000E+00 0. -1.
         -4    1    3    3    0  502  0.42798953107E+03 -0.10792515322E+03  0.62059636916E+03  0.76155284178E+03  0.00000000000E+00 0. -1.
        -13    1    1    2    0    0 -0.69235909148E+02 -0.27694838685E+03 -0.30155854129E+03  0.41524882309E+03  0.10566000000E+00 0.  1.
<mgrwt>
<rscale>  1 0.75627114E+03</rscale>
<asrwt>0</asrwt>
<pdfrwt beam="1">  1       21 0.17171031E+00 0.10464434E+04</pdfrwt>
<pdfrwt beam="2">  1       -4 0.94899421E-01 0.10464434E+04</pdfrwt>
<totfact> 0.67302359E+00</totfact>
</mgrwt>
</event>
<event>
 6    2  0.2220137E-005  0.1010136E+04  0.7818608E-02  0.9760552E-01
         21   -1    0    0  501  502  0.00000000000E+00  0.00000000000E+00  0.14852246042E+04  0.14852246042E+04  0.00000000000E+00 0.  1.
         -4   -1    0    0    0  501 -0.00000000000E+00 -0.00000000000E+00 -0.25900755452E+03  0.25900755452E+03  0.00000000000E+00 0. -1.
   -9000010    2    1    2    0  502  0.15375772267E+03 -0.13051934535E+03  0.11447784253E+04  0.15267258428E+04  0.98979665540E+03 0.  0.
         13    1    3    3    0    0  0.48664260489E+03  0.12108442102E+03  0.29961736452E+03  0.58416867273E+03  0.10566000000E+00 0. -1.
         -4    1    3    3    0  502 -0.33288488222E+03 -0.25160376637E+03  0.84516106081E+03  0.94255717003E+03  0.00000000000E+00 0. -1.
        -13    1    1    2    0    0 -0.15375772267E+03  0.13051934535E+03  0.81438624378E+02  0.21750631599E+03  0.10566000000E+00 0.  1.
<mgrwt>
<rscale>  1 0.67523209E+03</rscale>
<asrwt>0</asrwt>
<pdfrwt beam="1">  1       21 0.22849609E+00 0.10101357E+04</pdfrwt>
<pdfrwt beam="2">  1       -4 0.39847317E-01 0.10101357E+04</pdfrwt>
<totfact> 0.18386868E+01</totfact>
</mgrwt>
</event>
<event>
 6    2  0.2220137E-005  0.1044463E+04  0.7818608E-02  0.9586789E-01
         -4   -1    0    0    0  501 -0.00000000000E+00  0.00000000000E+00  0.80358970906E+03  0.80358970906E+03  0.00000000000E+00 0. -1.
         21   -1    0    0  501  502  0.00000000000E+00 -0.00000000000E+00 -0.58770993397E+03  0.58770993397E+03  0.00000000000E+00 0. -1.
   -9000010    2    1    2    0  502  0.24480460930E+03  0.21802477918E+03  0.19746977530E+03  0.10629659099E+04  0.99168448224E+03 0.  0.
         13    1    3    3    0    0 -0.63018420237E+02  0.18648532513E+03  0.55573661584E+03  0.58956873656E+03  0.10566000000E+00 0. -1.
         -4    1    3    3    0  502  0.30782302954E+03  0.31539454051E+02 -0.35826684053E+03  0.47339717331E+03  0.00000000000E+00 0. -1.
        -13    1    1    2    0    0 -0.24480460930E+03 -0.21802477918E+03  0.18409999784E+02  0.32833373316E+03  0.10566000000E+00 0.  1.
<mgrwt>
<rscale>  1 0.78176760E+03</rscale>
<asrwt>0</asrwt>
<pdfrwt beam="2">  1       21 0.90416913E-01 0.10444626E+04</pdfrwt>
<pdfrwt beam="1">  1       -4 0.12362919E+00 0.10444626E+04</pdfrwt>
<totfact> 0.19179014E+01</totfact>
</mgrwt>
</event>
<event>
 6    2  0.2220137E-005  0.1266584E+04  0.7818608E-02  0.9181251E-01
         21   -1    0    0  501  502  0.00000000000E+00  0.00000000000E+00  0.94066116475E+03  0.94066116475E+03  0.00000000000E+00 0.  1.
         -4   -1    0    0    0  501 -0.00000000000E+00 -0.00000000000E+00 -0.17333915028E+04  0.17333915028E+04  0.00000000000E+00 0. -1.
   -9000010    2    1    2    0  502  0.75563488170E+03 -0.22375793057E+03 -0.12361242212E+04  0.17698127476E+04  0.99155553821E+03 0.  0.
         13    1    3    3    0    0 -0.11157079134E+02 -0.38650310017E+03 -0.75990164667E+03  0.85261928822E+03  0.10566000000E+00 0. -1.
         -4    1    3    3    0  502  0.76679196083E+03  0.16274516961E+03 -0.47622257454E+03  0.91719345938E+03  0.00000000000E+00 0. -1.
        -13    1    1    2    0    0 -0.75563488170E+03  0.22375793057E+03  0.44339388321E+03  0.90423991991E+03  0.10566000000E+00 0.  1.
<mgrwt>
<rscale>  1 0.11249065E+04</rscale>
<asrwt>0</asrwt>
<pdfrwt beam="1">  1       21 0.14471710E+00 0.12665836E+04</pdfrwt>
<pdfrwt beam="2">  1       -4 0.26667561E+00 0.12665836E+04</pdfrwt>
<totfact> 0.55565688E-01</totfact>
</mgrwt>
</event>
<event>
 6    2  0.2220137E-005  0.8607416E+03  0.7818608E-02  0.9953242E-01
         21   -1    0    0  501  502  0.00000000000E+00  0.00000000000E+00  0.48934556851E+03  0.48934556851E+03  0.00000000000E+00 0. -1.
         -4   -1    0    0    0  501 -0.00000000000E+00 -0.00000000000E+00 -0.63452174829E+03  0.63452174829E+03  0.00000000000E+00 0. -1.
   -9000010    2    1    2    0  502 -0.17288110979E+03  0.22997523471E+02  0.49912353902E+02  0.86218752899E+03  0.84288749419E+03 0.  0.
         13    1    3    3    0    0 -0.25896479225E+03  0.78403576173E+02  0.40810509946E+03  0.48965259904E+03  0.10566000000E+00 0. -1.
         -4    1    3    3    0  502  0.86083682463E+02 -0.55406052703E+02 -0.35819274555E+03  0.37253492995E+03  0.00000000000E+00 0. -1.
        -13    1    1    2    0    0  0.17288110979E+03 -0.22997523471E+02 -0.19508853368E+03  0.26167978780E+03  0.10566000000E+00 0.  1.
<mgrwt>
<rscale>  1 0.57748903E+03</rscale>
<asrwt>0</asrwt>
<pdfrwt beam="1">  1       21 0.75283933E-01 0.86074159E+03</pdfrwt>
<pdfrwt beam="2">  1       -4 0.97618731E-01 0.86074159E+03</pdfrwt>
<totfact> 0.53828936E+01</totfact>
</mgrwt>
</event>
<event>
 6    2  0.2220137E-005  0.1069892E+04  0.7818608E-02  0.9546531E-01
         21   -1    0    0  501  502  0.00000000000E+00  0.00000000000E+00  0.57895557262E+03  0.57895557262E+03  0.00000000000E+00 0. -1.
         -4   -1    0    0    0  501 -0.00000000000E+00 -0.00000000000E+00 -0.13152358351E+04  0.13152358351E+04  0.00000000000E+00 0. -1.
   -9000010    2    1    2    0  502  0.34962507427E+03 -0.23725813918E+02  0.97727020522E+01  0.10699368088E+04  0.10108751962E+04 0.  0.
         13    1    3    3    0    0  0.70800931480E+03 -0.45003557197E+02  0.32688586925E+02  0.71019086510E+03  0.10566000000E+00 0. -1.
         -4    1    3    3    0  502 -0.35838424053E+03  0.21277743279E+02 -0.22915884873E+02  0.35974594368E+03  0.00000000000E+00 0. -1.
        -13    1    1    2    0    0 -0.34962507427E+03  0.23725813918E+02 -0.74605296456E+03  0.82425459895E+03  0.10566000000E+00 0.  1.
<mgrwt>
<rscale>  1 0.80938486E+03</rscale>
<asrwt>0</asrwt>
<pdfrwt beam="1">  1       21 0.89070090E-01 0.10698922E+04</pdfrwt>
<pdfrwt beam="2">  1       -4 0.20234397E+00 0.10698922E+04</pdfrwt>
<totfact> 0.50832168E+00</totfact>
</mgrwt>
</event>
<event>
 6    2  0.2220137E-005  0.9871605E+03  0.7818608E-02  0.9813349E-01
         21   -1    0    0  501  502  0.00000000000E+00  0.00000000000E+00  0.49064966849E+03  0.49064966849E+03  0.00000000000E+00 0. -1.
         -4   -1    0    0    0  501 -0.00000000000E+00 -0.00000000000E+00 -0.69641864447E+03  0.69641864447E+03  0.00000000000E+00 0. -1.
   -9000010    2    1    2    0  502 -0.13035692528E+02 -0.18114127512E+03 -0.18394159098E+03  0.10041515649E+04  0.97031116942E+03 0.  0.
         13    1    3    3    0    0 -0.44626593195E+03  0.26719844294E+02 -0.26072988968E+03  0.51753967832E+03  0.10566000000E+00 0. -1.
         -4    1    3    3    0  502  0.43323023942E+03 -0.20786111942E+03  0.76788298696E+02  0.48661188655E+03  0.00000000000E+00 0. -1.
        -13    1    1    2    0    0  0.13035692528E+02  0.18114127512E+03 -0.21827384994E+02  0.18291674809E+03  0.10566000000E+00 0.  1.
<mgrwt>
<rscale>  1 0.64651063E+03</rscale>
<asrwt>0</asrwt>
<pdfrwt beam="1">  1       21 0.75484564E-01 0.98716050E+03</pdfrwt>
<pdfrwt beam="2">  1       -4 0.10714133E+00 0.98716050E+03</pdfrwt>
<totfact> 0.42228379E+01</totfact>
</mgrwt>
</event>
<event>
 6    2  0.2220137E-005  0.1013242E+04  0.7818608E-02  0.9743359E-01
         -4   -1    0    0    0  501 -0.00000000000E+00  0.00000000000E+00  0.89329459027E+03  0.89329459027E+03  0.00000000000E+00 0. -1.
         21   -1    0    0  501  502  0.00000000000E+00 -0.00000000000E+00 -0.78351798527E+03  0.78351798527E+03  0.00000000000E+00 0. -1.
   -9000010    2    1    2    0  502  0.37501950845E+02  0.20821413306E+03 -0.42723328399E+03  0.10996304955E+04  0.99090838431E+03 0.  0.
         13    1    3    3    0    0 -0.36841621065E+03 -0.17972084573E+03 -0.28368382426E+02  0.41089519704E+03  0.10566000000E+00 0. -1.
         -4    1    3    3    0  502  0.40591816150E+03  0.38793497879E+03 -0.39886490156E+03  0.68873529843E+03  0.00000000000E+00 0. -1.
        -13    1    1    2    0    0 -0.37501950845E+02 -0.20821413306E+03  0.53700988899E+03  0.57718208008E+03  0.10566000000E+00 0.  1.
<mgrwt>
<rscale>  1 0.68492894E+03</rscale>
<asrwt>0</asrwt>
<pdfrwt beam="2">  1       21 0.12054123E+00 0.10132418E+04</pdfrwt>
<pdfrwt beam="1">  1       -4 0.13742994E+00 0.10132418E+04</pdfrwt>
<totfact> 0.71318326E+00</totfact>
</mgrwt>
</event>
<event>
 6    2  0.2220137E-005  0.1172956E+04  0.7818608E-02  0.9286623E-01
         -4   -1    0    0    0  501 -0.00000000000E+00  0.00000000000E+00  0.17796928327E+04  0.17796928327E+04  0.00000000000E+00 0. -1.
         21   -1    0    0  501  502  0.00000000000E+00 -0.00000000000E+00 -0.14350916562E+04  0.14350916562E+04  0.00000000000E+00 0.  1.
   -9000010    2    1    2    0  502  0.11850846227E+03 -0.66082523068E+03 -0.11086310561E+04  0.16139665185E+04  0.96181643939E+03 0.  0.
         13    1    3    3    0    0 -0.25002632249E+03 -0.24815555333E+03  0.24348682870E+02  0.35311076182E+03  0.10566000000E+00 0. -1.
         -4    1    3    3    0  502  0.36853478476E+03 -0.41266967734E+03 -0.11329797390E+04  0.12608557567E+04  0.00000000000E+00 0. -1.
        -13    1    1    2    0    0 -0.11850846227E+03  0.66082523068E+03  0.14532322327E+04  0.16008179704E+04  0.10566000000E+00 0.  1.
<mgrwt>
<rscale>  1 0.10202375E+04</rscale>
<asrwt>0</asrwt>
<pdfrwt beam="2">  1       21 0.22078333E+00 0.11729557E+04</pdfrwt>
<pdfrwt beam="1">  1       -4 0.27379890E+00 0.11729557E+04</pdfrwt>
<totfact> 0.14160352E-01</totfact>
</mgrwt>
</event>
<event>
 6    2  0.2220137E-005  0.1019887E+04  0.7818608E-02  0.9727895E-01
         -4   -1    0    0    0  501 -0.00000000000E+00  0.00000000000E+00  0.69276913092E+03  0.69276913092E+03  0.00000000000E+00 0. -1.
         21   -1    0    0  501  502  0.00000000000E+00 -0.00000000000E+00 -0.56273691454E+03  0.56273691454E+03  0.00000000000E+00 0. -1.
   -9000010    2    1    2    0  502 -0.87536805766E+02 -0.20010400524E+03  0.16855473534E+03  0.10337216887E+04  0.99622563989E+03 0.  0.
         13    1    3    3    0    0 -0.23937711987E+03  0.22058096435E+03 -0.25824339533E+03  0.41550815845E+03  0.10566000000E+00 0. -1.
         -4    1    3    3    0  502  0.15184031410E+03 -0.42068496959E+03  0.42679813067E+03  0.61821353024E+03  0.00000000000E+00 0. -1.
        -13    1    1    2    0    0  0.87536805766E+02  0.20010400524E+03 -0.38522518965E+02  0.22178435677E+03  0.10566000000E+00 0.  1.
<mgrwt>
<rscale>  1 0.69379930E+03</rscale>
<asrwt>0</asrwt>
<pdfrwt beam="2">  1       21 0.86574910E-01 0.10198872E+04</pdfrwt>
<pdfrwt beam="1">  1       -4 0.10657987E+00 0.10198872E+04</pdfrwt>
<totfact> 0.30871367E+01</totfact>
</mgrwt>
</event>
<event>
 6    2  0.2220137E-005  0.1042089E+04  0.7818608E-02  0.9641593E-01
         21   -1    0    0  501  502  0.00000000000E+00  0.00000000000E+00  0.16406697553E+04  0.16406697553E+04  0.00000000000E+00 0.  1.
         -4   -1    0    0    0  501 -0.00000000000E+00 -0.00000000000E+00 -0.26385621061E+03  0.26385621061E+03  0.00000000000E+00 0. -1.
   -9000010    2    1    2    0  502  0.90188793400E+02 -0.25844440965E+03  0.10814842999E+04  0.15018512767E+04  0.10054956166E+04 0.  0.
         13    1    3    3    0    0 -0.36942122780E+03 -0.40287549661E+03  0.45276794943E+03  0.70977428561E+03  0.10566000000E+00 0. -1.
         -4    1    3    3    0  502  0.45961002120E+03  0.14443108696E+03  0.62871635043E+03  0.79207699106E+03  0.00000000000E+00 0. -1.
        -13    1    1    2    0    0 -0.90188793400E+02  0.25844440965E+03  0.29532924483E+03  0.40267468924E+03  0.10566000000E+00 0.  1.
<mgrwt>
<rscale>  1 0.74603426E+03</rscale>
<asrwt>0</asrwt>
<pdfrwt beam="1">  1       21 0.25241073E+00 0.10420888E+04</pdfrwt>
<pdfrwt beam="2">  1       -4 0.40593264E-01 0.10420888E+04</pdfrwt>
<totfact> 0.12369660E+01</totfact>
</mgrwt>
</event>
<event>
 6    2  0.2220137E-005  0.1060579E+04  0.7818608E-02  0.9680248E-01
         -4   -1    0    0    0  501 -0.00000000000E+00  0.00000000000E+00  0.11401369404E+04  0.11401369404E+04  0.00000000000E+00 0. -1.
         21   -1    0    0  501  502  0.00000000000E+00 -0.00000000000E+00 -0.61688415443E+03  0.61688415443E+03  0.00000000000E+00 0. -1.
   -9000010    2    1    2    0  502  0.26054752805E+02 -0.22635178197E+03 -0.12685868917E+03  0.10681387242E+04  0.10358152478E+04 0.  0.
         13    1    3    3    0    0 -0.35312807409E+01  0.21166817626E+03 -0.46701891766E+03  0.51275975603E+03  0.10566000000E+00 0. -1.
         -4    1    3    3    0  502  0.29586033546E+02 -0.43801995823E+03  0.34016022849E+03  0.55537896813E+03  0.00000000000E+00 0. -1.
        -13    1    1    2    0    0 -0.26054752805E+02  0.22635178197E+03  0.65011147512E+03  0.68888237065E+03  0.10566000000E+00 0.  1.
<mgrwt>
<rscale>  1 0.72205076E+03</rscale>
<asrwt>0</asrwt>
<pdfrwt beam="2">  1       21 0.94905255E-01 0.10605787E+04</pdfrwt>
<pdfrwt beam="1">  1       -4 0.17540568E+00 0.10605787E+04</pdfrwt>
<totfact> 0.66599818E+00</totfact>
</mgrwt>
</event>
<event>
 6    2  0.2220137E-005  0.1057356E+04  0.7818608E-02  0.9542899E-01
         21   -1    0    0  501  502  0.00000000000E+00  0.00000000000E+00  0.22134334140E+04  0.22134334140E+04  0.00000000000E+00 0. -1.
         -4   -1    0    0    0  501 -0.00000000000E+00 -0.00000000000E+00 -0.34904915756E+03  0.34904915756E+03  0.00000000000E+00 0. -1.
   -9000010    2    1    2    0  502  0.29952676244E+03  0.21317454913E+03  0.19187932538E+04  0.21908375528E+04  0.99138386212E+03 0.  0.
         13    1    3    3    0    0 -0.25985629112E+03  0.61945901433E+02  0.13594662854E+04  0.13854642468E+04  0.10566000000E+00 0. -1.
         -4    1    3    3    0  502  0.55938305356E+03  0.15122864770E+03  0.55932696841E+03  0.80537330604E+03  0.00000000000E+00 0. -1.
        -13    1    1    2    0    0 -0.29952676244E+03 -0.21317454913E+03 -0.54408997362E+02  0.37164501876E+03  0.10566000000E+00 0.  1.
<mgrwt>
<rscale>  1 0.81193602E+03</rscale>
<asrwt>0</asrwt>
<pdfrwt beam="1">  1       21 0.34052821E+00 0.10573560E+04</pdfrwt>
<pdfrwt beam="2">  1       -4 0.53699872E-01 0.10573560E+04</pdfrwt>
<totfact> 0.19305644E+00</totfact>
</mgrwt>
</event>
<event>
 6    2  0.2220137E-005  0.1080923E+04  0.7818608E-02  0.9443332E-01
         -4   -1    0    0    0  501 -0.00000000000E+00  0.00000000000E+00  0.16215230740E+04  0.16215230740E+04  0.00000000000E+00 0. -1.
         21   -1    0    0  501  502  0.00000000000E+00 -0.00000000000E+00 -0.68709091982E+03  0.68709091982E+03  0.00000000000E+00 0. -1.
   -9000010    2    1    2    0  502  0.48777314239E+03  0.35860489623E+01 -0.17656718754E+03  0.10952488193E+04  0.96460277128E+03 0.  0.
         13    1    3    3    0    0  0.39103803473E+02 -0.19460958568E+03  0.33318701158E+03  0.38783449322E+03  0.10566000000E+00 0. -1.
         -4    1    3    3    0  502  0.44866933892E+03  0.19819563464E+03 -0.50975419912E+03  0.70741432612E+03  0.00000000000E+00 0. -1.
        -13    1    1    2    0    0 -0.48777314239E+03 -0.35860489623E+01  0.11109993417E+04  0.12133651745E+04  0.10566000000E+00 0.  1.
<mgrwt>
<rscale>  1 0.88593815E+03</rscale>
<asrwt>0</asrwt>
<pdfrwt beam="2">  1       21 0.10570630E+00 0.10809228E+04</pdfrwt>
<pdfrwt beam="1">  1       -4 0.24946509E+00 0.10809228E+04</pdfrwt>
<totfact> 0.16692154E+00</totfact>
</mgrwt>
</event>
<event>
 6    2  0.2220137E-005  0.1047261E+04  0.7818608E-02  0.9622197E-01
         -4   -1    0    0    0  501 -0.00000000000E+00  0.00000000000E+00  0.97979196823E+03  0.97979196823E+03  0.00000000000E+00 0. -1.
         21   -1    0    0  501  502  0.00000000000E+00 -0.00000000000E+00 -0.45577390448E+03  0.45577390448E+03  0.00000000000E+00 0. -1.
   -9000010    2    1    2    0  502 -0.27484146431E+01 -0.28807662278E+03  0.38612196441E+03  0.11161742013E+04  0.10068559887E+04 0.  0.
         13    1    3    3    0    0  0.23922221110E+03 -0.36045896902E+03 -0.20100136968E+03  0.47703196582E+03  0.10566000000E+00 0. -1.
         -4    1    3    3    0  502 -0.24197062575E+03  0.72382346241E+02  0.58712333410E+03  0.63914223551E+03  0.00000000000E+00 0. -1.
        -13    1    1    2    0    0  0.27484146431E+01  0.28807662278E+03  0.13789609933E+03  0.31939167139E+03  0.10566000000E+00 0.  1.
<mgrwt>
<rscale>  1 0.75844311E+03</rscale>
<asrwt>0</asrwt>
<pdfrwt beam="2">  1       21 0.70119062E-01 0.10472606E+04</pdfrwt>
<pdfrwt beam="1">  1       -4 0.15073723E+00 0.10472606E+04</pdfrwt>
<totfact> 0.20787152E+01</totfact>
</mgrwt>
</event>
<event>
 6    2  0.2220137E-005  0.1014097E+04  0.7818608E-02  0.9697223E-01
         -4   -1    0    0    0  501 -0.00000000000E+00  0.00000000000E+00  0.13073652781E+04  0.13073652781E+04  0.00000000000E+00 0. -1.
         21   -1    0    0  501  502  0.00000000000E+00 -0.00000000000E+00 -0.42143972418E+03  0.42143972418E+03  0.00000000000E+00 0. -1.
   -9000010    2    1    2    0  502 -0.19946868249E+03  0.14427914946E+03  0.24649870956E+03  0.10436255158E+04  0.98376235704E+03 0.  0.
         13    1    3    3    0    0 -0.56403475067E+02  0.48392563000E+03  0.41348616020E+03  0.63901188033E+03  0.10566000000E+00 0. -1.
         -4    1    3    3    0  502 -0.14306520743E+03 -0.33964648054E+03 -0.16698745064E+03  0.40461363545E+03  0.00000000000E+00 0. -1.
        -13    1    1    2    0    0  0.19946868249E+03 -0.14427914946E+03  0.63942684437E+03  0.68517948650E+03  0.10566000000E+00 0.  1.
<mgrwt>
<rscale>  1 0.71182376E+03</rscale>
<asrwt>0</asrwt>
<pdfrwt beam="2">  1       21 0.64836881E-01 0.10140969E+04</pdfrwt>
<pdfrwt beam="1">  1       -4 0.20113312E+00 0.10140969E+04</pdfrwt>
<totfact> 0.10929891E+01</totfact>
</mgrwt>
</event>
<event>
 6    2  0.2220137E-005  0.1056354E+04  0.7818608E-02  0.9578580E-01
         21   -1    0    0  501  502  0.00000000000E+00  0.00000000000E+00  0.59619842078E+03  0.59619842078E+03  0.00000000000E+00 0. -1.
         -4   -1    0    0    0  501 -0.00000000000E+00 -0.00000000000E+00 -0.81321477607E+03  0.81321477607E+03  0.00000000000E+00 0. -1.
   -9000010    2    1    2    0  502  0.80192458347E+00  0.32593922158E+03 -0.92121790642E+02  0.10603635117E+04  0.10048120886E+04 0.  0.
         13    1    3    3    0    0 -0.43076785177E+03 -0.10606427369E+03 -0.71647745423E+02  0.44938177852E+03  0.10566000000E+00 0. -1.
         -4    1    3    3    0  502  0.43156977636E+03  0.43200349527E+03 -0.20474045219E+02  0.61098173321E+03  0.00000000000E+00 0. -1.
        -13    1    1    2    0    0 -0.80192458347E+00 -0.32593922158E+03 -0.12489456464E+03  0.34904968513E+03  0.10566000000E+00 0.  1.
<mgrwt>
<rscale>  1 0.78730260E+03</rscale>
<asrwt>0</asrwt>
<pdfrwt beam="1">  1       21 0.91722834E-01 0.10563543E+04</pdfrwt>
<pdfrwt beam="2">  1       -4 0.12510997E+00 0.10563543E+04</pdfrwt>
<totfact> 0.17950538E+01</totfact>
</mgrwt>
</event>
<event>
 6    2  0.2220137E-005  0.1017279E+04  0.7818608E-02  0.9607070E-01
         -4   -1    0    0    0  501 -0.00000000000E+00  0.00000000000E+00  0.10119354581E+04  0.10119354581E+04  0.00000000000E+00 0. -1.
         21   -1    0    0  501  502  0.00000000000E+00 -0.00000000000E+00 -0.66344067600E+03  0.66344067600E+03  0.00000000000E+00 0. -1.
   -9000010    2    1    2    0  502  0.80953370172E+02  0.32092804386E+03 -0.19809331362E+03  0.10363872336E+04  0.96192997641E+03 0.  0.
         13    1    3    3    0    0 -0.24746653294E+03  0.55735683932E+03 -0.81441843325E+02  0.61523907245E+03  0.10566000000E+00 0. -1.
         -4    1    3    3    0  502  0.32841990311E+03 -0.23642879546E+03 -0.11665147029E+03  0.42114816111E+03  0.00000000000E+00 0. -1.
        -13    1    1    2    0    0 -0.80953370172E+02 -0.32092804386E+03  0.54658809576E+03  0.63898890058E+03  0.10566000000E+00 0.  1.
<mgrwt>
<rscale>  1 0.76830012E+03</rscale>
<asrwt>0</asrwt>
<pdfrwt beam="2">  1       21 0.10206780E+00 0.10172795E+04</pdfrwt>
<pdfrwt beam="1">  1       -4 0.15568238E+00 0.10172795E+04</pdfrwt>
<totfact> 0.78016553E+00</totfact>
</mgrwt>
</event>
<event>
 6    2  0.2220137E-005  0.1061592E+04  0.7818608E-02  0.9532560E-01
         21   -1    0    0  501  502  0.00000000000E+00  0.00000000000E+00  0.37937451654E+03  0.37937451654E+03  0.00000000000E+00 0. -1.
         -4   -1    0    0    0  501 -0.00000000000E+00 -0.00000000000E+00 -0.14660414314E+04  0.14660414314E+04  0.00000000000E+00 0. -1.
   -9000010    2    1    2    0  502  0.14712821593E+03 -0.34659370849E+03 -0.56654191229E+03  0.12033069695E+04  0.99257443745E+03 0.  0.
         13    1    3    3    0    0  0.48695417182E+03 -0.47720780875E+02 -0.14536729354E+02  0.48950277430E+03  0.10566000000E+00 0. -1.
         -4    1    3    3    0  502 -0.33982595589E+03 -0.29887292761E+03 -0.55200518294E+03  0.71380419524E+03  0.00000000000E+00 0. -1.
        -13    1    1    2    0    0 -0.14712821593E+03  0.34659370849E+03 -0.52012500256E+03  0.64210897839E+03  0.10566000000E+00 0.  1.
<mgrwt>
<rscale>  1 0.81925259E+03</rscale>
<asrwt>0</asrwt>
<pdfrwt beam="1">  1       21 0.58365310E-01 0.10615922E+04</pdfrwt>
<pdfrwt beam="2">  1       -4 0.22554483E+00 0.10615922E+04</pdfrwt>
<totfact> 0.95701448E+00</totfact>
</mgrwt>
</event>
<event>
 6    2  0.2220137E-005  0.1047298E+04  0.7818608E-02  0.9711667E-01
         21   -1    0    0  501  502  0.00000000000E+00  0.00000000000E+00  0.12161276387E+04  0.12161276387E+04  0.00000000000E+00 0. -1.
         -4   -1    0    0    0  501 -0.00000000000E+00 -0.00000000000E+00 -0.37835412991E+03  0.37835412991E+03  0.00000000000E+00 0. -1.
   -9000010    2    1    2    0  502 -0.27085703335E+02 -0.21121256924E+03  0.89095002193E+03  0.13750002490E+04  0.10254215515E+04 0.  0.
         13    1    3    3    0    0  0.49114361958E+03 -0.50195245529E+02  0.52381656477E+03  0.71980929586E+03  0.10566000000E+00 0. -1.
         -4    1    3    3    0  502 -0.51822932291E+03 -0.16101732371E+03  0.36713345717E+03  0.65519095311E+03  0.00000000000E+00 0. -1.
        -13    1    1    2    0    0  0.27085703335E+02  0.21121256924E+03 -0.53176513180E+02  0.21948151961E+03  0.10566000000E+00 0.  1.
<mgrwt>
<rscale>  1 0.70326378E+03</rscale>
<asrwt>0</asrwt>
<pdfrwt beam="1">  1       21 0.18709656E+00 0.10472983E+04</pdfrwt>
<pdfrwt beam="2">  1       -4 0.58208328E-01 0.10472983E+04</pdfrwt>
<totfact> 0.15762889E+01</totfact>
</mgrwt>
</event>
<event>
 6    2  0.2220137E-005  0.9786187E+03  0.7818608E-02  0.1015362E+00
         -4   -1    0    0    0  501 -0.00000000000E+00  0.00000000000E+00  0.35556972650E+03  0.35556972650E+03  0.00000000000E+00 0. -1.
         21   -1    0    0  501  502  0.00000000000E+00 -0.00000000000E+00 -0.10578598552E+04  0.10578598552E+04  0.00000000000E+00 0. -1.
   -9000010    2    1    2    0  502 -0.39476274311E+02 -0.49780106744E+02 -0.82191357591E+03  0.12779813792E+04  0.97655416857E+03 0.  0.
         13    1    3    3    0    0 -0.18575392116E+03  0.27657061263E+03 -0.85617338364E+03  0.91871034446E+03  0.10566000000E+00 0. -1.
         -4    1    3    3    0  502  0.14627764685E+03 -0.32635071938E+03  0.34259807730E+02  0.35927103478E+03  0.00000000000E+00 0. -1.
        -13    1    1    2    0    0  0.39476274311E+02  0.49780106744E+02  0.11962344721E+03  0.13544820245E+03  0.10566000000E+00 0.  1.
<mgrwt>
<rscale>  1 0.49398074E+03</rscale>
<asrwt>0</asrwt>
<pdfrwt beam="2">  1       21 0.16274766E+00 0.97861866E+03</pdfrwt>
<pdfrwt beam="1">  1       -4 0.54703037E-01 0.97861866E+03</pdfrwt>
<totfact> 0.27468724E+01</totfact>
</mgrwt>
</event>
<event>
 6    2  0.2220137E-005  0.1095871E+04  0.7818608E-02  0.9525455E-01
         21   -1    0    0  501  502  0.00000000000E+00  0.00000000000E+00  0.91896890475E+03  0.91896890475E+03  0.00000000000E+00 0. -1.
         -4   -1    0    0    0  501 -0.00000000000E+00 -0.00000000000E+00 -0.60161644675E+03  0.60161644675E+03  0.00000000000E+00 0. -1.
   -9000010    2    1    2    0  502 -0.26257220747E+03  0.23270678129E+03  0.38830323475E+03  0.11626319550E+04  0.10381893134E+04 0.  0.
         13    1    3    3    0    0 -0.37277127105E+03  0.31800650069E+03  0.68070712719E+03  0.83871852201E+03  0.10566000000E+00 0. -1.
         -4    1    3    3    0  502  0.11019906358E+03 -0.85299719398E+02 -0.29240389244E+03  0.32391343297E+03  0.00000000000E+00 0. -1.
        -13    1    1    2    0    0  0.26257220747E+03 -0.23270678129E+03 -0.70950776752E+02  0.35795339652E+03  0.10566000000E+00 0.  1.
<mgrwt>
<rscale>  1 0.82432866E+03</rscale>
<asrwt>0</asrwt>
<pdfrwt beam="1">  1       21 0.14137983E+00 0.10958712E+04</pdfrwt>
<pdfrwt beam="2">  1       -4 0.92556376E-01 0.10958712E+04</pdfrwt>
<totfact> 0.12326470E+01</totfact>
</mgrwt>
</event>
<event>
 6    2  0.2220137E-005  0.1051477E+04  0.7818608E-02  0.9592081E-01
         21   -1    0    0  501  502  0.00000000000E+00  0.00000000000E+00  0.38504355201E+03  0.38504355201E+03  0.00000000000E+00 0. -1.
         -4   -1    0    0    0  501 -0.00000000000E+00 -0.00000000000E+00 -0.14353376051E+04  0.14353376051E+04  0.00000000000E+00 0. -1.
   -9000010    2    1    2    0  502 -0.27715688953E+03  0.15078023912E+03 -0.45307047991E+03  0.11449356527E+04  0.10030225157E+04 0.  0.
         13    1    3    3    0    0  0.15528571627E+03 -0.63578148941E+02 -0.61372113519E+03  0.63624639696E+03  0.10566000000E+00 0. -1.
         -4    1    3    3    0  502 -0.43244260580E+03  0.21435838806E+03  0.16065065528E+03  0.50868925572E+03  0.00000000000E+00 0. -1.
        -13    1    1    2    0    0  0.27715688953E+03 -0.15078023912E+03 -0.59722357317E+03  0.67544550442E+03  0.10566000000E+00 0.  1.
<mgrwt>
<rscale>  1 0.77822552E+03</rscale>
<asrwt>0</asrwt>
<pdfrwt beam="1">  1       21 0.59237469E-01 0.10514774E+04</pdfrwt>
<pdfrwt beam="2">  1       -4 0.22082117E+00 0.10514774E+04</pdfrwt>
<totfact> 0.99337240E+00</totfact>
</mgrwt>
</event>
<event>
 6    2  0.2220137E-005  0.1359465E+04  0.7818608E-02  0.9082019E-01
         21   -1    0    0  501  502  0.00000000000E+00  0.00000000000E+00  0.12712273078E+04  0.12712273078E+04  0.00000000000E+00 0.  1.
         -4   -1    0    0    0  501 -0.00000000000E+00 -0.00000000000E+00 -0.10622012740E+04  0.10622012740E+04  0.00000000000E+00 0. -1.
   -9000010    2    1    2    0  502  0.41300489879E+03  0.83162976844E+03 -0.77548142980E+02  0.13616745552E+04  0.99295657596E+03 0.  0.
         13    1    3    3    0    0 -0.24382492468E+03  0.12605820652E+02  0.15119523757E+03  0.28717505399E+03  0.10566000000E+00 0. -1.
         -4    1    3    3    0  502  0.65682982346E+03  0.81902394778E+03 -0.22874338055E+03  0.10744995012E+04  0.00000000000E+00 0. -1.
        -13    1    1    2    0    0 -0.41300489879E+03 -0.83162976844E+03  0.28657417676E+03  0.97175402655E+03  0.10566000000E+00 0.  1.
<mgrwt>
<rscale>  1 0.12358785E+04</rscale>
<asrwt>0</asrwt>
<pdfrwt beam="1">  1       21 0.19557343E+00 0.13594646E+04</pdfrwt>
<pdfrwt beam="2">  1       -4 0.16341558E+00 0.13594646E+04</pdfrwt>
<totfact> 0.10806012E+00</totfact>
</mgrwt>
</event>
<event>
 6    2  0.2220137E-005  0.1023442E+04  0.7818608E-02  0.9721035E-01
         -4   -1    0    0    0  501 -0.00000000000E+00  0.00000000000E+00  0.32146926731E+03  0.32146926731E+03  0.00000000000E+00 0. -1.
         21   -1    0    0  501  502  0.00000000000E+00 -0.00000000000E+00 -0.12573391504E+04  0.12573391504E+04  0.00000000000E+00 0. -1.
   -9000010    2    1    2    0  502  0.37893630811E+02 -0.21787886567E+03 -0.88232289199E+03  0.13512684898E+04  0.99926258738E+03 0.  0.
         13    1    3    3    0    0 -0.12115052537E+03 -0.38364380353E+03 -0.10108956280E+04  0.10880119483E+04  0.10566000000E+00 0. -1.
         -4    1    3    3    0  502  0.15904415618E+03  0.16576493786E+03  0.12857273598E+03  0.26325654156E+03  0.00000000000E+00 0. -1.
        -13    1    1    2    0    0 -0.37893630811E+02  0.21787886567E+03 -0.53546991119E+02  0.22753992789E+03  0.10566000000E+00 0.  1.
<mgrwt>
<rscale>  1 0.69778054E+03</rscale>
<asrwt>0</asrwt>
<pdfrwt beam="2">  1       21 0.19343679E+00 0.10234417E+04</pdfrwt>
<pdfrwt beam="1">  1       -4 0.49456810E-01 0.10234417E+04</pdfrwt>
<totfact> 0.20202860E+01</totfact>
</mgrwt>
</event>
<event>
 6    2  0.2220137E-005  0.1012629E+04  0.7818608E-02  0.9793631E-01
         21   -1    0    0  501  502  0.00000000000E+00  0.00000000000E+00  0.41182694790E+03  0.41182694790E+03  0.00000000000E+00 0. -1.
         -4   -1    0    0    0  501 -0.00000000000E+00 -0.00000000000E+00 -0.12383100768E+04  0.12383100768E+04  0.00000000000E+00 0. -1.
   -9000010    2    1    2    0  502  0.62543239447E+02  0.16824765471E+03 -0.24536862468E+03  0.10419322826E+04  0.99659329189E+03 0.  0.
         13    1    3    3    0    0  0.39072921607E+03  0.21700461303E+03  0.19743941568E+03  0.48861299246E+03  0.10566000000E+00 0. -1.
         -4    1    3    3    0  502 -0.32818597663E+03 -0.48756958325E+02 -0.44280804036E+03  0.55331929015E+03  0.00000000000E+00 0. -1.
        -13    1    1    2    0    0 -0.62543239447E+02 -0.16824765471E+03 -0.58111450422E+03  0.60820474209E+03  0.10566000000E+00 0.  1.
<mgrwt>
<rscale>  1 0.65705484E+03</rscale>
<asrwt>0</asrwt>
<pdfrwt beam="1">  1       21 0.63357993E-01 0.10126288E+04</pdfrwt>
<pdfrwt beam="2">  1       -4 0.19050924E+00 0.10126288E+04</pdfrwt>
<totfact> 0.13563293E+01</totfact>
</mgrwt>
</event>
<event>
 6    2  0.2220137E-005  0.9180683E+03  0.7818608E-02  0.9906280E-01
         21   -1    0    0  501  502  0.00000000000E+00  0.00000000000E+00  0.10295501442E+04  0.10295501442E+04  0.00000000000E+00 0. -1.
         -4   -1    0    0    0  501 -0.00000000000E+00 -0.00000000000E+00 -0.30349092973E+03  0.30349092973E+03  0.00000000000E+00 0. -1.
   -9000010    2    1    2    0  502 -0.12720237160E+03  0.10823205916E+03  0.71859165408E+03  0.11658573499E+04  0.90274845496E+03 0.  0.
         13    1    3    3    0    0  0.30471377769E+03  0.31413018839E+03  0.30544584007E+03  0.53369039147E+03  0.10566000000E+00 0. -1.
         -4    1    3    3    0  502 -0.43191614929E+03 -0.20589812923E+03  0.41314581401E+03  0.63216695838E+03  0.00000000000E+00 0. -1.
        -13    1    1    2    0    0  0.12720237160E+03 -0.10823205916E+03  0.74675603818E+01  0.16718372407E+03  0.10566000000E+00 0.  1.
<mgrwt>
<rscale>  1 0.59957888E+03</rscale>
<asrwt>0</asrwt>
<pdfrwt beam="1">  1       21 0.15839233E+00 0.91806830E+03</pdfrwt>
<pdfrwt beam="2">  1       -4 0.46690913E-01 0.91806830E+03</pdfrwt>
<totfact> 0.41760684E+01</totfact>
</mgrwt>
</event>
<event>
 6    2  0.2220137E-005  0.1062685E+04  0.7818608E-02  0.9537750E-01
         -4   -1    0    0    0  501 -0.00000000000E+00  0.00000000000E+00  0.89274764693E+03  0.89274764693E+03  0.00000000000E+00 0. -1.
         21   -1    0    0  501  502  0.00000000000E+00 -0.00000000000E+00 -0.64920652627E+03  0.64920652627E+03  0.00000000000E+00 0. -1.
   -9000010    2    1    2    0  502  0.21477632593E+03  0.29964001582E+03 -0.60044669611E+02  0.10643797261E+04  0.99668742834E+03 0.  0.
         13    1    3    3    0    0  0.58802975808E+03  0.26019995419E+02 -0.11032078336E+03  0.59885450900E+03  0.10566000000E+00 0. -1.
         -4    1    3    3    0  502 -0.37325343215E+03  0.27362002040E+03  0.50276113746E+02  0.46552521713E+03  0.00000000000E+00 0. -1.
        -13    1    1    2    0    0 -0.21477632593E+03 -0.29964001582E+03  0.30358579027E+03  0.47757444706E+03  0.10566000000E+00 0.  1.
<mgrwt>
<rscale>  1 0.81556948E+03</rscale>
<asrwt>0</asrwt>
<pdfrwt beam="2">  1       21 0.99877928E-01 0.10626847E+04</pdfrwt>
<pdfrwt beam="1">  1       -4 0.13734579E+00 0.10626847E+04</pdfrwt>
<totfact> 0.11447021E+01</totfact>
</mgrwt>
</event>
<event>
 6    2  0.2220137E-005  0.1087067E+04  0.7818608E-02  0.9517954E-01
         -4   -1    0    0    0  501 -0.00000000000E+00  0.00000000000E+00  0.93683720288E+03  0.93683720288E+03  0.00000000000E+00 0. -1.
         21   -1    0    0  501  502  0.00000000000E+00 -0.00000000000E+00 -0.58519771202E+03  0.58519771202E+03  0.00000000000E+00 0. -1.
   -9000010    2    1    2    0  502  0.34385170072E+03 -0.13377602538E+03  0.13827710336E+03  0.10958265895E+04  0.10225386741E+04 0.  0.
         13    1    3    3    0    0  0.17489607835E+03 -0.40037700641E+03  0.46740738823E+03  0.63981252193E+03  0.10566000000E+00 0. -1.
         -4    1    3    3    0  502  0.16895562236E+03  0.26660098104E+03 -0.32913028487E+03  0.45601406759E+03  0.00000000000E+00 0. -1.
        -13    1    1    2    0    0 -0.34385170072E+03  0.13377602538E+03  0.21336238750E+03  0.42620832537E+03  0.10566000000E+00 0.  1.
<mgrwt>
<rscale>  1 0.82972958E+03</rscale>
<asrwt>0</asrwt>
<pdfrwt beam="2">  1       21 0.90030417E-01 0.10870673E+04</pdfrwt>
<pdfrwt beam="1">  1       -4 0.14412880E+00 0.10870673E+04</pdfrwt>
<totfact> 0.12962092E+01</totfact>
</mgrwt>
</event>
<event>
 6    2  0.2220137E-005  0.1007522E+04  0.7818608E-02  0.9937144E-01
         -4   -1    0    0    0  501 -0.00000000000E+00  0.00000000000E+00  0.72662366630E+03  0.72662366630E+03  0.00000000000E+00 0. -1.
         21   -1    0    0  501  502  0.00000000000E+00 -0.00000000000E+00 -0.59689600906E+03  0.59689600906E+03  0.00000000000E+00 0. -1.
   -9000010    2    1    2    0  502  0.98586910679E+02  0.58173287655E+02 -0.15246612705E+03  0.10189924132E+04  0.10009975564E+04 0.  0.
         13    1    3    3    0    0  0.46059561063E+03  0.27382787319E+02  0.20896075086E+03  0.50652022679E+03  0.10566000000E+00 0. -1.
         -4    1    3    3    0  502 -0.36200869996E+03  0.30790500336E+02 -0.36142687792E+03  0.51247218640E+03  0.00000000000E+00 0. -1.
        -13    1    1    2    0    0 -0.98586910679E+02 -0.58173287655E+02  0.28219378429E+03  0.30452726218E+03  0.10566000000E+00 0.  1.
<mgrwt>
<rscale>  1 0.58494395E+03</rscale>
<asrwt>0</asrwt>
<pdfrwt beam="2">  1       21 0.91830155E-01 0.10075215E+04</pdfrwt>
<pdfrwt beam="1">  1       -4 0.11178826E+00 0.10075215E+04</pdfrwt>
<totfact> 0.23846513E+01</totfact>
</mgrwt>
</event>
<event>
 6    2  0.2220137E-005  0.1101947E+04  0.7818608E-02  0.9458001E-01
         -4   -1    0    0    0  501 -0.00000000000E+00  0.00000000000E+00  0.15267248477E+04  0.15267248477E+04  0.00000000000E+00 0. -1.
         21   -1    0    0  501  502  0.00000000000E+00 -0.00000000000E+00 -0.39550749164E+03  0.39550749164E+03  0.00000000000E+00 0. -1.
   -9000010    2    1    2    0  502 -0.63492155153E+02 -0.43248730768E+03  0.92587300323E+03  0.14392801269E+04  0.10115384029E+04 0.  0.
         13    1    3    3    0    0 -0.28895154045E+03 -0.40789315003E+03  0.14466528539E+02  0.50007909993E+03  0.10566000000E+00 0. -1.
         -4    1    3    3    0  502  0.22545938530E+03 -0.24594157647E+02  0.91140647469E+03  0.93920102700E+03  0.00000000000E+00 0. -1.
        -13    1    1    2    0    0  0.63492155153E+02  0.43248730768E+03  0.20534435285E+03  0.48295221242E+03  0.10566000000E+00 0.  1.
<mgrwt>
<rscale>  1 0.87452334E+03</rscale>
<asrwt>0</asrwt>
<pdfrwt beam="2">  1       21 0.60847307E-01 0.11019467E+04</pdfrwt>
<pdfrwt beam="1">  1       -4 0.23488074E+00 0.11019467E+04</pdfrwt>
<totfact> 0.75805590E+00</totfact>
</mgrwt>
</event>
<event>
 6    2  0.2220137E-005  0.1022655E+04  0.7818608E-02  0.9698048E-01
         -4   -1    0    0    0  501 -0.00000000000E+00  0.00000000000E+00  0.68973610242E+03  0.68973610242E+03  0.00000000000E+00 0. -1.
         21   -1    0    0  501  502  0.00000000000E+00 -0.00000000000E+00 -0.91503840526E+03  0.91503840526E+03  0.00000000000E+00 0. -1.
   -9000010    2    1    2    0  502 -0.12244648201E+02 -0.23907349752E+03 -0.58088735304E+03  0.11761175263E+04  0.99424154513E+03 0.  0.
         13    1    3    3    0    0  0.26019456640E+03 -0.99028020211E+02 -0.76817864344E+03  0.81707172303E+03  0.10566000000E+00 0. -1.
         -4    1    3    3    0  502 -0.27243921460E+03 -0.14004547730E+03  0.18729129040E+03  0.35904580324E+03  0.00000000000E+00 0. -1.
        -13    1    1    2    0    0  0.12244648201E+02  0.23907349752E+03  0.35558505020E+03  0.42865698141E+03  0.10566000000E+00 0.  1.
<mgrwt>
<rscale>  1 0.71133111E+03</rscale>
<asrwt>0</asrwt>
<pdfrwt beam="2">  1       21 0.14077514E+00 0.10226545E+04</pdfrwt>
<pdfrwt beam="1">  1       -4 0.10611325E+00 0.10226545E+04</pdfrwt>
<totfact> 0.90458608E+00</totfact>
</mgrwt>
</event>
<event>
 6    2  0.2220137E-005  0.1096749E+04  0.7818608E-02  0.9554550E-01
         21   -1    0    0  501  502  0.00000000000E+00  0.00000000000E+00  0.59716041907E+03  0.59716041907E+03  0.00000000000E+00 0. -1.
         -4   -1    0    0    0  501 -0.00000000000E+00 -0.00000000000E+00 -0.86156639750E+03  0.86156639750E+03  0.00000000000E+00 0. -1.
   -9000010    2    1    2    0  502  0.31036123532E+03 -0.61553479102E+02 -0.97704746214E+02  0.11010925912E+04  0.10501170172E+04 0.  0.
         13    1    3    3    0    0 -0.15731071186E+03 -0.39665650455E+03  0.17892674702E+03  0.46270707216E+03  0.10566000000E+00 0. -1.
         -4    1    3    3    0  502  0.46767194718E+03  0.33510302545E+03 -0.27663149323E+03  0.63838551902E+03  0.00000000000E+00 0. -1.
        -13    1    1    2    0    0 -0.31036123532E+03  0.61553479102E+02 -0.16670123222E+03  0.35763422539E+03  0.10566000000E+00 0.  1.
<mgrwt>
<rscale>  1 0.80378843E+03</rscale>
<asrwt>0</asrwt>
<pdfrwt beam="1">  1       21 0.91870835E-01 0.10967491E+04</pdfrwt>
<pdfrwt beam="2">  1       -4 0.13254868E+00 0.10967491E+04</pdfrwt>
<totfact> 0.15358350E+01</totfact>
</mgrwt>
</event>
<event>
 6    2  0.2220137E-005  0.1008780E+04  0.7818608E-02  0.9803327E-01
         -4   -1    0    0    0  501 -0.00000000000E+00  0.00000000000E+00  0.80780977713E+03  0.80780977713E+03  0.00000000000E+00 0. -1.
         21   -1    0    0  501  502  0.00000000000E+00 -0.00000000000E+00 -0.45281889101E+03  0.45281889101E+03  0.00000000000E+00 0. -1.
   -9000010    2    1    2    0  502  0.74596916498E+01 -0.17570780323E+03  0.20480256413E+03  0.10293595125E+04  0.99333178578E+03 0.  0.
         13    1    3    3    0    0 -0.11285623979E+03  0.15952901146E+03 -0.33194183942E+03  0.38519012485E+03  0.10566000000E+00 0. -1.
         -4    1    3    3    0  502  0.12031593144E+03 -0.33523681469E+03  0.53674440355E+03  0.64416938768E+03  0.00000000000E+00 0. -1.
        -13    1    1    2    0    0 -0.74596916498E+01  0.17570780323E+03  0.15018832199E+03  0.23126915562E+03  0.10566000000E+00 0.  1.
<mgrwt>
<rscale>  1 0.65184278E+03</rscale>
<asrwt>0</asrwt>
<pdfrwt beam="2">  1       21 0.69664445E-01 0.10087799E+04</pdfrwt>
<pdfrwt beam="1">  1       -4 0.12427843E+00 0.10087799E+04</pdfrwt>
<totfact> 0.35054701E+01</totfact>
</mgrwt>
</event>
<event>
 6    2  0.2220137E-005  0.1017218E+04  0.7818608E-02  0.9705049E-01
         21   -1    0    0  501  502  0.00000000000E+00  0.00000000000E+00  0.92427035636E+03  0.92427035636E+03  0.00000000000E+00 0. -1.
         -4   -1    0    0    0  501 -0.00000000000E+00 -0.00000000000E+00 -0.58721058618E+03  0.58721058618E+03  0.00000000000E+00 0. -1.
   -9000010    2    1    2    0  502  0.19760722973E+03  0.13193409512E+03  0.58058702486E+03  0.11712446164E+04  0.98907908444E+03 0.  0.
         13    1    3    3    0    0  0.56872915018E+03 -0.28264794555E+02  0.16812368541E+03  0.59373169836E+03  0.10566000000E+00 0. -1.
         -4    1    3    3    0  502 -0.37112192045E+03  0.16019888967E+03  0.41246333945E+03  0.57751291802E+03  0.00000000000E+00 0. -1.
        -13    1    1    2    0    0 -0.19760722973E+03 -0.13193409512E+03 -0.24352725468E+03  0.34023632615E+03  0.10566000000E+00 0.  1.
<mgrwt>
<rscale>  1 0.70716960E+03</rscale>
<asrwt>0</asrwt>
<pdfrwt beam="1">  1       21 0.14219544E+00 0.10172181E+04</pdfrwt>
<pdfrwt beam="2">  1       -4 0.90340091E-01 0.10172181E+04</pdfrwt>
<totfact> 0.12958790E+01</totfact>
</mgrwt>
</event>
<event>
 6    2  0.2220137E-005  0.1027151E+04  0.7818608E-02  0.9781670E-01
         21   -1    0    0  501  502  0.00000000000E+00  0.00000000000E+00  0.88194078449E+03  0.88194078449E+03  0.00000000000E+00 0. -1.
         -4   -1    0    0    0  501 -0.00000000000E+00 -0.00000000000E+00 -0.75859576195E+03  0.75859576195E+03  0.00000000000E+00 0. -1.
   -9000010    2    1    2    0  502  0.10950123175E+03 -0.14147145820E+03  0.55912101934E+03  0.11694681610E+04  0.10114518140E+04 0.  0.
         13    1    3    3    0    0 -0.22496373484E+03 -0.38015843057E+03 -0.39386196363E+02  0.44348663786E+03  0.10566000000E+00 0. -1.
         -4    1    3    3    0  502  0.33446496659E+03  0.23868697237E+03  0.59850721571E+03  0.72598152312E+03  0.00000000000E+00 0. -1.
        -13    1    1    2    0    0 -0.10950123175E+03  0.14147145820E+03 -0.43577599680E+03  0.47106838547E+03  0.10566000000E+00 0.  1.
<mgrwt>
<rscale>  1 0.66355586E+03</rscale>
<asrwt>0</asrwt>
<pdfrwt beam="1">  1       21 0.13568320E+00 0.10271511E+04</pdfrwt>
<pdfrwt beam="2">  1       -4 0.11670704E+00 0.10271511E+04</pdfrwt>
<totfact> 0.79015073E+00</totfact>
</mgrwt>
</event>
<event>
 6    2  0.2220137E-005  0.1082074E+04  0.7818608E-02  0.9501925E-01
         -4   -1    0    0    0  501 -0.00000000000E+00  0.00000000000E+00  0.15052322518E+04  0.15052322518E+04  0.00000000000E+00 0. -1.
         21   -1    0    0  501  502  0.00000000000E+00 -0.00000000000E+00 -0.37607330268E+03  0.37607330268E+03  0.00000000000E+00 0. -1.
   -9000010    2    1    2    0  502 -0.13197307391E+03 -0.37296282308E+03  0.65945215415E+03  0.12671861491E+04  0.10071571046E+04 0.  0.
         13    1    3    3    0    0  0.44600583098E+02  0.71888087172E+02  0.77109691394E+03  0.77572390123E+03  0.10566000000E+00 0. -1.
         -4    1    3    3    0  502 -0.17657365701E+03 -0.44485091025E+03 -0.11164475979E+03  0.49146224788E+03  0.00000000000E+00 0. -1.
        -13    1    1    2    0    0  0.13197307391E+03  0.37296282308E+03  0.46970679493E+03  0.61411940533E+03  0.10566000000E+00 0.  1.
<mgrwt>
<rscale>  1 0.84142079E+03</rscale>
<asrwt>0</asrwt>
<pdfrwt beam="2">  1       21 0.57857432E-01 0.10820737E+04</pdfrwt>
<pdfrwt beam="1">  1       -4 0.23157419E+00 0.10820737E+04</pdfrwt>
<totfact> 0.89177089E+00</totfact>
</mgrwt>
</event>
<event>
 6    2  0.2220137E-005  0.9943089E+03  0.7818608E-02  0.1030482E+00
         -4   -1    0    0    0  501 -0.00000000000E+00  0.00000000000E+00  0.82467062496E+03  0.82467062496E+03  0.00000000000E+00 0. -1.
         21   -1    0    0  501  502  0.00000000000E+00 -0.00000000000E+00 -0.32524837612E+03  0.32524837612E+03  0.00000000000E+00 0. -1.
   -9000010    2    1    2    0  502 -0.37730236515E+02 -0.72907508557E+01  0.46244080589E+03  0.10965864212E+04  0.99356607949E+03 0.  0.
         13    1    3    3    0    0  0.14620622624E+03 -0.41989220678E+03  0.46701839741E+03  0.64481929297E+03  0.10566000000E+00 0. -1.
         -4    1    3    3    0  502 -0.18393646275E+03  0.41260145592E+03 -0.45775915213E+01  0.45176712818E+03  0.00000000000E+00 0. -1.
        -13    1    1    2    0    0  0.37730236515E+02  0.72907508557E+01  0.36981442944E+02  0.53332579928E+02  0.10566000000E+00 0.  1.
<mgrwt>
<rscale>  1 0.44086326E+03</rscale>
<asrwt>0</asrwt>
<pdfrwt beam="2">  1       21 0.50038212E-01 0.99430895E+03</pdfrwt>
<pdfrwt beam="1">  1       -4 0.12687240E+00 0.99430895E+03</pdfrwt>
<totfact> 0.69490567E+01</totfact>
</mgrwt>
</event>
<event>
 6    2  0.2220137E-005  0.9983313E+03  0.7818608E-02  0.1018714E+00
         21   -1    0    0  501  502  0.00000000000E+00  0.00000000000E+00  0.13876311115E+04  0.13876311115E+04  0.00000000000E+00 0. -1.
         -4   -1    0    0    0  501 -0.00000000000E+00 -0.00000000000E+00 -0.20344009700E+03  0.20344009700E+03  0.00000000000E+00 0. -1.
   -9000010    2    1    2    0  502  0.23525137582E+02 -0.48646801190E+02  0.11637677923E+04  0.15333038948E+04  0.99686780263E+03 0.  0.
         13    1    3    3    0    0 -0.31231812099E+02  0.20110427344E+03 -0.11191037612E+03  0.23225481336E+03  0.10566000000E+00 0. -1.
         -4    1    3    3    0  502  0.54756949681E+02 -0.24975107463E+03  0.12756781684E+04  0.13010490814E+04  0.00000000000E+00 0. -1.
        -13    1    1    2    0    0 -0.23525137582E+02  0.48646801190E+02  0.20423222132E+02  0.57767313686E+02  0.10566000000E+00 0.  1.
<mgrwt>
<rscale>  1 0.48153518E+03</rscale>
<asrwt>0</asrwt>
<pdfrwt beam="1">  1       21 0.21348170E+00 0.99833129E+03</pdfrwt>
<pdfrwt beam="2">  1       -4 0.31298477E-01 0.99833129E+03</pdfrwt>
<totfact> 0.37515299E+01</totfact>
</mgrwt>
</event>
<event>
 6    2  0.2220137E-005  0.1017832E+04  0.7818608E-02  0.9829369E-01
         21   -1    0    0  501  502  0.00000000000E+00  0.00000000000E+00  0.21072576349E+04  0.21072576349E+04  0.00000000000E+00 0. -1.
         -4   -1    0    0    0  501 -0.00000000000E+00 -0.00000000000E+00 -0.25428491034E+03  0.25428491034E+03  0.00000000000E+00 0. -1.
   -9000010    2    1    2    0  502  0.14571413758E+03  0.59056700053E+02  0.19333899014E+04  0.21849434592E+04  0.10056147899E+04 0.  0.
         13    1    3    3    0    0  0.41988522105E+03  0.26095288216E+03  0.46882336600E+03  0.68131884256E+03  0.10566000000E+00 0. -1.
         -4    1    3    3    0  502 -0.27417108347E+03 -0.20189618210E+03  0.14645665354E+04  0.15036246167E+04  0.00000000000E+00 0. -1.
        -13    1    1    2    0    0 -0.14571413758E+03 -0.59056700053E+02 -0.80417176750E+02  0.17659908605E+03  0.10566000000E+00 0.  1.
<mgrwt>
<rscale>  1 0.63809999E+03</rscale>
<asrwt>0</asrwt>
<pdfrwt beam="1">  1       21 0.32419347E+00 0.10178317E+04</pdfrwt>
<pdfrwt beam="2">  1       -4 0.39120757E-01 0.10178317E+04</pdfrwt>
<totfact> 0.47644883E+00</totfact>
</mgrwt>
</event>
<event>
 6    2  0.2220137E-005  0.9924627E+03  0.7818608E-02  0.9760649E-01
         21   -1    0    0  501  502  0.00000000000E+00  0.00000000000E+00  0.13695576705E+04  0.13695576705E+04  0.00000000000E+00 0. -1.
         -4   -1    0    0    0  501 -0.00000000000E+00 -0.00000000000E+00 -0.27249442851E+03  0.27249442851E+03  0.00000000000E+00 0. -1.
   -9000010    2    1    2    0  502  0.12417363741E+03 -0.17254761764E+03  0.99815645465E+03  0.14075860325E+04  0.96942785104E+03 0.  0.
         13    1    3    3    0    0 -0.64457634420E+02 -0.31987417019E+03  0.11000707271E+04  0.11474449386E+04  0.10566000000E+00 0. -1.
         -4    1    3    3    0  502  0.18863127183E+03  0.14732655255E+03 -0.10191427245E+03  0.26014109388E+03  0.00000000000E+00 0. -1.
        -13    1    1    2    0    0 -0.12417363741E+03  0.17254761764E+03  0.98906787302E+02  0.23446606645E+03  0.10566000000E+00 0.  1.
<mgrwt>
<rscale>  1 0.67517767E+03</rscale>
<asrwt>0</asrwt>
<pdfrwt beam="1">  1       21 0.21070118E+00 0.99246266E+03</pdfrwt>
<pdfrwt beam="2">  1       -4 0.41922221E-01 0.99246266E+03</pdfrwt>
<totfact> 0.21783978E+01</totfact>
</mgrwt>
</event>
<event>
 6    2  0.2220137E-005  0.1026486E+04  0.7818608E-02  0.9706760E-01
         21   -1    0    0  501  502  0.00000000000E+00  0.00000000000E+00  0.48279054489E+03  0.48279054489E+03  0.00000000000E+00 0. -1.
         -4   -1    0    0    0  501 -0.00000000000E+00 -0.00000000000E+00 -0.82796211672E+03  0.82796211672E+03  0.00000000000E+00 0. -1.
   -9000010    2    1    2    0  502 -0.19292448458E+03  0.12504300589E+03 -0.33812276224E+03  0.10807411250E+04  0.10004092997E+04 0.  0.
         13    1    3    3    0    0 -0.13007303536E+03  0.51735917238E+03  0.36437566214E+02  0.53470292235E+03  0.10566000000E+00 0. -1.
         -4    1    3    3    0  502 -0.62851449221E+02 -0.39231616649E+03 -0.37456032845E+03  0.54603820270E+03  0.00000000000E+00 0. -1.
        -13    1    1    2    0    0  0.19292448458E+03 -0.12504300589E+03 -0.70488095995E+01  0.23001153656E+03  0.10566000000E+00 0.  1.
<mgrwt>
<rscale>  1 0.70615715E+03</rscale>
<asrwt>0</asrwt>
<pdfrwt beam="1">  1       21 0.74275468E-01 0.10264864E+04</pdfrwt>
<pdfrwt beam="2">  1       -4 0.12737879E+00 0.10264864E+04</pdfrwt>
<totfact> 0.28355859E+01</totfact>
</mgrwt>
</event>
<event>
 6    2  0.2220137E-005  0.1060343E+04  0.7818608E-02  0.9701667E-01
         21   -1    0    0  501  502  0.00000000000E+00  0.00000000000E+00  0.32885288114E+03  0.32885288114E+03  0.00000000000E+00 0. -1.
         -4   -1    0    0    0  501 -0.00000000000E+00 -0.00000000000E+00 -0.13432791929E+04  0.13432791929E+04  0.00000000000E+00 0. -1.
   -9000010    2    1    2    0  502 -0.16553429686E+03 -0.13271459666E+03 -0.63092273097E+03  0.12338515985E+04  0.10388991804E+04 0.  0.
         13    1    3    3    0    0 -0.39796037028E+03  0.28642405450E+03 -0.68754213890E+02  0.49511448010E+03  0.10566000000E+00 0. -1.
         -4    1    3    3    0  502  0.23242607342E+03 -0.41913865116E+03 -0.56216851708E+03  0.73873711840E+03  0.00000000000E+00 0. -1.
        -13    1    1    2    0    0  0.16553429686E+03  0.13271459666E+03 -0.38350358080E+03  0.43828047556E+03  0.10566000000E+00 0.  1.
<mgrwt>
<rscale>  1 0.70917599E+03</rscale>
<asrwt>0</asrwt>
<pdfrwt beam="1">  1       21 0.50592751E-01 0.10603425E+04</pdfrwt>
<pdfrwt beam="2">  1       -4 0.20665834E+00 0.10603425E+04</pdfrwt>
<totfact> 0.17321971E+01</totfact>
</mgrwt>
</event>
<event>
 6    2  0.2220137E-005  0.1048536E+04  0.7818608E-02  0.9590447E-01
         -4   -1    0    0    0  501 -0.00000000000E+00  0.00000000000E+00  0.98259056973E+03  0.98259056973E+03  0.00000000000E+00 0. -1.
         21   -1    0    0  501  502  0.00000000000E+00 -0.00000000000E+00 -0.47696552566E+03  0.47696552566E+03  0.00000000000E+00 0. -1.
   -9000010    2    1    2    0  502 -0.24744569123E+03  0.20285489747E+03  0.40664799904E+03  0.11246293181E+04  0.99852342411E+03 0.  0.
         13    1    3    3    0    0 -0.63080559673E+03  0.69090953608E+02  0.31468182838E+03  0.70831767238E+03  0.10566000000E+00 0. -1.
         -4    1    3    3    0  502  0.38335990550E+03  0.13376394386E+03  0.91966170664E+02  0.41631164573E+03  0.00000000000E+00 0. -1.
        -13    1    1    2    0    0  0.24744569123E+03 -0.20285489747E+03  0.98977045028E+02  0.33492677729E+03  0.10566000000E+00 0.  1.
<mgrwt>
<rscale>  1 0.77931726E+03</rscale>
<asrwt>0</asrwt>
<pdfrwt beam="2">  1       21 0.73379312E-01 0.10485364E+04</pdfrwt>
<pdfrwt beam="1">  1       -4 0.15116778E+00 0.10485364E+04</pdfrwt>
<totfact> 0.18574870E+01</totfact>
</mgrwt>
</event>
<event>
 6    2  0.2220137E-005  0.1044475E+04  0.7818608E-02  0.9661497E-01
         21   -1    0    0  501  502  0.00000000000E+00  0.00000000000E+00  0.30400144219E+03  0.30400144219E+03  0.00000000000E+00 0. -1.
         -4   -1    0    0    0  501 -0.00000000000E+00 -0.00000000000E+00 -0.15346043535E+04  0.15346043535E+04  0.00000000000E+00 0. -1.
   -9000010    2    1    2    0  502  0.23459610972E+03  0.97703925513E+02 -0.72102370830E+03  0.12691741782E+04  0.10130876146E+04 0.  0.
         13    1    3    3    0    0 -0.75878951663E+02 -0.36787612680E+03 -0.58178423673E+03  0.69250514023E+03  0.10566000000E+00 0. -1.
         -4    1    3    3    0  502  0.31047506138E+03  0.46558005231E+03 -0.13923947157E+03  0.57666903792E+03  0.00000000000E+00 0. -1.
        -13    1    1    2    0    0 -0.23459610972E+03 -0.97703925513E+02 -0.50957920306E+03  0.56943161759E+03  0.10566000000E+00 0.  1.
<mgrwt>
<rscale>  1 0.73356222E+03</rscale>
<asrwt>0</asrwt>
<pdfrwt beam="1">  1       21 0.46769454E-01 0.10444749E+04</pdfrwt>
<pdfrwt beam="2">  1       -4 0.23609297E+00 0.10444749E+04</pdfrwt>
<totfact> 0.13334281E+01</totfact>
</mgrwt>
</event>
<event>
 6    2  0.2220137E-005  0.1022564E+04  0.7818608E-02  0.9684869E-01
         21   -1    0    0  501  502  0.00000000000E+00  0.00000000000E+00  0.33336357293E+03  0.33336357293E+03  0.00000000000E+00 0. -1.
         -4   -1    0    0    0  501 -0.00000000000E+00 -0.00000000000E+00 -0.15018568172E+04  0.15018568172E+04  0.00000000000E+00 0. -1.
   -9000010    2    1    2    0  502  0.15162570085E+03  0.19913583334E+03 -0.53497465282E+03  0.11540513581E+04  0.99145913923E+03 0.  0.
         13    1    3    3    0    0 -0.25567881217E+03  0.11393358575E+03 -0.66218797249E+03  0.71891963322E+03  0.10566000000E+00 0. -1.
         -4    1    3    3    0  502  0.40730451302E+03  0.85202247595E+02  0.12721331967E+03  0.43513172491E+03  0.00000000000E+00 0. -1.
        -13    1    1    2    0    0 -0.15162570085E+03 -0.19913583334E+03 -0.63351859141E+03  0.68116903197E+03  0.10566000000E+00 0.  1.
<mgrwt>
<rscale>  1 0.71924854E+03</rscale>
<asrwt>0</asrwt>
<pdfrwt beam="1">  1       21 0.51286704E-01 0.10225638E+04</pdfrwt>
<pdfrwt beam="2">  1       -4 0.23105489E+00 0.10225638E+04</pdfrwt>
<totfact> 0.11784335E+01</totfact>
</mgrwt>
</event>
<event>
 6    2  0.2220137E-005  0.8587950E+03  0.7818608E-02  0.1003158E+00
         -4   -1    0    0    0  501 -0.00000000000E+00  0.00000000000E+00  0.20134962464E+03  0.20134962464E+03  0.00000000000E+00 0. -1.
         21   -1    0    0  501  502  0.00000000000E+00 -0.00000000000E+00 -0.15814010875E+04  0.15814010875E+04  0.00000000000E+00 0. -1.
   -9000010    2    1    2    0  502 -0.13355518809E+03 -0.31085458369E+02 -0.14017618061E+04  0.16439175599E+04  0.84777679173E+03 0.  0.
         13    1    3    3    0    0 -0.14600653003E+03  0.96292532020E+02  0.53607569314E+02  0.18293152048E+03  0.10566000000E+00 0. -1.
         -4    1    3    3    0  502  0.12451341936E+02 -0.12737799039E+03 -0.14553693755E+04  0.14609860394E+04  0.00000000000E+00 0. -1.
        -13    1    1    2    0    0  0.13355518809E+03  0.31085458369E+02  0.21710343300E+02  0.13883315223E+03  0.10566000000E+00 0.  1.
<mgrwt>
<rscale>  1 0.54287068E+03</rscale>
<asrwt>0</asrwt>
<pdfrwt beam="2">  1       21 0.24329246E+00 0.85879496E+03</pdfrwt>
<pdfrwt beam="1">  1       -4 0.30976867E-01 0.85879496E+03</pdfrwt>
<totfact> 0.24964294E+01</totfact>
</mgrwt>
</event>
<event>
 6    2  0.2220137E-005  0.9996764E+03  0.7818608E-02  0.9947243E-01
         21   -1    0    0  501  502  0.00000000000E+00  0.00000000000E+00  0.15840016767E+03  0.15840016767E+03  0.00000000000E+00 0. -1.
         -4   -1    0    0    0  501 -0.00000000000E+00 -0.00000000000E+00 -0.19556524364E+04  0.19556524364E+04  0.00000000000E+00 0. -1.
   -9000010    2    1    2    0  502 -0.50154162594E+02 -0.10178729623E+03 -0.16147042741E+04  0.18991110418E+04  0.99321536559E+03 0.  0.
         13    1    3    3    0    0  0.23378621524E+03  0.82136353345E+02 -0.15305734348E+04  0.15505023139E+04  0.10566000000E+00 0. -1.
         -4    1    3    3    0  502 -0.28394037784E+03 -0.18392364958E+03 -0.84130839370E+02  0.34860872791E+03  0.00000000000E+00 0. -1.
        -13    1    1    2    0    0  0.50154162594E+02  0.10178729623E+03 -0.18254799461E+03  0.21494156229E+03  0.10566000000E+00 0.  1.
<mgrwt>
<rscale>  1 0.58025339E+03</rscale>
<asrwt>0</asrwt>
<pdfrwt beam="1">  1       21 0.24369255E-01 0.99967638E+03</pdfrwt>
<pdfrwt beam="2">  1       -4 0.30086963E+00 0.99967638E+03</pdfrwt>
<totfact> 0.20299709E+01</totfact>
</mgrwt>
</event>
<event>
 6    2  0.2220137E-005  0.1047001E+04  0.7818608E-02  0.9647097E-01
         21   -1    0    0  501  502  0.00000000000E+00  0.00000000000E+00  0.15417880888E+04  0.15417880888E+04  0.00000000000E+00 0.  1.
         -4   -1    0    0    0  501 -0.00000000000E+00 -0.00000000000E+00 -0.28949179956E+03  0.28949179956E+03  0.00000000000E+00 0. -1.
   -9000010    2    1    2    0  502  0.23384374625E+03  0.12445670372E+03  0.84515615727E+03  0.13455480004E+04  0.10129353989E+04 0.  0.
         13    1    3    3    0    0  0.37970034925E+03  0.34286446446E+03  0.93679532234E+03  0.10673864733E+04  0.10566000000E+00 0. -1.
         -4    1    3    3    0  502 -0.14585660299E+03 -0.21840776074E+03 -0.91639165069E+02  0.27816152711E+03  0.00000000000E+00 0. -1.
        -13    1    1    2    0    0 -0.23384374625E+03 -0.12445670372E+03  0.40714013195E+03  0.48573188795E+03  0.10566000000E+00 0.  1.
<mgrwt>
<rscale>  1 0.74255917E+03</rscale>
<asrwt>0</asrwt>
<pdfrwt beam="1">  1       21 0.23719816E+00 0.10470007E+04</pdfrwt>
<pdfrwt beam="2">  1       -4 0.44537201E-01 0.10470007E+04</pdfrwt>
<totfact> 0.12778493E+01</totfact>
</mgrwt>
</event>
<event>
 6    2  0.2220137E-005  0.9990051E+03  0.7818608E-02  0.9707973E-01
         -4   -1    0    0    0  501 -0.00000000000E+00  0.00000000000E+00  0.22025023268E+04  0.22025023268E+04  0.00000000000E+00 0. -1.
         21   -1    0    0  501  502  0.00000000000E+00 -0.00000000000E+00 -0.25683664933E+03  0.25683664933E+03  0.00000000000E+00 0. -1.
   -9000010    2    1    2    0  502  0.24829238534E+03  0.70449284796E+01  0.77983654734E+03  0.12673422012E+04  0.96763240681E+03 0.  0.
         13    1    3    3    0    0  0.28337760681E+03  0.41611574915E+03  0.67773798710E+03  0.84426534635E+03  0.10566000000E+00 0. -1.
         -4    1    3    3    0  502 -0.35085221463E+02 -0.40907082067E+03  0.10209856024E+03  0.42307685483E+03  0.00000000000E+00 0. -1.
        -13    1    1    2    0    0 -0.24829238534E+03 -0.70449284796E+01  0.11658291301E+04  0.11919967749E+04  0.10566000000E+00 0.  1.
<mgrwt>
<rscale>  1 0.70544040E+03</rscale>
<asrwt>0</asrwt>
<pdfrwt beam="2">  1       21 0.39513332E-01 0.99900511E+03</pdfrwt>
<pdfrwt beam="1">  1       -4 0.33884650E+00 0.99900511E+03</pdfrwt>
<totfact> 0.43999858E+00</totfact>
</mgrwt>
</event>
<event>
 6    2  0.2220137E-005  0.1237311E+04  0.7818608E-02  0.9255665E-01
         21   -1    0    0  501  502  0.00000000000E+00  0.00000000000E+00  0.37359602322E+03  0.37359602322E+03  0.00000000000E+00 0. -1.
         -4   -1    0    0    0  501 -0.00000000000E+00 -0.00000000000E+00 -0.24128235555E+04  0.24128235555E+04  0.00000000000E+00 0. -1.
   -9000010    2    1    2    0  502  0.52650046924E+03 -0.36548833011E+03 -0.15308101813E+04  0.19683287051E+04  0.10583730989E+04 0.  0.
         13    1    3    3    0    0  0.59631524991E+03 -0.31185114167E+03 -0.30409050923E+03  0.73845383119E+03  0.10566000000E+00 0. -1.
         -4    1    3    3    0  502 -0.69814780674E+02 -0.53637188441E+02 -0.12267196721E+04  0.12298748739E+04  0.00000000000E+00 0. -1.
        -13    1    1    2    0    0 -0.52650046924E+03  0.36548833011E+03 -0.50841735094E+03  0.81809087359E+03  0.10566000000E+00 0.  1.
<mgrwt>
<rscale>  1 0.10496897E+04</rscale>
<asrwt>0</asrwt>
<pdfrwt beam="1">  1       21 0.57476311E-01 0.12373108E+04</pdfrwt>
<pdfrwt beam="2">  1       -4 0.37120362E+00 0.12373108E+04</pdfrwt>
<totfact> 0.11662000E+00</totfact>
</mgrwt>
</event>
<event>
 6    2  0.2220137E-005  0.1035777E+04  0.7818608E-02  0.9619056E-01
         -4   -1    0    0    0  501 -0.00000000000E+00  0.00000000000E+00  0.15730992053E+04  0.15730992053E+04  0.00000000000E+00 0. -1.
         21   -1    0    0  501  502  0.00000000000E+00 -0.00000000000E+00 -0.28776810760E+03  0.28776810760E+03  0.00000000000E+00 0.  1.
   -9000010    2    1    2    0  502 -0.18729615755E+02 -0.30040088954E+03  0.10806811831E+04  0.14968987817E+04  0.99108155588E+03 0.  0.
         13    1    3    3    0    0  0.30882107913E+02  0.21467615161E+03  0.93428373499E+03  0.95912755319E+03  0.10566000000E+00 0. -1.
         -4    1    3    3    0  502 -0.49611723668E+02 -0.51507704116E+03  0.14639744807E+03  0.53777122855E+03  0.00000000000E+00 0. -1.
        -13    1    1    2    0    0  0.18729615755E+02  0.30040088954E+03  0.20464991461E+03  0.36396853114E+03  0.10566000000E+00 0.  1.
<mgrwt>
<rscale>  1 0.76047634E+03</rscale>
<asrwt>0</asrwt>
<pdfrwt beam="2">  1       21 0.44272018E-01 0.10357771E+04</pdfrwt>
<pdfrwt beam="1">  1       -4 0.24201526E+00 0.10357771E+04</pdfrwt>
<totfact> 0.13780449E+01</totfact>
</mgrwt>
</event>
<event>
 6    2  0.2220137E-005  0.1205660E+04  0.7818608E-02  0.9264868E-01
         -4   -1    0    0    0  501 -0.00000000000E+00  0.00000000000E+00  0.67904730767E+03  0.67904730767E+03  0.00000000000E+00 0. -1.
         21   -1    0    0  501  502  0.00000000000E+00 -0.00000000000E+00 -0.14224487339E+04  0.14224487339E+04  0.00000000000E+00 0. -1.
   -9000010    2    1    2    0  502  0.39656154892E+03  0.53958065847E+03 -0.77133002123E+03  0.14312808771E+04  0.10025999195E+04 0.  0.
         13    1    3    3    0    0 -0.28165887481E+03  0.43322977016E+03 -0.28667576289E+03  0.59093380315E+03  0.10566000000E+00 0. -1.
         -4    1    3    3    0  502  0.67822042374E+03  0.10635088831E+03 -0.48465425834E+03  0.84034707398E+03  0.00000000000E+00 0. -1.
        -13    1    1    2    0    0 -0.39656154892E+03 -0.53958065847E+03  0.27928594997E+02  0.67021516445E+03  0.10566000000E+00 0.  1.
<mgrwt>
<rscale>  1 0.10408250E+04</rscale>
<asrwt>0</asrwt>
<pdfrwt beam="2">  1       21 0.21883826E+00 0.12056595E+04</pdfrwt>
<pdfrwt beam="1">  1       -4 0.10446882E+00 0.12056595E+04</pdfrwt>
<totfact> 0.24425741E+00</totfact>
</mgrwt>
</event>
<event>
 6    2  0.2220137E-005  0.1000454E+04  0.7818608E-02  0.1012340E+00
         -4   -1    0    0    0  501 -0.00000000000E+00  0.00000000000E+00  0.37702223013E+03  0.37702223013E+03  0.00000000000E+00 0. -1.
         21   -1    0    0  501  502  0.00000000000E+00 -0.00000000000E+00 -0.76974505214E+03  0.76974505214E+03  0.00000000000E+00 0. -1.
   -9000010    2    1    2    0  502  0.26924893323E+02 -0.59418307642E+02 -0.40685804831E+03  0.10800192415E+04  0.99832489968E+03 0.  0.
         13    1    3    3    0    0  0.14804619638E+03  0.34255912950E+03  0.13296234109E+03  0.39616086225E+03  0.10566000000E+00 0. -1.
         -4    1    3    3    0  502 -0.12112130306E+03 -0.40197743714E+03 -0.53982038940E+03  0.68385837923E+03  0.00000000000E+00 0. -1.
        -13    1    1    2    0    0 -0.26924893323E+02  0.59418307642E+02  0.14135226298E+02  0.66748040795E+02  0.10566000000E+00 0.  1.
<mgrwt>
<rscale>  1 0.50555290E+03</rscale>
<asrwt>0</asrwt>
<pdfrwt beam="2">  1       21 0.11842232E+00 0.10004539E+04</pdfrwt>
<pdfrwt beam="1">  1       -4 0.58003420E-01 0.10004539E+04</pdfrwt>
<totfact> 0.57376549E+01</totfact>
</mgrwt>
</event>
<event>
 6    2  0.2220137E-005  0.1056585E+04  0.7818608E-02  0.9582211E-01
         -4   -1    0    0    0  501 -0.00000000000E+00  0.00000000000E+00  0.42665993153E+03  0.42665993153E+03  0.00000000000E+00 0. -1.
         21   -1    0    0  501  502  0.00000000000E+00 -0.00000000000E+00 -0.11148004087E+04  0.11148004087E+04  0.00000000000E+00 0. -1.
   -9000010    2    1    2    0  502 -0.17083159539E+03  0.27257579903E+03 -0.50162228310E+03  0.11696135329E+04  0.10064243147E+04 0.  0.
         13    1    3    3    0    0 -0.47593286595E+03  0.48866954320E+03 -0.34235166171E+03  0.76322649770E+03  0.10566000000E+00 0. -1.
         -4    1    3    3    0  502  0.30510127055E+03 -0.21609374418E+03 -0.15927062139E+03  0.40638703523E+03  0.00000000000E+00 0. -1.
        -13    1    1    2    0    0  0.17083159539E+03 -0.27257579903E+03 -0.18651819402E+03  0.37184680725E+03  0.10566000000E+00 0.  1.
<mgrwt>
<rscale>  1 0.78484849E+03</rscale>
<asrwt>0</asrwt>
<pdfrwt beam="2">  1       21 0.17150776E+00 0.10565845E+04</pdfrwt>
<pdfrwt beam="1">  1       -4 0.65639989E-01 0.10565845E+04</pdfrwt>
<totfact> 0.15718113E+01</totfact>
</mgrwt>
</event>
<event>
 6    2  0.2220137E-005  0.1009546E+04  0.7818608E-02  0.9765881E-01
         21   -1    0    0  501  502  0.00000000000E+00  0.00000000000E+00  0.45726095054E+03  0.45726095054E+03  0.00000000000E+00 0. -1.
         -4   -1    0    0    0  501 -0.00000000000E+00 -0.00000000000E+00 -0.91837958047E+03  0.91837958047E+03  0.00000000000E+00 0. -1.
   -9000010    2    1    2    0  502 -0.17686720884E+03 -0.90126027176E+02 -0.17072058719E+03  0.10238796112E+04  0.98983798115E+03 0.  0.
         13    1    3    3    0    0  0.30608868871E+03  0.32254465732E+02 -0.37523569677E+03  0.48531688123E+03  0.10566000000E+00 0. -1.
         -4    1    3    3    0  502 -0.48295589756E+03 -0.12238049291E+03  0.20451510957E+03  0.53856272993E+03  0.00000000000E+00 0. -1.
        -13    1    1    2    0    0  0.17686720884E+03  0.90126027176E+02 -0.29039804274E+03  0.35176091985E+03  0.10566000000E+00 0.  1.
<mgrwt>
<rscale>  1 0.67226151E+03</rscale>
<asrwt>0</asrwt>
<pdfrwt beam="1">  1       21 0.70347838E-01 0.10095464E+04</pdfrwt>
<pdfrwt beam="2">  1       -4 0.14128917E+00 0.10095464E+04</pdfrwt>
<totfact> 0.24603370E+01</totfact>
</mgrwt>
</event>
<event>
 6    2  0.2220137E-005  0.9501547E+03  0.7818608E-02  0.9895949E-01
         21   -1    0    0  501  502  0.00000000000E+00  0.00000000000E+00  0.50726660768E+03  0.50726660768E+03  0.00000000000E+00 0. -1.
         -4   -1    0    0    0  501 -0.00000000000E+00 -0.00000000000E+00 -0.62323382192E+03  0.62323382192E+03  0.00000000000E+00 0. -1.
   -9000010    2    1    2    0  502 -0.11460213858E+03  0.10547482890E+03 -0.25743367306E+02  0.95050336458E+03  0.93730215802E+03 0.  0.
         13    1    3    3    0    0 -0.28540836880E+03 -0.14702587152E+03 -0.37053240938E+03  0.49027423086E+03  0.10566000000E+00 0. -1.
         -4    1    3    3    0  502  0.17080623022E+03  0.25250070042E+03  0.34478904207E+03  0.46022913373E+03  0.00000000000E+00 0. -1.
        -13    1    1    2    0    0  0.11460213858E+03 -0.10547482890E+03 -0.90223846925E+02  0.17999706502E+03  0.10566000000E+00 0.  1.
<mgrwt>
<rscale>  1 0.60458025E+03</rscale>
<asrwt>0</asrwt>
<pdfrwt beam="1">  1       21 0.78041016E-01 0.95015468E+03</pdfrwt>
<pdfrwt beam="2">  1       -4 0.95882127E-01 0.95015468E+03</pdfrwt>
<totfact> 0.51271011E+01</totfact>
</mgrwt>
</event>
<event>
 6    2  0.2220137E-005  0.1035359E+04  0.7818608E-02  0.9652453E-01
         21   -1    0    0  501  502  0.00000000000E+00  0.00000000000E+00  0.40017897273E+03  0.40017897273E+03  0.00000000000E+00 0. -1.
         -4   -1    0    0    0  501 -0.00000000000E+00 -0.00000000000E+00 -0.10642534941E+04  0.10642534941E+04  0.00000000000E+00 0. -1.
   -9000010    2    1    2    0  502  0.15731656728E+03 -0.21821344942E+03 -0.50560803899E+03  0.11522189997E+04  0.99980174155E+03 0.  0.
         13    1    3    3    0    0 -0.30495310554E+03  0.49406162933E+02  0.11837922375E+03  0.33083382127E+03  0.10566000000E+00 0. -1.
         -4    1    3    3    0  502  0.46226967282E+03 -0.26761961236E+03 -0.62398726275E+03  0.82138517846E+03  0.00000000000E+00 0. -1.
        -13    1    1    2    0    0 -0.15731656728E+03  0.21821344942E+03 -0.15846648242E+03  0.31221346714E+03  0.10566000000E+00 0.  1.
<mgrwt>
<rscale>  1 0.73919649E+03</rscale>
<asrwt>0</asrwt>
<pdfrwt beam="1">  1       21 0.61565996E-01 0.10353594E+04</pdfrwt>
<pdfrwt beam="2">  1       -4 0.16373131E+00 0.10353594E+04</pdfrwt>
<totfact> 0.22290287E+01</totfact>
</mgrwt>
</event>
<event>
 6    2  0.2220137E-005  0.1081937E+04  0.7818608E-02  0.9565383E-01
         21   -1    0    0  501  502  0.00000000000E+00  0.00000000000E+00  0.73520626607E+03  0.73520626607E+03  0.00000000000E+00 0. -1.
         -4   -1    0    0    0  501 -0.00000000000E+00 -0.00000000000E+00 -0.70310954899E+03  0.70310954899E+03  0.00000000000E+00 0. -1.
   -9000010    2    1    2    0  502 -0.18016637462E+03 -0.26140097239E+03 -0.11573546393E+03  0.10881090821E+04  0.10343095697E+04 0.  0.
         13    1    3    3    0    0  0.85137830870E+02 -0.62465989447E+03 -0.37671118674E+02  0.63155962375E+03  0.10566000000E+00 0. -1.
         -4    1    3    3    0  502 -0.26530420549E+03  0.36325892207E+03 -0.78064345256E+02  0.45654945835E+03  0.00000000000E+00 0. -1.
        -13    1    1    2    0    0  0.18016637462E+03  0.26140097239E+03  0.14783218101E+03  0.35020673297E+03  0.10566000000E+00 0.  1.
<mgrwt>
<rscale>  1 0.79630381E+03</rscale>
<asrwt>0</asrwt>
<pdfrwt beam="1">  1       21 0.11310866E+00 0.10819365E+04</pdfrwt>
<pdfrwt beam="2">  1       -4 0.10817070E+00 0.10819365E+04</pdfrwt>
<totfact> 0.15272863E+01</totfact>
</mgrwt>
</event>
<event>
 6    2  0.2220137E-005  0.1012688E+04  0.7818608E-02  0.1000260E+00
         -4   -1    0    0    0  501 -0.00000000000E+00  0.00000000000E+00  0.45262344719E+03  0.45262344719E+03  0.00000000000E+00 0. -1.
         21   -1    0    0  501  502  0.00000000000E+00 -0.00000000000E+00 -0.10000849895E+04  0.10000849895E+04  0.00000000000E+00 0. -1.
   -9000010    2    1    2    0  502  0.87075172549E+02 -0.28426545729E+02 -0.73007013821E+03  0.12484143726E+04  0.10085365064E+04 0.  0.
         13    1    3    3    0    0 -0.28927430250E+02  0.46653505754E+03 -0.18402313777E+03  0.50235075648E+03  0.10566000000E+00 0. -1.
         -4    1    3    3    0  502  0.11600260280E+03 -0.49496160327E+03 -0.54604700043E+03  0.74606361608E+03  0.00000000000E+00 0. -1.
        -13    1    1    2    0    0 -0.87075172549E+02  0.28426545729E+02  0.18260859590E+03  0.20429406413E+03  0.10566000000E+00 0.  1.
<mgrwt>
<rscale>  1 0.55536424E+03</rscale>
<asrwt>0</asrwt>
<pdfrwt beam="2">  1       21 0.15385923E+00 0.10126875E+04</pdfrwt>
<pdfrwt beam="1">  1       -4 0.69634377E-01 0.10126875E+04</pdfrwt>
<totfact> 0.18933782E+01</totfact>
</mgrwt>
</event>
<event>
 6    2  0.2220137E-005  0.1245934E+04  0.7818608E-02  0.9202593E-01
         -4   -1    0    0    0  501 -0.00000000000E+00  0.00000000000E+00  0.69310705744E+03  0.69310705744E+03  0.00000000000E+00 0. -1.
         21   -1    0    0  501  502  0.00000000000E+00 -0.00000000000E+00 -0.14969516163E+04  0.14969516163E+04  0.00000000000E+00 0.  1.
   -9000010    2    1    2    0  502 -0.70136566566E+03 -0.30386312647E+03 -0.66803630554E+03  0.14137272436E+04  0.98392358297E+03 0.  0.
         13    1    3    3    0    0 -0.11868872870E+03 -0.46828519722E+03 -0.64761712952E+03  0.80795172991E+03  0.10566000000E+00 0. -1.
         -4    1    3    3    0  502 -0.58267693696E+03  0.16442207075E+03 -0.20419176022E+02  0.60577551367E+03  0.00000000000E+00 0. -1.
        -13    1    1    2    0    0  0.70136566566E+03  0.30386312647E+03 -0.13580825329E+03  0.77633143014E+03  0.10566000000E+00 0.  1.
<mgrwt>
<rscale>  1 0.11026708E+04</rscale>
<asrwt>0</asrwt>
<pdfrwt beam="2">  1       21 0.23030025E+00 0.12459343E+04</pdfrwt>
<pdfrwt beam="1">  1       -4 0.10663186E+00 0.12459343E+04</pdfrwt>
<totfact> 0.19404125E+00</totfact>
</mgrwt>
</event>
<event>
 6    2  0.2220137E-005  0.1067458E+04  0.7818608E-02  0.9545278E-01
         21   -1    0    0  501  502  0.00000000000E+00  0.00000000000E+00  0.10772081382E+04  0.10772081382E+04  0.00000000000E+00 0. -1.
         -4   -1    0    0    0  501 -0.00000000000E+00 -0.00000000000E+00 -0.85825892542E+03  0.85825892542E+03  0.00000000000E+00 0. -1.
   -9000010    2    1    2    0  502 -0.30322358826E+03  0.18338997941E+03  0.74461819231E+03  0.13015078249E+04  0.10069210183E+04 0.  0.
         13    1    3    3    0    0 -0.32192165317E+03 -0.33929176234E+03  0.11246311657E+03  0.48104096970E+03  0.10566000000E+00 0. -1.
         -4    1    3    3    0  502  0.18698064910E+02  0.52268174175E+03  0.63215507574E+03  0.82046685525E+03  0.00000000000E+00 0. -1.
        -13    1    1    2    0    0  0.30322358826E+03 -0.18338997941E+03 -0.52566897955E+03  0.63395923864E+03  0.10566000000E+00 0.  1.
<mgrwt>
<rscale>  1 0.81026408E+03</rscale>
<asrwt>0</asrwt>
<pdfrwt beam="1">  1       21 0.16572433E+00 0.10674579E+04</pdfrwt>
<pdfrwt beam="2">  1       -4 0.13203983E+00 0.10674579E+04</pdfrwt>
<totfact> 0.32836796E+00</totfact>
</mgrwt>
</event>
<event>
 6    2  0.2220137E-005  0.1030892E+04  0.7818608E-02  0.9956587E-01
         21   -1    0    0  501  502  0.00000000000E+00  0.00000000000E+00  0.14337834616E+04  0.14337834616E+04  0.00000000000E+00 0. -1.
         -4   -1    0    0    0  501 -0.00000000000E+00 -0.00000000000E+00 -0.23215411768E+03  0.23215411768E+03  0.00000000000E+00 0. -1.
   -9000010    2    1    2    0  502  0.39795417132E+02  0.92221751207E+02  0.11727310390E+04  0.15614213135E+04  0.10259872815E+04 0.  0.
         13    1    3    3    0    0 -0.14848180676E+03 -0.15684613699E+02 -0.15550199488E+03  0.21557767886E+03  0.10566000000E+00 0. -1.
         -4    1    3    3    0  502  0.18827722389E+03  0.10790636491E+03  0.13282330339E+04  0.13458436347E+04  0.00000000000E+00 0. -1.
        -13    1    1    2    0    0 -0.39795417132E+02 -0.92221751207E+02  0.28898304913E+02  0.10451626577E+03  0.10566000000E+00 0.  1.
<mgrwt>
<rscale>  1 0.57595483E+03</rscale>
<asrwt>0</asrwt>
<pdfrwt beam="1">  1       21 0.22058207E+00 0.10308921E+04</pdfrwt>
<pdfrwt beam="2">  1       -4 0.35716019E-01 0.10308921E+04</pdfrwt>
<totfact> 0.25783003E+01</totfact>
</mgrwt>
</event>
<event>
 6    2  0.2220137E-005  0.1009838E+04  0.7818608E-02  0.9759684E-01
         21   -1    0    0  501  502  0.00000000000E+00  0.00000000000E+00  0.24736608109E+04  0.24736608109E+04  0.00000000000E+00 0. -1.
         -4   -1    0    0    0  501 -0.00000000000E+00 -0.00000000000E+00 -0.14893434380E+03  0.14893434380E+03  0.00000000000E+00 0. -1.
   -9000010    2    1    2    0  502 -0.13370252658E+03  0.15201056168E+03  0.18832216132E+04  0.21368893552E+04  0.98933760444E+03 0.  0.
         13    1    3    3    0    0  0.18875071186E+03 -0.29872882037E+03  0.12324700063E+04  0.12821263849E+04  0.10566000000E+00 0. -1.
         -4    1    3    3    0  502 -0.32245323844E+03  0.45073938205E+03  0.65075160697E+03  0.85476297035E+03  0.00000000000E+00 0. -1.
        -13    1    1    2    0    0  0.13370252658E+03 -0.15201056168E+03  0.44150485390E+03  0.48570579949E+03  0.10566000000E+00 0.  1.
<mgrwt>
<rscale>  1 0.67571729E+03</rscale>
<asrwt>0</asrwt>
<pdfrwt beam="1">  1       21 0.38056317E+00 0.10098378E+04</pdfrwt>
<pdfrwt beam="2">  1       -4 0.22912978E-01 0.10098378E+04</pdfrwt>
<totfact> 0.59790106E+00</totfact>
</mgrwt>
</event>
<event>
 6    2  0.2220137E-005  0.1049250E+04  0.7818608E-02  0.9603788E-01
         21   -1    0    0  501  502  0.00000000000E+00  0.00000000000E+00  0.98343481606E+03  0.98343481606E+03  0.00000000000E+00 0. -1.
         -4   -1    0    0    0  501 -0.00000000000E+00 -0.00000000000E+00 -0.48518951481E+03  0.48518951481E+03  0.00000000000E+00 0. -1.
   -9000010    2    1    2    0  502 -0.97385829244E+02 -0.28908171292E+03  0.50290197233E+03  0.11635441246E+04  0.10039284336E+04 0.  0.
         13    1    3    3    0    0 -0.45667601205E+03 -0.28878790292E+03  0.58357763144E+03  0.79530767376E+03  0.10566000000E+00 0. -1.
         -4    1    3    3    0  502  0.35929018281E+03 -0.29380999860E+00 -0.80675659112E+02  0.36823645088E+03  0.00000000000E+00 0. -1.
        -13    1    1    2    0    0  0.97385829244E+02  0.28908171292E+03 -0.46566710795E+01  0.30508020623E+03  0.10566000000E+00 0.  1.
<mgrwt>
<rscale>  1 0.77045972E+03</rscale>
<asrwt>0</asrwt>
<pdfrwt beam="1">  1       21 0.15129766E+00 0.10492495E+04</pdfrwt>
<pdfrwt beam="2">  1       -4 0.74644541E-01 0.10492495E+04</pdfrwt>
<totfact> 0.16902441E+01</totfact>
</mgrwt>
</event>
<event>
 6    2  0.2220137E-005  0.1055655E+04  0.7818608E-02  0.9588520E-01
         -4   -1    0    0    0  501 -0.00000000000E+00  0.00000000000E+00  0.12924454994E+04  0.12924454994E+04  0.00000000000E+00 0. -1.
         21   -1    0    0  501  502  0.00000000000E+00 -0.00000000000E+00 -0.36522510331E+03  0.36522510331E+03  0.00000000000E+00 0. -1.
   -9000010    2    1    2    0  502  0.62480541592E+02  0.30937369077E+03  0.75749544829E+03  0.12993097961E+04  0.10073682016E+04 0.  0.
         13    1    3    3    0    0  0.27770067277E+02  0.11555772797E+03 -0.24784603287E+03  0.27486802706E+03  0.10566000000E+00 0. -1.
         -4    1    3    3    0  502  0.34710474315E+02  0.19381596280E+03  0.10053414812E+04  0.10244417691E+04  0.00000000000E+00 0. -1.
        -13    1    1    2    0    0 -0.62480541592E+02 -0.30937369077E+03  0.16972494779E+03  0.35836080657E+03  0.10566000000E+00 0.  1.
<mgrwt>
<rscale>  1 0.78060714E+03</rscale>
<asrwt>0</asrwt>
<pdfrwt beam="2">  1       21 0.56188478E-01 0.10556546E+04</pdfrwt>
<pdfrwt beam="1">  1       -4 0.19883777E+00 0.10556546E+04</pdfrwt>
<totfact> 0.15514077E+01</totfact>
</mgrwt>
</event>
<event>
 6    2  0.2220137E-005  0.9364050E+03  0.7818608E-02  0.1004498E+00
         21   -1    0    0  501  502  0.00000000000E+00  0.00000000000E+00  0.29516826327E+03  0.29516826327E+03  0.00000000000E+00 0. -1.
         -4   -1    0    0    0  501 -0.00000000000E+00 -0.00000000000E+00 -0.93022980013E+03  0.93022980013E+03  0.00000000000E+00 0. -1.
   -9000010    2    1    2    0  502 -0.10037379313E+03 -0.14639915407E+02 -0.51664108494E+03  0.10694729530E+04  0.93089481736E+03 0.  0.
         13    1    3    3    0    0  0.18404093898E+03  0.30845430507E+03  0.44848472732E+02  0.36197585860E+03  0.10566000000E+00 0. -1.
         -4    1    3    3    0  502 -0.28441473211E+03 -0.32309422048E+03 -0.56148955767E+03  0.70749709435E+03  0.00000000000E+00 0. -1.
        -13    1    1    2    0    0  0.10037379313E+03  0.14639915407E+02 -0.11842045192E+03  0.15592511045E+03  0.10566000000E+00 0.  1.
<mgrwt>
<rscale>  1 0.53721199E+03</rscale>
<asrwt>0</asrwt>
<pdfrwt beam="1">  1       21 0.45410502E-01 0.93640503E+03</pdfrwt>
<pdfrwt beam="2">  1       -4 0.14311228E+00 0.93640503E+03</pdfrwt>
<totfact> 0.62885634E+01</totfact>
</mgrwt>
</event>
<event>
 6    2  0.2220137E-005  0.1040326E+04  0.7818608E-02  0.9652166E-01
         -4   -1    0    0    0  501 -0.00000000000E+00  0.00000000000E+00  0.81622174210E+03  0.81622174210E+03  0.00000000000E+00 0. -1.
         21   -1    0    0  501  502  0.00000000000E+00 -0.00000000000E+00 -0.52222525637E+03  0.52222525637E+03  0.00000000000E+00 0. -1.
   -9000010    2    1    2    0  502 -0.25759697710E+03 -0.64020287459E+02  0.23402885847E+03  0.10663239982E+04  0.10058939122E+04 0.  0.
         13    1    3    3    0    0 -0.53834981044E+02  0.17678708202E+03 -0.35382623244E+03  0.39918027441E+03  0.10566000000E+00 0. -1.
         -4    1    3    3    0  502 -0.20376199605E+03 -0.24080736948E+03  0.58785509091E+03  0.66714372375E+03  0.00000000000E+00 0. -1.
        -13    1    1    2    0    0  0.25759697710E+03  0.64020287459E+02  0.59967627255E+02  0.27212300031E+03  0.10566000000E+00 0.  1.
<mgrwt>
<rscale>  1 0.73937676E+03</rscale>
<asrwt>0</asrwt>
<pdfrwt beam="2">  1       21 0.80342347E-01 0.10403256E+04</pdfrwt>
<pdfrwt beam="1">  1       -4 0.12557258E+00 0.10403256E+04</pdfrwt>
<totfact> 0.24447963E+01</totfact>
</mgrwt>
</event>
<event>
 6    2  0.2220137E-005  0.1040604E+04  0.7818608E-02  0.9604402E-01
         -4   -1    0    0    0  501 -0.00000000000E+00  0.00000000000E+00  0.46038579483E+03  0.46038579483E+03  0.00000000000E+00 0. -1.
         21   -1    0    0  501  502  0.00000000000E+00 -0.00000000000E+00 -0.12790040946E+04  0.12790040946E+04  0.00000000000E+00 0.  1.
   -9000010    2    1    2    0  502 -0.31117676792E+03 -0.23386456930E+02 -0.21895263709E+03  0.10633892789E+04  0.99271274493E+03 0.  0.
         13    1    3    3    0    0  0.80834746641E+02  0.51073668672E+02  0.35315818205E+03  0.36587359649E+03  0.10566000000E+00 0. -1.
         -4    1    3    3    0  502 -0.39201151456E+03 -0.74460125601E+02 -0.57211081914E+03  0.69751568242E+03  0.00000000000E+00 0. -1.
        -13    1    1    2    0    0  0.31117676792E+03  0.23386456930E+02 -0.59966566270E+03  0.67600061054E+03  0.10566000000E+00 0.  1.
<mgrwt>
<rscale>  1 0.77005493E+03</rscale>
<asrwt>0</asrwt>
<pdfrwt beam="2">  1       21 0.19676986E+00 0.10406039E+04</pdfrwt>
<pdfrwt beam="1">  1       -4 0.70828584E-01 0.10406039E+04</pdfrwt>
<totfact> 0.87502533E+00</totfact>
</mgrwt>
</event>
<event>
 6    2  0.2220137E-005  0.1020562E+04  0.7818608E-02  0.9784012E-01
         21   -1    0    0  501  502  0.00000000000E+00  0.00000000000E+00  0.14223257987E+04  0.14223257987E+04  0.00000000000E+00 0. -1.
         -4   -1    0    0    0  501 -0.00000000000E+00 -0.00000000000E+00 -0.38048194426E+03  0.38048194426E+03  0.00000000000E+00 0. -1.
   -9000010    2    1    2    0  502  0.13036171953E+03 -0.12554251794E+03  0.11908807392E+04  0.15683570959E+04  0.10043863517E+04 0.  0.
         13    1    3    3    0    0  0.10758403653E+03 -0.55318013242E+02 -0.16824839092E+03  0.20722437047E+03  0.10566000000E+00 0. -1.
         -4    1    3    3    0  502  0.22777682999E+02 -0.70224504696E+02  0.13591291301E+04  0.13611327254E+04  0.00000000000E+00 0. -1.
        -13    1    1    2    0    0 -0.13036171953E+03  0.12554251794E+03 -0.14903688474E+03  0.23445064706E+03  0.10566000000E+00 0.  1.
<mgrwt>
<rscale>  1 0.66227669E+03</rscale>
<asrwt>0</asrwt>
<pdfrwt beam="1">  1       21 0.21881935E+00 0.10205621E+04</pdfrwt>
<pdfrwt beam="2">  1       -4 0.58535684E-01 0.10205621E+04</pdfrwt>
<totfact> 0.94740700E+00</totfact>
</mgrwt>
</event>
<event>
 6    2  0.2220137E-005  0.1047627E+04  0.7818608E-02  0.9591925E-01
         21   -1    0    0  501  502  0.00000000000E+00  0.00000000000E+00  0.10210508511E+04  0.10210508511E+04  0.00000000000E+00 0. -1.
         -4   -1    0    0    0  501 -0.00000000000E+00 -0.00000000000E+00 -0.52449137505E+03  0.52449137505E+03  0.00000000000E+00 0. -1.
   -9000010    2    1    2    0  502  0.16944911784E+03 -0.27048401025E+03  0.60338120816E+03  0.12089631166E+04  0.99782179351E+03 0.  0.
         13    1    3    3    0    0 -0.15698161951E+03 -0.14198465293E+03 -0.22527079127E+03  0.30911132476E+03  0.10566000000E+00 0. -1.
         -4    1    3    3    0  502  0.32643073735E+03 -0.12849935732E+03  0.82865199943E+03  0.89985179184E+03  0.00000000000E+00 0. -1.
        -13    1    1    2    0    0 -0.16944911784E+03  0.27048401025E+03 -0.10682173215E+03  0.33657910951E+03  0.10566000000E+00 0.  1.
<mgrwt>
<rscale>  1 0.77832924E+03</rscale>
<asrwt>0</asrwt>
<pdfrwt beam="1">  1       21 0.15708475E+00 0.10476273E+04</pdfrwt>
<pdfrwt beam="2">  1       -4 0.80690981E-01 0.10476273E+04</pdfrwt>
<totfact> 0.12727896E+01</totfact>
</mgrwt>
</event>
<event>
 6    2  0.2220137E-005  0.1244685E+04  0.7818608E-02  0.9212710E-01
         21   -1    0    0  501  502  0.00000000000E+00  0.00000000000E+00  0.11564578850E+04  0.11564578850E+04  0.00000000000E+00 0.  1.
         -4   -1    0    0    0  501 -0.00000000000E+00 -0.00000000000E+00 -0.88649746394E+03  0.88649746394E+03  0.00000000000E+00 0. -1.
   -9000010    2    1    2    0  502 -0.35053458107E+03  0.64975489392E+03 -0.32531644576E+02  0.12451098905E+04  0.10020900243E+04 0.  0.
         13    1    3    3    0    0 -0.47456071553E+03  0.21804208759E+03  0.37154008512E+03  0.64093078464E+03  0.10566000000E+00 0. -1.
         -4    1    3    3    0  502  0.12402613446E+03  0.43171280633E+03 -0.40407172969E+03  0.60417910583E+03  0.00000000000E+00 0. -1.
        -13    1    1    2    0    0  0.35053458107E+03 -0.64975489392E+03  0.30249206566E+03  0.79784545851E+03  0.10566000000E+00 0.  1.
<mgrwt>
<rscale>  1 0.10923196E+04</rscale>
<asrwt>0</asrwt>
<pdfrwt beam="1">  1       21 0.17791660E+00 0.12446848E+04</pdfrwt>
<pdfrwt beam="2">  1       -4 0.13638422E+00 0.12446848E+04</pdfrwt>
<totfact> 0.23924037E+00</totfact>
</mgrwt>
</event>
<event>
 6    2  0.2220137E-005  0.1092745E+04  0.7818608E-02  0.9471947E-01
         21   -1    0    0  501  502  0.00000000000E+00  0.00000000000E+00  0.52041446215E+03  0.52041446215E+03  0.00000000000E+00 0. -1.
         -4   -1    0    0    0  501 -0.00000000000E+00 -0.00000000000E+00 -0.11708090797E+04  0.11708090797E+04  0.00000000000E+00 0. -1.
   -9000010    2    1    2    0  502 -0.19091746136E+03 -0.38166627231E+03 -0.28471636662E+03  0.11292277991E+04  0.10059688825E+04 0.  0.
         13    1    3    3    0    0  0.26250194986E+02 -0.61056509850E+03  0.11306583663E+03  0.62150036752E+03  0.10566000000E+00 0. -1.
         -4    1    3    3    0  502 -0.21716765634E+03  0.22889882620E+03 -0.39778220325E+03  0.50772743162E+03  0.00000000000E+00 0. -1.
        -13    1    1    2    0    0  0.19091746136E+03  0.38166627231E+03 -0.36567825094E+03  0.56199574273E+03  0.10566000000E+00 0.  1.
<mgrwt>
<rscale>  1 0.86384032E+03</rscale>
<asrwt>0</asrwt>
<pdfrwt beam="1">  1       21 0.80063764E-01 0.10927452E+04</pdfrwt>
<pdfrwt beam="2">  1       -4 0.18012447E+00 0.10927452E+04</pdfrwt>
<totfact> 0.92482075E+00</totfact>
</mgrwt>
</event>
<event>
 6    2  0.2220137E-005  0.1016175E+04  0.7818608E-02  0.9956461E-01
         21   -1    0    0  501  502  0.00000000000E+00  0.00000000000E+00  0.75108957018E+03  0.75108957018E+03  0.00000000000E+00 0. -1.
         -4   -1    0    0    0  501 -0.00000000000E+00 -0.00000000000E+00 -0.57977075717E+03  0.57977075717E+03  0.00000000000E+00 0. -1.
   -9000010    2    1    2    0  502  0.83568646119E+02 -0.63424779927E+02  0.38989776579E+03  0.10884078762E+04  0.10107447827E+04 0.  0.
         13    1    3    3    0    0  0.48243428349E+03 -0.28418210528E+03  0.20007657414E+03  0.59458637180E+03  0.10566000000E+00 0. -1.
         -4    1    3    3    0  502 -0.39886563737E+03  0.22075732536E+03  0.18982119165E+03  0.49382150436E+03  0.00000000000E+00 0. -1.
        -13    1    1    2    0    0 -0.83568646119E+02  0.63424779927E+02 -0.21857895278E+03  0.24245245119E+03  0.10566000000E+00 0.  1.
<mgrwt>
<rscale>  1 0.57601285E+03</rscale>
<asrwt>0</asrwt>
<pdfrwt beam="1">  1       21 0.11555224E+00 0.10161749E+04</pdfrwt>
<pdfrwt beam="2">  1       -4 0.89195501E-01 0.10161749E+04</pdfrwt>
<totfact> 0.23139495E+01</totfact>
</mgrwt>
</event>
<event>
 6    2  0.2220137E-005  0.1024154E+04  0.7818608E-02  0.9632968E-01
         21   -1    0    0  501  502  0.00000000000E+00  0.00000000000E+00  0.34037076517E+03  0.34037076517E+03  0.00000000000E+00 0. -1.
         -4   -1    0    0    0  501 -0.00000000000E+00 -0.00000000000E+00 -0.14775926632E+04  0.14775926632E+04  0.00000000000E+00 0. -1.
   -9000010    2    1    2    0  502 -0.26728184863E+03  0.12935846551E+03 -0.55614822813E+03  0.11654147174E+04  0.98016193183E+03 0.  0.
         13    1    3    3    0    0  0.41727982177E+02 -0.37193053300E+03 -0.29556059941E+02  0.37542924462E+03  0.10566000000E+00 0. -1.
         -4    1    3    3    0  502 -0.30900983081E+03  0.50128899851E+03 -0.52659216819E+03  0.78998547276E+03  0.00000000000E+00 0. -1.
        -13    1    1    2    0    0  0.26728184863E+03 -0.12935846551E+03 -0.58107366992E+03  0.65254871101E+03  0.10566000000E+00 0.  1.
<mgrwt>
<rscale>  1 0.75152063E+03</rscale>
<asrwt>0</asrwt>
<pdfrwt beam="1">  1       21 0.52364734E-01 0.10241536E+04</pdfrwt>
<pdfrwt beam="2">  1       -4 0.22732194E+00 0.10241536E+04</pdfrwt>
<totfact> 0.11888285E+01</totfact>
</mgrwt>
</event>
<event>
 6    2  0.2220137E-005  0.1032599E+04  0.7818608E-02  0.9618294E-01
         21   -1    0    0  501  502  0.00000000000E+00  0.00000000000E+00  0.61361900081E+03  0.61361900081E+03  0.00000000000E+00 0. -1.
         -4   -1    0    0    0  501 -0.00000000000E+00 -0.00000000000E+00 -0.79582813926E+03  0.79582813926E+03  0.00000000000E+00 0. -1.
   -9000010    2    1    2    0  502  0.11058050427E+03 -0.28377999486E+03  0.38506008770E+02  0.10333164171E+04  0.98666152843E+03 0.  0.
         13    1    3    3    0    0  0.25585016346E+03 -0.98642801745E+02 -0.42944683069E+03  0.50952360105E+03  0.10566000000E+00 0. -1.
         -4    1    3    3    0  502 -0.14526965919E+03 -0.18513719312E+03  0.46795283946E+03  0.52379281602E+03  0.00000000000E+00 0. -1.
        -13    1    1    2    0    0 -0.11058050427E+03  0.28377999486E+03 -0.22071514722E+03  0.37613072300E+03  0.10566000000E+00 0.  1.
<mgrwt>
<rscale>  1 0.76097130E+03</rscale>
<asrwt>0</asrwt>
<pdfrwt beam="1">  1       21 0.94402923E-01 0.10325987E+04</pdfrwt>
<pdfrwt beam="2">  1       -4 0.12243510E+00 0.10325987E+04</pdfrwt>
<totfact> 0.17721053E+01</totfact>
</mgrwt>
</event>
<event>
 6    2  0.2220137E-005  0.1039751E+04  0.7818608E-02  0.9908301E-01
         21   -1    0    0  501  502  0.00000000000E+00  0.00000000000E+00  0.23535345249E+03  0.23535345249E+03  0.00000000000E+00 0. -1.
         -4   -1    0    0    0  501 -0.00000000000E+00 -0.00000000000E+00 -0.14191489817E+04  0.14191489817E+04  0.00000000000E+00 0. -1.
   -9000010    2    1    2    0  502 -0.31035537298E+02  0.10993257175E+03 -0.10933037363E+04  0.15087727164E+04  0.10334571471E+04 0.  0.
         13    1    3    3    0    0 -0.38302518628E+03  0.29028803690E+03 -0.17945631474E+03  0.51301073844E+03  0.10566000000E+00 0. -1.
         -4    1    3    3    0  502  0.35198964898E+03 -0.18035546515E+03 -0.91384742155E+03  0.99576197792E+03  0.00000000000E+00 0. -1.
        -13    1    1    2    0    0  0.31035537298E+02 -0.10993257175E+03 -0.90491792917E+02  0.14572971782E+03  0.10566000000E+00 0.  1.
<mgrwt>
<rscale>  1 0.59860681E+03</rscale>
<asrwt>0</asrwt>
<pdfrwt beam="1">  1       21 0.36208223E-01 0.10397510E+04</pdfrwt>
<pdfrwt beam="2">  1       -4 0.21833061E+00 0.10397510E+04</pdfrwt>
<totfact> 0.29607899E+01</totfact>
</mgrwt>
</event>
<event>
 6    2  0.2220137E-005  0.1207037E+04  0.7818608E-02  0.9275704E-01
         -4   -1    0    0    0  501 -0.00000000000E+00  0.00000000000E+00  0.10254661755E+04  0.10254661755E+04  0.00000000000E+00 0. -1.
         21   -1    0    0  501  502  0.00000000000E+00 -0.00000000000E+00 -0.83293296628E+03  0.83293296628E+03  0.00000000000E+00 0.  1.
   -9000010    2    1    2    0  502  0.52234312807E+03 -0.37200441837E+03  0.13445732660E+03  0.12145028380E+04  0.10225990123E+04 0.  0.
         13    1    3    3    0    0  0.21519217537E+03 -0.64864820232E+03  0.32802444736E+03  0.75805818506E+03  0.10566000000E+00 0. -1.
         -4    1    3    3    0  502  0.30715095270E+03  0.27664378395E+03 -0.19356712076E+03  0.45644465292E+03  0.00000000000E+00 0. -1.
        -13    1    1    2    0    0 -0.52234312807E+03  0.37200441837E+03  0.58075882596E+02  0.64389630379E+03  0.10566000000E+00 0.  1.
<mgrwt>
<rscale>  1 0.10305072E+04</rscale>
<asrwt>0</asrwt>
<pdfrwt beam="2">  1       21 0.12814353E+00 0.12070370E+04</pdfrwt>
<pdfrwt beam="1">  1       -4 0.15776403E+00 0.12070370E+04</pdfrwt>
<totfact> 0.41018507E+00</totfact>
</mgrwt>
</event>
<event>
 6    2  0.2220137E-005  0.1001357E+04  0.7818608E-02  0.9810164E-01
         21   -1    0    0  501  502  0.00000000000E+00  0.00000000000E+00  0.10105983414E+04  0.10105983414E+04  0.00000000000E+00 0. -1.
         -4   -1    0    0    0  501 -0.00000000000E+00 -0.00000000000E+00 -0.35120532844E+03  0.35120532844E+03  0.00000000000E+00 0. -1.
   -9000010    2    1    2    0  502 -0.28977638272E+01  0.17579564577E+03  0.63131987865E+03  0.11837569958E+04  0.98580085704E+03 0.  0.
         13    1    3    3    0    0  0.19777697106E+03 -0.21808613211E+03 -0.11522050046E+03  0.31615354844E+03  0.10566000000E+00 0. -1.
         -4    1    3    3    0  502 -0.20067473489E+03  0.39388177789E+03  0.74654037910E+03  0.86760344732E+03  0.00000000000E+00 0. -1.
        -13    1    1    2    0    0  0.28977638272E+01 -0.17579564577E+03  0.28073134293E+02  0.17804667405E+03  0.10566000000E+00 0.  1.
<mgrwt>
<rscale>  1 0.64819921E+03</rscale>
<asrwt>0</asrwt>
<pdfrwt beam="1">  1       21 0.15547667E+00 0.10013570E+04</pdfrwt>
<pdfrwt beam="2">  1       -4 0.54031589E-01 0.10013570E+04</pdfrwt>
<totfact> 0.32057584E+01</totfact>
</mgrwt>
</event>
<event>
 6    2  0.2220137E-005  0.1016154E+04  0.7818608E-02  0.9508135E-01
         -4   -1    0    0    0  501 -0.00000000000E+00  0.00000000000E+00  0.17691041078E+04  0.17691041078E+04  0.00000000000E+00 0. -1.
         21   -1    0    0  501  502  0.00000000000E+00 -0.00000000000E+00 -0.36428989621E+03  0.36428989621E+03  0.00000000000E+00 0. -1.
   -9000010    2    1    2    0  502  0.45972563419E+03 -0.84697974440E+02  0.54097690263E+03  0.11511840910E+04  0.90224575183E+03 0.  0.
         13    1    3    3    0    0  0.30189574596E+03 -0.24440102166E+03 -0.15626648123E+03  0.41867902400E+03  0.10566000000E+00 0. -1.
         -4    1    3    3    0  502  0.15782988824E+03  0.15970304722E+03  0.69724338386E+03  0.73250506705E+03  0.00000000000E+00 0. -1.
        -13    1    1    2    0    0 -0.45972563419E+03  0.84697974440E+02  0.86383730895E+03  0.98220991296E+03  0.10566000000E+00 0.  1.
<mgrwt>
<rscale>  1 0.83686687E+03</rscale>
<asrwt>0</asrwt>
<pdfrwt beam="2">  1       21 0.56044601E-01 0.10161539E+04</pdfrwt>
<pdfrwt beam="1">  1       -4 0.27216986E+00 0.10161539E+04</pdfrwt>
<totfact> 0.54011350E+00</totfact>
</mgrwt>
</event>
<event>
 6    2  0.2220137E-005  0.9953545E+03  0.7818608E-02  0.9848145E-01
         -4   -1    0    0    0  501 -0.00000000000E+00  0.00000000000E+00  0.65156043219E+03  0.65156043219E+03  0.00000000000E+00 0. -1.
         21   -1    0    0  501  502  0.00000000000E+00 -0.00000000000E+00 -0.56344140097E+03  0.56344140097E+03  0.00000000000E+00 0. -1.
   -9000010    2    1    2    0  502  0.12427474488E+03  0.97804141287E+02 -0.61558231210E+02  0.99725621020E+03  0.98271087848E+03 0.  0.
         13    1    3    3    0    0  0.43659519023E+00  0.52667088357E+03 -0.13780904212E+03  0.54440219826E+03  0.10566000000E+00 0. -1.
         -4    1    3    3    0  502  0.12383814969E+03 -0.42886674229E+03  0.76250810913E+02  0.45285401193E+03  0.00000000000E+00 0. -1.
        -13    1    1    2    0    0 -0.12427474488E+03 -0.97804141287E+02  0.14967726243E+03  0.21774562297E+03  0.10566000000E+00 0.  1.
<mgrwt>
<rscale>  1 0.62841605E+03</rscale>
<asrwt>0</asrwt>
<pdfrwt beam="2">  1       21 0.86683293E-01 0.99535448E+03</pdfrwt>
<pdfrwt beam="1">  1       -4 0.10024007E+00 0.99535448E+03</pdfrwt>
<totfact> 0.35813003E+01</totfact>
</mgrwt>
</event>
<event>
 6    2  0.2220137E-005  0.1011872E+04  0.7818608E-02  0.1013162E+00
         21   -1    0    0  501  502  0.00000000000E+00  0.00000000000E+00  0.19023449223E+04  0.19023449223E+04  0.00000000000E+00 0. -1.
         -4   -1    0    0    0  501 -0.00000000000E+00 -0.00000000000E+00 -0.20312074347E+03  0.20312074347E+03  0.00000000000E+00 0. -1.
   -9000010    2    1    2    0  502  0.60068331279E+02 -0.13086185073E+02  0.17528092252E+04  0.20239130998E+04  0.10100022786E+04 0.  0.
         13    1    3    3    0    0 -0.41409118953E+03 -0.10780580277E+03  0.39409257587E+03  0.58172379517E+03  0.10566000000E+00 0. -1.
         -4    1    3    3    0  502  0.47415952081E+03  0.94719617700E+02  0.13587166494E+04  0.14421893046E+04  0.00000000000E+00 0. -1.
        -13    1    1    2    0    0 -0.60068331279E+02  0.13086185073E+02 -0.53585046362E+02  0.81552565993E+02  0.10566000000E+00 0.  1.
<mgrwt>
<rscale>  1 0.50236898E+03</rscale>
<asrwt>0</asrwt>
<pdfrwt beam="1">  1       21 0.29266844E+00 0.10118716E+04</pdfrwt>
<pdfrwt beam="2">  1       -4 0.31249346E-01 0.10118716E+04</pdfrwt>
<totfact> 0.11744116E+01</totfact>
</mgrwt>
</event>
<event>
 6    2  0.2220137E-005  0.1071597E+04  0.7818608E-02  0.9556592E-01
         -4   -1    0    0    0  501 -0.00000000000E+00  0.00000000000E+00  0.43020247821E+03  0.43020247821E+03  0.00000000000E+00 0. -1.
         21   -1    0    0  501  502  0.00000000000E+00 -0.00000000000E+00 -0.11909952819E+04  0.11909952819E+04  0.00000000000E+00 0. -1.
   -9000010    2    1    2    0  502  0.60675020942E+02 -0.33131684904E+03 -0.69714686117E+03  0.12784104648E+04  0.10172842562E+04 0.  0.
         13    1    3    3    0    0 -0.33493250463E+03 -0.19952239918E+03 -0.76245396445E+03  0.85634399017E+03  0.10566000000E+00 0. -1.
         -4    1    3    3    0  502  0.39560752557E+03 -0.13179444986E+03  0.65307103285E+02  0.42206647467E+03  0.00000000000E+00 0. -1.
        -13    1    1    2    0    0 -0.60675020942E+02  0.33131684904E+03 -0.63645942505E+02  0.34278729525E+03  0.10566000000E+00 0.  1.
<mgrwt>
<rscale>  1 0.80237098E+03</rscale>
<asrwt>0</asrwt>
<pdfrwt beam="2">  1       21 0.18323004E+00 0.10715967E+04</pdfrwt>
<pdfrwt beam="1">  1       -4 0.66184997E-01 0.10715967E+04</pdfrwt>
<totfact> 0.12640540E+01</totfact>
</mgrwt>
</event>
<event>
 6    2  0.2220137E-005  0.1038051E+04  0.7818608E-02  0.9654606E-01
         21   -1    0    0  501  502  0.00000000000E+00  0.00000000000E+00  0.40828748306E+03  0.40828748306E+03  0.00000000000E+00 0. -1.
         -4   -1    0    0    0  501 -0.00000000000E+00 -0.00000000000E+00 -0.10427236035E+04  0.10427236035E+04  0.00000000000E+00 0. -1.
   -9000010    2    1    2    0  502  0.16012920278E+03 -0.21112625094E+03 -0.47310263749E+03  0.11407786587E+04  0.10036603943E+04 0.  0.
         13    1    3    3    0    0 -0.16609949048E+03  0.13475227739E+03 -0.60966964887E+03  0.64609930268E+03  0.10566000000E+00 0. -1.
         -4    1    3    3    0  502  0.32622869326E+03 -0.34587852832E+03  0.13656701138E+03  0.49467935601E+03  0.00000000000E+00 0. -1.
        -13    1    1    2    0    0 -0.16012920278E+03  0.21112625094E+03 -0.16133348292E+03  0.31023242786E+03  0.10566000000E+00 0.  1.
<mgrwt>
<rscale>  1 0.73785031E+03</rscale>
<asrwt>0</asrwt>
<pdfrwt beam="1">  1       21 0.62813460E-01 0.10380510E+04</pdfrwt>
<pdfrwt beam="2">  1       -4 0.16041901E+00 0.10380510E+04</pdfrwt>
<totfact> 0.22544112E+01</totfact>
</mgrwt>
</event>
<event>
 6    2  0.2220137E-005  0.1173750E+04  0.7818608E-02  0.9308517E-01
         21   -1    0    0  501  502  0.00000000000E+00  0.00000000000E+00  0.10894867099E+04  0.10894867099E+04  0.00000000000E+00 0.  1.
         -4   -1    0    0    0  501 -0.00000000000E+00 -0.00000000000E+00 -0.82048234589E+03  0.82048234589E+03  0.00000000000E+00 0. -1.
   -9000010    2    1    2    0  502 -0.61469578064E+03  0.68198139778E+02 -0.11915810843E+03  0.11797827746E+04  0.99759052297E+03 0.  0.
         13    1    3    3    0    0 -0.66677353657E+03 -0.29962729474E+03  0.11595314542E+03  0.74014093788E+03  0.10566000000E+00 0. -1.
         -4    1    3    3    0  502  0.52077755929E+02  0.36782543452E+03 -0.23511125384E+03  0.43964183676E+03  0.00000000000E+00 0. -1.
        -13    1    1    2    0    0  0.61469578064E+03 -0.68198139778E+02  0.38816247242E+03  0.73018628114E+03  0.10566000000E+00 0.  1.
<mgrwt>
<rscale>  1 0.10000251E+04</rscale>
<asrwt>0</asrwt>
<pdfrwt beam="1">  1       21 0.16761334E+00 0.11737499E+04</pdfrwt>
<pdfrwt beam="2">  1       -4 0.12622805E+00 0.11737499E+04</pdfrwt>
<totfact> 0.35182874E+00</totfact>
</mgrwt>
</event>
<event>
 6    2  0.2220137E-005  0.1146045E+04  0.7818608E-02  0.9386722E-01
         21   -1    0    0  501  502  0.00000000000E+00  0.00000000000E+00  0.24357220738E+04  0.24357220738E+04  0.00000000000E+00 0. -1.
         -4   -1    0    0    0  501 -0.00000000000E+00 -0.00000000000E+00 -0.30432057317E+03  0.30432057317E+03  0.00000000000E+00 0. -1.
   -9000010    2    1    2    0  502 -0.49325743522E+03  0.86296511664E+02  0.18187144928E+04  0.21496841445E+04  0.10308586371E+04 0.  0.
         13    1    3    3    0    0 -0.57253032850E+03 -0.18185760695E+03  0.17656829643E+04  0.18650735932E+04  0.10566000000E+00 0. -1.
         -4    1    3    3    0  502  0.79272893279E+02  0.26815411862E+03  0.53031528432E+02  0.28461055136E+03  0.00000000000E+00 0. -1.
        -13    1    1    2    0    0  0.49325743522E+03 -0.86296511664E+02  0.31268700786E+03  0.59035850242E+03  0.10566000000E+00 0.  1.
<mgrwt>
<rscale>  1 0.93176505E+03</rscale>
<asrwt>0</asrwt>
<pdfrwt beam="1">  1       21 0.37472646E+00 0.11460452E+04</pdfrwt>
<pdfrwt beam="2">  1       -4 0.46818551E-01 0.11460452E+04</pdfrwt>
<totfact> 0.15369820E+00</totfact>
</mgrwt>
</event>
<event>
 6    2  0.2220137E-005  0.1021755E+04  0.7818608E-02  0.1015131E+00
         21   -1    0    0  501  502  0.00000000000E+00  0.00000000000E+00  0.18887921686E+04  0.18887921686E+04  0.00000000000E+00 0. -1.
         -4   -1    0    0    0  501 -0.00000000000E+00 -0.00000000000E+00 -0.15386122079E+03  0.15386122079E+03  0.00000000000E+00 0. -1.
   -9000010    2    1    2    0  502 -0.17883847623E+02 -0.53296976062E+02  0.16528411783E+04  0.19431589620E+04  0.10202070335E+04 0.  0.
         13    1    3    3    0    0  0.38845224866E+03  0.15012420210E+03  0.29244894084E+03  0.50887996591E+03  0.10566000000E+00 0. -1.
         -4    1    3    3    0  502 -0.40633609628E+03 -0.20342117817E+03  0.13603922374E+04  0.14342789960E+04  0.00000000000E+00 0. -1.
        -13    1    1    2    0    0  0.17883847623E+02  0.53296976062E+02  0.82089769582E+02  0.99494427468E+02  0.10566000000E+00 0.  1.
<mgrwt>
<rscale>  1 0.49485498E+03</rscale>
<asrwt>0</asrwt>
<pdfrwt beam="1">  1       21 0.29058339E+00 0.10217548E+04</pdfrwt>
<pdfrwt beam="2">  1       -4 0.23670958E-01 0.10217548E+04</pdfrwt>
<totfact> 0.20669618E+01</totfact>
</mgrwt>
</event>
<event>
 6    2  0.2220137E-005  0.1002873E+04  0.7818608E-02  0.1020587E+00
         -4   -1    0    0    0  501 -0.00000000000E+00  0.00000000000E+00  0.89112789160E+03  0.89112789160E+03  0.00000000000E+00 0. -1.
         21   -1    0    0  501  502  0.00000000000E+00 -0.00000000000E+00 -0.42978392629E+03  0.42978392629E+03  0.00000000000E+00 0. -1.
   -9000010    2    1    2    0  502 -0.86542023167E+01 -0.49616445746E+02  0.16020328769E+03  0.10155883734E+04  0.10016076896E+04 0.  0.
         13    1    3    3    0    0  0.27095759041E+03  0.10945370018E+03 -0.32269443850E+03  0.43535024990E+03  0.10566000000E+00 0. -1.
         -4    1    3    3    0  502 -0.27961179273E+03 -0.15907014592E+03  0.48289772619E+03  0.58023812346E+03  0.00000000000E+00 0. -1.
        -13    1    1    2    0    0  0.86542023167E+01  0.49616445746E+02  0.30114067761E+03  0.30532344454E+03  0.10566000000E+00 0.  1.
<mgrwt>
<rscale>  1 0.47475344E+03</rscale>
<asrwt>0</asrwt>
<pdfrwt beam="2">  1       21 0.66120604E-01 0.10028732E+04</pdfrwt>
<pdfrwt beam="1">  1       -4 0.13709660E+00 0.10028732E+04</pdfrwt>
<totfact> 0.30692665E+01</totfact>
</mgrwt>
</event>
<event>
 6    2  0.2220137E-005  0.1100410E+04  0.7818608E-02  0.9432118E-01
         21   -1    0    0  501  502  0.00000000000E+00  0.00000000000E+00  0.88986873507E+03  0.88986873507E+03  0.00000000000E+00 0. -1.
         -4   -1    0    0    0  501 -0.00000000000E+00 -0.00000000000E+00 -0.70350939946E+03  0.70350939946E+03  0.00000000000E+00 0. -1.
   -9000010    2    1    2    0  502  0.36023453122E+03 -0.31886083478E+03  0.15502046022E+03  0.11112751520E+04  0.98967670025E+03 0.  0.
         13    1    3    3    0    0 -0.22539795735E+03 -0.11686164086E+03  0.37587850260E+03  0.45359182330E+03  0.10566000000E+00 0. -1.
         -4    1    3    3    0  502  0.58563248857E+03 -0.20199919392E+03 -0.22085804238E+03  0.65768332874E+03  0.00000000000E+00 0. -1.
        -13    1    1    2    0    0 -0.36023453122E+03  0.31886083478E+03  0.31338875389E+02  0.48210298248E+03  0.10566000000E+00 0.  1.
<mgrwt>
<rscale>  1 0.89478940E+03</rscale>
<asrwt>0</asrwt>
<pdfrwt beam="1">  1       21 0.13690288E+00 0.11004095E+04</pdfrwt>
<pdfrwt beam="2">  1       -4 0.10823221E+00 0.11004095E+04</pdfrwt>
<totfact> 0.92170290E+00</totfact>
</mgrwt>
</event>
<event>
 6    2  0.2220137E-005  0.1078784E+04  0.7818608E-02  0.9517807E-01
         21   -1    0    0  501  502  0.00000000000E+00  0.00000000000E+00  0.23139539508E+03  0.23139539508E+03  0.00000000000E+00 0. -1.
         -4   -1    0    0    0  501 -0.00000000000E+00 -0.00000000000E+00 -0.24672111454E+04  0.24672111454E+04  0.00000000000E+00 0. -1.
   -9000010    2    1    2    0  502  0.21553226890E+03  0.31018654045E+03 -0.12992034136E+04  0.16886993521E+04  0.10104979678E+04 0.  0.
         13    1    3    3    0    0  0.46464516901E+03  0.55785184514E+03 -0.83326367767E+03  0.11051797057E+04  0.10566000000E+00 0. -1.
         -4    1    3    3    0  502 -0.24911290011E+03 -0.24766530469E+03 -0.46593973596E+03  0.58351964637E+03  0.00000000000E+00 0. -1.
        -13    1    1    2    0    0 -0.21553226890E+03 -0.31018654045E+03 -0.93661233665E+03  0.10099071884E+04  0.10566000000E+00 0.  1.
<mgrwt>
<rscale>  1 0.82983654E+03</rscale>
<asrwt>0</asrwt>
<pdfrwt beam="1">  1       21 0.35599291E-01 0.10787845E+04</pdfrwt>
<pdfrwt beam="2">  1       -4 0.37957095E+00 0.10787845E+04</pdfrwt>
<totfact> 0.29200557E+00</totfact>
</mgrwt>
</event>
<event>
 6    2  0.2220137E-005  0.1002136E+04  0.7818608E-02  0.9788231E-01
         -4   -1    0    0    0  501 -0.00000000000E+00  0.00000000000E+00  0.15262587398E+03  0.15262587398E+03  0.00000000000E+00 0. -1.
         21   -1    0    0  501  502  0.00000000000E+00 -0.00000000000E+00 -0.26946580687E+04  0.26946580687E+04  0.00000000000E+00 0. -1.
   -9000010    2    1    2    0  502  0.18832408495E+03  0.84468720597E+01 -0.24286916712E+04  0.26273216822E+04  0.98424523225E+03 0.  0.
         13    1    3    3    0    0 -0.33482344411E+03 -0.24935532099E+03 -0.94432456459E+03  0.10324890843E+04  0.10566000000E+00 0. -1.
         -4    1    3    3    0  502  0.52314752906E+03  0.25780219305E+03 -0.14843671066E+04  0.15948325979E+04  0.00000000000E+00 0. -1.
        -13    1    1    2    0    0 -0.18832408495E+03 -0.84468720597E+01 -0.11334052353E+03  0.21996226053E+03  0.10566000000E+00 0.  1.
<mgrwt>
<rscale>  1 0.65997957E+03</rscale>
<asrwt>0</asrwt>
<pdfrwt beam="2">  1       21 0.41456274E+00 0.10021357E+04</pdfrwt>
<pdfrwt beam="1">  1       -4 0.23480906E-01 0.10021357E+04</pdfrwt>
<totfact> 0.34241140E+00</totfact>
</mgrwt>
</event>
<event>
 6    2  0.2220137E-005  0.1015133E+04  0.7818608E-02  0.9798762E-01
         -4   -1    0    0    0  501 -0.00000000000E+00  0.00000000000E+00  0.10254794178E+04  0.10254794178E+04  0.00000000000E+00 0. -1.
         21   -1    0    0  501  502  0.00000000000E+00 -0.00000000000E+00 -0.34553701441E+03  0.34553701441E+03  0.00000000000E+00 0. -1.
   -9000010    2    1    2    0  502 -0.15201171946E+03  0.87088763988E+02  0.58883401994E+03  0.11735505760E+04  0.99990171305E+03 0.  0.
         13    1    3    3    0    0 -0.36711893956E+03  0.21486280515E+03  0.75962773692E+03  0.87061854487E+03  0.10566000000E+00 0. -1.
         -4    1    3    3    0  502  0.21510722010E+03 -0.12777404116E+03 -0.17079371698E+03  0.30293203114E+03  0.00000000000E+00 0. -1.
        -13    1    1    2    0    0  0.15201171946E+03 -0.87088763988E+02  0.91108383460E+02  0.19746585620E+03  0.10566000000E+00 0.  1.
<mgrwt>
<rscale>  1 0.65429037E+03</rscale>
<asrwt>0</asrwt>
<pdfrwt beam="2">  1       21 0.53159541E-01 0.10151332E+04</pdfrwt>
<pdfrwt beam="1">  1       -4 0.15776606E+00 0.10151332E+04</pdfrwt>
<totfact> 0.34230491E+01</totfact>
</mgrwt>
</event>
<event>
 6    2  0.2220137E-005  0.1009110E+04  0.7818608E-02  0.9744822E-01
         -4   -1    0    0    0  501 -0.00000000000E+00  0.00000000000E+00  0.14149823888E+04  0.14149823888E+04  0.00000000000E+00 0. -1.
         21   -1    0    0  501  502  0.00000000000E+00 -0.00000000000E+00 -0.26892966215E+03  0.26892966215E+03  0.00000000000E+00 0. -1.
   -9000010    2    1    2    0  502  0.11623846413E+03  0.17864793532E+03  0.85165843743E+03  0.13204640161E+04  0.98634510111E+03 0.  0.
         13    1    3    3    0    0  0.51238930186E+03  0.34384156992E+02  0.70886654137E+03  0.87533813555E+03  0.10566000000E+00 0. -1.
         -4    1    3    3    0  502 -0.39615083773E+03  0.14426377833E+03  0.14279189606E+03  0.44512588057E+03  0.00000000000E+00 0. -1.
        -13    1    1    2    0    0 -0.11623846413E+03 -0.17864793532E+03  0.29439428924E+03  0.36344803486E+03  0.10566000000E+00 0.  1.
<mgrwt>
<rscale>  1 0.68409676E+03</rscale>
<asrwt>0</asrwt>
<pdfrwt beam="2">  1       21 0.41373795E-01 0.10091101E+04</pdfrwt>
<pdfrwt beam="1">  1       -4 0.21768959E+00 0.10091101E+04</pdfrwt>
<totfact> 0.22702552E+01</totfact>
</mgrwt>
</event>
<event>
 6    2  0.2220137E-005  0.1059395E+04  0.7818608E-02  0.9585120E-01
         -4   -1    0    0    0  501 -0.00000000000E+00  0.00000000000E+00  0.80483596765E+03  0.80483596765E+03  0.00000000000E+00 0. -1.
         21   -1    0    0  501  502  0.00000000000E+00 -0.00000000000E+00 -0.10236839208E+04  0.10236839208E+04  0.00000000000E+00 0.  1.
   -9000010    2    1    2    0  502 -0.13596327536E+03  0.28520640470E+03 -0.68778124539E+03  0.12630756831E+04  0.10111817019E+04 0.  0.
         13    1    3    3    0    0 -0.50474056753E+03  0.36473794518E+03 -0.21627324503E+03  0.65921994573E+03  0.10566000000E+00 0. -1.
         -4    1    3    3    0  502  0.36877729217E+03 -0.79531540482E+02 -0.47150800037E+03  0.60385573738E+03  0.00000000000E+00 0. -1.
        -13    1    1    2    0    0  0.13596327536E+03 -0.28520640470E+03  0.46893329229E+03  0.56544420530E+03  0.10566000000E+00 0.  1.
<mgrwt>
<rscale>  1 0.78288917E+03</rscale>
<asrwt>0</asrwt>
<pdfrwt beam="2">  1       21 0.15748983E+00 0.10593947E+04</pdfrwt>
<pdfrwt beam="1">  1       -4 0.12382092E+00 0.10593947E+04</pdfrwt>
<totfact> 0.44875657E+00</totfact>
</mgrwt>
</event>
<event>
 6    2  0.2220137E-005  0.1098180E+04  0.7818608E-02  0.9454043E-01
         -4   -1    0    0    0  501 -0.00000000000E+00  0.00000000000E+00  0.42903496725E+03  0.42903496725E+03  0.00000000000E+00 0. -1.
         21   -1    0    0  501  502  0.00000000000E+00 -0.00000000000E+00 -0.14010426572E+04  0.14010426572E+04  0.00000000000E+00 0. -1.
   -9000010    2    1    2    0  502  0.44579112591E+03 -0.42929861205E+02 -0.75299133763E+03  0.13315388851E+04  0.10027099017E+04 0.  0.
         13    1    3    3    0    0  0.57526879665E+03 -0.23505956728E+01 -0.93905439275E+03  0.11012551373E+04  0.10566000000E+00 0. -1.
         -4    1    3    3    0  502 -0.12947767074E+03 -0.40579265532E+02  0.18606305512E+03  0.23028374778E+03  0.00000000000E+00 0. -1.
        -13    1    1    2    0    0 -0.44579112591E+03  0.42929861205E+02 -0.21901635232E+03  0.49853873939E+03  0.10566000000E+00 0.  1.
<mgrwt>
<rscale>  1 0.87758502E+03</rscale>
<asrwt>0</asrwt>
<pdfrwt beam="2">  1       21 0.21554503E+00 0.10981802E+04</pdfrwt>
<pdfrwt beam="1">  1       -4 0.66005379E-01 0.10981802E+04</pdfrwt>
<totfact> 0.75753008E+00</totfact>
</mgrwt>
</event>
<event>
 6    2  0.2220137E-005  0.1017399E+04  0.7818608E-02  0.9848716E-01
         21   -1    0    0  501  502  0.00000000000E+00  0.00000000000E+00  0.17234671407E+04  0.17234671407E+04  0.00000000000E+00 0. -1.
         -4   -1    0    0    0  501 -0.00000000000E+00 -0.00000000000E+00 -0.24443293032E+03  0.24443293032E+03  0.00000000000E+00 0. -1.
   -9000010    2    1    2    0  502  0.13582645788E+03  0.58304867502E+02  0.15061938554E+04  0.18176138717E+04  0.10066041785E+04 0.  0.
         13    1    3    3    0    0  0.18017045693E+03 -0.70745931376E+01  0.16466354917E+04  0.16564781608E+04  0.10566000000E+00 0. -1.
         -4    1    3    3    0  502 -0.44343999042E+02  0.65379460639E+02 -0.14044163630E+03  0.16113571091E+03  0.00000000000E+00 0. -1.
        -13    1    1    2    0    0 -0.13582645788E+03 -0.58304867502E+02 -0.27159645013E+02  0.15028619936E+03  0.10566000000E+00 0.  1.
<mgrwt>
<rscale>  1 0.62812431E+03</rscale>
<asrwt>0</asrwt>
<pdfrwt beam="1">  1       21 0.26514878E+00 0.10173988E+04</pdfrwt>
<pdfrwt beam="2">  1       -4 0.37605067E-01 0.10173988E+04</pdfrwt>
<totfact> 0.12050802E+01</totfact>
</mgrwt>
</event>
<event>
 6    2  0.2220137E-005  0.1006038E+04  0.7818608E-02  0.9981631E-01
         -4   -1    0    0    0  501 -0.00000000000E+00  0.00000000000E+00  0.16668410214E+04  0.16668410214E+04  0.00000000000E+00 0. -1.
         21   -1    0    0  501  502  0.00000000000E+00 -0.00000000000E+00 -0.19262454604E+03  0.19262454604E+03  0.00000000000E+00 0. -1.
   -9000010    2    1    2    0  502  0.94909821215E+02  0.30920064437E+02  0.11902349615E+04  0.15584515546E+04  0.10010734538E+04 0.  0.
         13    1    3    3    0    0 -0.42918974296E+03 -0.82093078310E+02  0.73511767207E+03  0.85518484079E+03  0.10566000000E+00 0. -1.
         -4    1    3    3    0  502  0.52409956417E+03  0.11301314275E+03  0.45511728941E+03  0.70326671379E+03  0.00000000000E+00 0. -1.
        -13    1    1    2    0    0 -0.94909821215E+02 -0.30920064437E+02  0.28398151387E+03  0.30101401285E+03  0.10566000000E+00 0.  1.
<mgrwt>
<rscale>  1 0.56463082E+03</rscale>
<asrwt>0</asrwt>
<pdfrwt beam="2">  1       21 0.29634547E-01 0.10060378E+04</pdfrwt>
<pdfrwt beam="1">  1       -4 0.25643707E+00 0.10060378E+04</pdfrwt>
<totfact> 0.25805960E+01</totfact>
</mgrwt>
</event>
<event>
 6    2  0.2220137E-005  0.9197077E+03  0.7818608E-02  0.1014609E+00
         21   -1    0    0  501  502  0.00000000000E+00  0.00000000000E+00  0.28667675115E+03  0.28667675115E+03  0.00000000000E+00 0. -1.
         -4   -1    0    0    0  501 -0.00000000000E+00 -0.00000000000E+00 -0.89115153936E+03  0.89115153936E+03  0.00000000000E+00 0. -1.
   -9000010    2    1    2    0  502 -0.41994813211E+02 -0.66113144658E+02 -0.49870613052E+03  0.10462169979E+04  0.91636656955E+03 0.  0.
         13    1    3    3    0    0  0.31098320449E+03 -0.26135885144E+03 -0.49821852453E+03  0.64283801385E+03  0.10566000000E+00 0. -1.
         -4    1    3    3    0  502 -0.35297801770E+03  0.19524570679E+03 -0.48760599581E+00  0.40337898403E+03  0.00000000000E+00 0. -1.
        -13    1    1    2    0    0  0.41994813211E+02  0.66113144658E+02 -0.10576865769E+03  0.13161129262E+03  0.10566000000E+00 0.  1.
<mgrwt>
<rscale>  1 0.49683246E+03</rscale>
<asrwt>0</asrwt>
<pdfrwt beam="1">  1       21 0.44104116E-01 0.91970767E+03</pdfrwt>
<pdfrwt beam="2">  1       -4 0.13710024E+00 0.91970767E+03</pdfrwt>
<totfact> 0.74998698E+01</totfact>
</mgrwt>
</event>
<event>
 6    2  0.2220137E-005  0.1017942E+04  0.7818608E-02  0.9804425E-01
         21   -1    0    0  501  502  0.00000000000E+00  0.00000000000E+00  0.37409848528E+03  0.37409848528E+03  0.00000000000E+00 0. -1.
         -4   -1    0    0    0  501 -0.00000000000E+00 -0.00000000000E+00 -0.11288344116E+04  0.11288344116E+04  0.00000000000E+00 0. -1.
   -9000010    2    1    2    0  502 -0.33678534213E+02 -0.16718618986E+03 -0.37176408387E+03  0.10837039511E+04  0.10035538121E+04 0.  0.
         13    1    3    3    0    0 -0.40406739638E+03  0.52839319542E+02 -0.48966379385E+03  0.63705030938E+03  0.10566000000E+00 0. -1.
         -4    1    3    3    0  502  0.37038886216E+03 -0.22002550941E+03  0.11789970999E+03  0.44665364167E+03  0.00000000000E+00 0. -1.
        -13    1    1    2    0    0  0.33678534213E+02  0.16718618986E+03 -0.38297184247E+03  0.41922894585E+03  0.10566000000E+00 0.  1.
<mgrwt>
<rscale>  1 0.65125605E+03</rscale>
<asrwt>0</asrwt>
<pdfrwt beam="1">  1       21 0.57553614E-01 0.10179419E+04</pdfrwt>
<pdfrwt beam="2">  1       -4 0.17366683E+00 0.10179419E+04</pdfrwt>
<totfact> 0.21986689E+01</totfact>
</mgrwt>
</event>
<event>
 6    2  0.2220137E-005  0.1031355E+04  0.7818608E-02  0.9657180E-01
         21   -1    0    0  501  502  0.00000000000E+00  0.00000000000E+00  0.13976119371E+04  0.13976119371E+04  0.00000000000E+00 0. -1.
         -4   -1    0    0    0  501 -0.00000000000E+00 -0.00000000000E+00 -0.70770875226E+03  0.70770875226E+03  0.00000000000E+00 0. -1.
   -9000010    2    1    2    0  502 -0.15032795638E+03 -0.22166785761E+03  0.11674673956E+04  0.15577782526E+04  0.99597079819E+03 0.  0.
         13    1    3    3    0    0 -0.35595970456E+03 -0.17704937219E+03  0.27451663055E+02  0.39850645720E+03  0.10566000000E+00 0. -1.
         -4    1    3    3    0  502  0.20563174817E+03 -0.44618485414E+02  0.11400157326E+04  0.11592717954E+04  0.00000000000E+00 0. -1.
        -13    1    1    2    0    0  0.15032795638E+03  0.22166785761E+03 -0.47756421074E+03  0.54754243681E+03  0.10566000000E+00 0.  1.
<mgrwt>
<rscale>  1 0.73624542E+03</rscale>
<asrwt>0</asrwt>
<pdfrwt beam="1">  1       21 0.21501722E+00 0.10313549E+04</pdfrwt>
<pdfrwt beam="2">  1       -4 0.10887827E+00 0.10313549E+04</pdfrwt>
<totfact> 0.24005399E+00</totfact>
</mgrwt>
</event>
<event>
 6    2  0.2220137E-005  0.1085186E+04  0.7818608E-02  0.9466720E-01
         -4   -1    0    0    0  501 -0.00000000000E+00  0.00000000000E+00  0.42502990687E+03  0.42502990687E+03  0.00000000000E+00 0. -1.
         21   -1    0    0  501  502  0.00000000000E+00 -0.00000000000E+00 -0.13833654674E+04  0.13833654674E+04  0.00000000000E+00 0. -1.
   -9000010    2    1    2    0  502 -0.32173333168E+03  0.30573307726E+03 -0.74232618505E+03  0.13147911677E+04  0.99027400174E+03 0.  0.
         13    1    3    3    0    0  0.17672743696E+03  0.17671321498E+03  0.14497066290E+03  0.28892326245E+03  0.10566000000E+00 0. -1.
         -4    1    3    3    0  502 -0.49846076864E+03  0.12901986228E+03 -0.88729684795E+03  0.10258679053E+04  0.00000000000E+00 0. -1.
        -13    1    1    2    0    0  0.32173333168E+03 -0.30573307726E+03 -0.21600937547E+03  0.49360420652E+03  0.10566000000E+00 0.  1.
<mgrwt>
<rscale>  1 0.86782501E+03</rscale>
<asrwt>0</asrwt>
<pdfrwt beam="2">  1       21 0.21282546E+00 0.10851855E+04</pdfrwt>
<pdfrwt beam="1">  1       -4 0.65389215E-01 0.10851855E+04</pdfrwt>
<totfact> 0.80795340E+00</totfact>
</mgrwt>
</event>
<event>
 6    2  0.2220137E-005  0.1003552E+04  0.7818608E-02  0.1012949E+00
         -4   -1    0    0    0  501 -0.00000000000E+00  0.00000000000E+00  0.84361025582E+03  0.84361025582E+03  0.00000000000E+00 0. -1.
         21   -1    0    0  501  502  0.00000000000E+00 -0.00000000000E+00 -0.36449321962E+03  0.36449321962E+03  0.00000000000E+00 0. -1.
   -9000010    2    1    2    0  502 -0.22946071272E+02 -0.59137957982E+02  0.34752822474E+03  0.10620232005E+04  0.10015456011E+04 0.  0.
         13    1    3    3    0    0  0.37598486785E+03 -0.24281701586E+03 -0.73562514093E+02  0.45358150170E+03  0.10566000000E+00 0. -1.
         -4    1    3    3    0  502 -0.39893093913E+03  0.18367905788E+03  0.42109073883E+03  0.60844169879E+03  0.00000000000E+00 0. -1.
        -13    1    1    2    0    0  0.22946071272E+02  0.59137957982E+02  0.13158881147E+03  0.14608027495E+03  0.10566000000E+00 0.  1.
<mgrwt>
<rscale>  1 0.50319349E+03</rscale>
<asrwt>0</asrwt>
<pdfrwt beam="2">  1       21 0.56075880E-01 0.10035524E+04</pdfrwt>
<pdfrwt beam="1">  1       -4 0.12978619E+00 0.10035524E+04</pdfrwt>
<totfact> 0.51101440E+01</totfact>
</mgrwt>
</event>
<event>
 6    2  0.2220137E-005  0.1086695E+04  0.7818608E-02  0.9543142E-01
         21   -1    0    0  501  502  0.00000000000E+00  0.00000000000E+00  0.10020635791E+04  0.10020635791E+04  0.00000000000E+00 0. -1.
         -4   -1    0    0    0  501 -0.00000000000E+00 -0.00000000000E+00 -0.51527907104E+03  0.51527907104E+03  0.00000000000E+00 0. -1.
   -9000010    2    1    2    0  502  0.26892081171E+03 -0.20537603428E+03  0.45282922880E+03  0.11772681134E+04  0.10326704130E+04 0.  0.
         13    1    3    3    0    0  0.47457003136E+03 -0.49190032386E+03  0.12319886950E+03  0.69452186135E+03  0.10566000000E+00 0. -1.
         -4    1    3    3    0  502 -0.20564921965E+03  0.28652428958E+03  0.32963035930E+03  0.48274625201E+03  0.00000000000E+00 0. -1.
        -13    1    1    2    0    0 -0.26892081171E+03  0.20537603428E+03  0.33955279279E+02  0.34007453680E+03  0.10566000000E+00 0.  1.
<mgrwt>
<rscale>  1 0.81176504E+03</rscale>
<asrwt>0</asrwt>
<pdfrwt beam="1">  1       21 0.15416363E+00 0.10866949E+04</pdfrwt>
<pdfrwt beam="2">  1       -4 0.79273703E-01 0.10866949E+04</pdfrwt>
<totfact> 0.13922492E+01</totfact>
</mgrwt>
</event>
<event>
 6    2  0.2220137E-005  0.1221057E+04  0.7818608E-02  0.9246844E-01
         -4   -1    0    0    0  501 -0.00000000000E+00  0.00000000000E+00  0.19295738878E+04  0.19295738878E+04  0.00000000000E+00 0. -1.
         21   -1    0    0  501  502  0.00000000000E+00 -0.00000000000E+00 -0.47829364912E+03  0.47829364912E+03  0.00000000000E+00 0.  1.
   -9000010    2    1    2    0  502 -0.49817328160E+03 -0.47588164296E+03  0.10510191331E+04  0.16110934658E+04  0.10081373819E+04 0.  0.
         13    1    3    3    0    0 -0.44728627242E+03 -0.54679478979E+03  0.12263333143E+04  0.14152536736E+04  0.10566000000E+00 0. -1.
         -4    1    3    3    0  502 -0.50887009176E+02  0.70913146827E+02 -0.17531418120E+03  0.19583979224E+03  0.00000000000E+00 0. -1.
        -13    1    1    2    0    0  0.49817328160E+03  0.47588164296E+03  0.40026110561E+03  0.79677407114E+03  0.10566000000E+00 0.  1.
<mgrwt>
<rscale>  1 0.10582728E+04</rscale>
<asrwt>0</asrwt>
<pdfrwt beam="2">  1       21 0.73583639E-01 0.12210573E+04</pdfrwt>
<pdfrwt beam="1">  1       -4 0.29685752E+00 0.12210573E+04</pdfrwt>
<totfact> 0.19986620E+00</totfact>
</mgrwt>
</event>
<event>
 6    2  0.2220137E-005  0.1115412E+04  0.7818608E-02  0.9571509E-01
         21   -1    0    0  501  502  0.00000000000E+00  0.00000000000E+00  0.12255396039E+04  0.12255396039E+04  0.00000000000E+00 0. -1.
         -4   -1    0    0    0  501 -0.00000000000E+00 -0.00000000000E+00 -0.39931227119E+03  0.39931227119E+03  0.00000000000E+00 0. -1.
   -9000010    2    1    2    0  502 -0.99321011553E+02 -0.26572919984E+03  0.66085367591E+03  0.12964845069E+04  0.10787343624E+04 0.  0.
         13    1    3    3    0    0 -0.96548906501E+02 -0.67890313597E+03  0.30226889170E+03  0.74939819417E+03  0.10566000000E+00 0. -1.
         -4    1    3    3    0  502 -0.27721050516E+01  0.41317393612E+03  0.35858478421E+03  0.54708631268E+03  0.00000000000E+00 0. -1.
        -13    1    1    2    0    0  0.99321011553E+02  0.26572919984E+03  0.16537365677E+03  0.32836736820E+03  0.10566000000E+00 0.  1.
<mgrwt>
<rscale>  1 0.79210967E+03</rscale>
<asrwt>0</asrwt>
<pdfrwt beam="1">  1       21 0.18854455E+00 0.11154123E+04</pdfrwt>
<pdfrwt beam="2">  1       -4 0.61432658E-01 0.11154123E+04</pdfrwt>
<totfact> 0.13581692E+01</totfact>
</mgrwt>
</event>
<event>
 6    2  0.2220137E-005  0.1068160E+04  0.7818608E-02  0.9554268E-01
         21   -1    0    0  501  502  0.00000000000E+00  0.00000000000E+00  0.12408562223E+04  0.12408562223E+04  0.00000000000E+00 0. -1.
         -4   -1    0    0    0  501 -0.00000000000E+00 -0.00000000000E+00 -0.75666488762E+03  0.75666488762E+03  0.00000000000E+00 0. -1.
   -9000010    2    1    2    0  502 -0.34073354017E+03 -0.37872377498E+02  0.94294419566E+03  0.14248188653E+04  0.10116478539E+04 0.  0.
         13    1    3    3    0    0 -0.33858546637E+03  0.35707831838E+02  0.11530115366E+04  0.12022274253E+04  0.10566000000E+00 0. -1.
         -4    1    3    3    0  502 -0.21480738008E+01 -0.73580209336E+02 -0.21006734097E+03  0.22259144002E+03  0.00000000000E+00 0. -1.
        -13    1    1    2    0    0  0.34073354017E+03  0.37872377498E+02 -0.45875286099E+03  0.57270224463E+03  0.10566000000E+00 0.  1.
<mgrwt>
<rscale>  1 0.80398402E+03</rscale>
<asrwt>0</asrwt>
<pdfrwt beam="1">  1       21 0.19090096E+00 0.10681597E+04</pdfrwt>
<pdfrwt beam="2">  1       -4 0.11640998E+00 0.10681597E+04</pdfrwt>
<totfact> 0.29600607E+00</totfact>
</mgrwt>
</event>
<event>
 6    2  0.2220137E-005  0.1336949E+04  0.7818608E-02  0.9112632E-01
         -4   -1    0    0    0  501 -0.00000000000E+00  0.00000000000E+00  0.13971884897E+04  0.13971884897E+04  0.00000000000E+00 0. -1.
         21   -1    0    0  501  502  0.00000000000E+00 -0.00000000000E+00 -0.94143230255E+03  0.94143230255E+03  0.00000000000E+00 0. -1.
   -9000010    2    1    2    0  502  0.44201082220E+03  0.74756650927E+03  0.58728805546E+03  0.14602530468E+04  0.10164656649E+04 0.  0.
         13    1    3    3    0    0  0.56908669109E+02  0.56137207129E+03 -0.17103888240E+03  0.58960284048E+03  0.10566000000E+00 0. -1.
         -4    1    3    3    0  502  0.38510215309E+03  0.18619443798E+03  0.75832693786E+03  0.87065020630E+03  0.00000000000E+00 0. -1.
        -13    1    1    2    0    0 -0.44201082220E+03 -0.74756650927E+03 -0.13153186832E+03  0.87836774546E+03  0.10566000000E+00 0.  1.
<mgrwt>
<rscale>  1 0.12002564E+04</rscale>
<asrwt>0</asrwt>
<pdfrwt beam="2">  1       21 0.14483574E+00 0.13369487E+04</pdfrwt>
<pdfrwt beam="1">  1       -4 0.21495208E+00 0.13369487E+04</pdfrwt>
<totfact> 0.11624993E+00</totfact>
</mgrwt>
</event>
<event>
 6    2  0.2220137E-005  0.1007307E+04  0.7818608E-02  0.9830003E-01
         -4   -1    0    0    0  501 -0.00000000000E+00  0.00000000000E+00  0.34857842525E+03  0.34857842525E+03  0.00000000000E+00 0. -1.
         21   -1    0    0  501  502  0.00000000000E+00 -0.00000000000E+00 -0.19201996260E+04  0.19201996260E+04  0.00000000000E+00 0. -1.
   -9000010    2    1    2    0  502  0.14011965202E+03  0.81047616029E+02 -0.17553966518E+04  0.20238787647E+04  0.99421608123E+03 0.  0.
         13    1    3    3    0    0  0.40479781708E+02 -0.44778249103E+03 -0.99976229218E+03  0.10962082029E+04  0.10566000000E+00 0. -1.
         -4    1    3    3    0  502  0.99639870308E+02  0.52883010706E+03 -0.75563435962E+03  0.92767056186E+03  0.00000000000E+00 0. -1.
        -13    1    1    2    0    0 -0.14011965202E+03 -0.81047616029E+02  0.18377545108E+03  0.24489928650E+03  0.10566000000E+00 0.  1.
<mgrwt>
<rscale>  1 0.63776954E+03</rscale>
<asrwt>0</asrwt>
<pdfrwt beam="2">  1       21 0.29541533E+00 0.10073072E+04</pdfrwt>
<pdfrwt beam="1">  1       -4 0.53627450E-01 0.10073072E+04</pdfrwt>
<totfact> 0.37386630E+00</totfact>
</mgrwt>
</event>
<event>
 6    2  0.2220137E-005  0.1424873E+04  0.7818608E-02  0.9024924E-01
         -4   -1    0    0    0  501 -0.00000000000E+00  0.00000000000E+00  0.10610350743E+04  0.10610350743E+04  0.00000000000E+00 0. -1.
         21   -1    0    0  501  502  0.00000000000E+00 -0.00000000000E+00 -0.14365465054E+04  0.14365465054E+04  0.00000000000E+00 0.  1.
   -9000010    2    1    2    0  502  0.75640844260E+03 -0.66208327497E+03 -0.43723246858E+03  0.14904482754E+04  0.10098296070E+04 0.  0.
         13    1    3    3    0    0  0.86581409889E+03 -0.18060517877E+03 -0.45851703841E+03  0.99623800876E+03  0.10566000000E+00 0. -1.
         -4    1    3    3    0  502 -0.10940565629E+03 -0.48147809621E+03  0.21284569828E+02  0.49421026666E+03  0.00000000000E+00 0. -1.
        -13    1    1    2    0    0 -0.75640844260E+03  0.66208327497E+03  0.61721037479E+02  0.10071333043E+04  0.10566000000E+00 0.  1.
<mgrwt>
<rscale>  1 0.13058691E+04</rscale>
<asrwt>0</asrwt>
<pdfrwt beam="2">  1       21 0.22100715E+00 0.14248733E+04</pdfrwt>
<pdfrwt beam="1">  1       -4 0.16323617E+00 0.14248733E+04</pdfrwt>
<totfact> 0.72004860E-01</totfact>
</mgrwt>
</event>
<event>
 6    2  0.2220137E-005  0.1095731E+04  0.7818608E-02  0.9459836E-01
         -4   -1    0    0    0  501 -0.00000000000E+00  0.00000000000E+00  0.56482227795E+03  0.56482227795E+03  0.00000000000E+00 0. -1.
         21   -1    0    0  501  502  0.00000000000E+00 -0.00000000000E+00 -0.10619849741E+04  0.10619849741E+04  0.00000000000E+00 0. -1.
   -9000010    2    1    2    0  502 -0.13608457685E+03 -0.42025095877E+03 -0.44248295686E+03  0.11817007867E+04  0.10027440859E+04 0.  0.
         13    1    3    3    0    0  0.75938668381E+02 -0.46909599233E+03  0.19080545707E+03  0.51207857306E+03  0.10566000000E+00 0. -1.
         -4    1    3    3    0  502 -0.21202324523E+03  0.48845033559E+02 -0.63328841393E+03  0.66962221367E+03  0.00000000000E+00 0. -1.
        -13    1    1    2    0    0  0.13608457685E+03  0.42025095877E+03 -0.54679739283E+02  0.44510646530E+03  0.10566000000E+00 0.  1.
<mgrwt>
<rscale>  1 0.87310871E+03</rscale>
<asrwt>0</asrwt>
<pdfrwt beam="2">  1       21 0.16338230E+00 0.10957306E+04</pdfrwt>
<pdfrwt beam="1">  1       -4 0.86895736E-01 0.10957306E+04</pdfrwt>
<totfact> 0.95226649E+00</totfact>
</mgrwt>
</event>
<event>
 6    2  0.2220137E-005  0.1018568E+04  0.7818608E-02  0.9991766E-01
         21   -1    0    0  501  502  0.00000000000E+00  0.00000000000E+00  0.36292821399E+03  0.36292821399E+03  0.00000000000E+00 0. -1.
         -4   -1    0    0    0  501 -0.00000000000E+00 -0.00000000000E+00 -0.88590775580E+03  0.88590775580E+03  0.00000000000E+00 0. -1.
   -9000010    2    1    2    0  502  0.10255237713E+02  0.92582705204E+02 -0.39938333499E+03  0.10940691752E+04  0.10142995537E+04 0.  0.
         13    1    3    3    0    0 -0.16591649772E+03  0.38372260019E+03 -0.57517406679E+03  0.71105311783E+03  0.10566000000E+00 0. -1.
         -4    1    3    3    0  502  0.17617173543E+03 -0.29113989499E+03  0.17579073180E+03  0.38301605737E+03  0.00000000000E+00 0. -1.
        -13    1    1    2    0    0 -0.10255237713E+02 -0.92582705204E+02 -0.12359620681E+03  0.15476679458E+03  0.10566000000E+00 0.  1.
<mgrwt>
<rscale>  1 0.56012765E+03</rscale>
<asrwt>0</asrwt>
<pdfrwt beam="1">  1       21 0.55835111E-01 0.10185678E+04</pdfrwt>
<pdfrwt beam="2">  1       -4 0.13629350E+00 0.10185678E+04</pdfrwt>
<totfact> 0.45413671E+01</totfact>
</mgrwt>
</event>
<event>
 6    2  0.2220137E-005  0.1009763E+04  0.7818608E-02  0.9853487E-01
         21   -1    0    0  501  502  0.00000000000E+00  0.00000000000E+00  0.80988978807E+03  0.80988978807E+03  0.00000000000E+00 0. -1.
         -4   -1    0    0    0  501 -0.00000000000E+00 -0.00000000000E+00 -0.42893678034E+03  0.42893678034E+03  0.00000000000E+00 0. -1.
   -9000010    2    1    2    0  502  0.11034741447E+03 -0.99919883106E+02  0.24926458286E+03  0.10400744934E+04  0.99872998584E+03 0.  0.
         13    1    3    3    0    0  0.72927551013E+02  0.44412756112E+03  0.26054681551E+02  0.45082876554E+03  0.10566000000E+00 0. -1.
         -4    1    3    3    0  502  0.37419863460E+02 -0.54404744422E+03  0.22320990131E+03  0.58924572785E+03  0.00000000000E+00 0. -1.
        -13    1    1    2    0    0 -0.11034741447E+03  0.99919883106E+02  0.13168842487E+03  0.19875207503E+03  0.10566000000E+00 0.  1.
<mgrwt>
<rscale>  1 0.62569449E+03</rscale>
<asrwt>0</asrwt>
<pdfrwt beam="1">  1       21 0.12459843E+00 0.10097634E+04</pdfrwt>
<pdfrwt beam="2">  1       -4 0.65990274E-01 0.10097634E+04</pdfrwt>
<totfact> 0.37843880E+01</totfact>
</mgrwt>
</event>
<event>
 6    2  0.2220137E-005  0.1198920E+04  0.7818608E-02  0.9274889E-01
         -4   -1    0    0    0  501 -0.00000000000E+00  0.00000000000E+00  0.13604245285E+04  0.13604245285E+04  0.00000000000E+00 0. -1.
         21   -1    0    0  501  502  0.00000000000E+00 -0.00000000000E+00 -0.67040651147E+03  0.67040651147E+03  0.00000000000E+00 0. -1.
   -9000010    2    1    2    0  502  0.33708316253E+03 -0.56317551617E+03  0.67163214735E+03  0.13742263097E+04  0.10033027900E+04 0.  0.
         13    1    3    3    0    0  0.36765109463E+02  0.12180531883E+03  0.61071311397E+03  0.62382587931E+03  0.10566000000E+00 0. -1.
         -4    1    3    3    0  502  0.30031805307E+03 -0.68498083500E+03  0.60919033384E+02  0.75040043040E+03  0.00000000000E+00 0. -1.
        -13    1    1    2    0    0 -0.33708316253E+03  0.56317551617E+03  0.18385869720E+02  0.65660473030E+03  0.10566000000E+00 0.  1.
<mgrwt>
<rscale>  1 0.10312786E+04</rscale>
<asrwt>0</asrwt>
<pdfrwt beam="2">  1       21 0.10313946E+00 0.11989196E+04</pdfrwt>
<pdfrwt beam="1">  1       -4 0.20929608E+00 0.11989196E+04</pdfrwt>
<totfact> 0.31421244E+00</totfact>
</mgrwt>
</event>
<event>
 6    2  0.2220137E-005  0.1024965E+04  0.7818608E-02  0.9716077E-01
         -4   -1    0    0    0  501 -0.00000000000E+00  0.00000000000E+00  0.95550311913E+03  0.95550311913E+03  0.00000000000E+00 0. -1.
         21   -1    0    0  501  502  0.00000000000E+00 -0.00000000000E+00 -0.41302478079E+03  0.41302478079E+03  0.00000000000E+00 0. -1.
   -9000010    2    1    2    0  502  0.21834410185E+03 -0.49303163121E+02  0.50107342267E+03  0.11408893116E+04  0.10002244236E+04 0.  0.
         13    1    3    3    0    0  0.24385403008E+03 -0.16972730934E+03 -0.24477530356E+03  0.38495078637E+03  0.10566000000E+00 0. -1.
         -4    1    3    3    0  502 -0.25509928234E+02  0.12042414622E+03  0.74584872624E+03  0.75593852519E+03  0.00000000000E+00 0. -1.
        -13    1    1    2    0    0 -0.21834410185E+03  0.49303163121E+02  0.41404915663E+02  0.22763858836E+03  0.10566000000E+00 0.  1.
<mgrwt>
<rscale>  1 0.70067563E+03</rscale>
<asrwt>0</asrwt>
<pdfrwt beam="2">  1       21 0.63542274E-01 0.10249653E+04</pdfrwt>
<pdfrwt beam="1">  1       -4 0.14700048E+00 0.10249653E+04</pdfrwt>
<totfact> 0.27870013E+01</totfact>
</mgrwt>
</event>
<event>
 6    2  0.2220137E-005  0.1004858E+04  0.7818608E-02  0.9760746E-01
         21   -1    0    0  501  502  0.00000000000E+00  0.00000000000E+00  0.12559663064E+04  0.12559663064E+04  0.00000000000E+00 0. -1.
         -4   -1    0    0    0  501 -0.00000000000E+00 -0.00000000000E+00 -0.30948372119E+03  0.30948372119E+03  0.00000000000E+00 0. -1.
   -9000010    2    1    2    0  502 -0.20280368963E+03 -0.28151195092E+02  0.91358035665E+03  0.13580750192E+04  0.98377683616E+03 0.  0.
         13    1    3    3    0    0 -0.62864737752E+02 -0.46958992601E+03  0.70683743409E+03  0.85093233765E+03  0.10566000000E+00 0. -1.
         -4    1    3    3    0  502 -0.13993895188E+03  0.44143873092E+03  0.20674292256E+03  0.50714268154E+03  0.00000000000E+00 0. -1.
        -13    1    1    2    0    0  0.20280368963E+03  0.28151195092E+02  0.32902228582E+02  0.20737500843E+03  0.10566000000E+00 0.  1.
<mgrwt>
<rscale>  1 0.67512379E+03</rscale>
<asrwt>0</asrwt>
<pdfrwt beam="1">  1       21 0.19322558E+00 0.10048575E+04</pdfrwt>
<pdfrwt beam="2">  1       -4 0.47612881E-01 0.10048575E+04</pdfrwt>
<totfact> 0.22006012E+01</totfact>
</mgrwt>
</event>
<event>
 6    2  0.2220137E-005  0.1142140E+04  0.7818608E-02  0.9363591E-01
         -4   -1    0    0    0  501 -0.00000000000E+00  0.00000000000E+00  0.58353923167E+03  0.58353923167E+03  0.00000000000E+00 0. -1.
         21   -1    0    0  501  502  0.00000000000E+00 -0.00000000000E+00 -0.12773129809E+04  0.12773129809E+04  0.00000000000E+00 0. -1.
   -9000010    2    1    2    0  502  0.54388370342E+03 -0.80198547676E+02 -0.63803102434E+03  0.13082686873E+04  0.10011204124E+04 0.  0.
         13    1    3    3    0    0 -0.95432256240E+02 -0.33505950551E+03 -0.49502028402E+03  0.60532411196E+03  0.10566000000E+00 0. -1.
         -4    1    3    3    0  502  0.63931595966E+03  0.25486095784E+03 -0.14301074032E+03  0.70294457530E+03  0.00000000000E+00 0. -1.
        -13    1    1    2    0    0 -0.54388370342E+03  0.80198547676E+02 -0.55742724891E+02  0.55258352530E+03  0.10566000000E+00 0.  1.
<mgrwt>
<rscale>  1 0.95133545E+03</rscale>
<asrwt>0</asrwt>
<pdfrwt beam="2">  1       21 0.19650969E+00 0.11421398E+04</pdfrwt>
<pdfrwt beam="1">  1       -4 0.89775267E-01 0.11421398E+04</pdfrwt>
<totfact> 0.50287589E+00</totfact>
</mgrwt>
</event>
<event>
 6    2  0.2220137E-005  0.1027469E+04  0.7818608E-02  0.9836702E-01
         21   -1    0    0  501  502  0.00000000000E+00  0.00000000000E+00  0.32319703996E+03  0.32319703996E+03  0.00000000000E+00 0. -1.
         -4   -1    0    0    0  501 -0.00000000000E+00 -0.00000000000E+00 -0.12311361664E+04  0.12311361664E+04  0.00000000000E+00 0. -1.
   -9000010    2    1    2    0  502  0.12886918285E+03 -0.75251352903E+02 -0.54753211182E+03  0.11642521126E+04  0.10165734286E+04 0.  0.
         13    1    3    3    0    0 -0.44122272429E+02 -0.49617834350E+03 -0.67334342626E+02  0.50266653792E+03  0.10566000000E+00 0. -1.
         -4    1    3    3    0  502  0.17299145528E+03  0.42092699060E+03 -0.48019776920E+03  0.66158557463E+03  0.00000000000E+00 0. -1.
        -13    1    1    2    0    0 -0.12886918285E+03  0.75251352903E+02 -0.36040701461E+03  0.39008109381E+03  0.10566000000E+00 0.  1.
<mgrwt>
<rscale>  1 0.63429535E+03</rscale>
<asrwt>0</asrwt>
<pdfrwt beam="1">  1       21 0.49722622E-01 0.10274685E+04</pdfrwt>
<pdfrwt beam="2">  1       -4 0.18940556E+00 0.10274685E+04</pdfrwt>
<totfact> 0.23508263E+01</totfact>
</mgrwt>
</event>
<event>
 6    2  0.2220137E-005  0.9774832E+03  0.7818608E-02  0.1011226E+00
         -4   -1    0    0    0  501 -0.00000000000E+00  0.00000000000E+00  0.24336599767E+03  0.24336599767E+03  0.00000000000E+00 0. -1.
         21   -1    0    0  501  502  0.00000000000E+00 -0.00000000000E+00 -0.12754530264E+04  0.12754530264E+04  0.00000000000E+00 0. -1.
   -9000010    2    1    2    0  502  0.72337623540E+02 -0.24918902760E+01 -0.10593984652E+04  0.14414571017E+04  0.97479973681E+03 0.  0.
         13    1    3    3    0    0 -0.35231225344E+03 -0.21782401281E+03 -0.79601946014E+03  0.89733952135E+03  0.10566000000E+00 0. -1.
         -4    1    3    3    0  502  0.42464987698E+03  0.21533212254E+03 -0.26337900503E+03  0.54411758040E+03  0.00000000000E+00 0. -1.
        -13    1    1    2    0    0 -0.72337623540E+02  0.24918902760E+01  0.27311436457E+02  0.77361922300E+02  0.10566000000E+00 0.  1.
<mgrwt>
<rscale>  1 0.50990297E+03</rscale>
<asrwt>0</asrwt>
<pdfrwt beam="2">  1       21 0.19622354E+00 0.97748323E+03</pdfrwt>
<pdfrwt beam="1">  1       -4 0.37440923E-01 0.97748323E+03</pdfrwt>
<totfact> 0.34483745E+01</totfact>
</mgrwt>
</event>
<event>
 6    2  0.2220137E-005  0.1022804E+04  0.7818608E-02  0.9700707E-01
         -4   -1    0    0    0  501 -0.00000000000E+00  0.00000000000E+00  0.27318691559E+03  0.27318691559E+03  0.00000000000E+00 0. -1.
         21   -1    0    0  501  502  0.00000000000E+00 -0.00000000000E+00 -0.14535340147E+04  0.14535340147E+04  0.00000000000E+00 0. -1.
   -9000010    2    1    2    0  502 -0.11294378628E+03  0.20853612995E+03 -0.97352989240E+03  0.14120512868E+04  0.99492952962E+03 0.  0.
         13    1    3    3    0    0  0.35355108667E+03  0.36297352853E+03 -0.33964827389E+03  0.61000747079E+03  0.10566000000E+00 0. -1.
         -4    1    3    3    0  502 -0.46649487296E+03 -0.15443739858E+03 -0.63388161851E+03  0.80204381605E+03  0.00000000000E+00 0. -1.
        -13    1    1    2    0    0  0.11294378628E+03 -0.20853612995E+03 -0.20681720671E+03  0.31466964345E+03  0.10566000000E+00 0.  1.
<mgrwt>
<rscale>  1 0.70974695E+03</rscale>
<asrwt>0</asrwt>
<pdfrwt beam="2">  1       21 0.22362062E+00 0.10228042E+04</pdfrwt>
<pdfrwt beam="1">  1       -4 0.42028757E-01 0.10228042E+04</pdfrwt>
<totfact> 0.17713090E+01</totfact>
</mgrwt>
</event>
<event>
 6    2  0.2220137E-005  0.9655776E+03  0.7818608E-02  0.9662267E-01
         21   -1    0    0  501  502  0.00000000000E+00  0.00000000000E+00  0.40282504195E+03  0.40282504195E+03  0.00000000000E+00 0. -1.
         -4   -1    0    0    0  501 -0.00000000000E+00 -0.00000000000E+00 -0.15376847895E+04  0.15376847895E+04  0.00000000000E+00 0. -1.
   -9000010    2    1    2    0  502 -0.14899234042E+03  0.28412001320E+03 -0.24729247658E+03  0.99674154894E+03  0.91072347450E+03 0.  0.
         13    1    3    3    0    0 -0.45793729648E+03  0.32810390932E+03  0.50227427373E+02  0.56558071788E+03  0.10566000000E+00 0. -1.
         -4    1    3    3    0  502  0.30894495606E+03 -0.43983896122E+02 -0.29751990395E+03  0.43116083106E+03  0.00000000000E+00 0. -1.
        -13    1    1    2    0    0  0.14899234042E+03 -0.28412001320E+03 -0.88756727098E+03  0.94376828252E+03  0.10566000000E+00 0.  1.
<mgrwt>
<rscale>  1 0.73308512E+03</rscale>
<asrwt>0</asrwt>
<pdfrwt beam="1">  1       21 0.61973084E-01 0.96557762E+03</pdfrwt>
<pdfrwt beam="2">  1       -4 0.23656689E+00 0.96557762E+03</pdfrwt>
<totfact> 0.72200843E+00</totfact>
</mgrwt>
</event>
<event>
 6    2  0.2220137E-005  0.1048576E+04  0.7818608E-02  0.9601282E-01
         21   -1    0    0  501  502  0.00000000000E+00  0.00000000000E+00  0.78227764031E+03  0.78227764031E+03  0.00000000000E+00 0. -1.
         -4   -1    0    0    0  501 -0.00000000000E+00 -0.00000000000E+00 -0.61292327622E+03  0.61292327622E+03  0.00000000000E+00 0. -1.
   -9000010    2    1    2    0  502 -0.21034617340E+03 -0.22534952305E+03  0.24706833192E+03  0.10772899350E+04  0.10022389552E+04 0.  0.
         13    1    3    3    0    0 -0.53779727597E+03 -0.21652300025E+03  0.41132723846E+03  0.71084332165E+03  0.10566000000E+00 0. -1.
         -4    1    3    3    0  502  0.32745110256E+03 -0.88265228049E+01 -0.16425890654E+03  0.36644661337E+03  0.00000000000E+00 0. -1.
        -13    1    1    2    0    0  0.21034617340E+03  0.22534952305E+03 -0.77713967837E+02  0.31791098151E+03  0.10566000000E+00 0.  1.
<mgrwt>
<rscale>  1 0.77211365E+03</rscale>
<asrwt>0</asrwt>
<pdfrwt beam="1">  1       21 0.12035041E+00 0.10485756E+04</pdfrwt>
<pdfrwt beam="2">  1       -4 0.94295889E-01 0.10485756E+04</pdfrwt>
<totfact> 0.18209212E+01</totfact>
</mgrwt>
</event>
<event>
 6    2  0.2220137E-005  0.1097642E+04  0.7818608E-02  0.9454360E-01
         -4   -1    0    0    0  501 -0.00000000000E+00  0.00000000000E+00  0.19565012436E+04  0.19565012436E+04  0.00000000000E+00 0. -1.
         21   -1    0    0  501  502  0.00000000000E+00 -0.00000000000E+00 -0.30532315725E+03  0.30532315725E+03  0.00000000000E+00 0.  1.
   -9000010    2    1    2    0  502  0.15051701907E+03 -0.42196918499E+03  0.11589414553E+04  0.15962342280E+04  0.10020504217E+04 0.  0.
         13    1    3    3    0    0  0.24315395480E+03 -0.67513055091E+03  0.47360130007E+03  0.85978096577E+03  0.10566000000E+00 0. -1.
         -4    1    3    3    0  502 -0.92636935731E+02  0.25316136592E+03  0.68534015524E+03  0.73645326222E+03  0.00000000000E+00 0. -1.
        -13    1    1    2    0    0 -0.15051701907E+03  0.42196918499E+03  0.49223663107E+03  0.66559017288E+03  0.10566000000E+00 0.  1.
<mgrwt>
<rscale>  1 0.87733941E+03</rscale>
<asrwt>0</asrwt>
<pdfrwt beam="2">  1       21 0.46972795E-01 0.10976422E+04</pdfrwt>
<pdfrwt beam="1">  1       -4 0.30100018E+00 0.10976422E+04</pdfrwt>
<totfact> 0.52059844E+00</totfact>
</mgrwt>
</event>
<event>
 6    2  0.2220137E-005  0.1080705E+04  0.7818608E-02  0.9478990E-01
         -4   -1    0    0    0  501 -0.00000000000E+00  0.00000000000E+00  0.13429378058E+04  0.13429378058E+04  0.00000000000E+00 0. -1.
         21   -1    0    0  501  502  0.00000000000E+00 -0.00000000000E+00 -0.53531781785E+03  0.53531781785E+03  0.00000000000E+00 0. -1.
   -9000010    2    1    2    0  502 -0.43034082992E+03  0.58824952581E+01  0.14820538784E+03  0.10908196201E+04  0.99130962520E+03 0.  0.
         13    1    3    3    0    0 -0.54015669748E+03 -0.87502960200E+02 -0.29717810555E+03  0.62268841603E+03  0.10566000000E+00 0. -1.
         -4    1    3    3    0  502  0.10981586756E+03  0.93385455458E+02  0.44538349338E+03  0.46813120409E+03  0.00000000000E+00 0. -1.
        -13    1    1    2    0    0  0.43034082992E+03 -0.58824952581E+01  0.65941460015E+03  0.78743600356E+03  0.10566000000E+00 0.  1.
<mgrwt>
<rscale>  1 0.85850644E+03</rscale>
<asrwt>0</asrwt>
<pdfrwt beam="2">  1       21 0.82356588E-01 0.10807047E+04</pdfrwt>
<pdfrwt beam="1">  1       -4 0.20660582E+00 0.10807047E+04</pdfrwt>
<totfact> 0.57411584E+00</totfact>
</mgrwt>
</event>
<event>
 6    2  0.2220137E-005  0.1107707E+04  0.7818608E-02  0.9432208E-01
         21   -1    0    0  501  502  0.00000000000E+00  0.00000000000E+00  0.15251560643E+04  0.15251560643E+04  0.00000000000E+00 0. -1.
         -4   -1    0    0    0  501 -0.00000000000E+00 -0.00000000000E+00 -0.43407143657E+03  0.43407143657E+03  0.00000000000E+00 0. -1.
   -9000010    2    1    2    0  502  0.47038577476E+03 -0.32209664037E+02  0.97013699823E+03  0.14724744015E+04  0.10023546419E+04 0.  0.
         13    1    3    3    0    0 -0.20761225809E+03  0.27609792236E+03  0.43437694672E+03  0.55499212197E+03  0.10566000000E+00 0. -1.
         -4    1    3    3    0  502  0.67799803286E+03 -0.30830758640E+03  0.53576005151E+03  0.91748227949E+03  0.00000000000E+00 0. -1.
        -13    1    1    2    0    0 -0.47038577476E+03  0.32209664037E+02  0.12094762953E+03  0.48675309944E+03  0.10566000000E+00 0.  1.
<mgrwt>
<rscale>  1 0.89471806E+03</rscale>
<asrwt>0</asrwt>
<pdfrwt beam="1">  1       21 0.23463939E+00 0.11077071E+04</pdfrwt>
<pdfrwt beam="2">  1       -4 0.66780222E-01 0.11077071E+04</pdfrwt>
<totfact> 0.55201728E+00</totfact>
</mgrwt>
</event>
<event>
 6    2  0.2220137E-005  0.9792123E+03  0.7818608E-02  0.9831386E-01
         21   -1    0    0  501  502  0.00000000000E+00  0.00000000000E+00  0.92586197597E+03  0.92586197597E+03  0.00000000000E+00 0. -1.
         -4   -1    0    0    0  501 -0.00000000000E+00 -0.00000000000E+00 -0.90110075985E+03  0.90110075985E+03  0.00000000000E+00 0. -1.
   -9000010    2    1    2    0  502  0.92237958892E+02 -0.14920584358E+03  0.65149819455E+03  0.11761405818E+04  0.96337248556E+03 0.  0.
         13    1    3    3    0    0  0.29483973638E+03 -0.48482593418E+03  0.26733303453E+03  0.62725881350E+03  0.10566000000E+00 0. -1.
         -4    1    3    3    0  502 -0.20260177748E+03  0.33562009059E+03  0.38416516002E+03  0.54888176834E+03  0.00000000000E+00 0. -1.
        -13    1    1    2    0    0 -0.92237958892E+02  0.14920584358E+03 -0.62673697843E+03  0.65082215398E+03  0.10566000000E+00 0.  1.
<mgrwt>
<rscale>  1 0.63705071E+03</rscale>
<asrwt>0</asrwt>
<pdfrwt beam="1">  1       21 0.14244030E+00 0.97921232E+03</pdfrwt>
<pdfrwt beam="2">  1       -4 0.13863089E+00 0.97921232E+03</pdfrwt>
<totfact> 0.44866485E+00</totfact>
</mgrwt>
</event>
<event>
 6    2  0.2220137E-005  0.8666546E+03  0.7818608E-02  0.1025083E+00
         21   -1    0    0  501  502  0.00000000000E+00  0.00000000000E+00  0.96583747178E+03  0.96583747178E+03  0.00000000000E+00 0. -1.
         -4   -1    0    0    0  501 -0.00000000000E+00 -0.00000000000E+00 -0.39276344797E+03  0.39276344797E+03  0.00000000000E+00 0. -1.
   -9000010    2    1    2    0  502 -0.62493409085E+02 -0.27223281627E+02  0.76433798903E+03  0.11555530220E+04  0.86396972854E+03 0.  0.
         13    1    3    3    0    0 -0.38742104598E+03  0.20123579189E+03  0.24138695893E+03  0.49885728010E+03  0.10566000000E+00 0. -1.
         -4    1    3    3    0  502  0.32492763689E+03 -0.22845907351E+03  0.52295103010E+03  0.65669574186E+03  0.00000000000E+00 0. -1.
        -13    1    1    2    0    0  0.62493409085E+02  0.27223281627E+02 -0.19126396522E+03  0.20304789779E+03  0.10566000000E+00 0.  1.
<mgrwt>
<rscale>  1 0.45896102E+03</rscale>
<asrwt>0</asrwt>
<pdfrwt beam="1">  1       21 0.14859038E+00 0.86665462E+03</pdfrwt>
<pdfrwt beam="2">  1       -4 0.60425146E-01 0.86665462E+03</pdfrwt>
<totfact> 0.29009817E+01</totfact>
</mgrwt>
</event>
<event>
 6    2  0.2220137E-005  0.1018587E+04  0.7818608E-02  0.9984225E-01
         -4   -1    0    0    0  501 -0.00000000000E+00  0.00000000000E+00  0.19114267493E+04  0.19114267493E+04  0.00000000000E+00 0. -1.
         21   -1    0    0  501  502  0.00000000000E+00 -0.00000000000E+00 -0.16759101628E+03  0.16759101628E+03  0.00000000000E+00 0. -1.
   -9000010    2    1    2    0  502  0.17158208380E+01 -0.95374103324E+02  0.14649033104E+04  0.17842255147E+04  0.10141103564E+04 0.  0.
         13    1    3    3    0    0 -0.10753904306E+03 -0.10815188284E+03  0.16015554196E+04  0.16088011838E+04  0.10566000000E+00 0. -1.
         -4    1    3    3    0  502  0.10925486390E+03  0.12777779514E+02 -0.13665210923E+03  0.17542433095E+03  0.00000000000E+00 0. -1.
        -13    1    1    2    0    0 -0.17158208380E+01  0.95374103324E+02  0.27893242262E+03  0.29479225088E+03  0.10566000000E+00 0.  1.
<mgrwt>
<rscale>  1 0.56347385E+03</rscale>
<asrwt>0</asrwt>
<pdfrwt beam="2">  1       21 0.25783235E-01 0.10185868E+04</pdfrwt>
<pdfrwt beam="1">  1       -4 0.29406564E+00 0.10185868E+04</pdfrwt>
<totfact> 0.19962090E+01</totfact>
</mgrwt>
</event>
<event>
 6    2  0.2220137E-005  0.1017753E+04  0.7818608E-02  0.9737719E-01
         -4   -1    0    0    0  501 -0.00000000000E+00  0.00000000000E+00  0.80953351019E+03  0.80953351019E+03  0.00000000000E+00 0. -1.
         21   -1    0    0  501  502  0.00000000000E+00 -0.00000000000E+00 -0.49875685961E+03  0.49875685961E+03  0.00000000000E+00 0. -1.
   -9000010    2    1    2    0  502 -0.19179599290E+03  0.91990054683E+02  0.37726469331E+03  0.10854259625E+04  0.99527533787E+03 0.  0.
         13    1    3    3    0    0  0.36313834951E+02  0.36283589919E+02  0.69135891701E+03  0.69326211263E+03  0.10566000000E+00 0. -1.
         -4    1    3    3    0  502 -0.22810982785E+03  0.55706464764E+02 -0.31409422370E+03  0.39216384987E+03  0.00000000000E+00 0. -1.
        -13    1    1    2    0    0  0.19179599290E+03 -0.91990054683E+02 -0.66488042733E+02  0.22286440731E+03  0.10566000000E+00 0.  1.
<mgrwt>
<rscale>  1 0.68814758E+03</rscale>
<asrwt>0</asrwt>
<pdfrwt beam="2">  1       21 0.76731824E-01 0.10177529E+04</pdfrwt>
<pdfrwt beam="1">  1       -4 0.12454362E+00 0.10177529E+04</pdfrwt>
<totfact> 0.27864821E+01</totfact>
</mgrwt>
</event>
<event>
 6    2  0.2220137E-005  0.1015081E+04  0.7818608E-02  0.9730817E-01
         21   -1    0    0  501  502  0.00000000000E+00  0.00000000000E+00  0.76318007126E+03  0.76318007126E+03  0.00000000000E+00 0. -1.
         -4   -1    0    0    0  501 -0.00000000000E+00 -0.00000000000E+00 -0.52891821303E+03  0.52891821303E+03  0.00000000000E+00 0. -1.
   -9000010    2    1    2    0  502  0.68744424007E+02 -0.20833496831E+03  0.30779337785E+03  0.10607194815E+04  0.99109020783E+03 0.  0.
         13    1    3    3    0    0 -0.12123148607E+03 -0.21804772635E+02 -0.33931518615E+03  0.36098106327E+03  0.10566000000E+00 0. -1.
         -4    1    3    3    0  502  0.18997591008E+03 -0.18653019567E+03  0.64710856400E+03  0.69973841820E+03  0.00000000000E+00 0. -1.
        -13    1    1    2    0    0 -0.68744424007E+02  0.20833496831E+03 -0.73531519628E+02  0.23137880282E+03  0.10566000000E+00 0.  1.
<mgrwt>
<rscale>  1 0.69211238E+03</rscale>
<asrwt>0</asrwt>
<pdfrwt beam="1">  1       21 0.11741232E+00 0.10150808E+04</pdfrwt>
<pdfrwt beam="2">  1       -4 0.81372033E-01 0.10150808E+04</pdfrwt>
<totfact> 0.27504387E+01</totfact>
</mgrwt>
</event>
<event>
 6    2  0.2220137E-005  0.1097661E+04  0.7818608E-02  0.9411931E-01
         -4   -1    0    0    0  501 -0.00000000000E+00  0.00000000000E+00  0.78476940451E+03  0.78476940451E+03  0.00000000000E+00 0. -1.
         21   -1    0    0  501  502  0.00000000000E+00 -0.00000000000E+00 -0.84429945808E+03  0.84429945808E+03  0.00000000000E+00 0. -1.
   -9000010    2    1    2    0  502  0.43726905403E+03  0.28290107343E+03 -0.12248349092E+03  0.11044734095E+04  0.96624120374E+03 0.  0.
         13    1    3    3    0    0 -0.27990816152E+03 -0.76561815525E+02 -0.80532452104E+02  0.30115739654E+03  0.10566000000E+00 0. -1.
         -4    1    3    3    0  502  0.71717721555E+03  0.35946288895E+03 -0.41951038817E+02  0.80331601297E+03  0.00000000000E+00 0. -1.
        -13    1    1    2    0    0 -0.43726905403E+03 -0.28290107343E+03  0.62953437348E+02  0.52459545308E+03  0.10566000000E+00 0.  1.
<mgrwt>
<rscale>  1 0.91100297E+03</rscale>
<asrwt>0</asrwt>
<pdfrwt beam="2">  1       21 0.12989222E+00 0.10976608E+04</pdfrwt>
<pdfrwt beam="1">  1       -4 0.12073375E+00 0.10976608E+04</pdfrwt>
<totfact> 0.80883929E+00</totfact>
</mgrwt>
</event>
<event>
 6    2  0.2220137E-005  0.1025860E+04  0.7818608E-02  0.9856881E-01
         21   -1    0    0  501  502  0.00000000000E+00  0.00000000000E+00  0.15858006854E+04  0.15858006854E+04  0.00000000000E+00 0. -1.
         -4   -1    0    0    0  501 -0.00000000000E+00 -0.00000000000E+00 -0.28374483822E+03  0.28374483822E+03  0.00000000000E+00 0. -1.
   -9000010    2    1    2    0  502  0.67318368780E+02  0.12322040085E+03  0.13716475622E+04  0.17128354476E+04  0.10162052970E+04 0.  0.
         13    1    3    3    0    0 -0.38526180425E+03 -0.13096820012E+03  0.25176562505E+03  0.47850315399E+03  0.10566000000E+00 0. -1.
         -4    1    3    3    0  502  0.45258017303E+03  0.25418860097E+03  0.11198819371E+04  0.12343322936E+04  0.00000000000E+00 0. -1.
        -13    1    1    2    0    0 -0.67318368780E+02 -0.12322040085E+03 -0.69591715033E+02  0.15671007602E+03  0.10566000000E+00 0.  1.
<mgrwt>
<rscale>  1 0.62397287E+03</rscale>
<asrwt>0</asrwt>
<pdfrwt beam="1">  1       21 0.24396933E+00 0.10258598E+04</pdfrwt>
<pdfrwt beam="2">  1       -4 0.43653053E-01 0.10258598E+04</pdfrwt>
<totfact> 0.12086957E+01</totfact>
</mgrwt>
</event>
<event>
 6    2  0.2220137E-005  0.1017867E+04  0.7818608E-02  0.9852548E-01
         -4   -1    0    0    0  501 -0.00000000000E+00  0.00000000000E+00  0.60861852695E+03  0.60861852695E+03  0.00000000000E+00 0. -1.
         21   -1    0    0  501  502  0.00000000000E+00 -0.00000000000E+00 -0.69806158903E+03  0.69806158903E+03  0.00000000000E+00 0. -1.
   -9000010    2    1    2    0  502 -0.16464742443E+02  0.14484802317E+03 -0.29033724956E+03  0.10584654442E+04  0.10073734861E+04 0.  0.
         13    1    3    3    0    0  0.32869499658E+03  0.36784562689E+03  0.86589966316E+02  0.50084792046E+03  0.10566000000E+00 0. -1.
         -4    1    3    3    0  502 -0.34515973902E+03 -0.22299760373E+03 -0.37692721588E+03  0.55761752374E+03  0.00000000000E+00 0. -1.
        -13    1    1    2    0    0  0.16464742443E+02 -0.14484802317E+03  0.20089418748E+03  0.24821467178E+03  0.10566000000E+00 0.  1.
<mgrwt>
<rscale>  1 0.62617165E+03</rscale>
<asrwt>0</asrwt>
<pdfrwt beam="2">  1       21 0.10739409E+00 0.10178671E+04</pdfrwt>
<pdfrwt beam="1">  1       -4 0.93633619E-01 0.10178671E+04</pdfrwt>
<totfact> 0.24846939E+01</totfact>
</mgrwt>
</event>
<event>
 6    2  0.2220137E-005  0.1014364E+04  0.7818608E-02  0.9679541E-01
         -4   -1    0    0    0  501 -0.00000000000E+00  0.00000000000E+00  0.15418053417E+04  0.15418053417E+04  0.00000000000E+00 0. -1.
         21   -1    0    0  501  502  0.00000000000E+00 -0.00000000000E+00 -0.26399278732E+03  0.26399278732E+03  0.00000000000E+00 0. -1.
   -9000010    2    1    2    0  502  0.13171196592E+03  0.22538694286E+03  0.99441971164E+03  0.14204945728E+04  0.98019740480E+03 0.  0.
         13    1    3    3    0    0 -0.45029370549E+02 -0.28082838666E+03 -0.70713056029E+01  0.28450349997E+03  0.10566000000E+00 0. -1.
         -4    1    3    3    0  502  0.17674133646E+03  0.50621532952E+03  0.10014910172E+04  0.11359910728E+04  0.00000000000E+00 0. -1.
        -13    1    1    2    0    0 -0.13171196592E+03 -0.22538694286E+03  0.28339284273E+03  0.38530355624E+03  0.10566000000E+00 0.  1.
<mgrwt>
<rscale>  1 0.72248106E+03</rscale>
<asrwt>0</asrwt>
<pdfrwt beam="2">  1       21 0.40614276E-01 0.10143640E+04</pdfrwt>
<pdfrwt beam="1">  1       -4 0.23720082E+00 0.10143640E+04</pdfrwt>
<totfact> 0.17759516E+01</totfact>
</mgrwt>
</event>
<event>
 6    2  0.2220137E-005  0.1091519E+04  0.7818608E-02  0.9431612E-01
         21   -1    0    0  501  502  0.00000000000E+00  0.00000000000E+00  0.37404457262E+03  0.37404457262E+03  0.00000000000E+00 0. -1.
         -4   -1    0    0    0  501 -0.00000000000E+00 -0.00000000000E+00 -0.17184165743E+04  0.17184165743E+04  0.00000000000E+00 0. -1.
   -9000010    2    1    2    0  502  0.45473471202E+03  0.19255237660E+03 -0.77441616973E+03  0.13383326847E+04  0.97342380024E+03 0.  0.
         13    1    3    3    0    0 -0.10123334643E+03  0.38400486610E+03 -0.42378775489E+02  0.39937939280E+03  0.10566000000E+00 0. -1.
         -4    1    3    3    0  502  0.55596805845E+03 -0.19145248950E+03 -0.73203739424E+03  0.93895329187E+03  0.00000000000E+00 0. -1.
        -13    1    1    2    0    0 -0.45473471202E+03 -0.19255237660E+03 -0.56995583197E+03  0.75412846227E+03  0.10566000000E+00 0.  1.
<mgrwt>
<rscale>  1 0.89519181E+03</rscale>
<asrwt>0</asrwt>
<pdfrwt beam="1">  1       21 0.57545320E-01 0.10915191E+04</pdfrwt>
<pdfrwt beam="2">  1       -4 0.26437178E+00 0.10915191E+04</pdfrwt>
<totfact> 0.56361234E+00</totfact>
</mgrwt>
</event>
<event>
 6    2  0.2220137E-005  0.1079092E+04  0.7818608E-02  0.9642154E-01
         21   -1    0    0  501  502  0.00000000000E+00  0.00000000000E+00  0.45253378252E+03  0.45253378252E+03  0.00000000000E+00 0. -1.
         -4   -1    0    0    0  501 -0.00000000000E+00 -0.00000000000E+00 -0.11109987365E+04  0.11109987365E+04  0.00000000000E+00 0. -1.
   -9000010    2    1    2    0  502 -0.16014249255E+03  0.18680872943E+03 -0.28464848253E+03  0.11160038777E+04  0.10506649214E+04 0.  0.
         13    1    3    3    0    0  0.71916397396E+02 -0.42120276825E+03 -0.89346882461E+02  0.43653936451E+03  0.10566000000E+00 0. -1.
         -4    1    3    3    0  502 -0.23205888994E+03  0.60801149767E+03 -0.19530160007E+03  0.67946451320E+03  0.00000000000E+00 0. -1.
        -13    1    1    2    0    0  0.16014249255E+03 -0.18680872943E+03 -0.37381647142E+03  0.44752864129E+03  0.10566000000E+00 0.  1.
<mgrwt>
<rscale>  1 0.74567917E+03</rscale>
<asrwt>0</asrwt>
<pdfrwt beam="1">  1       21 0.69620583E-01 0.10790922E+04</pdfrwt>
<pdfrwt beam="2">  1       -4 0.17092288E+00 0.10790922E+04</pdfrwt>
<totfact> 0.14892547E+01</totfact>
</mgrwt>
</event>
<event>
 6    2  0.2220137E-005  0.1019636E+04  0.7818608E-02  0.9735907E-01
         21   -1    0    0  501  502  0.00000000000E+00  0.00000000000E+00  0.33526874119E+03  0.33526874119E+03  0.00000000000E+00 0. -1.
         -4   -1    0    0    0  501 -0.00000000000E+00 -0.00000000000E+00 -0.12208967677E+04  0.12208967677E+04  0.00000000000E+00 0. -1.
   -9000010    2    1    2    0  502 -0.82077517919E+02  0.19635382008E+03 -0.54936153954E+03  0.11582123671E+04  0.99717914372E+03 0.  0.
         13    1    3    3    0    0 -0.23743865719E+03  0.56864395223E+03 -0.33033381801E+03  0.69918059385E+03  0.10566000000E+00 0. -1.
         -4    1    3    3    0  502  0.15536113927E+03 -0.37229013215E+03 -0.21902772152E+03  0.45903177329E+03  0.00000000000E+00 0. -1.
        -13    1    1    2    0    0  0.82077517919E+02 -0.19635382008E+03 -0.33626648700E+03  0.39795314177E+03  0.10566000000E+00 0.  1.
<mgrwt>
<rscale>  1 0.68918538E+03</rscale>
<asrwt>0</asrwt>
<pdfrwt beam="1">  1       21 0.51579807E-01 0.10196361E+04</pdfrwt>
<pdfrwt beam="2">  1       -4 0.18783027E+00 0.10196361E+04</pdfrwt>
<totfact> 0.22271302E+01</totfact>
</mgrwt>
</event>
<event>
 6    2  0.2220137E-005  0.9726151E+03  0.7818608E-02  0.9827175E-01
         21   -1    0    0  501  502  0.00000000000E+00  0.00000000000E+00  0.42880451485E+03  0.42880451485E+03  0.00000000000E+00 0. -1.
         -4   -1    0    0    0  501 -0.00000000000E+00 -0.00000000000E+00 -0.95820126219E+03  0.95820126219E+03  0.00000000000E+00 0. -1.
   -9000010    2    1    2    0  502 -0.18024518287E+03 -0.21181073795E+02 -0.17414648393E+03  0.98808257058E+03  0.95553294269E+03 0.  0.
         13    1    3    3    0    0 -0.13666558701E+03  0.45126538200E+03 -0.20168883412E+03  0.51283167281E+03  0.10566000000E+00 0. -1.
         -4    1    3    3    0  502 -0.43579595863E+02 -0.47244645580E+03  0.27542350189E+02  0.47525089776E+03  0.00000000000E+00 0. -1.
        -13    1    1    2    0    0  0.18024518287E+03  0.21181073795E+02 -0.35525026341E+03  0.39892320646E+03  0.10566000000E+00 0.  1.
<mgrwt>
<rscale>  1 0.63924336E+03</rscale>
<asrwt>0</asrwt>
<pdfrwt beam="1">  1       21 0.65969926E-01 0.97261512E+03</pdfrwt>
<pdfrwt beam="2">  1       -4 0.14741558E+00 0.97261512E+03</pdfrwt>
<totfact> 0.25538213E+01</totfact>
</mgrwt>
</event>
<event>
 6    2  0.2220137E-005  0.9077334E+03  0.7818608E-02  0.1028274E+00
         21   -1    0    0  501  502  0.00000000000E+00  0.00000000000E+00  0.25700939813E+03  0.25700939813E+03  0.00000000000E+00 0. -1.
         -4   -1    0    0    0  501 -0.00000000000E+00 -0.00000000000E+00 -0.90263765827E+03  0.90263765827E+03  0.00000000000E+00 0. -1.
   -9000010    2    1    2    0  502  0.53130634789E+02 -0.92525526931E+01 -0.62408747343E+03  0.11015739065E+04  0.90612991501E+03 0.  0.
         13    1    3    3    0    0 -0.27098355207E+03 -0.33695979017E+03 -0.20468227499E+03  0.47840237305E+03  0.10566000000E+00 0. -1.
         -4    1    3    3    0  502  0.32411418685E+03  0.32770723747E+03 -0.41940519844E+03  0.62317153344E+03  0.00000000000E+00 0. -1.
        -13    1    1    2    0    0 -0.53130634789E+02  0.92525526931E+01 -0.21540786708E+02  0.58073149910E+02  0.10566000000E+00 0.  1.
<mgrwt>
<rscale>  1 0.44815386E+03</rscale>
<asrwt>0</asrwt>
<pdfrwt beam="1">  1       21 0.39539908E-01 0.90773338E+03</pdfrwt>
<pdfrwt beam="2">  1       -4 0.13886733E+00 0.90773338E+03</pdfrwt>
<totfact> 0.91343679E+01</totfact>
</mgrwt>
</event>
<event>
 6    2  0.2220137E-005  0.1068836E+04  0.7818608E-02  0.9516135E-01
         -4   -1    0    0    0  501 -0.00000000000E+00  0.00000000000E+00  0.14878817025E+04  0.14878817025E+04  0.00000000000E+00 0. -1.
         21   -1    0    0  501  502  0.00000000000E+00 -0.00000000000E+00 -0.88094528766E+03  0.88094528766E+03  0.00000000000E+00 0. -1.
   -9000010    2    1    2    0  502  0.14805590506E+03 -0.36148688924E+03 -0.51092753370E+03  0.11846761802E+04  0.99489566544E+03 0.  0.
         13    1    3    3    0    0  0.11744166147E+03 -0.49032661322E+03 -0.75448371419E+03  0.90744609626E+03  0.10566000000E+00 0. -1.
         -4    1    3    3    0  502  0.30614243588E+02  0.12883972398E+03  0.24355618048E+03  0.27723008393E+03  0.00000000000E+00 0. -1.
        -13    1    1    2    0    0 -0.14805590506E+03  0.36148688924E+03  0.11178639485E+04  0.11841508099E+04  0.10566000000E+00 0.  1.
<mgrwt>
<rscale>  1 0.83104644E+03</rscale>
<asrwt>0</asrwt>
<pdfrwt beam="2">  1       21 0.13553004E+00 0.10688361E+04</pdfrwt>
<pdfrwt beam="1">  1       -4 0.22890488E+00 0.10688361E+04</pdfrwt>
<totfact> 0.11785709E+00</totfact>
</mgrwt>
</event>
<event>
 6    2  0.2220137E-005  0.9825987E+03  0.7818608E-02  0.9882208E-01
         21   -1    0    0  501  502  0.00000000000E+00  0.00000000000E+00  0.19904999840E+04  0.19904999840E+04  0.00000000000E+00 0. -1.
         -4   -1    0    0    0  501 -0.00000000000E+00 -0.00000000000E+00 -0.24406993367E+03  0.24406993367E+03  0.00000000000E+00 0. -1.
   -9000010    2    1    2    0  502  0.14714214163E+03  0.43640990505E+01  0.18212735643E+04  0.20694293171E+04  0.97150936552E+03 0.  0.
         13    1    3    3    0    0 -0.31374094517E+03 -0.69762867021E+02  0.19151751396E+03  0.37413795265E+03  0.10566000000E+00 0. -1.
         -4    1    3    3    0  502  0.46088308680E+03  0.74126966071E+02  0.16297560504E+04  0.16952913645E+04  0.00000000000E+00 0. -1.
        -13    1    1    2    0    0 -0.14714214163E+03 -0.43640990505E+01 -0.74843513972E+02  0.16514060056E+03  0.10566000000E+00 0.  1.
<mgrwt>
<rscale>  1 0.61131378E+03</rscale>
<asrwt>0</asrwt>
<pdfrwt beam="1">  1       21 0.30623076E+00 0.98259875E+03</pdfrwt>
<pdfrwt beam="2">  1       -4 0.37549222E-01 0.98259875E+03</pdfrwt>
<totfact> 0.67413457E+00</totfact>
</mgrwt>
</event>
<event>
 6    2  0.2220137E-005  0.1065157E+04  0.7818608E-02  0.9868846E-01
         -4   -1    0    0    0  501 -0.00000000000E+00  0.00000000000E+00  0.10524739744E+04  0.10524739744E+04  0.00000000000E+00 0. -1.
         21   -1    0    0  501  502  0.00000000000E+00 -0.00000000000E+00 -0.36430169086E+03  0.36430169086E+03  0.00000000000E+00 0. -1.
   -9000010    2    1    2    0  502  0.19151564413E+02  0.11913436826E+03  0.46325473931E+03  0.11615352042E+04  0.10583001922E+04 0.  0.
         13    1    3    3    0    0  0.42882094976E+03  0.29786664040E+03  0.48693787256E+03  0.71394708859E+03  0.10566000000E+00 0. -1.
         -4    1    3    3    0  502 -0.40966938534E+03 -0.17873227215E+03 -0.23683133247E+02  0.44758811556E+03  0.00000000000E+00 0. -1.
        -13    1    1    2    0    0 -0.19151564413E+02 -0.11913436826E+03  0.22491754427E+03  0.25524046114E+03  0.10566000000E+00 0.  1.
<mgrwt>
<rscale>  1 0.61795174E+03</rscale>
<asrwt>0</asrwt>
<pdfrwt beam="2">  1       21 0.56046415E-01 0.10651568E+04</pdfrwt>
<pdfrwt beam="1">  1       -4 0.16191907E+00 0.10651568E+04</pdfrwt>
<totfact> 0.28251638E+01</totfact>
</mgrwt>
</event>
<event>
 6    2  0.2220137E-005  0.8271146E+03  0.7818608E-02  0.1033025E+00
         -4   -1    0    0    0  501 -0.00000000000E+00  0.00000000000E+00  0.11661108136E+04  0.11661108136E+04  0.00000000000E+00 0. -1.
         21   -1    0    0  501  502  0.00000000000E+00 -0.00000000000E+00 -0.16945611932E+03  0.16945611932E+03  0.00000000000E+00 0. -1.
   -9000010    2    1    2    0  502  0.56095315356E+02 -0.26229209191E+02  0.92923002585E+03  0.12440204808E+04  0.82479322251E+03 0.  0.
         13    1    3    3    0    0 -0.14415605311E+03  0.24507303328E+03  0.85185753288E+03  0.89805513571E+03  0.10566000000E+00 0. -1.
         -4    1    3    3    0  502  0.20025136846E+03 -0.27130224247E+03  0.77372492975E+02  0.34596534510E+03  0.00000000000E+00 0. -1.
        -13    1    1    2    0    0 -0.56095315356E+02  0.26229209191E+02  0.67424668448E+02  0.91546452137E+02  0.10566000000E+00 0.  1.
<mgrwt>
<rscale>  1 0.43265354E+03</rscale>
<asrwt>0</asrwt>
<pdfrwt beam="2">  1       21 0.26070173E-01 0.82711457E+03</pdfrwt>
<pdfrwt beam="1">  1       -4 0.17940166E+00 0.82711457E+03</pdfrwt>
<totfact> 0.10630446E+02</totfact>
</mgrwt>
</event>
<event>
 6    2  0.2220137E-005  0.1089995E+04  0.7818608E-02  0.9450881E-01
         21   -1    0    0  501  502  0.00000000000E+00  0.00000000000E+00  0.60858557124E+03  0.60858557124E+03  0.00000000000E+00 0. -1.
         -4   -1    0    0    0  501 -0.00000000000E+00 -0.00000000000E+00 -0.24968745391E+04  0.24968745391E+04  0.00000000000E+00 0. -1.
   -9000010    2    1    2    0  502  0.44700326460E+03 -0.12129214765E+03  0.70869645880E+02  0.10922968808E+04  0.98669461616E+03 0.  0.
         13    1    3    3    0    0  0.63286843866E+03  0.18419124546E+03  0.23377152142E+03  0.69935542534E+03  0.10566000000E+00 0. -1.
         -4    1    3    3    0  502 -0.18586517407E+03 -0.30548339312E+03 -0.16290187554E+03  0.39294145551E+03  0.00000000000E+00 0. -1.
        -13    1    1    2    0    0 -0.44700326460E+03  0.12129214765E+03 -0.19591586137E+04  0.20131632295E+04  0.10566000000E+00 0.  1.
<mgrwt>
<rscale>  1 0.88004101E+03</rscale>
<asrwt>0</asrwt>
<pdfrwt beam="1">  1       21 0.93628548E-01 0.10899954E+04</pdfrwt>
<pdfrwt beam="2">  1       -4 0.38413455E+00 0.10899954E+04</pdfrwt>
<totfact> 0.31461953E-01</totfact>
</mgrwt>
</event>
<event>
 6    2  0.2220137E-005  0.1049658E+04  0.7818608E-02  0.9701298E-01
         -4   -1    0    0    0  501 -0.00000000000E+00  0.00000000000E+00  0.15077329344E+04  0.15077329344E+04  0.00000000000E+00 0. -1.
         21   -1    0    0  501  502  0.00000000000E+00 -0.00000000000E+00 -0.26740303201E+03  0.26740303201E+03  0.00000000000E+00 0. -1.
   -9000010    2    1    2    0  502 -0.66906306451E+02  0.20851118049E+03  0.10555097866E+04  0.14885843086E+04  0.10265617215E+04 0.  0.
         13    1    3    3    0    0  0.41335813385E+03  0.25691674659E+02  0.13723933516E+03  0.43630225217E+03  0.10566000000E+00 0. -1.
         -4    1    3    3    0  502 -0.48026444030E+03  0.18281950583E+03  0.91827045140E+03  0.10522820564E+04  0.00000000000E+00 0. -1.
        -13    1    1    2    0    0  0.66906306451E+02 -0.20851118049E+03  0.18482011587E+03  0.28655165786E+03  0.10566000000E+00 0.  1.
<mgrwt>
<rscale>  1 0.70939542E+03</rscale>
<asrwt>0</asrwt>
<pdfrwt beam="2">  1       21 0.41138929E-01 0.10496582E+04</pdfrwt>
<pdfrwt beam="1">  1       -4 0.23195891E+00 0.10496582E+04</pdfrwt>
<totfact> 0.18577196E+01</totfact>
</mgrwt>
</event>
<event>
 6    2  0.2220137E-005  0.9931020E+03  0.7818608E-02  0.1007526E+00
         -4   -1    0    0    0  501 -0.00000000000E+00  0.00000000000E+00  0.17617392488E+03  0.17617392488E+03  0.00000000000E+00 0. -1.
         21   -1    0    0  501  502  0.00000000000E+00 -0.00000000000E+00 -0.16773759979E+04  0.16773759979E+04  0.00000000000E+00 0. -1.
   -9000010    2    1    2    0  502  0.72470796443E+02 -0.27136312440E+02 -0.14603795061E+04  0.17660577007E+04  0.99008237266E+03 0.  0.
         13    1    3    3    0    0  0.38123518150E+03  0.19009732460E+03 -0.12773293287E+04  0.13464945160E+04  0.10566000000E+00 0. -1.
         -4    1    3    3    0  502 -0.30876438506E+03 -0.21723363704E+03 -0.18305017737E+03  0.41956318472E+03  0.00000000000E+00 0. -1.
        -13    1    1    2    0    0 -0.72470796443E+02  0.27136312440E+02 -0.40822566962E+02  0.87492222096E+02  0.10566000000E+00 0.  1.
<mgrwt>
<rscale>  1 0.52469786E+03</rscale>
<asrwt>0</asrwt>
<pdfrwt beam="2">  1       21 0.25805785E+00 0.99310196E+03</pdfrwt>
<pdfrwt beam="1">  1       -4 0.27103680E-01 0.99310196E+03</pdfrwt>
<totfact> 0.25588648E+01</totfact>
</mgrwt>
</event>
<event>
 6    2  0.2220137E-005  0.1055549E+04  0.7818608E-02  0.9644900E-01
         -4   -1    0    0    0  501 -0.00000000000E+00  0.00000000000E+00  0.65316937734E+03  0.65316937734E+03  0.00000000000E+00 0. -1.
         21   -1    0    0  501  502  0.00000000000E+00 -0.00000000000E+00 -0.79324527133E+03  0.79324527133E+03  0.00000000000E+00 0. -1.
   -9000010    2    1    2    0  502  0.22207799007E+03  0.13607195133E+03  0.13902657421E+03  0.10646655052E+04  0.10229125280E+04 0.  0.
         13    1    3    3    0    0  0.34005843717E+03  0.47876593358E+03  0.30986845662E+03  0.66398421022E+03  0.10566000000E+00 0. -1.
         -4    1    3    3    0  502 -0.11798044710E+03 -0.34269398225E+03 -0.17084188241E+03  0.40068129499E+03  0.00000000000E+00 0. -1.
        -13    1    1    2    0    0 -0.22207799007E+03 -0.13607195133E+03 -0.27910246821E+03  0.38174914346E+03  0.10566000000E+00 0.  1.
<mgrwt>
<rscale>  1 0.74394365E+03</rscale>
<asrwt>0</asrwt>
<pdfrwt beam="2">  1       21 0.12203773E+00 0.10555493E+04</pdfrwt>
<pdfrwt beam="1">  1       -4 0.10048760E+00 0.10555493E+04</pdfrwt>
<totfact> 0.15066288E+01</totfact>
</mgrwt>
</event>
<event>
 6    2  0.2220137E-005  0.1078727E+04  0.7818608E-02  0.9525333E-01
         -4   -1    0    0    0  501 -0.00000000000E+00  0.00000000000E+00  0.32086726514E+03  0.32086726514E+03  0.00000000000E+00 0. -1.
         21   -1    0    0  501  502  0.00000000000E+00 -0.00000000000E+00 -0.16415065496E+04  0.16415065496E+04  0.00000000000E+00 0. -1.
   -9000010    2    1    2    0  502 -0.33584663251E+03 -0.15044313173E+03 -0.10518118874E+04  0.15066389390E+04  0.10140150637E+04 0.  0.
         13    1    3    3    0    0  0.24097080334E+03  0.84968500426E+02 -0.79099696424E+03  0.83124171138E+03  0.10566000000E+00 0. -1.
         -4    1    3    3    0  502 -0.57681743585E+03 -0.23541163216E+03 -0.26081492320E+03  0.67539722758E+03  0.00000000000E+00 0. -1.
        -13    1    1    2    0    0  0.33584663251E+03  0.15044313173E+03 -0.26882739701E+03  0.45573487578E+03  0.10566000000E+00 0.  1.
<mgrwt>
<rscale>  1 0.82441628E+03</rscale>
<asrwt>0</asrwt>
<pdfrwt beam="2">  1       21 0.25253947E+00 0.10787273E+04</pdfrwt>
<pdfrwt beam="1">  1       -4 0.49364195E-01 0.10787273E+04</pdfrwt>
<totfact> 0.81826119E+00</totfact>
</mgrwt>
</event>
<event>
 6    2  0.2220137E-005  0.1027147E+04  0.7818608E-02  0.1004990E+00
         21   -1    0    0  501  502  0.00000000000E+00  0.00000000000E+00  0.39045628380E+03  0.39045628380E+03  0.00000000000E+00 0. -1.
         -4   -1    0    0    0  501 -0.00000000000E+00 -0.00000000000E+00 -0.77888317278E+03  0.77888317278E+03  0.00000000000E+00 0. -1.
   -9000010    2    1    2    0  502 -0.51727320798E+01 -0.75509312637E+02 -0.35761103050E+03  0.10876201703E+04  0.10243551983E+04 0.  0.
         13    1    3    3    0    0  0.42513549255E+03  0.16348968975E+03 -0.38246529158E+03  0.59476783378E+03  0.10566000000E+00 0. -1.
         -4    1    3    3    0  502 -0.43030822463E+03 -0.23899900238E+03  0.24854261078E+02  0.49285233652E+03  0.00000000000E+00 0. -1.
        -13    1    1    2    0    0  0.51727320798E+01  0.75509312637E+02 -0.30815858477E+02  0.81719286277E+02  0.10566000000E+00 0.  1.
<mgrwt>
<rscale>  1 0.53515429E+03</rscale>
<asrwt>0</asrwt>
<pdfrwt beam="1">  1       21 0.60070198E-01 0.10271475E+04</pdfrwt>
<pdfrwt beam="2">  1       -4 0.11982818E+00 0.10271475E+04</pdfrwt>
<totfact> 0.53660568E+01</totfact>
</mgrwt>
</event>
<event>
 6    2  0.2220137E-005  0.9975549E+03  0.7818608E-02  0.1004627E+00
         -4   -1    0    0    0  501 -0.00000000000E+00  0.00000000000E+00  0.59226260147E+03  0.59226260147E+03  0.00000000000E+00 0. -1.
         21   -1    0    0  501  502  0.00000000000E+00 -0.00000000000E+00 -0.52221233187E+03  0.52221233187E+03  0.00000000000E+00 0. -1.
   -9000010    2    1    2    0  502 -0.22676212411E+02  0.80429013050E+02 -0.11628419435E+02  0.99762264985E+03  0.99404863795E+03 0.  0.
         13    1    3    3    0    0  0.36224988696E+03  0.22042691259E+03  0.26804115761E+03  0.50165633429E+03  0.10566000000E+00 0. -1.
         -4    1    3    3    0  502 -0.38492609937E+03 -0.13999789954E+03 -0.27966957704E+03  0.49596631556E+03  0.00000000000E+00 0. -1.
        -13    1    1    2    0    0  0.22676212411E+02 -0.80429013050E+02  0.81678689041E+02  0.11685228349E+03  0.10566000000E+00 0.  1.
<mgrwt>
<rscale>  1 0.53667112E+03</rscale>
<asrwt>0</asrwt>
<pdfrwt beam="2">  1       21 0.80340359E-01 0.99755488E+03</pdfrwt>
<pdfrwt beam="1">  1       -4 0.91117323E-01 0.99755488E+03</pdfrwt>
<totfact> 0.53836969E+01</totfact>
</mgrwt>
</event>
<event>
 6    2  0.2220137E-005  0.9354592E+03  0.7818608E-02  0.1026520E+00
         -4   -1    0    0    0  501 -0.00000000000E+00  0.00000000000E+00  0.13684092177E+04  0.13684092177E+04  0.00000000000E+00 0. -1.
         21   -1    0    0  501  502  0.00000000000E+00 -0.00000000000E+00 -0.17842968108E+03  0.17842968108E+03  0.00000000000E+00 0. -1.
   -9000010    2    1    2    0  502  0.45001765973E+02 -0.25897834464E+02  0.11410741580E+04  0.14755114567E+04  0.93401711337E+03 0.  0.
         13    1    3    3    0    0  0.21238975083E+03  0.39466063317E+03  0.76679577554E+03  0.88816788626E+03  0.10566000000E+00 0. -1.
         -4    1    3    3    0  502 -0.16738798486E+03 -0.42055846764E+03  0.37427838248E+03  0.58734357047E+03  0.00000000000E+00 0. -1.
        -13    1    1    2    0    0 -0.45001765973E+02  0.25897834464E+02  0.48905378611E+02  0.71327442066E+02  0.10566000000E+00 0.  1.
<mgrwt>
<rscale>  1 0.45405243E+03</rscale>
<asrwt>0</asrwt>
<pdfrwt beam="2">  1       21 0.27450721E-01 0.93545915E+03</pdfrwt>
<pdfrwt beam="1">  1       -4 0.21052449E+00 0.93545915E+03</pdfrwt>
<totfact> 0.58875487E+01</totfact>
</mgrwt>
</event>
<event>
 6    2  0.2220137E-005  0.1305079E+04  0.7818608E-02  0.9138012E-01
         -4   -1    0    0    0  501 -0.00000000000E+00  0.00000000000E+00  0.82624269467E+03  0.82624269467E+03  0.00000000000E+00 0. -1.
         21   -1    0    0  501  502  0.00000000000E+00 -0.00000000000E+00 -0.15178020709E+04  0.15178020709E+04  0.00000000000E+00 0. -1.
   -9000010    2    1    2    0  502  0.17010110698E+02  0.84769321504E+03 -0.72988684184E+03  0.14953150463E+04  0.99214875647E+03 0.  0.
         13    1    3    3    0    0 -0.89397513545E+02  0.27960252203E+03 -0.85497415901E+03  0.90396366603E+03  0.10566000000E+00 0. -1.
         -4    1    3    3    0  502  0.10640762424E+03  0.56809069300E+03  0.12508731717E+03  0.59135138022E+03  0.00000000000E+00 0. -1.
        -13    1    1    2    0    0 -0.17010110698E+02 -0.84769321504E+03  0.38327465598E+02  0.84872971933E+03  0.10566000000E+00 0.  1.
<mgrwt>
<rscale>  1 0.11716806E+04</rscale>
<asrwt>0</asrwt>
<pdfrwt beam="2">  1       21 0.23350801E+00 0.13050794E+04</pdfrwt>
<pdfrwt beam="1">  1       -4 0.12711426E+00 0.13050794E+04</pdfrwt>
<totfact> 0.11803301E+00</totfact>
</mgrwt>
</event>
<event>
 6    2  0.2220137E-005  0.1056164E+04  0.7818608E-02  0.9530636E-01
         21   -1    0    0  501  502  0.00000000000E+00  0.00000000000E+00  0.12494814607E+04  0.12494814607E+04  0.00000000000E+00 0. -1.
         -4   -1    0    0    0  501 -0.00000000000E+00 -0.00000000000E+00 -0.42472566604E+03  0.42472566604E+03  0.00000000000E+00 0. -1.
   -9000010    2    1    2    0  502 -0.38296360530E+03 -0.38861266613E+02  0.49092715991E+03  0.11646849098E+04  0.98351926352E+03 0.  0.
         13    1    3    3    0    0 -0.14524039430E+03  0.35747700438E+03  0.57743886991E+03  0.69449279366E+03  0.10566000000E+00 0. -1.
         -4    1    3    3    0  502 -0.23772321100E+03 -0.39633827099E+03 -0.86511710003E+02  0.47019211613E+03  0.00000000000E+00 0. -1.
        -13    1    1    2    0    0  0.38296360530E+03  0.38861266613E+02  0.33382863475E+03  0.50952221695E+03  0.10566000000E+00 0.  1.
<mgrwt>
<rscale>  1 0.82062352E+03</rscale>
<asrwt>0</asrwt>
<pdfrwt beam="1">  1       21 0.19222792E+00 0.10561636E+04</pdfrwt>
<pdfrwt beam="2">  1       -4 0.65342411E-01 0.10561636E+04</pdfrwt>
<totfact> 0.11245192E+01</totfact>
</mgrwt>
</event>
<event>
 6    2  0.2220137E-005  0.1016831E+04  0.7818608E-02  0.9769582E-01
         -4   -1    0    0    0  501 -0.00000000000E+00  0.00000000000E+00  0.25869109356E+03  0.25869109356E+03  0.00000000000E+00 0. -1.
         21   -1    0    0  501  502  0.00000000000E+00 -0.00000000000E+00 -0.16264541910E+04  0.16264541910E+04  0.00000000000E+00 0. -1.
   -9000010    2    1    2    0  502 -0.12428212232E+03 -0.14622756956E+03 -0.13532364039E+04  0.16926885777E+04  0.99855761380E+03 0.  0.
         13    1    3    3    0    0 -0.25203886719E+03 -0.46724572514E+03 -0.12049256523E+04  0.13166958635E+04  0.10566000000E+00 0. -1.
         -4    1    3    3    0  502  0.12775674486E+03  0.32101815558E+03 -0.14831075163E+03  0.37599271418E+03  0.00000000000E+00 0. -1.
        -13    1    1    2    0    0  0.12428212232E+03  0.14622756956E+03 -0.14526693490E+02  0.19245670687E+03  0.10566000000E+00 0.  1.
<mgrwt>
<rscale>  1 0.67020824E+03</rscale>
<asrwt>0</asrwt>
<pdfrwt beam="2">  1       21 0.25022372E+00 0.10168313E+04</pdfrwt>
<pdfrwt beam="1">  1       -4 0.39798629E-01 0.10168313E+04</pdfrwt>
<totfact> 0.13347320E+01</totfact>
</mgrwt>
</event>
<event>
 6    2  0.2220137E-005  0.1340041E+04  0.7818608E-02  0.9133335E-01
         21   -1    0    0  501  502  0.00000000000E+00  0.00000000000E+00  0.14685602634E+04  0.14685602634E+04  0.00000000000E+00 0.  1.
         -4   -1    0    0    0  501 -0.00000000000E+00 -0.00000000000E+00 -0.78040774711E+03  0.78040774711E+03  0.00000000000E+00 0. -1.
   -9000010    2    1    2    0  502  0.56089048545E+03  0.56653358891E+03  0.36604992193E+03  0.13891374828E+04  0.10771035032E+04 0.  0.
         13    1    3    3    0    0  0.68451759521E+03  0.60157831278E+03  0.62159423790E+03  0.11031048057E+04  0.10566000000E+00 0. -1.
         -4    1    3    3    0  502 -0.12362710975E+03 -0.35044723875E+02 -0.25554431597E+03  0.28603267709E+03  0.00000000000E+00 0. -1.
        -13    1    1    2    0    0 -0.56089048545E+03 -0.56653358891E+03  0.32210259440E+03  0.85983052779E+03  0.10566000000E+00 0.  1.
<mgrwt>
<rscale>  1 0.11768825E+04</rscale>
<asrwt>0</asrwt>
<pdfrwt beam="1">  1       21 0.22593235E+00 0.13400412E+04</pdfrwt>
<pdfrwt beam="2">  1       -4 0.12006273E+00 0.13400412E+04</pdfrwt>
<totfact> 0.15245084E+00</totfact>
</mgrwt>
</event>
<event>
 6    2  0.2220137E-005  0.1121121E+04  0.7818608E-02  0.1003453E+00
         21   -1    0    0  501  502  0.00000000000E+00  0.00000000000E+00  0.41685765722E+03  0.41685765722E+03  0.00000000000E+00 0. -1.
         -4   -1    0    0    0  501 -0.00000000000E+00 -0.00000000000E+00 -0.91210833285E+03  0.91210833285E+03  0.00000000000E+00 0. -1.
   -9000010    2    1    2    0  502  0.35828203496E+02 -0.49452493054E+02 -0.35497729560E+03  0.11759763122E+04  0.11194562060E+04 0.  0.
         13    1    3    3    0    0  0.26609313423E+02  0.16572611882E+03  0.37715686710E+03  0.41282019764E+03  0.10566000000E+00 0. -1.
         -4    1    3    3    0  502  0.92188900736E+01 -0.21517861187E+03 -0.73213416270E+03  0.76315611452E+03  0.00000000000E+00 0. -1.
        -13    1    1    2    0    0 -0.35828203496E+02  0.49452493054E+02 -0.14027338003E+03  0.15298967790E+03  0.10566000000E+00 0.  1.
<mgrwt>
<rscale>  1 0.54161603E+03</rscale>
<asrwt>0</asrwt>
<pdfrwt beam="1">  1       21 0.64131948E-01 0.11211206E+04</pdfrwt>
<pdfrwt beam="2">  1       -4 0.14032436E+00 0.11211206E+04</pdfrwt>
<totfact> 0.30631122E+01</totfact>
</mgrwt>
</event>
<event>
 6    2  0.2220137E-005  0.1013218E+04  0.7818608E-02  0.9558935E-01
         21   -1    0    0  501  502  0.00000000000E+00  0.00000000000E+00  0.57571895995E+03  0.57571895995E+03  0.00000000000E+00 0. -1.
         -4   -1    0    0    0  501 -0.00000000000E+00 -0.00000000000E+00 -0.91054421188E+03  0.91054421188E+03  0.00000000000E+00 0. -1.
   -9000010    2    1    2    0  502 -0.35150121331E+03 -0.18075199899E+03 -0.80832696476E+02  0.10164370152E+04  0.93294474267E+03 0.  0.
         13    1    3    3    0    0  0.28940668943E+03 -0.20479102842E+02  0.13694177652E+03  0.32082500971E+03  0.10566000000E+00 0. -1.
         -4    1    3    3    0  502 -0.64090790274E+03 -0.16027289615E+03 -0.21777447300E+03  0.69561200545E+03  0.00000000000E+00 0. -1.
        -13    1    1    2    0    0  0.35150121331E+03  0.18075199899E+03 -0.25399255545E+03  0.46982615667E+03  0.10566000000E+00 0.  1.
<mgrwt>
<rscale>  1 0.80074772E+03</rscale>
<asrwt>0</asrwt>
<pdfrwt beam="1">  1       21 0.88572148E-01 0.10132178E+04</pdfrwt>
<pdfrwt beam="2">  1       -4 0.14008372E+00 0.10132178E+04</pdfrwt>
<totfact> 0.14647016E+01</totfact>
</mgrwt>
</event>
<event>
 6    2  0.2220137E-005  0.9809709E+03  0.7818608E-02  0.1011508E+00
         21   -1    0    0  501  502  0.00000000000E+00  0.00000000000E+00  0.32955862464E+03  0.32955862464E+03  0.00000000000E+00 0. -1.
         -4   -1    0    0    0  501 -0.00000000000E+00 -0.00000000000E+00 -0.10730217469E+04  0.10730217469E+04  0.00000000000E+00 0. -1.
   -9000010    2    1    2    0  502 -0.78308053049E+01 -0.70559255945E+02 -0.41263950069E+03  0.10642252181E+04  0.97839870564E+03 0.  0.
         13    1    3    3    0    0  0.29091767407E+03  0.15518866908E+03 -0.56964730106E+03  0.65819045486E+03  0.10566000000E+00 0. -1.
         -4    1    3    3    0  502 -0.29874847938E+03 -0.22574792502E+03  0.15700780037E+03  0.40603476324E+03  0.00000000000E+00 0. -1.
        -13    1    1    2    0    0  0.78308053049E+01  0.70559255945E+02 -0.33082362162E+03  0.33835515349E+03  0.10566000000E+00 0.  1.
<mgrwt>
<rscale>  1 0.50879787E+03</rscale>
<asrwt>0</asrwt>
<pdfrwt beam="1">  1       21 0.50701327E-01 0.98097093E+03</pdfrwt>
<pdfrwt beam="2">  1       -4 0.16508027E+00 0.98097093E+03</pdfrwt>
<totfact> 0.33578858E+01</totfact>
</mgrwt>
</event>
<event>
 6    2  0.2220137E-005  0.9982561E+03  0.7818608E-02  0.1020211E+00
         -4   -1    0    0    0  501 -0.00000000000E+00  0.00000000000E+00  0.53408629043E+03  0.53408629043E+03  0.00000000000E+00 0. -1.
         21   -1    0    0  501  502  0.00000000000E+00 -0.00000000000E+00 -0.51628540055E+03  0.51628540055E+03  0.00000000000E+00 0. -1.
   -9000010    2    1    2    0  502  0.45035756507E+02 -0.25291926614E+02  0.22472332741E+02  0.99850904104E+03  0.99691895277E+03 0.  0.
         13    1    3    3    0    0 -0.18165251937E+03  0.44166909052E+03 -0.17583732609E+02  0.47788955014E+03  0.10566000000E+00 0. -1.
         -4    1    3    3    0  502  0.22668827588E+03 -0.46696101713E+03  0.40056065350E+02  0.52061949091E+03  0.00000000000E+00 0. -1.
        -13    1    1    2    0    0 -0.45035756507E+02  0.25291926614E+02 -0.46714428699E+01  0.51862649937E+02  0.10566000000E+00 0.  1.
<mgrwt>
<rscale>  1 0.47610526E+03</rscale>
<asrwt>0</asrwt>
<pdfrwt beam="2">  1       21 0.79428523E-01 0.99825613E+03</pdfrwt>
<pdfrwt beam="1">  1       -4 0.82167122E-01 0.99825613E+03</pdfrwt>
<totfact> 0.70387623E+01</totfact>
</mgrwt>
</event>
<event>
 6    2  0.2220137E-005  0.1030134E+04  0.7818608E-02  0.9743546E-01
         21   -1    0    0  501  502  0.00000000000E+00  0.00000000000E+00  0.17852156278E+03  0.17852156278E+03  0.00000000000E+00 0. -1.
         -4   -1    0    0    0  501 -0.00000000000E+00 -0.00000000000E+00 -0.22058031849E+04  0.22058031849E+04  0.00000000000E+00 0. -1.
   -9000010    2    1    2    0  502 -0.78183433454E+01 -0.20104914710E+03 -0.14973220866E+04  0.18174570325E+04  0.10102943868E+04 0.  0.
         13    1    3    3    0    0  0.26695547480E+03 -0.44376398169E+01  0.15424942188E+02  0.26743757810E+03  0.10566000000E+00 0. -1.
         -4    1    3    3    0  502 -0.27477381815E+03 -0.19661150728E+03 -0.15127470288E+04  0.15500194544E+04  0.00000000000E+00 0. -1.
        -13    1    1    2    0    0  0.78183433454E+01  0.20104914710E+03 -0.52995953548E+03  0.56686771512E+03  0.10566000000E+00 0.  1.
<mgrwt>
<rscale>  1 0.68482245E+03</rscale>
<asrwt>0</asrwt>
<pdfrwt beam="1">  1       21 0.27464855E-01 0.10301343E+04</pdfrwt>
<pdfrwt beam="2">  1       -4 0.33935435E+00 0.10301343E+04</pdfrwt>
<totfact> 0.91388538E+00</totfact>
</mgrwt>
</event>
<event>
 6    2  0.2220137E-005  0.1107902E+04  0.7818608E-02  0.9418771E-01
         21   -1    0    0  501  502  0.00000000000E+00  0.00000000000E+00  0.57811546402E+03  0.57811546402E+03  0.00000000000E+00 0.  1.
         -4   -1    0    0    0  501 -0.00000000000E+00 -0.00000000000E+00 -0.11327794857E+04  0.11327794857E+04  0.00000000000E+00 0. -1.
   -9000010    2    1    2    0  502  0.17758004547E+03  0.46129839532E+03 -0.49344076555E+03  0.12128194732E+04  0.99152226571E+03 0.  0.
         13    1    3    3    0    0  0.30033545632E+03 -0.16656194284E+03  0.81182964743E+02  0.35289510064E+03  0.10566000000E+00 0. -1.
         -4    1    3    3    0  502 -0.12275541085E+03  0.62786033815E+03 -0.57462373030E+03  0.85992437257E+03  0.00000000000E+00 0. -1.
        -13    1    1    2    0    0 -0.17758004547E+03 -0.46129839532E+03 -0.61223256158E+02  0.49807547654E+03  0.10566000000E+00 0.  1.
<mgrwt>
<rscale>  1 0.90546866E+03</rscale>
<asrwt>0</asrwt>
<pdfrwt beam="1">  1       21 0.88940841E-01 0.11079022E+04</pdfrwt>
<pdfrwt beam="2">  1       -4 0.17427377E+00 0.11079022E+04</pdfrwt>
<totfact> 0.79020585E+00</totfact>
</mgrwt>
</event>
<event>
 6    2  0.2220137E-005  0.1265254E+04  0.7818608E-02  0.9196451E-01
         21   -1    0    0  501  502  0.00000000000E+00  0.00000000000E+00  0.80352133451E+03  0.80352133451E+03  0.00000000000E+00 0.  1.
         -4   -1    0    0    0  501 -0.00000000000E+00 -0.00000000000E+00 -0.27104239493E+04  0.27104239493E+04  0.00000000000E+00 0. -1.
   -9000010    2    1    2    0  502  0.56787599407E+03  0.48502685216E+03 -0.23330842780E+04  0.26540819149E+04  0.10213394985E+04 0.  0.
         13    1    3    3    0    0  0.20564372399E+02  0.51706948952E+03 -0.42757610068E+03  0.67127124431E+03  0.10566000000E+00 0. -1.
         -4    1    3    3    0  502  0.54731162168E+03 -0.32042637354E+02 -0.19055081773E+04  0.19828106706E+04  0.00000000000E+00 0. -1.
        -13    1    1    2    0    0 -0.56787599407E+03 -0.48502685216E+03  0.42618166317E+03  0.85986336888E+03  0.10566000000E+00 0.  1.
<mgrwt>
<rscale>  1 0.11090135E+04</rscale>
<asrwt>0</asrwt>
<pdfrwt beam="1">  1       21 0.12361867E+00 0.12652543E+04</pdfrwt>
<pdfrwt beam="2">  1       -4 0.41698830E+00 0.12652543E+04</pdfrwt>
<totfact> 0.89055155E-02</totfact>
</mgrwt>
</event>
<event>
 6    2  0.2220137E-005  0.1015374E+04  0.7818608E-02  0.1066160E+00
         -4   -1    0    0    0  501 -0.00000000000E+00  0.00000000000E+00  0.24681685932E+03  0.24681685932E+03  0.00000000000E+00 0. -1.
         21   -1    0    0  501  502  0.00000000000E+00 -0.00000000000E+00 -0.10756857852E+04  0.10756857852E+04  0.00000000000E+00 0. -1.
   -9000010    2    1    2    0  502 -0.61717313738E+01 -0.11431678038E+02 -0.82664342191E+03  0.13093216900E+04  0.10152906812E+04 0.  0.
         13    1    3    3    0    0  0.39014361844E+03  0.24203492637E+03 -0.14571668162E+03  0.48169109505E+03  0.10566000000E+00 0. -1.
         -4    1    3    3    0  502 -0.39631534981E+03 -0.25346660440E+03 -0.68092674029E+03  0.82763059494E+03  0.00000000000E+00 0. -1.
        -13    1    1    2    0    0  0.61717313738E+01  0.11431678038E+02 -0.22255039985E+01  0.13180954556E+02  0.10566000000E+00 0.  1.
<mgrwt>
<rscale>  1 0.34149637E+03</rscale>
<asrwt>0</asrwt>
<pdfrwt beam="2">  1       21 0.16549012E+00 0.10153738E+04</pdfrwt>
<pdfrwt beam="1">  1       -4 0.37971824E-01 0.10153738E+04</pdfrwt>
<totfact> 0.55736945E+01</totfact>
</mgrwt>
</event>
<event>
 6    2  0.2220137E-005  0.9537404E+03  0.7818608E-02  0.9973650E-01
         21   -1    0    0  501  502  0.00000000000E+00  0.00000000000E+00  0.12737962417E+04  0.12737962417E+04  0.00000000000E+00 0. -1.
         -4   -1    0    0    0  501 -0.00000000000E+00 -0.00000000000E+00 -0.28636750736E+03  0.28636750736E+03  0.00000000000E+00 0. -1.
   -9000010    2    1    2    0  502  0.11975715349E+03 -0.97700204567E+01  0.10550928892E+04  0.14222664028E+04  0.94614136715E+03 0.  0.
         13    1    3    3    0    0  0.19886418428E+03  0.32580814542E+03  0.10035100945E+04  0.10736528453E+04  0.10566000000E+00 0. -1.
         -4    1    3    3    0  502 -0.79107030788E+02 -0.33557816588E+03  0.51582794687E+02  0.34861355745E+03  0.00000000000E+00 0. -1.
        -13    1    1    2    0    0 -0.11975715349E+03  0.97700204567E+01 -0.67664154784E+02  0.13789734631E+03  0.10566000000E+00 0.  1.
<mgrwt>
<rscale>  1 0.56820906E+03</rscale>
<asrwt>0</asrwt>
<pdfrwt beam="1">  1       21 0.19596865E+00 0.95374038E+03</pdfrwt>
<pdfrwt beam="2">  1       -4 0.44056540E-01 0.95374038E+03</pdfrwt>
<totfact> 0.24906491E+01</totfact>
</mgrwt>
</event>
<event>
 6    2  0.2220137E-005  0.1046350E+04  0.7818608E-02  0.9750728E-01
         21   -1    0    0  501  502  0.00000000000E+00  0.00000000000E+00  0.50375494680E+03  0.50375494680E+03  0.00000000000E+00 0. -1.
         -4   -1    0    0    0  501 -0.00000000000E+00 -0.00000000000E+00 -0.75991699594E+03  0.75991699594E+03  0.00000000000E+00 0. -1.
   -9000010    2    1    2    0  502  0.14613595565E+03 -0.11742165240E+03 -0.25148502408E+03  0.10761474171E+04  0.10294197317E+04 0.  0.
         13    1    3    3    0    0 -0.10958314623E+03  0.26604097817E+03  0.25988381907E+03  0.38771881381E+03  0.10566000000E+00 0. -1.
         -4    1    3    3    0  502  0.25571910188E+03 -0.38346263057E+03 -0.51136884315E+03  0.68842860331E+03  0.00000000000E+00 0. -1.
        -13    1    1    2    0    0 -0.14613595565E+03  0.11742165240E+03 -0.46770250597E+01  0.18752452563E+03  0.10566000000E+00 0.  1.
<mgrwt>
<rscale>  1 0.68075143E+03</rscale>
<asrwt>0</asrwt>
<pdfrwt beam="1">  1       21 0.77500762E-01 0.10463501E+04</pdfrwt>
<pdfrwt beam="2">  1       -4 0.11691031E+00 0.10463501E+04</pdfrwt>
<totfact> 0.31854762E+01</totfact>
</mgrwt>
</event>
<event>
 6    2  0.2220137E-005  0.1119318E+04  0.7818608E-02  0.9406783E-01
         21   -1    0    0  501  502  0.00000000000E+00  0.00000000000E+00  0.30280831175E+03  0.30280831175E+03  0.00000000000E+00 0.  1.
         -4   -1    0    0    0  501 -0.00000000000E+00 -0.00000000000E+00 -0.25103924124E+04  0.25103924124E+04  0.00000000000E+00 0. -1.
   -9000010    2    1    2    0  502 -0.26863367418E+03 -0.42201168156E+03 -0.19550948917E+04  0.22528359125E+04  0.10013069973E+04 0.  0.
         13    1    3    3    0    0 -0.34210975252E+03 -0.41934302913E+03 -0.34660920796E+03  0.64267068788E+03  0.10566000000E+00 0. -1.
         -4    1    3    3    0  502  0.73476078343E+02 -0.26686524258E+01 -0.16084856838E+04  0.16101652247E+04  0.00000000000E+00 0. -1.
        -13    1    1    2    0    0  0.26863367418E+03  0.42201168156E+03 -0.25248920887E+03  0.56036481156E+03  0.10566000000E+00 0.  1.
<mgrwt>
<rscale>  1 0.91519525E+03</rscale>
<asrwt>0</asrwt>
<pdfrwt beam="1">  1       21 0.46585894E-01 0.11193184E+04</pdfrwt>
<pdfrwt beam="2">  1       -4 0.38621422E+00 0.11193184E+04</pdfrwt>
<totfact> 0.14864700E+00</totfact>
</mgrwt>
</event>
<event>
 6    2  0.2220137E-005  0.1001630E+04  0.7818608E-02  0.1005980E+00
         -4   -1    0    0    0  501 -0.00000000000E+00  0.00000000000E+00  0.42242780614E+03  0.42242780614E+03  0.00000000000E+00 0. -1.
         21   -1    0    0  501  502  0.00000000000E+00 -0.00000000000E+00 -0.72996951764E+03  0.72996951764E+03  0.00000000000E+00 0. -1.
   -9000010    2    1    2    0  502  0.79129835459E+02 -0.12239862163E+01 -0.35193170384E+03  0.10616586243E+04  0.99849891404E+03 0.  0.
         13    1    3    3    0    0 -0.35509802944E+03 -0.25430709604E+03 -0.34895853895E+03  0.55905168159E+03  0.10566000000E+00 0. -1.
         -4    1    3    3    0  502  0.43422786490E+03  0.25308310983E+03 -0.29731648823E+01  0.50260694270E+03  0.00000000000E+00 0. -1.
        -13    1    1    2    0    0 -0.79129835459E+02  0.12239862163E+01  0.44389992334E+02  0.90738699491E+02  0.10566000000E+00 0.  1.
<mgrwt>
<rscale>  1 0.53104181E+03</rscale>
<asrwt>0</asrwt>
<pdfrwt beam="2">  1       21 0.11230300E+00 0.10016302E+04</pdfrwt>
<pdfrwt beam="1">  1       -4 0.64988894E-01 0.10016302E+04</pdfrwt>
<totfact> 0.51237512E+01</totfact>
</mgrwt>
</event>
<event>
 6    2  0.2220137E-005  0.1116914E+04  0.7818608E-02  0.9449959E-01
         21   -1    0    0  501  502  0.00000000000E+00  0.00000000000E+00  0.95994287462E+03  0.95994287462E+03  0.00000000000E+00 0. -1.
         -4   -1    0    0    0  501 -0.00000000000E+00 -0.00000000000E+00 -0.14985802593E+04  0.14985802593E+04  0.00000000000E+00 0. -1.
   -9000010    2    1    2    0  502 -0.68036912526E+02  0.42649150716E+03  0.58063090733E+03  0.12588208593E+04  0.10300357654E+04 0.  0.
         13    1    3    3    0    0 -0.63620206177E+02 -0.11086446968E+03 -0.24347649426E+03  0.27498959198E+03  0.10566000000E+00 0. -1.
         -4    1    3    3    0  502 -0.44167063486E+01  0.53735597684E+03  0.82410740159E+03  0.98383126729E+03  0.00000000000E+00 0. -1.
        -13    1    1    2    0    0  0.68036912526E+02 -0.42649150716E+03 -0.11192682920E+04  0.11997022746E+04  0.10566000000E+00 0.  1.
<mgrwt>
<rscale>  1 0.88075833E+03</rscale>
<asrwt>0</asrwt>
<pdfrwt beam="1">  1       21 0.14768352E+00 0.11169144E+04</pdfrwt>
<pdfrwt beam="2">  1       -4 0.23055081E+00 0.11169144E+04</pdfrwt>
<totfact> 0.90254550E-01</totfact>
</mgrwt>
</event>
<event>
 6    2  0.2220137E-005  0.1048332E+04  0.7818608E-02  0.9551255E-01
         21   -1    0    0  501  502  0.00000000000E+00  0.00000000000E+00  0.41549256848E+03  0.41549256848E+03  0.00000000000E+00 0. -1.
         -4   -1    0    0    0  501 -0.00000000000E+00 -0.00000000000E+00 -0.14262017415E+04  0.14262017415E+04  0.00000000000E+00 0. -1.
   -9000010    2    1    2    0  502 -0.36283066886E+03 -0.51411287749E+02 -0.38542317586E+03  0.11169379342E+04  0.98219657383E+03 0.  0.
         13    1    3    3    0    0 -0.26975675884E+03 -0.46754166722E+03  0.35103342261E+01  0.53979278722E+03  0.10566000000E+00 0. -1.
         -4    1    3    3    0  502 -0.93073910017E+02  0.41613037947E+03 -0.38893351008E+03  0.57714514700E+03  0.00000000000E+00 0. -1.
        -13    1    1    2    0    0  0.36283066886E+03  0.51411287749E+02 -0.62528599715E+03  0.72475637574E+03  0.10566000000E+00 0.  1.
<mgrwt>
<rscale>  1 0.80608192E+03</rscale>
<asrwt>0</asrwt>
<pdfrwt beam="1">  1       21 0.63921932E-01 0.10483317E+04</pdfrwt>
<pdfrwt beam="2">  1       -4 0.21941566E+00 0.10483317E+04</pdfrwt>
<totfact> 0.85538519E+00</totfact>
</mgrwt>
</event>
<event>
 6    2  0.2220137E-005  0.9781392E+03  0.7818608E-02  0.9811855E-01
         -4   -1    0    0    0  501 -0.00000000000E+00  0.00000000000E+00  0.40616307866E+03  0.40616307866E+03  0.00000000000E+00 0. -1.
         21   -1    0    0  501  502  0.00000000000E+00 -0.00000000000E+00 -0.83646844972E+03  0.83646844972E+03  0.00000000000E+00 0. -1.
   -9000010    2    1    2    0  502 -0.18131352096E+03  0.48145290491E+02 -0.36319800906E+03  0.10433930505E+04  0.95998109466E+03 0.  0.
         13    1    3    3    0    0  0.32788551966E+03 -0.12660095777E+03  0.62599164658E+02  0.35700893979E+03  0.10566000000E+00 0. -1.
         -4    1    3    3    0  502 -0.50919904062E+03  0.17474624826E+03 -0.42579717372E+03  0.68638411068E+03  0.00000000000E+00 0. -1.
        -13    1    1    2    0    0  0.18131352096E+03 -0.48145290491E+02 -0.67107362008E+02  0.19923847791E+03  0.10566000000E+00 0.  1.
<mgrwt>
<rscale>  1 0.64730188E+03</rscale>
<asrwt>0</asrwt>
<pdfrwt beam="2">  1       21 0.12868745E+00 0.97813918E+03</pdfrwt>
<pdfrwt beam="1">  1       -4 0.62486628E-01 0.97813918E+03</pdfrwt>
<totfact> 0.39311078E+01</totfact>
</mgrwt>
</event>
<event>
 6    2  0.2220137E-005  0.1118554E+04  0.7818608E-02  0.9461996E-01
         21   -1    0    0  501  502  0.00000000000E+00  0.00000000000E+00  0.70010275445E+03  0.70010275445E+03  0.00000000000E+00 0. -1.
         -4   -1    0    0    0  501 -0.00000000000E+00 -0.00000000000E+00 -0.83666917835E+03  0.83666917835E+03  0.00000000000E+00 0. -1.
   -9000010    2    1    2    0  502 -0.29782598332E+03  0.28481097238E+03 -0.10519809039E+03  0.11234904430E+04  0.10398781327E+04 0.  0.
         13    1    3    3    0    0 -0.36268971229E+03  0.64258538440E+03 -0.16206595594E+03  0.75546355894E+03  0.10566000000E+00 0. -1.
         -4    1    3    3    0  502  0.64863728968E+02 -0.35777441203E+03  0.56867865545E+02  0.36802688403E+03  0.00000000000E+00 0. -1.
        -13    1    1    2    0    0  0.29782598332E+03 -0.28481097238E+03 -0.31368333501E+02  0.41328148983E+03  0.10566000000E+00 0.  1.
<mgrwt>
<rscale>  1 0.87144655E+03</rscale>
<asrwt>0</asrwt>
<pdfrwt beam="1">  1       21 0.10770812E+00 0.11185545E+04</pdfrwt>
<pdfrwt beam="2">  1       -4 0.12871833E+00 0.11185545E+04</pdfrwt>
<totfact> 0.11138056E+01</totfact>
</mgrwt>
</event>
<event>
 6    2  0.2220137E-005  0.1006030E+04  0.7818608E-02  0.9758413E-01
         21   -1    0    0  501  502  0.00000000000E+00  0.00000000000E+00  0.65949788032E+03  0.65949788032E+03  0.00000000000E+00 0. -1.
         -4   -1    0    0    0  501 -0.00000000000E+00 -0.00000000000E+00 -0.64321225691E+03  0.64321225691E+03  0.00000000000E+00 0. -1.
   -9000010    2    1    2    0  502 -0.32950961007E+02 -0.20295811447E+03 -0.17586507466E+03  0.10212857886E+04  0.98479356999E+03 0.  0.
         13    1    3    3    0    0  0.22579291650E+02 -0.59665577699E+03 -0.18014982903E+03  0.62366811101E+03  0.10566000000E+00 0. -1.
         -4    1    3    3    0  502 -0.55530252657E+02  0.39369766252E+03  0.42847543700E+01  0.39761767762E+03  0.00000000000E+00 0. -1.
        -13    1    1    2    0    0  0.32950961007E+02  0.20295811447E+03  0.19215069807E+03  0.28142434861E+03  0.10566000000E+00 0.  1.
<mgrwt>
<rscale>  1 0.67642902E+03</rscale>
<asrwt>0</asrwt>
<pdfrwt beam="1">  1       21 0.10146121E+00 0.10060299E+04</pdfrwt>
<pdfrwt beam="2">  1       -4 0.98955732E-01 0.10060299E+04</pdfrwt>
<totfact> 0.25141049E+01</totfact>
</mgrwt>
</event>
<event>
 6    2  0.2220137E-005  0.1163283E+04  0.7818608E-02  0.9343348E-01
         21   -1    0    0  501  502  0.00000000000E+00  0.00000000000E+00  0.13753604084E+04  0.13753604084E+04  0.00000000000E+00 0. -1.
         -4   -1    0    0    0  501 -0.00000000000E+00 -0.00000000000E+00 -0.53971322311E+03  0.53971322311E+03  0.00000000000E+00 0. -1.
   -9000010    2    1    2    0  502  0.23757544913E+03 -0.50688078036E+03  0.57155829311E+03  0.12961122647E+04  0.10197342304E+04 0.  0.
         13    1    3    3    0    0  0.59906541738E+03 -0.11571982492E+03  0.42542000846E+03  0.74380955018E+03  0.10566000000E+00 0. -1.
         -4    1    3    3    0  502 -0.36148996825E+03 -0.39116095544E+03  0.14613828465E+03  0.55230271450E+03  0.00000000000E+00 0. -1.
        -13    1    1    2    0    0 -0.23757544913E+03  0.50688078036E+03  0.26408889221E+03  0.61896136687E+03  0.10566000000E+00 0.  1.
<mgrwt>
<rscale>  1 0.96888303E+03</rscale>
<asrwt>0</asrwt>
<pdfrwt beam="1">  1       21 0.21159391E+00 0.11632833E+04</pdfrwt>
<pdfrwt beam="2">  1       -4 0.83032804E-01 0.11632833E+04</pdfrwt>
<totfact> 0.47449072E+00</totfact>
</mgrwt>
</event>
<event>
 6    2  0.2220137E-005  0.1072685E+04  0.7818608E-02  0.9568412E-01
         -4   -1    0    0    0  501 -0.00000000000E+00  0.00000000000E+00  0.32199970657E+03  0.32199970657E+03  0.00000000000E+00 0. -1.
         21   -1    0    0  501  502  0.00000000000E+00 -0.00000000000E+00 -0.20865942192E+04  0.20865942192E+04  0.00000000000E+00 0. -1.
   -9000010    2    1    2    0  502  0.28850559346E+03  0.14383929204E+03 -0.17883029918E+04  0.20853489373E+04  0.10230969556E+04 0.  0.
         13    1    3    3    0    0  0.47188798174E+03  0.25663943282E+03 -0.37348249948E+03  0.65424097577E+03  0.10566000000E+00 0. -1.
         -4    1    3    3    0  502 -0.18338238828E+03 -0.11280014079E+03 -0.14148204923E+04  0.14311079616E+04  0.00000000000E+00 0. -1.
        -13    1    1    2    0    0 -0.28850559346E+03 -0.14383929204E+03  0.23708479202E+02  0.32324498843E+03  0.10566000000E+00 0.  1.
<mgrwt>
<rscale>  1 0.79422620E+03</rscale>
<asrwt>0</asrwt>
<pdfrwt beam="2">  1       21 0.32101449E+00 0.10726848E+04</pdfrwt>
<pdfrwt beam="1">  1       -4 0.49538417E-01 0.10726848E+04</pdfrwt>
<totfact> 0.30286576E+00</totfact>
</mgrwt>
</event>
<event>
 6    2  0.2220137E-005  0.1087725E+04  0.7818608E-02  0.9496841E-01
         -4   -1    0    0    0  501 -0.00000000000E+00  0.00000000000E+00  0.13784101629E+04  0.13784101629E+04  0.00000000000E+00 0. -1.
         21   -1    0    0  501  502  0.00000000000E+00 -0.00000000000E+00 -0.45640420432E+03  0.45640420432E+03  0.00000000000E+00 0. -1.
   -9000010    2    1    2    0  502 -0.21914295520E+03  0.33041229106E+03  0.35746510076E+03  0.11449576370E+04  0.10128922822E+04 0.  0.
         13    1    3    3    0    0  0.31977978927E+02  0.56737696481E+03 -0.94622885187E+02  0.57610130437E+03  0.10566000000E+00 0. -1.
         -4    1    3    3    0  502 -0.25112093413E+03 -0.23696467375E+03  0.45208798595E+03  0.56885633266E+03  0.00000000000E+00 0. -1.
        -13    1    1    2    0    0  0.21914295520E+03 -0.33041229106E+03  0.56454085784E+03  0.68985673022E+03  0.10566000000E+00 0.  1.
<mgrwt>
<rscale>  1 0.84517109E+03</rscale>
<asrwt>0</asrwt>
<pdfrwt beam="2">  1       21 0.70216032E-01 0.10877255E+04</pdfrwt>
<pdfrwt beam="1">  1       -4 0.21206310E+00 0.10877255E+04</pdfrwt>
<totfact> 0.76685334E+00</totfact>
</mgrwt>
</event>
<event>
 6    2  0.2220137E-005  0.9040561E+03  0.7818608E-02  0.1016360E+00
         -4   -1    0    0    0  501 -0.00000000000E+00  0.00000000000E+00  0.26924581882E+03  0.26924581882E+03  0.00000000000E+00 0. -1.
         21   -1    0    0  501  502  0.00000000000E+00 -0.00000000000E+00 -0.12887588269E+04  0.12887588269E+04  0.00000000000E+00 0. -1.
   -9000010    2    1    2    0  502 -0.42395035766E+02  0.65673331212E+02 -0.11144472432E+04  0.14350296660E+04  0.90067039417E+03 0.  0.
         13    1    3    3    0    0 -0.42470468721E+03  0.21893903762E+03 -0.47020791559E+03  0.67037591587E+03  0.10566000000E+00 0. -1.
         -4    1    3    3    0  502  0.38230965144E+03 -0.15326570641E+03 -0.64423932759E+03  0.76465375012E+03  0.00000000000E+00 0. -1.
        -13    1    1    2    0    0  0.42395035766E+02 -0.65673331212E+02  0.94934235082E+02  0.12297497975E+03  0.10566000000E+00 0.  1.
<mgrwt>
<rscale>  1 0.49023542E+03</rscale>
<asrwt>0</asrwt>
<pdfrwt beam="2">  1       21 0.19827059E+00 0.90405613E+03</pdfrwt>
<pdfrwt beam="1">  1       -4 0.41422434E-01 0.90405613E+03</pdfrwt>
<totfact> 0.27430217E+01</totfact>
</mgrwt>
</event>
<event>
 6    2  0.2220137E-005  0.1035313E+04  0.7818608E-02  0.9594169E-01
         -4   -1    0    0    0  501 -0.00000000000E+00  0.00000000000E+00  0.56195333150E+03  0.56195333150E+03  0.00000000000E+00 0. -1.
         21   -1    0    0  501  502  0.00000000000E+00 -0.00000000000E+00 -0.84235952760E+03  0.84235952760E+03  0.00000000000E+00 0. -1.
   -9000010    2    1    2    0  502 -0.16591640274E+03 -0.28313576973E+03 -0.29277052192E+03  0.10759121823E+04  0.98192582650E+03 0.  0.
         13    1    3    3    0    0  0.21273369085E+03 -0.46108826864E+03  0.81814325629E+02  0.51434580755E+03  0.10566000000E+00 0. -1.
         -4    1    3    3    0  502 -0.37865009360E+03  0.17795249891E+03 -0.37458484755E+03  0.56156637476E+03  0.00000000000E+00 0. -1.
        -13    1    1    2    0    0  0.16591640274E+03  0.28313576973E+03  0.12364325813E+02  0.32840067679E+03  0.10566000000E+00 0.  1.
<mgrwt>
<rscale>  1 0.77683300E+03</rscale>
<asrwt>0</asrwt>
<pdfrwt beam="2">  1       21 0.12959377E+00 0.10353127E+04</pdfrwt>
<pdfrwt beam="1">  1       -4 0.86454359E-01 0.10353127E+04</pdfrwt>
<totfact> 0.18412143E+01</totfact>
</mgrwt>
</event>
<event>
 6    2  0.2220137E-005  0.1022111E+04  0.7818608E-02  0.9756888E-01
         21   -1    0    0  501  502  0.00000000000E+00  0.00000000000E+00  0.18322236826E+04  0.18322236826E+04  0.00000000000E+00 0. -1.
         -4   -1    0    0    0  501 -0.00000000000E+00 -0.00000000000E+00 -0.21709235250E+03  0.21709235250E+03  0.00000000000E+00 0. -1.
   -9000010    2    1    2    0  502  0.14025397639E+03 -0.13841815229E+03  0.11193146731E+04  0.15157760354E+04  0.10029361342E+04 0.  0.
         13    1    3    3    0    0  0.36617311290E+03  0.14786060507E+03  0.65053680923E+02  0.40022181313E+03  0.10566000000E+00 0. -1.
         -4    1    3    3    0  502 -0.22591913651E+03 -0.28627875736E+03  0.10542609922E+04  0.11155542222E+04  0.00000000000E+00 0. -1.
        -13    1    1    2    0    0 -0.14025397639E+03  0.13841815229E+03  0.49581665703E+03  0.53353999975E+03  0.10566000000E+00 0.  1.
<mgrwt>
<rscale>  1 0.67728386E+03</rscale>
<asrwt>0</asrwt>
<pdfrwt beam="1">  1       21 0.28188056E+00 0.10221114E+04</pdfrwt>
<pdfrwt beam="2">  1       -4 0.33398825E-01 0.10221114E+04</pdfrwt>
<totfact> 0.11999744E+01</totfact>
</mgrwt>
</event>
<event>
 6    2  0.2220137E-005  0.1058685E+04  0.7818608E-02  0.9569398E-01
         21   -1    0    0  501  502  0.00000000000E+00  0.00000000000E+00  0.55014756870E+03  0.55014756870E+03  0.00000000000E+00 0. -1.
         -4   -1    0    0    0  501 -0.00000000000E+00 -0.00000000000E+00 -0.11863523262E+04  0.11863523262E+04  0.00000000000E+00 0. -1.
   -9000010    2    1    2    0  502  0.13717659647E+03 -0.30474532166E+03 -0.47741488064E+02  0.10597605357E+04  0.10045526435E+04 0.  0.
         13    1    3    3    0    0  0.36598869103E+03 -0.58514983690E+03 -0.87351463456E+02  0.69568552013E+03  0.10566000000E+00 0. -1.
         -4    1    3    3    0  502 -0.22881209457E+03  0.28040451524E+03  0.39609975392E+02  0.36407501554E+03  0.00000000000E+00 0. -1.
        -13    1    1    2    0    0 -0.13717659647E+03  0.30474532166E+03 -0.58846326945E+03  0.67673935924E+03  0.10566000000E+00 0.  1.
<mgrwt>
<rscale>  1 0.79355193E+03</rscale>
<asrwt>0</asrwt>
<pdfrwt beam="1">  1       21 0.84638089E-01 0.10586846E+04</pdfrwt>
<pdfrwt beam="2">  1       -4 0.18251574E+00 0.10586846E+04</pdfrwt>
<totfact> 0.78309305E+00</totfact>
</mgrwt>
</event>
<event>
 6    2  0.2220137E-005  0.1021222E+04  0.7818608E-02  0.9685590E-01
         21   -1    0    0  501  502  0.00000000000E+00  0.00000000000E+00  0.46643705409E+03  0.46643705409E+03  0.00000000000E+00 0. -1.
         -4   -1    0    0    0  501 -0.00000000000E+00 -0.00000000000E+00 -0.10555737735E+04  0.10555737735E+04  0.00000000000E+00 0. -1.
   -9000010    2    1    2    0  502  0.24922886119E+03  0.26835709484E+02 -0.17236946649E+03  0.10356671890E+04  0.98997985473E+03 0.  0.
         13    1    3    3    0    0  0.79635409420E+02  0.69985871529E+02  0.41212239043E+03  0.42554047576E+03  0.10566000000E+00 0. -1.
         -4    1    3    3    0  502  0.16959345177E+03 -0.43150162045E+02 -0.58449185692E+03  0.61012671321E+03  0.00000000000E+00 0. -1.
        -13    1    1    2    0    0 -0.24922886119E+03 -0.26835709484E+02 -0.41676725291E+03  0.48634363861E+03  0.10566000000E+00 0.  1.
<mgrwt>
<rscale>  1 0.71881252E+03</rscale>
<asrwt>0</asrwt>
<pdfrwt beam="1">  1       21 0.71759547E-01 0.10212225E+04</pdfrwt>
<pdfrwt beam="2">  1       -4 0.16239596E+00 0.10212225E+04</pdfrwt>
<totfact> 0.16123097E+01</totfact>
</mgrwt>
</event>
