<event>
 6    1  0.1144920E-005  0.1728397E+03  0.7818608E-02  0.1080539E+00
         21   -1    0    0  503  502  0.00000000000E+00  0.00000000000E+00  0.91171770164E+02  0.91171770164E+02  0.00000000000E+00 0. -1.
         21   -1    0    0  501  503 -0.00000000000E+00 -0.00000000000E+00 -0.93461585822E+03  0.93461585822E+03  0.00000000000E+00 0. -1.
        -13    1    1    2    0    0 -0.97646044023E+02 -0.14209544118E+03 -0.14241965329E+03  0.22362744269E+03  0.10566000000E+00 0.  1.
         13    1    1    2    0    0  0.13250827283E+03  0.94292992148E+02 -0.53878792945E+03  0.56279841402E+03  0.10566000000E+00 0. -1.
          4    1    1    2  501    0 -0.31459276763E+01  0.33519050963E+02 -0.19117321928E+03  0.19411497472E+03  0.00000000000E+00 0.  1.
         -4    1    1    2    0  502 -0.31716301133E+02  0.14283398071E+02  0.28936713977E+02  0.45246796946E+02  0.00000000000E+00 0. -1.
</event>
<event>
 6    1  0.1144920E-005  0.2150229E+03  0.7818608E-02  0.1050298E+00
         21   -1    0    0  503  502  0.00000000000E+00  0.00000000000E+00  0.27737333332E+03  0.27737333332E+03  0.00000000000E+00 0.  1.
         21   -1    0    0  501  503 -0.00000000000E+00 -0.00000000000E+00 -0.60546005963E+03  0.60546005963E+03  0.00000000000E+00 0. -1.
        -13    1    1    2    0    0 -0.15216163462E+03  0.95965210973E+01 -0.73747131018E+02  0.16936323912E+03  0.10566000000E+00 0.  1.
         13    1    1    2    0    0  0.29574549009E+03  0.16852799255E+03 -0.18652535893E+03  0.38814790978E+03  0.10566000000E+00 0. -1.
          4    1    1    2  501    0 -0.59842856864E+02 -0.18591739384E+03 -0.11721441031E+03  0.22778424624E+03  0.00000000000E+00 0.  1.
         -4    1    1    2    0  502 -0.83740998602E+02  0.77928801945E+01  0.49400173959E+02  0.97537997805E+02  0.00000000000E+00 0. -1.
</event>
<event>
 6    1  0.1144920E-005  0.3244647E+02  0.7818608E-02  0.1388997E+00
         21   -1    0    0  501  502  0.00000000000E+00  0.00000000000E+00  0.29339495410E+03  0.29339495410E+03  0.00000000000E+00 0.  1.
         21   -1    0    0  502  503 -0.00000000000E+00 -0.00000000000E+00 -0.26780464359E+03  0.26780464359E+03  0.00000000000E+00 0.  1.
        -13    1    1    2    0    0  0.23701378335E+01  0.31030806428E+02 -0.18034891842E+03  0.18301440391E+03  0.10566000000E+00 0.  1.
         13    1    1    2    0    0 -0.25663521503E+02 -0.27817574554E+02  0.40288760522E+02  0.55277745779E+02  0.10566000000E+00 0. -1.
          4    1    1    2  501    0 -0.94365666499E+01 -0.49636402507E+01  0.24074003287E+03  0.24097603603E+03  0.00000000000E+00 0.  1.
         -4    1    1    2    0  503  0.32729950319E+02  0.17504083773E+01 -0.75089564452E+02  0.81931411967E+02  0.00000000000E+00 0. -1.
</event>
<event>
 6    1  0.1144920E-005  0.6992637E+02  0.7818608E-02  0.1245723E+00
         21   -1    0    0  503  502  0.00000000000E+00  0.00000000000E+00  0.41673040180E+03  0.41673040180E+03  0.00000000000E+00 0. -1.
         21   -1    0    0  501  503 -0.00000000000E+00 -0.00000000000E+00 -0.12780093982E+03  0.12780093982E+03  0.00000000000E+00 0. -1.
        -13    1    1    2    0    0  0.18959554659E+02  0.47359899454E+02  0.30028800577E+02  0.59195986496E+02  0.10566000000E+00 0.  1.
         13    1    1    2    0    0  0.72505707797E+02 -0.28987274907E+02 -0.81980143127E+02  0.11321702523E+03  0.10566000000E+00 0. -1.
          4    1    1    2  501    0 -0.22420651333E+02 -0.27918421334E+02  0.14923842491E+02  0.38792330823E+02  0.00000000000E+00 0.  1.
         -4    1    1    2    0  502 -0.69044611123E+02  0.95457967869E+01  0.32595696203E+03  0.33332599908E+03  0.00000000000E+00 0. -1.
</event>
<event>
 6    1  0.1144920E-005  0.4601465E+02  0.7818608E-02  0.1308924E+00
         21   -1    0    0  501  502  0.00000000000E+00  0.00000000000E+00  0.10048012604E+03  0.10048012604E+03  0.00000000000E+00 0. -1.
         21   -1    0    0  502  503 -0.00000000000E+00 -0.00000000000E+00 -0.44323693565E+03  0.44323693565E+03  0.00000000000E+00 0. -1.
        -13    1    1    2    0    0  0.23280078375E+02  0.56734755507E+02 -0.63674001996E+02  0.88403530618E+02  0.10566000000E+00 0.  1.
         13    1    1    2    0    0 -0.13577412907E+02 -0.44235058227E+02  0.71197800143E+02  0.84913040381E+02  0.10566000000E+00 0. -1.
          4    1    1    2  501    0  0.10665915425E+02  0.31418142448E-01  0.67156860119E+01  0.12604093683E+02  0.00000000000E+00 0.  1.
         -4    1    1    2    0  503 -0.20368580892E+02 -0.12531115423E+02 -0.35699629377E+03  0.35779639700E+03  0.00000000000E+00 0. -1.
</event>
<event>
 6    1  0.1144920E-005  0.9786477E+02  0.7818608E-02  0.1168137E+00
         21   -1    0    0  503  502  0.00000000000E+00  0.00000000000E+00  0.47138538368E+03  0.47138538368E+03  0.00000000000E+00 0.  1.
         21   -1    0    0  501  503 -0.00000000000E+00 -0.00000000000E+00 -0.59144789241E+02  0.59144789241E+02  0.00000000000E+00 0. -1.
        -13    1    1    2    0    0  0.59187985331E+02 -0.90459904091E+02  0.22790395916E+03  0.25224281481E+03  0.10566000000E+00 0.  1.
         13    1    1    2    0    0 -0.31485845978E+02  0.81767211209E+02 -0.15910982910E+00  0.87620042261E+02  0.10566000000E+00 0. -1.
          4    1    1    2  501    0 -0.44253746727E+01  0.10198563482E+02  0.11101039292E+02  0.15710751460E+02  0.00000000000E+00 0.  1.
         -4    1    1    2    0  502 -0.23276764680E+02 -0.15058705989E+01  0.17339470581E+03  0.17495656439E+03  0.00000000000E+00 0. -1.
</event>
<event>
 6    1  0.1144920E-005  0.2005880E+03  0.7818608E-02  0.1059734E+00
         21   -1    0    0  501  502  0.00000000000E+00  0.00000000000E+00  0.20387582126E+03  0.20387582126E+03  0.00000000000E+00 0. -1.
         21   -1    0    0  502  503 -0.00000000000E+00 -0.00000000000E+00 -0.13238344734E+04  0.13238344734E+04  0.00000000000E+00 0. -1.
        -13    1    1    2    0    0 -0.69634941781E+02  0.18054505889E+03 -0.34835535360E+03  0.39849342147E+03  0.10566000000E+00 0.  1.
         13    1    1    2    0    0  0.16952219457E+03 -0.20135274823E+03 -0.62389402565E+02  0.27050536481E+03  0.10566000000E+00 0. -1.
          4    1    1    2  501    0 -0.96427431537E+02  0.31151246968E+02  0.40347034917E+02  0.10907122887E+03  0.00000000000E+00 0.  1.
         -4    1    1    2    0  503 -0.34598212500E+01 -0.10343557622E+02 -0.74956093088E+03  0.74964027950E+03  0.00000000000E+00 0. -1.
</event>
<event>
 6    1  0.1144920E-005  0.4614933E+03  0.7818608E-02  0.9566616E-01
         21   -1    0    0  501  502  0.00000000000E+00  0.00000000000E+00  0.54655994500E+03  0.54655994500E+03  0.00000000000E+00 0. -1.
         21   -1    0    0  502  503 -0.00000000000E+00 -0.00000000000E+00 -0.95715364905E+03  0.95715364905E+03  0.00000000000E+00 0.  1.
        -13    1    1    2    0    0  0.39027605149E+03  0.22830394947E+03 -0.43384389140E+02  0.45422495098E+03  0.10566000000E+00 0.  1.
         13    1    1    2    0    0 -0.40063219307E+03 -0.24826424007E+03 -0.40994946240E+02  0.47309817565E+03  0.10566000000E+00 0. -1.
          4    1    1    2  501    0  0.20488331095E+02 -0.47529436701E-01  0.12396807227E+03  0.12564973901E+03  0.00000000000E+00 0.  1.
         -4    1    1    2    0  503 -0.10132189511E+02  0.20007820043E+02 -0.45018244094E+03  0.45074072842E+03  0.00000000000E+00 0. -1.
</event>
<event>
 6    1  0.1144920E-005  0.1295844E+03  0.7818608E-02  0.1129875E+00
         21   -1    0    0  503  502  0.00000000000E+00  0.00000000000E+00  0.79594738752E+03  0.79594738752E+03  0.00000000000E+00 0.  1.
         21   -1    0    0  501  503 -0.00000000000E+00 -0.00000000000E+00 -0.63508600444E+02  0.63508600444E+02  0.00000000000E+00 0.  1.
        -13    1    1    2    0    0 -0.15363281159E+03  0.74819558136E+02  0.40087542533E+03  0.43577760942E+03  0.10566000000E+00 0.  1.
         13    1    1    2    0    0  0.10151195662E+03  0.25834653733E+02  0.11529138097E+03  0.15576976716E+03  0.10566000000E+00 0. -1.
          4    1    1    2  501    0  0.34027541846E+02 -0.12347562357E+03  0.16418624581E+03  0.20823358647E+03  0.00000000000E+00 0.  1.
         -4    1    1    2    0  502  0.18093313124E+02  0.22821411705E+02  0.52085734962E+02  0.59675024915E+02  0.00000000000E+00 0. -1.
</event>
<event>
 6    1  0.1144920E-005  0.6991366E+02  0.7818608E-02  0.1226954E+00
         21   -1    0    0  501  502  0.00000000000E+00  0.00000000000E+00  0.94200130326E+02  0.94200130326E+02  0.00000000000E+00 0. -1.
         21   -1    0    0  502  503 -0.00000000000E+00 -0.00000000000E+00 -0.38337785386E+03  0.38337785386E+03  0.00000000000E+00 0.  1.
        -13    1    1    2    0    0  0.14161608438E+02 -0.56156659810E+02 -0.48982662975E+02  0.75851394389E+02  0.10566000000E+00 0.  1.
         13    1    1    2    0    0 -0.90264375948E+01  0.11247490244E+03  0.12452615132E+02  0.11352162368E+03  0.10566000000E+00 0. -1.
          4    1    1    2  501    0  0.56208022870E+02 -0.47101826045E+02 -0.10517814193E+03  0.12821998827E+03  0.00000000000E+00 0.  1.
         -4    1    1    2    0  503 -0.61343193713E+02 -0.92164165873E+01 -0.14746953375E+03  0.15998497784E+03  0.00000000000E+00 0. -1.
</event>
<event>
 6    1  0.1144920E-005  0.1761555E+03  0.7818608E-02  0.1092380E+00
         21   -1    0    0  503  502  0.00000000000E+00  0.00000000000E+00  0.23365162324E+04  0.23365162324E+04  0.00000000000E+00 0.  1.
         21   -1    0    0  501  503 -0.00000000000E+00 -0.00000000000E+00 -0.65439580467E+02  0.65439580467E+02  0.00000000000E+00 0.  1.
        -13    1    1    2    0    0  0.19554564356E+03  0.18712009739E+03  0.13160951258E+04  0.13436362681E+04  0.10566000000E+00 0.  1.
         13    1    1    2    0    0 -0.10113172076E+03 -0.70918497160E+02  0.71250909405E+03  0.72313641760E+03  0.10566000000E+00 0. -1.
          4    1    1    2  501    0 -0.11539492577E+03 -0.11862277621E+03  0.10476366789E+03  0.19586418264E+03  0.00000000000E+00 0.  1.
         -4    1    1    2    0  502  0.20981002979E+02  0.24211759837E+01  0.13770876414E+03  0.13931894452E+03  0.00000000000E+00 0. -1.
</event>
<event>
 6    1  0.1144920E-005  0.4937212E+03  0.7818608E-02  0.9561219E-01
         21   -1    0    0  501  502  0.00000000000E+00  0.00000000000E+00  0.15959127245E+04  0.15959127245E+04  0.00000000000E+00 0. -1.
         21   -1    0    0  502  503 -0.00000000000E+00 -0.00000000000E+00 -0.17310660110E+04  0.17310660110E+04  0.00000000000E+00 0. -1.
        -13    1    1    2    0    0  0.24605081394E+03 -0.28852216043E+03 -0.41719900503E+03  0.56377394500E+03  0.10566000000E+00 0.  1.
         13    1    1    2    0    0 -0.69150098348E+03  0.36150063995E+03  0.43302969593E+03  0.89239624134E+03  0.10566000000E+00 0. -1.
          4    1    1    2  501    0 -0.31355372972E+02 -0.97478913481E+02  0.80009507327E+03  0.80662099170E+03  0.00000000000E+00 0.  1.
         -4    1    1    2    0  503  0.47680554252E+03  0.24500433960E+02 -0.95107905068E+03  0.10641875574E+04  0.00000000000E+00 0. -1.
</event>
<event>
 6    1  0.1144920E-005  0.1198899E+03  0.7818608E-02  0.1135289E+00
         21   -1    0    0  503  502  0.00000000000E+00  0.00000000000E+00  0.20445704809E+03  0.20445704809E+03  0.00000000000E+00 0. -1.
         21   -1    0    0  501  503 -0.00000000000E+00 -0.00000000000E+00 -0.26853247307E+03  0.26853247307E+03  0.00000000000E+00 0. -1.
        -13    1    1    2    0    0  0.63770004150E+02 -0.12123011754E+03 -0.46301948925E+02  0.14459334863E+03  0.10566000000E+00 0.  1.
         13    1    1    2    0    0 -0.51978020179E+02  0.75372613655E+02 -0.14610819761E+03  0.17242494612E+03  0.10566000000E+00 0. -1.
          4    1    1    2  501    0 -0.43387844804E+02  0.29301212197E+02  0.67155210992E+02  0.85152148982E+02  0.00000000000E+00 0.  1.
         -4    1    1    2    0  502  0.31595860833E+02  0.16556291691E+02  0.61179510557E+02  0.70819077432E+02  0.00000000000E+00 0. -1.
</event>
<event>
 6    1  0.1144920E-005  0.1320679E+03  0.7818608E-02  0.1120279E+00
         21   -1    0    0  501  502  0.00000000000E+00  0.00000000000E+00  0.10086415436E+03  0.10086415436E+03  0.00000000000E+00 0.  1.
         21   -1    0    0  502  503 -0.00000000000E+00 -0.00000000000E+00 -0.77865663598E+03  0.77865663598E+03  0.00000000000E+00 0.  1.
        -13    1    1    2    0    0 -0.12506761855E+02  0.11549316439E+03 -0.42027192141E+03  0.43603163785E+03  0.10566000000E+00 0.  1.
         13    1    1    2    0    0  0.31282363204E+02 -0.14220620793E+03 -0.14567668581E+03  0.20596820088E+03  0.10566000000E+00 0. -1.
          4    1    1    2  501    0 -0.50396532490E+01  0.10193440706E+02  0.61656064226E+02  0.62695889770E+02  0.00000000000E+00 0.  1.
         -4    1    1    2    0  503 -0.13735948100E+02  0.16519602830E+02 -0.17349993862E+03  0.17482506184E+03  0.00000000000E+00 0. -1.
</event>
<event>
 6    1  0.1144920E-005  0.1141325E+03  0.7818608E-02  0.1143081E+00
         21   -1    0    0  503  502  0.00000000000E+00  0.00000000000E+00  0.81086342328E+03  0.81086342328E+03  0.00000000000E+00 0. -1.
         21   -1    0    0  501  503 -0.00000000000E+00 -0.00000000000E+00 -0.22080546695E+03  0.22080546695E+03  0.00000000000E+00 0.  1.
        -13    1    1    2    0    0  0.26388033879E+02 -0.16554801421E+03  0.15871565108E+03  0.23085307536E+03  0.10566000000E+00 0.  1.
         13    1    1    2    0    0 -0.92829260209E+02  0.26090261587E+02 -0.28105783217E+01  0.96467008947E+02  0.10566000000E+00 0. -1.
          4    1    1    2  501    0  0.21685009841E+02  0.83350935893E+02 -0.11881272332E+03  0.14674495353E+03  0.00000000000E+00 0.  1.
         -4    1    1    2    0  502  0.44756216489E+02  0.56106816731E+02  0.55296560690E+03  0.55760385240E+03  0.00000000000E+00 0. -1.
</event>
<event>
 6    1  0.1144920E-005  0.8652622E+02  0.7818608E-02  0.1189006E+00
         21   -1    0    0  503  502  0.00000000000E+00  0.00000000000E+00  0.31409386252E+03  0.31409386252E+03  0.00000000000E+00 0.  1.
         21   -1    0    0  501  503 -0.00000000000E+00 -0.00000000000E+00 -0.12587500065E+03  0.12587500065E+03  0.00000000000E+00 0. -1.
        -13    1    1    2    0    0  0.67222286656E+02  0.97208849374E+02  0.20930922153E+03  0.24037212318E+03  0.10566000000E+00 0.  1.
         13    1    1    2    0    0 -0.69318960936E+01 -0.82871714250E+02 -0.57361933614E+02  0.10102561456E+03  0.10566000000E+00 0. -1.
          4    1    1    2  501    0 -0.24052960844E+02  0.49457074201E+01 -0.18055740404E+02  0.30479742597E+02  0.00000000000E+00 0.  1.
         -4    1    1    2    0  502 -0.36237429718E+02 -0.19282842544E+02  0.54327314365E+02  0.68091382827E+02  0.00000000000E+00 0. -1.
</event>
<event>
 6    1  0.1144920E-005  0.2675674E+03  0.7818608E-02  0.1021671E+00
         21   -1    0    0  503  502  0.00000000000E+00  0.00000000000E+00  0.22517916554E+03  0.22517916554E+03  0.00000000000E+00 0.  1.
         21   -1    0    0  501  503 -0.00000000000E+00 -0.00000000000E+00 -0.43736144859E+03  0.43736144859E+03  0.00000000000E+00 0. -1.
        -13    1    1    2    0    0  0.22399384509E+03 -0.10976998168E+03 -0.80510181256E+02  0.26211560802E+03  0.10566000000E+00 0.  1.
         13    1    1    2    0    0 -0.22380544021E+03  0.18602504002E+03 -0.80521359750E+02  0.30195677029E+03  0.10566000000E+00 0. -1.
          4    1    1    2  501    0  0.13619721124E+02 -0.38724504640E+02 -0.39126591007E+02  0.56709559925E+02  0.00000000000E+00 0.  1.
         -4    1    1    2    0  502 -0.13808126000E+02 -0.37530553697E+02 -0.12024151036E+02  0.41758675896E+02  0.00000000000E+00 0. -1.
</event>
<event>
 6    1  0.1144920E-005  0.1212971E+03  0.7818608E-02  0.1157703E+00
         21   -1    0    0  501  502  0.00000000000E+00  0.00000000000E+00  0.54302238127E+03  0.54302238127E+03  0.00000000000E+00 0. -1.
         21   -1    0    0  502  503 -0.00000000000E+00 -0.00000000000E+00 -0.11446937442E+03  0.11446937442E+03  0.00000000000E+00 0. -1.
        -13    1    1    2    0    0 -0.64085334798E+02  0.15557228264E+02 -0.18536288239E+02  0.68502281955E+02  0.10566000000E+00 0.  1.
         13    1    1    2    0    0 -0.67180457070E+02 -0.24919178902E+02  0.40439798549E+03  0.41069687255E+03  0.10566000000E+00 0. -1.
          4    1    1    2  501    0  0.16816692673E+01  0.26812412829E+02  0.39162180080E+02  0.47491155407E+02  0.00000000000E+00 0.  1.
         -4    1    1    2    0  503  0.12958412260E+03 -0.17450462191E+02  0.35291295161E+01  0.13080144577E+03  0.00000000000E+00 0. -1.
</event>
<event>
 6    1  0.1144920E-005  0.6430010E+02  0.7818608E-02  0.1242526E+00
         21   -1    0    0  503  502  0.00000000000E+00  0.00000000000E+00  0.71096216121E+02  0.71096216121E+02  0.00000000000E+00 0.  1.
         21   -1    0    0  501  503 -0.00000000000E+00 -0.00000000000E+00 -0.39957264156E+03  0.39957264156E+03  0.00000000000E+00 0. -1.
        -13    1    1    2    0    0 -0.49365772030E+02 -0.11698368638E+01  0.41011393304E+02  0.64189512470E+02  0.10566000000E+00 0.  1.
         13    1    1    2    0    0  0.67198981686E+02 -0.26725739731E+02 -0.14710660285E+03  0.16392172544E+03  0.10566000000E+00 0. -1.
          4    1    1    2  501    0 -0.25813321437E+01  0.13885014885E+02 -0.22137276127E+03  0.22182280394E+03  0.00000000000E+00 0.  1.
         -4    1    1    2    0  502 -0.15251877512E+02  0.14010561709E+02 -0.10084546216E+01  0.20734815837E+02  0.00000000000E+00 0. -1.
</event>
<event>
 6    1  0.1144920E-005  0.6168968E+02  0.7818608E-02  0.1264954E+00
         21   -1    0    0  501  502  0.00000000000E+00  0.00000000000E+00  0.98116098734E+02  0.98116098734E+02  0.00000000000E+00 0. -1.
         21   -1    0    0  502  503 -0.00000000000E+00 -0.00000000000E+00 -0.19759526922E+03  0.19759526922E+03  0.00000000000E+00 0.  1.
        -13    1    1    2    0    0  0.40756081591E+02 -0.10678048717E+02 -0.15240092405E+02  0.44803465175E+02  0.10566000000E+00 0.  1.
         13    1    1    2    0    0 -0.99748598937E+02  0.79198597489E+00 -0.26855221168E+02  0.10330355415E+03  0.10566000000E+00 0. -1.
          4    1    1    2  501    0  0.76246408340E+02 -0.33078392739E+01  0.98480827788E+01  0.76950902008E+02  0.00000000000E+00 0.  1.
         -4    1    1    2    0  503 -0.17253890995E+02  0.13193902016E+02 -0.67231939688E+02  0.70653446619E+02  0.00000000000E+00 0. -1.
</event>
<event>
 6    1  0.1144920E-005  0.1801107E+03  0.7818608E-02  0.1074699E+00
         21   -1    0    0  503  502  0.00000000000E+00  0.00000000000E+00  0.18381313491E+04  0.18381313491E+04  0.00000000000E+00 0. -1.
         21   -1    0    0  501  503 -0.00000000000E+00 -0.00000000000E+00 -0.81416861828E+02  0.81416861828E+02  0.00000000000E+00 0. -1.
        -13    1    1    2    0    0 -0.12204186659E+03 -0.95841827173E+02  0.32356674002E+03  0.35885278242E+03  0.10566000000E+00 0.  1.
         13    1    1    2    0    0  0.17789212373E+03  0.16694588981E+03  0.20704165268E+03  0.31997311593E+03  0.10566000000E+00 0. -1.
          4    1    1    2  501    0 -0.40730795932E+02 -0.71922637661E+02  0.22830910549E+03  0.24281044293E+03  0.00000000000E+00 0.  1.
         -4    1    1    2    0  502 -0.15119461210E+02  0.81857502395E+00  0.99779698911E+03  0.99791186968E+03  0.00000000000E+00 0. -1.
</event>
<event>
 6    1  0.1144920E-005  0.1723233E+03  0.7818608E-02  0.1080965E+00
         21   -1    0    0  503  502  0.00000000000E+00  0.00000000000E+00  0.51552850596E+03  0.51552850596E+03  0.00000000000E+00 0.  1.
         21   -1    0    0  501  503 -0.00000000000E+00 -0.00000000000E+00 -0.30906513108E+03  0.30906513108E+03  0.00000000000E+00 0.  1.
        -13    1    1    2    0    0  0.17210693842E+03  0.53128381446E+02  0.33042101361E+03  0.37632629534E+03  0.10566000000E+00 0.  1.
         13    1    1    2    0    0 -0.16731241103E+03  0.11755665945E+02  0.71282197194E+02  0.18224379651E+03  0.10566000000E+00 0. -1.
          4    1    1    2  501    0 -0.69811353305E+01 -0.30624745420E+02 -0.22092655479E+03  0.22314827782E+03  0.00000000000E+00 0.  1.
         -4    1    1    2    0  502  0.21866079364E+01 -0.34259301971E+02  0.25686718872E+02  0.42875267372E+02  0.00000000000E+00 0. -1.
</event>
<event>
 6    1  0.1144920E-005  0.1660014E+03  0.7818608E-02  0.1086321E+00
         21   -1    0    0  503  502  0.00000000000E+00  0.00000000000E+00  0.64858053850E+02  0.64858053850E+02  0.00000000000E+00 0. -1.
         21   -1    0    0  501  503 -0.00000000000E+00 -0.00000000000E+00 -0.87258517480E+03  0.87258517480E+03  0.00000000000E+00 0.  1.
        -13    1    1    2    0    0  0.15873750668E+03 -0.92392261273E+01 -0.35320427314E+03  0.38734510331E+03  0.10566000000E+00 0.  1.
         13    1    1    2    0    0 -0.15857676549E+03 -0.88124828859E+02 -0.26552534106E+03  0.32158403867E+03  0.10566000000E+00 0. -1.
          4    1    1    2  501    0  0.30181501167E+02  0.70415230178E+02 -0.16357517246E+03  0.18062686594E+03  0.00000000000E+00 0.  1.
         -4    1    1    2    0  502 -0.30342242352E+02  0.26948824808E+02 -0.25422334283E+02  0.47887220736E+02  0.00000000000E+00 0. -1.
</event>
<event>
 6    1  0.1144920E-005  0.8899067E+02  0.7818608E-02  0.1184180E+00
         21   -1    0    0  501  502  0.00000000000E+00  0.00000000000E+00  0.23391092894E+03  0.23391092894E+03  0.00000000000E+00 0. -1.
         21   -1    0    0  502  503 -0.00000000000E+00 -0.00000000000E+00 -0.12965401702E+03  0.12965401702E+03  0.00000000000E+00 0.  1.
        -13    1    1    2    0    0 -0.93282848466E+02  0.14856904115E+02 -0.42321497274E+02  0.10350622065E+03  0.10566000000E+00 0.  1.
         13    1    1    2    0    0  0.10009739388E+03 -0.38094302168E+02  0.98863982164E+02  0.14575583094E+03  0.10566000000E+00 0. -1.
          4    1    1    2  501    0 -0.20046042258E+02  0.22393600945E+02  0.76727446899E+02  0.82403994328E+02  0.00000000000E+00 0.  1.
         -4    1    1    2    0  503  0.13231496843E+02  0.84379710828E+00 -0.29013019864E+02  0.31898900042E+02  0.00000000000E+00 0. -1.
</event>
<event>
 6    1  0.1144920E-005  0.5050425E+02  0.7818608E-02  0.1315049E+00
         21   -1    0    0  501  502  0.00000000000E+00  0.00000000000E+00  0.45471773654E+02  0.45471773654E+02  0.00000000000E+00 0. -1.
         21   -1    0    0  502  503 -0.00000000000E+00 -0.00000000000E+00 -0.28643398559E+03  0.28643398559E+03  0.00000000000E+00 0.  1.
        -13    1    1    2    0    0 -0.34689089705E+01  0.21902331889E+02 -0.12732851085E+03  0.12924514037E+03  0.10566000000E+00 0.  1.
         13    1    1    2    0    0  0.88361747751E+01 -0.53902907627E+02 -0.54932733646E+00  0.54625217253E+02  0.10566000000E+00 0. -1.
          4    1    1    2  501    0  0.30610372665E+02 -0.47131776093E+01 -0.94956374344E+01  0.32394074892E+02  0.00000000000E+00 0.  1.
         -4    1    1    2    0  503 -0.35977638469E+02  0.36713753347E+02 -0.10358873631E+03  0.11564132672E+03  0.00000000000E+00 0. -1.
</event>
<event>
 6    1  0.1144920E-005  0.6182935E+02  0.7818608E-02  0.1249950E+00
         21   -1    0    0  503  502  0.00000000000E+00  0.00000000000E+00  0.26107181104E+02  0.26107181104E+02  0.00000000000E+00 0.  1.
         21   -1    0    0  501  503 -0.00000000000E+00 -0.00000000000E+00 -0.47514274957E+03  0.47514274957E+03  0.00000000000E+00 0. -1.
        -13    1    1    2    0    0 -0.86401934363E+02 -0.13500462924E+02 -0.18645588112E+03  0.20594504978E+03  0.10566000000E+00 0.  1.
         13    1    1    2    0    0  0.47893156722E+02  0.53877149267E+01 -0.85076180116E+02  0.97779085290E+02  0.10566000000E+00 0. -1.
          4    1    1    2  501    0 -0.10460534108E+02  0.43654178645E+00 -0.12456440934E+03  0.12500362161E+03  0.00000000000E+00 0.  1.
         -4    1    1    2    0  502  0.48969311749E+02  0.76762062109E+01 -0.52939097894E+02  0.72522173994E+02  0.00000000000E+00 0. -1.
</event>
<event>
 6    1  0.1144920E-005  0.4406912E+02  0.7818608E-02  0.1322951E+00
         21   -1    0    0  503  502  0.00000000000E+00  0.00000000000E+00  0.20681545424E+03  0.20681545424E+03  0.00000000000E+00 0.  1.
         21   -1    0    0  501  503 -0.00000000000E+00 -0.00000000000E+00 -0.69571726202E+02  0.69571726202E+02  0.00000000000E+00 0. -1.
        -13    1    1    2    0    0  0.74642910244E+01 -0.28288893042E+02  0.37950549522E+02  0.47919020056E+02  0.10566000000E+00 0.  1.
         13    1    1    2    0    0 -0.37945606202E+01  0.43006625126E+02 -0.39749368986E+02  0.58685534792E+02  0.10566000000E+00 0. -1.
          4    1    1    2  501    0  0.40283134659E+01  0.39966377815E+02  0.41925754586E+02  0.58062962055E+02  0.00000000000E+00 0.  1.
         -4    1    1    2    0  502 -0.76980438701E+01 -0.54684109898E+02  0.97116792918E+02  0.11171966354E+03  0.00000000000E+00 0. -1.
</event>
<event>
 6    1  0.1144920E-005  0.9246003E+02  0.7818608E-02  0.1177672E+00
         21   -1    0    0  501  502  0.00000000000E+00  0.00000000000E+00  0.38957220591E+02  0.38957220591E+02  0.00000000000E+00 0. -1.
         21   -1    0    0  502  503 -0.00000000000E+00 -0.00000000000E+00 -0.65966494761E+03  0.65966494761E+03  0.00000000000E+00 0. -1.
        -13    1    1    2    0    0  0.84727526838E+02 -0.33133213099E+02 -0.14636271630E+03  0.17233287412E+03  0.10566000000E+00 0.  1.
         13    1    1    2    0    0 -0.10571313905E+03  0.68823218622E+01 -0.18353366586E+03  0.21191331197E+03  0.10566000000E+00 0. -1.
          4    1    1    2  501    0 -0.19291802959E+02  0.23379864548E+02 -0.11911231971E+02  0.32567916341E+02  0.00000000000E+00 0.  1.
         -4    1    1    2    0  503  0.40277415168E+02  0.28710266884E+01 -0.27890011289E+03  0.28180806578E+03  0.00000000000E+00 0. -1.
</event>
<event>
 6    1  0.1144920E-005  0.2505754E+03  0.7818608E-02  0.1030134E+00
         21   -1    0    0  503  502  0.00000000000E+00  0.00000000000E+00  0.80251711953E+03  0.80251711953E+03  0.00000000000E+00 0.  1.
         21   -1    0    0  501  503 -0.00000000000E+00 -0.00000000000E+00 -0.39250204880E+03  0.39250204880E+03  0.00000000000E+00 0.  1.
        -13    1    1    2    0    0  0.89162889619E+02 -0.22885794727E+03  0.18506544060E+03  0.30753082672E+03  0.10566000000E+00 0.  1.
         13    1    1    2    0    0  0.16453314548E+03  0.17631531154E+03  0.24432251353E+03  0.34329542209E+03  0.10566000000E+00 0. -1.
          4    1    1    2  501    0 -0.27597208410E+03  0.47668276908E+02 -0.21135487538E+03  0.35086142446E+03  0.00000000000E+00 0.  1.
         -4    1    1    2    0  502  0.22276049007E+02  0.48743588183E+01  0.19198199199E+03  0.19333149506E+03  0.00000000000E+00 0. -1.
</event>
<event>
 6    1  0.1144920E-005  0.8767590E+02  0.7818608E-02  0.1191883E+00
         21   -1    0    0  501  502  0.00000000000E+00  0.00000000000E+00  0.43531113680E+02  0.43531113680E+02  0.00000000000E+00 0. -1.
         21   -1    0    0  502  503 -0.00000000000E+00 -0.00000000000E+00 -0.89660241578E+03  0.89660241578E+03  0.00000000000E+00 0.  1.
        -13    1    1    2    0    0  0.12226183976E+03  0.62781378054E+02 -0.58148317608E+03  0.59750494066E+03  0.10566000000E+00 0.  1.
         13    1    1    2    0    0 -0.75327002038E+02 -0.14395976944E+01 -0.12491000539E+03  0.14587237672E+03  0.10566000000E+00 0. -1.
          4    1    1    2  501    0 -0.32308501423E+02 -0.78436099450E+02 -0.52127248975E+02  0.99565611768E+02  0.00000000000E+00 0.  1.
         -4    1    1    2    0  503 -0.14626336296E+02  0.17094319091E+02 -0.94550871656E+02  0.97190600314E+02  0.00000000000E+00 0. -1.
</event>
<event>
 6    1  0.1144920E-005  0.6014166E+02  0.7818608E-02  0.1255248E+00
         21   -1    0    0  501  502  0.00000000000E+00  0.00000000000E+00  0.20324022123E+03  0.20324022123E+03  0.00000000000E+00 0.  1.
         21   -1    0    0  502  503 -0.00000000000E+00 -0.00000000000E+00 -0.10463430765E+03  0.10463430765E+03  0.00000000000E+00 0.  1.
        -13    1    1    2    0    0 -0.68862333259E+02 -0.32794162227E+02 -0.42691034071E+02  0.87407171171E+02  0.10566000000E+00 0.  1.
         13    1    1    2    0    0  0.47524593536E+02  0.70711111727E+01 -0.44046493912E+01  0.48249349263E+02  0.10566000000E+00 0. -1.
          4    1    1    2  501    0  0.10949076353E+02  0.18085450130E+02  0.15492741487E+03  0.15636326186E+03  0.00000000000E+00 0.  1.
         -4    1    1    2    0  503  0.10388663369E+02  0.76376009247E+01 -0.92258178383E+01  0.15854746585E+02  0.00000000000E+00 0. -1.
</event>
<event>
 6    1  0.1144920E-005  0.1110024E+03  0.7818608E-02  0.1147533E+00
         21   -1    0    0  503  502  0.00000000000E+00  0.00000000000E+00  0.45723084581E+03  0.45723084581E+03  0.00000000000E+00 0. -1.
         21   -1    0    0  501  503 -0.00000000000E+00 -0.00000000000E+00 -0.13523099582E+03  0.13523099582E+03  0.00000000000E+00 0. -1.
        -13    1    1    2    0    0  0.22419950533E+02 -0.98386051218E+02  0.82374346433E+02  0.13026132723E+03  0.10566000000E+00 0.  1.
         13    1    1    2    0    0 -0.37295157741E+02  0.10607606462E+03 -0.44491176418E+02  0.12092367932E+03  0.10566000000E+00 0. -1.
          4    1    1    2  501    0  0.13415578738E+02  0.80643309986E+01 -0.26220129643E+02  0.30536967528E+02  0.00000000000E+00 0.  1.
         -4    1    1    2    0  502  0.14596284702E+01 -0.15754344402E+02  0.31033680962E+03  0.31073986756E+03  0.00000000000E+00 0. -1.
</event>
<event>
 6    1  0.1144920E-005  0.5978164E+02  0.7818608E-02  0.1256403E+00
         21   -1    0    0  503  502  0.00000000000E+00  0.00000000000E+00  0.85338239584E+02  0.85338239584E+02  0.00000000000E+00 0.  1.
         21   -1    0    0  501  503 -0.00000000000E+00 -0.00000000000E+00 -0.29093814324E+03  0.29093814324E+03  0.00000000000E+00 0. -1.
        -13    1    1    2    0    0 -0.40199985510E+01  0.45223140242E+02  0.83000640626E+01  0.46154035893E+02  0.10566000000E+00 0.  1.
         13    1    1    2    0    0 -0.21803850485E+02 -0.40355169849E+02 -0.19289653774E+03  0.19827514485E+03  0.10566000000E+00 0. -1.
          4    1    1    2  501    0  0.30589316481E+02 -0.31325117122E+02 -0.66135698550E+02  0.79315193174E+02  0.00000000000E+00 0.  1.
         -4    1    1    2    0  502 -0.47654674450E+01  0.26457146729E+02  0.45132268574E+02  0.52532008905E+02  0.00000000000E+00 0. -1.
</event>
<event>
 6    1  0.1144920E-005  0.4097349E+02  0.7818608E-02  0.1333642E+00
         21   -1    0    0  501  502  0.00000000000E+00  0.00000000000E+00  0.12530905039E+04  0.12530905039E+04  0.00000000000E+00 0.  1.
         21   -1    0    0  502  503 -0.00000000000E+00 -0.00000000000E+00 -0.34634887302E+02  0.34634887302E+02  0.00000000000E+00 0.  1.
        -13    1    1    2    0    0  0.55759425840E+02  0.17671404232E+01  0.75341536809E+01  0.56293969402E+02  0.10566000000E+00 0.  1.
         13    1    1    2    0    0 -0.36105407302E+02  0.13618565525E+02  0.12266157153E+03  0.12858825007E+03  0.10566000000E+00 0. -1.
          4    1    1    2  501    0 -0.19211179684E+01 -0.34394328043E+02  0.10711903228E+04  0.10717440777E+04  0.00000000000E+00 0.  1.
         -4    1    1    2    0  503 -0.17732900570E+02  0.19008622094E+02  0.17069568633E+02  0.31099094036E+02  0.00000000000E+00 0. -1.
</event>
<event>
 6    1  0.1144920E-005  0.1179788E+03  0.7818608E-02  0.1137821E+00
         21   -1    0    0  501  502  0.00000000000E+00  0.00000000000E+00  0.39623721504E+03  0.39623721504E+03  0.00000000000E+00 0. -1.
         21   -1    0    0  502  503 -0.00000000000E+00 -0.00000000000E+00 -0.23216698701E+03  0.23216698701E+03  0.00000000000E+00 0.  1.
        -13    1    1    2    0    0 -0.11802880920E+03  0.50365226505E+02 -0.75983082507E+02  0.14913381854E+03  0.10566000000E+00 0.  1.
         13    1    1    2    0    0  0.99827670154E+02  0.33649423391E+02  0.16188993401E+03  0.19314815381E+03  0.10566000000E+00 0. -1.
          4    1    1    2  501    0  0.21759739383E+02 -0.51600656348E+02  0.17510561669E+03  0.18384257121E+03  0.00000000000E+00 0.  1.
         -4    1    1    2    0  503 -0.35586003354E+01 -0.32413993548E+02 -0.96942240157E+02  0.10227965849E+03  0.00000000000E+00 0. -1.
</event>
<event>
 6    1  0.1144920E-005  0.1771568E+03  0.7818608E-02  0.1077035E+00
         21   -1    0    0  503  502  0.00000000000E+00  0.00000000000E+00  0.52261438417E+03  0.52261438417E+03  0.00000000000E+00 0.  1.
         21   -1    0    0  501  503 -0.00000000000E+00 -0.00000000000E+00 -0.26015061716E+03  0.26015061716E+03  0.00000000000E+00 0. -1.
        -13    1    1    2    0    0  0.70944277862E+02  0.13101983236E+03  0.28858737248E+03  0.32477987892E+03  0.10566000000E+00 0.  1.
         13    1    1    2    0    0 -0.14745496462E+03 -0.13791528418E+03  0.10675337758E+03  0.22838539137E+03  0.10566000000E+00 0. -1.
          4    1    1    2  501    0 -0.90846512397E+01  0.36226326387E+02 -0.13400415066E+03  0.13911143018E+03  0.00000000000E+00 0.  1.
         -4    1    1    2    0  502  0.85595337993E+02 -0.29330874560E+02  0.11271676150E+01  0.90488300876E+02  0.00000000000E+00 0. -1.
</event>
<event>
 6    1  0.1144920E-005  0.7206269E+02  0.7818608E-02  0.1221417E+00
         21   -1    0    0  501  502  0.00000000000E+00  0.00000000000E+00  0.34353295521E+03  0.34353295521E+03  0.00000000000E+00 0.  1.
         21   -1    0    0  502  503 -0.00000000000E+00 -0.00000000000E+00 -0.48570453685E+03  0.48570453685E+03  0.00000000000E+00 0. -1.
        -13    1    1    2    0    0 -0.11745932438E+02  0.82058786339E+02 -0.83593775595E+02  0.11772655532E+03  0.10566000000E+00 0.  1.
         13    1    1    2    0    0  0.61610355313E+01 -0.64750778150E+02 -0.96642831305E+00  0.65050494061E+02  0.10566000000E+00 0. -1.
          4    1    1    2  501    0  0.10848330363E+02 -0.40641912138E+01  0.29416624128E+03  0.29439426189E+03  0.00000000000E+00 0.  1.
         -4    1    1    2    0  503 -0.52634334567E+01 -0.13243816975E+02 -0.35177761902E+03  0.35206618080E+03  0.00000000000E+00 0. -1.
</event>
<event>
 6    1  0.1144920E-005  0.4044039E+03  0.7818608E-02  0.9716413E-01
         21   -1    0    0  501  502  0.00000000000E+00  0.00000000000E+00  0.14505214718E+04  0.14505214718E+04  0.00000000000E+00 0. -1.
         21   -1    0    0  502  503 -0.00000000000E+00 -0.00000000000E+00 -0.43010394743E+03  0.43010394743E+03  0.00000000000E+00 0. -1.
        -13    1    1    2    0    0 -0.19872266528E+03 -0.31256094131E+03  0.37760023026E+03  0.52893003771E+03  0.10566000000E+00 0.  1.
         13    1    1    2    0    0  0.31681669958E+03  0.31596559144E+03  0.48830057218E+03  0.66230245059E+03  0.10566000000E+00 0. -1.
          4    1    1    2  501    0 -0.40366059996E+02  0.18390933486E+02  0.41465304606E+03  0.41701893703E+03  0.00000000000E+00 0.  1.
         -4    1    1    2    0  503 -0.77727974298E+02 -0.21795583609E+02 -0.26013632410E+03  0.27237399393E+03  0.00000000000E+00 0. -1.
</event>
<event>
 6    1  0.1144920E-005  0.9787007E+02  0.7818608E-02  0.1189676E+00
         21   -1    0    0  503  502  0.00000000000E+00  0.00000000000E+00  0.10764609502E+03  0.10764609502E+03  0.00000000000E+00 0. -1.
         21   -1    0    0  501  503 -0.00000000000E+00 -0.00000000000E+00 -0.76004318591E+03  0.76004318591E+03  0.00000000000E+00 0. -1.
        -13    1    1    2    0    0  0.59574303720E+01  0.17530034057E+02  0.81810702534E+01  0.20241890851E+02  0.10566000000E+00 0.  1.
         13    1    1    2    0    0 -0.39324336723E+02 -0.12059779994E+03 -0.66244954499E+03  0.67448472454E+03  0.10566000000E+00 0. -1.
          4    1    1    2  501    0 -0.23749979667E+02  0.88802780935E+02 -0.40478300802E+02  0.10044146689E+03  0.00000000000E+00 0.  1.
         -4    1    1    2    0  502  0.57116886018E+02  0.14264984946E+02  0.42349684646E+02  0.72521198649E+02  0.00000000000E+00 0. -1.
</event>
<event>
 6    1  0.1144920E-005  0.6660667E+02  0.7818608E-02  0.1235923E+00
         21   -1    0    0  501  502  0.00000000000E+00  0.00000000000E+00  0.60901879295E+03  0.60901879295E+03  0.00000000000E+00 0.  1.
         21   -1    0    0  502  503 -0.00000000000E+00 -0.00000000000E+00 -0.53684349656E+02  0.53684349656E+02  0.00000000000E+00 0.  1.
        -13    1    1    2    0    0 -0.30816369661E+02  0.58178607574E+02 -0.98964231437E+01  0.66575891833E+02  0.10566000000E+00 0.  1.
         13    1    1    2    0    0  0.36496687691E+02 -0.40562837562E+02  0.17482225195E+03  0.18313979072E+03  0.10566000000E+00 0. -1.
          4    1    1    2  501    0  0.10748986800E+02 -0.11095874943E+02  0.39453429696E+03  0.39483663790E+03  0.00000000000E+00 0.  1.
         -4    1    1    2    0  503 -0.16429304830E+02 -0.65198950686E+01 -0.41256824664E+01  0.18150822150E+02  0.00000000000E+00 0. -1.
</event>
<event>
 6    1  0.1144920E-005  0.7129029E+02  0.7818608E-02  0.1238160E+00
         21   -1    0    0  501  502  0.00000000000E+00  0.00000000000E+00  0.21072898772E+02  0.21072898772E+02  0.00000000000E+00 0.  1.
         21   -1    0    0  502  503 -0.00000000000E+00 -0.00000000000E+00 -0.77817236277E+03  0.77817236277E+03  0.00000000000E+00 0.  1.
        -13    1    1    2    0    0 -0.38552321068E+02  0.56070056249E+02 -0.26247138269E+03  0.27114824463E+03  0.10566000000E+00 0.  1.
         13    1    1    2    0    0 -0.12456491962E+02 -0.54056531550E+02 -0.14063006961E+03  0.15117572702E+03  0.10566000000E+00 0. -1.
          4    1    1    2  501    0  0.84159636951E+02 -0.26482964572E+02 -0.24345297397E+03  0.25894698770E+03  0.00000000000E+00 0.  1.
         -4    1    1    2    0  503 -0.33150823920E+02  0.24469439873E+02 -0.11054503772E+03  0.11797430219E+03  0.00000000000E+00 0. -1.
</event>
<event>
 6    1  0.1144920E-005  0.8444608E+02  0.7818608E-02  0.1193220E+00
         21   -1    0    0  501  502  0.00000000000E+00  0.00000000000E+00  0.20901536701E+03  0.20901536701E+03  0.00000000000E+00 0. -1.
         21   -1    0    0  502  503 -0.00000000000E+00 -0.00000000000E+00 -0.27889474816E+03  0.27889474816E+03  0.00000000000E+00 0. -1.
        -13    1    1    2    0    0 -0.71093557937E+02  0.20064739996E+02  0.66577271781E+02  0.99445623599E+02  0.10566000000E+00 0.  1.
         13    1    1    2    0    0  0.94871840700E+02 -0.54440280183E+00  0.38712417130E+02  0.10246767752E+03  0.10566000000E+00 0. -1.
          4    1    1    2  501    0 -0.21384677978E+02 -0.32023578272E+01  0.52995434239E+02  0.57237012484E+02  0.00000000000E+00 0.  1.
         -4    1    1    2    0  503 -0.23936047853E+01 -0.16317979367E+02 -0.22816450430E+03  0.22875980157E+03  0.00000000000E+00 0. -1.
</event>
<event>
 6    1  0.1144920E-005  0.1645182E+03  0.7818608E-02  0.1087614E+00
         21   -1    0    0  501  502  0.00000000000E+00  0.00000000000E+00  0.13605571213E+03  0.13605571213E+03  0.00000000000E+00 0.  1.
         21   -1    0    0  502  503 -0.00000000000E+00 -0.00000000000E+00 -0.81825558306E+03  0.81825558306E+03  0.00000000000E+00 0.  1.
        -13    1    1    2    0    0  0.91625793230E+02  0.15430734760E+03 -0.60414032111E+03  0.63023137201E+03  0.10566000000E+00 0.  1.
         13    1    1    2    0    0 -0.49923099037E+02 -0.17365030559E+03 -0.10436613198E+03  0.20866011866E+03  0.10566000000E+00 0. -1.
          4    1    1    2  501    0 -0.13526654713E+02  0.33241907424E+02  0.59645266386E+02  0.69610003586E+02  0.00000000000E+00 0.  1.
         -4    1    1    2    0  503 -0.28176039480E+02 -0.13898949438E+02 -0.33338684222E+02  0.45809800938E+02  0.00000000000E+00 0. -1.
</event>
<event>
 6    1  0.1144920E-005  0.2032640E+03  0.7818608E-02  0.1057921E+00
         21   -1    0    0  503  502  0.00000000000E+00  0.00000000000E+00  0.53662397344E+03  0.53662397344E+03  0.00000000000E+00 0.  1.
         21   -1    0    0  501  503 -0.00000000000E+00 -0.00000000000E+00 -0.15664413167E+03  0.15664413167E+03  0.00000000000E+00 0. -1.
        -13    1    1    2    0    0  0.17517507492E+03  0.57018148720E+02  0.29837703340E+03  0.35066542656E+03  0.10566000000E+00 0.  1.
         13    1    1    2    0    0 -0.21418970862E+03  0.44581782038E+02  0.36237479632E+02  0.22176098093E+03  0.10566000000E+00 0. -1.
          4    1    1    2  501    0  0.57106346327E-01 -0.11726278320E+02 -0.22303577194E+01  0.11936639390E+02  0.00000000000E+00 0.  1.
         -4    1    1    2    0  502  0.38957527350E+02 -0.89873652437E+02  0.47595686449E+02  0.10890505823E+03  0.00000000000E+00 0. -1.
</event>
<event>
 6    1  0.1144920E-005  0.1049440E+03  0.7818608E-02  0.1156625E+00
         21   -1    0    0  501  502  0.00000000000E+00  0.00000000000E+00  0.41398065132E+03  0.41398065132E+03  0.00000000000E+00 0.  1.
         21   -1    0    0  502  503 -0.00000000000E+00 -0.00000000000E+00 -0.21547621179E+03  0.21547621179E+03  0.00000000000E+00 0.  1.
        -13    1    1    2    0    0  0.83516280886E+02 -0.97746206016E+02 -0.12735075518E+03  0.18096274748E+03  0.10566000000E+00 0.  1.
         13    1    1    2    0    0 -0.67635933586E+02  0.79541658653E+02  0.41719771697E+01  0.10449359565E+03  0.10566000000E+00 0. -1.
          4    1    1    2  501    0  0.97479755091E+01 -0.10616576263E+02  0.29881577398E+03  0.29916316868E+03  0.00000000000E+00 0.  1.
         -4    1    1    2    0  503 -0.25628322809E+02  0.28821123626E+02  0.22867443560E+02  0.44837351305E+02  0.00000000000E+00 0. -1.
</event>
<event>
 6    1  0.1144920E-005  0.6421073E+02  0.7818608E-02  0.1264786E+00
         21   -1    0    0  501  502  0.00000000000E+00  0.00000000000E+00  0.40521582349E+03  0.40521582349E+03  0.00000000000E+00 0.  1.
         21   -1    0    0  502  503 -0.00000000000E+00 -0.00000000000E+00 -0.10639532699E+03  0.10639532699E+03  0.00000000000E+00 0.  1.
        -13    1    1    2    0    0 -0.24785210087E+02  0.89361784729E+01 -0.84716860949E+02  0.88719330576E+02  0.10566000000E+00 0.  1.
         13    1    1    2    0    0  0.21300293413E+02  0.33012731764E+02  0.41150836697E+02  0.56894160359E+02  0.10566000000E+00 0. -1.
          4    1    1    2  501    0  0.10594237754E+02 -0.65275556977E+02  0.33357778420E+03  0.34006951396E+03  0.00000000000E+00 0.  1.
         -4    1    1    2    0  503 -0.71093210800E+01  0.23326646740E+02  0.88087365566E+01  0.25928145596E+02  0.00000000000E+00 0. -1.
</event>
<event>
 6    1  0.1144920E-005  0.2968187E+02  0.7818608E-02  0.1407482E+00
         21   -1    0    0  503  502  0.00000000000E+00  0.00000000000E+00  0.65522958084E+02  0.65522958084E+02  0.00000000000E+00 0.  1.
         21   -1    0    0  501  503 -0.00000000000E+00 -0.00000000000E+00 -0.13979847340E+03  0.13979847340E+03  0.00000000000E+00 0.  1.
        -13    1    1    2    0    0  0.86106145614E+00  0.22413948973E+02  0.43029884133E+02  0.48525340060E+02  0.10566000000E+00 0.  1.
         13    1    1    2    0    0  0.94982628186E+01 -0.39766010975E+02 -0.57040318514E+02  0.70179496476E+02  0.10566000000E+00 0. -1.
          4    1    1    2  501    0  0.52430236518E+01  0.14091766701E+02 -0.67469621588E+02  0.69124648448E+02  0.00000000000E+00 0.  1.
         -4    1    1    2    0  502 -0.15602347926E+02  0.32602953007E+01  0.72045406556E+01  0.17491946499E+02  0.00000000000E+00 0. -1.
</event>
<event>
 6    1  0.1144920E-005  0.8919782E+02  0.7818608E-02  0.1183782E+00
         21   -1    0    0  503  502  0.00000000000E+00  0.00000000000E+00  0.39669608201E+03  0.39669608201E+03  0.00000000000E+00 0. -1.
         21   -1    0    0  501  503 -0.00000000000E+00 -0.00000000000E+00 -0.43120142478E+02  0.43120142478E+02  0.00000000000E+00 0. -1.
        -13    1    1    2    0    0  0.93522888877E+02 -0.40427936675E+01  0.10751000654E+03  0.14255275373E+03  0.10566000000E+00 0.  1.
         13    1    1    2    0    0 -0.82321561841E+02  0.24474766979E+02  0.81284470424E+02  0.11824986283E+03  0.10566000000E+00 0. -1.
          4    1    1    2  501    0 -0.13349012397E+02 -0.89258025118E+01  0.24303226832E+01  0.16241076036E+02  0.00000000000E+00 0.  1.
         -4    1    1    2    0  502  0.21476853615E+01 -0.11506170800E+02  0.16235113988E+03  0.16277253190E+03  0.00000000000E+00 0. -1.
</event>
<event>
 6    1  0.1144920E-005  0.5510823E+02  0.7818608E-02  0.1289303E+00
         21   -1    0    0  503  502  0.00000000000E+00  0.00000000000E+00  0.31302986894E+02  0.31302986894E+02  0.00000000000E+00 0.  1.
         21   -1    0    0  501  503 -0.00000000000E+00 -0.00000000000E+00 -0.39896388210E+03  0.39896388210E+03  0.00000000000E+00 0.  1.
        -13    1    1    2    0    0  0.10379560977E+02  0.83728873597E+02 -0.58265009180E+02  0.10253332150E+03  0.10566000000E+00 0.  1.
         13    1    1    2    0    0 -0.26559714274E+02 -0.28118417299E+02 -0.17406170164E+03  0.17830746186E+03  0.10566000000E+00 0. -1.
          4    1    1    2  501    0  0.16629342515E+02 -0.45338860484E+02 -0.82450596311E+02  0.95552331916E+02  0.00000000000E+00 0.  1.
         -4    1    1    2    0  502 -0.44918921790E+00 -0.10271595814E+02 -0.52883588076E+02  0.53873753715E+02  0.00000000000E+00 0. -1.
</event>
<event>
 6    1  0.1144920E-005  0.1287120E+03  0.7818608E-02  0.1124234E+00
         21   -1    0    0  501  502  0.00000000000E+00  0.00000000000E+00  0.80813797600E+03  0.80813797600E+03  0.00000000000E+00 0. -1.
         21   -1    0    0  502  503 -0.00000000000E+00 -0.00000000000E+00 -0.10795275352E+03  0.10795275352E+03  0.00000000000E+00 0.  1.
        -13    1    1    2    0    0  0.68606183109E+02  0.76722670017E+02 -0.56245330230E+02  0.11728906510E+03  0.10566000000E+00 0.  1.
         13    1    1    2    0    0 -0.10996101781E+03 -0.93474648448E+02  0.72690356452E+03  0.74109226053E+03  0.10566000000E+00 0. -1.
          4    1    1    2  501    0  0.16628477663E+02  0.25186745837E+01  0.22912430919E+02  0.28422341242E+02  0.00000000000E+00 0.  1.
         -4    1    1    2    0  503  0.24726357036E+02  0.14233303848E+02  0.66145572716E+01  0.29287062648E+02  0.00000000000E+00 0. -1.
</event>
<event>
 6    1  0.1144920E-005  0.9370741E+02  0.7818608E-02  0.1175409E+00
         21   -1    0    0  501  502  0.00000000000E+00  0.00000000000E+00  0.45516027953E+02  0.45516027953E+02  0.00000000000E+00 0. -1.
         21   -1    0    0  502  503 -0.00000000000E+00 -0.00000000000E+00 -0.68438392124E+03  0.68438392124E+03  0.00000000000E+00 0. -1.
        -13    1    1    2    0    0  0.46178045160E+02 -0.85860808709E+02 -0.36141508304E+03  0.37433322553E+03  0.10566000000E+00 0.  1.
         13    1    1    2    0    0 -0.47010009750E+02  0.70543569700E+02 -0.39770906760E+02  0.93637986049E+02  0.10566000000E+00 0. -1.
          4    1    1    2  501    0 -0.37959028140E+02 -0.15691321210E+02 -0.37295584334E+02  0.55480320740E+02  0.00000000000E+00 0.  1.
         -4    1    1    2    0  503  0.38790992729E+02  0.31008560219E+02 -0.20038631915E+03  0.20644841687E+03  0.00000000000E+00 0. -1.
</event>
<event>
 6    1  0.1144920E-005  0.7649171E+02  0.7818608E-02  0.1210657E+00
         21   -1    0    0  503  502  0.00000000000E+00  0.00000000000E+00  0.14659177830E+03  0.14659177830E+03  0.00000000000E+00 0.  1.
         21   -1    0    0  501  503 -0.00000000000E+00 -0.00000000000E+00 -0.20586216512E+03  0.20586216512E+03  0.00000000000E+00 0. -1.
        -13    1    1    2    0    0  0.61202258397E+02 -0.71596493600E+02  0.65779089106E+02  0.11488548236E+03  0.10566000000E+00 0.  1.
         13    1    1    2    0    0 -0.68537872503E+02  0.27666936604E+02 -0.32057365831E+02  0.80564168315E+02  0.10566000000E+00 0. -1.
          4    1    1    2  501    0 -0.11755367470E+02 -0.25348490502E+02 -0.78998110901E+02  0.83794010293E+02  0.00000000000E+00 0.  1.
         -4    1    1    2    0  502  0.19090981576E+02  0.69278047499E+02 -0.13993999195E+02  0.73210282449E+02  0.00000000000E+00 0. -1.
</event>
<event>
 6    1  0.1144920E-005  0.1304762E+03  0.7818608E-02  0.1137618E+00
         21   -1    0    0  503  502  0.00000000000E+00  0.00000000000E+00  0.11254107278E+04  0.11254107278E+04  0.00000000000E+00 0. -1.
         21   -1    0    0  501  503 -0.00000000000E+00 -0.00000000000E+00 -0.10333580719E+03  0.10333580719E+03  0.00000000000E+00 0.  1.
        -13    1    1    2    0    0 -0.12227492308E+03 -0.83810760701E+02  0.11762999736E+03  0.18924118967E+03  0.10566000000E+00 0.  1.
         13    1    1    2    0    0 -0.74081733549E+01  0.83600256313E+02  0.66424597904E+02  0.10703327641E+03  0.10566000000E+00 0. -1.
          4    1    1    2  501    0  0.13217586021E+03 -0.14029642238E+02  0.46496509419E+02  0.14081624292E+03  0.00000000000E+00 0.  1.
         -4    1    1    2    0  502 -0.24927637740E+01  0.14240146626E+02  0.79152381588E+03  0.79165582594E+03  0.00000000000E+00 0. -1.
</event>
<event>
 6    1  0.1144920E-005  0.4353978E+02  0.7818608E-02  0.1320588E+00
         21   -1    0    0  503  502  0.00000000000E+00  0.00000000000E+00  0.65310535727E+02  0.65310535727E+02  0.00000000000E+00 0. -1.
         21   -1    0    0  501  503 -0.00000000000E+00 -0.00000000000E+00 -0.22827862841E+03  0.22827862841E+03  0.00000000000E+00 0.  1.
        -13    1    1    2    0    0  0.27091602303E+02 -0.48366784670E+02  0.13377451575E+02  0.57028660771E+02  0.10566000000E+00 0.  1.
         13    1    1    2    0    0 -0.50288648782E+02  0.31338280603E+02 -0.12837756052E+03  0.14139252186E+03  0.10566000000E+00 0. -1.
          4    1    1    2  501    0  0.46907274238E+02  0.11599200877E+01 -0.10513909094E+02  0.48085133622E+02  0.00000000000E+00 0.  1.
         -4    1    1    2    0  502 -0.23710227758E+02  0.15868583979E+02 -0.37454074645E+02  0.47082847889E+02  0.00000000000E+00 0. -1.
</event>
<event>
 6    1  0.1144920E-005  0.1556938E+03  0.7818608E-02  0.1095628E+00
         21   -1    0    0  501  502  0.00000000000E+00  0.00000000000E+00  0.76449673188E+03  0.76449673188E+03  0.00000000000E+00 0.  1.
         21   -1    0    0  502  503 -0.00000000000E+00 -0.00000000000E+00 -0.11793331338E+03  0.11793331338E+03  0.00000000000E+00 0.  1.
        -13    1    1    2    0    0  0.13834221803E+03  0.10549067084E+03  0.38613190531E+02  0.17820729663E+03  0.10566000000E+00 0.  1.
         13    1    1    2    0    0 -0.83628401846E+02 -0.11805058555E+03  0.16784911109E+03  0.22159193487E+03  0.10566000000E+00 0. -1.
          4    1    1    2  501    0 -0.20027957498E+02  0.29851734649E+01  0.44574766219E+03  0.44620736064E+03  0.00000000000E+00 0.  1.
         -4    1    1    2    0  503 -0.34685858690E+02  0.95747412527E+01 -0.56465453071E+01  0.36423453118E+02  0.00000000000E+00 0. -1.
</event>
<event>
 6    1  0.1144920E-005  0.7357607E+02  0.7818608E-02  0.1217646E+00
         21   -1    0    0  503  502  0.00000000000E+00  0.00000000000E+00  0.34360266179E+02  0.34360266179E+02  0.00000000000E+00 0.  1.
         21   -1    0    0  501  503 -0.00000000000E+00 -0.00000000000E+00 -0.50886541006E+03  0.50886541006E+03  0.00000000000E+00 0. -1.
        -13    1    1    2    0    0 -0.53095168184E+02 -0.38998757729E+02 -0.43104493011E+02  0.78727431501E+02  0.10566000000E+00 0.  1.
         13    1    1    2    0    0  0.85788232200E+02  0.63407155470E+02 -0.26746766536E+03  0.28795668307E+03  0.10566000000E+00 0. -1.
          4    1    1    2  501    0 -0.26171280209E+02 -0.39639241449E+02 -0.13609683158E+03  0.14414767752E+03  0.00000000000E+00 0.  1.
         -4    1    1    2    0  502 -0.65217838076E+01  0.15230843708E+02 -0.27836153938E+02  0.32393884147E+02  0.00000000000E+00 0. -1.
</event>
<event>
 6    1  0.1144920E-005  0.2565581E+03  0.7818608E-02  0.1027049E+00
         21   -1    0    0  503  502  0.00000000000E+00  0.00000000000E+00  0.19504197477E+04  0.19504197477E+04  0.00000000000E+00 0. -1.
         21   -1    0    0  501  503 -0.00000000000E+00 -0.00000000000E+00 -0.72753490698E+02  0.72753490698E+02  0.00000000000E+00 0. -1.
        -13    1    1    2    0    0  0.21676688473E+03 -0.26562042315E+02  0.34978423860E+03  0.41236203650E+03  0.10566000000E+00 0.  1.
         13    1    1    2    0    0 -0.30584300146E+03 -0.71378704557E+02  0.78064615139E+03  0.84145308000E+03  0.10566000000E+00 0. -1.
          4    1    1    2  501    0  0.38811314436E+02 -0.27680821028E+02  0.17958839736E+03  0.18580779975E+03  0.00000000000E+00 0.  1.
         -4    1    1    2    0  502  0.50264802292E+02  0.12562156790E+03  0.56764746963E+03  0.58355032212E+03  0.00000000000E+00 0. -1.
</event>
<event>
 6    1  0.1144920E-005  0.3853359E+02  0.7818608E-02  0.1347098E+00
         21   -1    0    0  503  502  0.00000000000E+00  0.00000000000E+00  0.41772741248E+02  0.41772741248E+02  0.00000000000E+00 0. -1.
         21   -1    0    0  501  503 -0.00000000000E+00 -0.00000000000E+00 -0.78779145364E+02  0.78779145364E+02  0.00000000000E+00 0. -1.
        -13    1    1    2    0    0 -0.19704218272E+02  0.30339001179E+02  0.12380756168E+02  0.38236180478E+02  0.10566000000E+00 0.  1.
         13    1    1    2    0    0  0.74035008774E+00 -0.39563310130E+02 -0.41633295697E+02  0.57438193750E+02  0.10566000000E+00 0. -1.
          4    1    1    2  501    0  0.11429241470E+02 -0.95310878172E-01 -0.54955846411E+01  0.12682195996E+02  0.00000000000E+00 0.  1.
         -4    1    1    2    0  502  0.75346267140E+01  0.93196198290E+01 -0.22582799465E+01  0.12195316388E+02  0.00000000000E+00 0. -1.
</event>
<event>
 6    1  0.1144920E-005  0.8589421E+02  0.7818608E-02  0.1190272E+00
         21   -1    0    0  501  502  0.00000000000E+00  0.00000000000E+00  0.48992340835E+03  0.48992340835E+03  0.00000000000E+00 0. -1.
         21   -1    0    0  502  503 -0.00000000000E+00 -0.00000000000E+00 -0.74544853820E+02  0.74544853820E+02  0.00000000000E+00 0.  1.
        -13    1    1    2    0    0 -0.71660574490E+02  0.62733643175E+02 -0.12530539745E+02  0.96061300806E+02  0.10566000000E+00 0.  1.
         13    1    1    2    0    0  0.42704200626E+02 -0.45958308954E+02  0.25700868088E+03  0.26455488679E+03  0.10566000000E+00 0. -1.
          4    1    1    2  501    0  0.29478024734E+02 -0.59008480767E+01  0.18421566765E+03  0.18665258144E+03  0.00000000000E+00 0.  1.
         -4    1    1    2    0  503 -0.52165087018E+00 -0.10874486144E+02 -0.13315254250E+02  0.17199493140E+02  0.00000000000E+00 0. -1.
</event>
<event>
 6    1  0.1144920E-005  0.1782486E+03  0.7818608E-02  0.1076166E+00
         21   -1    0    0  503  502  0.00000000000E+00  0.00000000000E+00  0.12325234327E+03  0.12325234327E+03  0.00000000000E+00 0. -1.
         21   -1    0    0  501  503 -0.00000000000E+00 -0.00000000000E+00 -0.50486438265E+03  0.50486438265E+03  0.00000000000E+00 0.  1.
        -13    1    1    2    0    0 -0.26950309789E+02 -0.15384769925E+03 -0.18845598873E+03  0.24476745007E+03  0.10566000000E+00 0.  1.
         13    1    1    2    0    0 -0.81218347677E+02  0.19330975753E+03 -0.11539075678E+03  0.23933265608E+03  0.10566000000E+00 0. -1.
          4    1    1    2  501    0  0.96074494426E+02 -0.38594631962E+02 -0.81012206116E+02  0.13146418385E+03  0.00000000000E+00 0.  1.
         -4    1    1    2    0  502  0.12094163040E+02 -0.86742631349E+00  0.32469122457E+01  0.12552435906E+02  0.00000000000E+00 0. -1.
</event>
<event>
 6    1  0.1144920E-005  0.3824783E+02  0.7818608E-02  0.1348748E+00
         21   -1    0    0  501  502  0.00000000000E+00  0.00000000000E+00  0.82115364524E+02  0.82115364524E+02  0.00000000000E+00 0. -1.
         21   -1    0    0  502  503 -0.00000000000E+00 -0.00000000000E+00 -0.24135985551E+03  0.24135985551E+03  0.00000000000E+00 0. -1.
        -13    1    1    2    0    0 -0.42668549900E+02 -0.16501891634E+00 -0.71655603230E+02  0.83397655963E+02  0.10566000000E+00 0.  1.
         13    1    1    2    0    0  0.43078616676E+02 -0.31901766432E+02  0.55902550257E+02  0.77450604940E+02  0.10566000000E+00 0. -1.
          4    1    1    2  501    0 -0.11688992914E+02  0.12933377268E+02 -0.61669889752E-02  0.17432866687E+02  0.00000000000E+00 0.  1.
         -4    1    1    2    0  503  0.11278926138E+02  0.19133408080E+02 -0.14348527103E+03  0.14519409245E+03  0.00000000000E+00 0. -1.
</event>
<event>
 6    1  0.1144920E-005  0.1262442E+03  0.7818608E-02  0.1127227E+00
         21   -1    0    0  501  502  0.00000000000E+00  0.00000000000E+00  0.38843175458E+03  0.38843175458E+03  0.00000000000E+00 0. -1.
         21   -1    0    0  502  503 -0.00000000000E+00 -0.00000000000E+00 -0.11041472387E+03  0.11041472387E+03  0.00000000000E+00 0. -1.
        -13    1    1    2    0    0 -0.61933560301E+02 -0.11807522420E+03  0.91265718098E+02  0.16157650487E+03  0.10566000000E+00 0.  1.
         13    1    1    2    0    0  0.54726261077E+02  0.10357793430E+03  0.17709192227E+03  0.21233208006E+03  0.10566000000E+00 0. -1.
          4    1    1    2  501    0 -0.42515736789E+01  0.16733419957E+02  0.65578427193E+02  0.67813076433E+02  0.00000000000E+00 0.  1.
         -4    1    1    2    0  503  0.11458872904E+02 -0.22361300591E+01 -0.55919036852E+02  0.57124817096E+02  0.00000000000E+00 0. -1.
</event>
<event>
 6    1  0.1144920E-005  0.1079022E+03  0.7818608E-02  0.1152104E+00
         21   -1    0    0  501  502  0.00000000000E+00  0.00000000000E+00  0.85204683767E+02  0.85204683767E+02  0.00000000000E+00 0. -1.
         21   -1    0    0  502  503 -0.00000000000E+00 -0.00000000000E+00 -0.53991585637E+03  0.53991585637E+03  0.00000000000E+00 0.  1.
        -13    1    1    2    0    0 -0.83572367273E+02  0.30710162452E+02 -0.31753740576E+03  0.32978397455E+03  0.10566000000E+00 0.  1.
         13    1    1    2    0    0  0.11321118992E+03  0.15750164899E+02  0.65091412166E+01  0.11448677347E+03  0.10566000000E+00 0. -1.
          4    1    1    2  501    0 -0.35753552534E+01  0.13081303285E+02  0.80580782630E+01  0.15774545512E+02  0.00000000000E+00 0.  1.
         -4    1    1    2    0  503 -0.26063467390E+02 -0.59541630636E+02 -0.15174098633E+03  0.16507524661E+03  0.00000000000E+00 0. -1.
</event>
<event>
 6    1  0.1144920E-005  0.1443072E+03  0.7818608E-02  0.1106866E+00
         21   -1    0    0  501  502  0.00000000000E+00  0.00000000000E+00  0.88463587172E+02  0.88463587172E+02  0.00000000000E+00 0. -1.
         21   -1    0    0  502  503 -0.00000000000E+00 -0.00000000000E+00 -0.10056558452E+04  0.10056558452E+04  0.00000000000E+00 0. -1.
        -13    1    1    2    0    0 -0.16290651494E+03  0.27112407332E+02 -0.23611833089E+03  0.28814144545E+03  0.10566000000E+00 0.  1.
         13    1    1    2    0    0  0.43871559232E+02 -0.17681845279E+03 -0.26440072150E+03  0.32108757629E+03  0.10566000000E+00 0. -1.
          4    1    1    2  501    0  0.56012040887E+02  0.44421982655E+02 -0.27105800229E+02  0.76455121956E+02  0.00000000000E+00 0.  1.
         -4    1    1    2    0  503  0.63022914818E+02  0.10528406281E+03 -0.38956740539E+03  0.40843528865E+03  0.00000000000E+00 0. -1.
</event>
<event>
 6    1  0.1144920E-005  0.7008039E+02  0.7818608E-02  0.1226516E+00
         21   -1    0    0  501  502  0.00000000000E+00  0.00000000000E+00  0.86583688512E+03  0.86583688512E+03  0.00000000000E+00 0. -1.
         21   -1    0    0  502  503 -0.00000000000E+00 -0.00000000000E+00 -0.27407839426E+02  0.27407839426E+02  0.00000000000E+00 0.  1.
        -13    1    1    2    0    0 -0.57543906120E+02 -0.11396508853E+02  0.42562497725E+02  0.72475919603E+02  0.10566000000E+00 0.  1.
         13    1    1    2    0    0  0.62177867599E+02  0.61376556137E+02  0.16532812835E+03  0.18699350270E+03  0.10566000000E+00 0. -1.
          4    1    1    2  501    0 -0.20484010842E+02 -0.23138628689E+02  0.23737941505E+03  0.23938249211E+03  0.00000000000E+00 0.  1.
         -4    1    1    2    0  503  0.15850049364E+02 -0.26841418595E+02  0.39315900457E+03  0.39439281014E+03  0.00000000000E+00 0. -1.
</event>
<event>
 6    1  0.1144920E-005  0.1077466E+03  0.7818608E-02  0.1157153E+00
         21   -1    0    0  501  502  0.00000000000E+00  0.00000000000E+00  0.45691934774E+02  0.45691934774E+02  0.00000000000E+00 0. -1.
         21   -1    0    0  502  503 -0.00000000000E+00 -0.00000000000E+00 -0.17647705518E+04  0.17647705518E+04  0.00000000000E+00 0.  1.
        -13    1    1    2    0    0  0.11767202180E+03 -0.99359246803E+01 -0.41303531279E+03  0.42958539091E+03  0.10566000000E+00 0.  1.
         13    1    1    2    0    0 -0.50599526255E+02 -0.79802332312E+02 -0.37425167787E+02  0.10163355080E+03  0.10566000000E+00 0. -1.
          4    1    1    2  501    0 -0.59911821026E+02  0.11236946012E+03 -0.80426000900E+03  0.81427911918E+03  0.00000000000E+00 0.  1.
         -4    1    1    2    0  503 -0.71606745160E+01 -0.22631203132E+02 -0.46435812743E+03  0.46496442565E+03  0.00000000000E+00 0. -1.
</event>
<event>
 6    1  0.1144920E-005  0.7282488E+02  0.7818608E-02  0.1219505E+00
         21   -1    0    0  503  502  0.00000000000E+00  0.00000000000E+00  0.68399187039E+03  0.68399187039E+03  0.00000000000E+00 0. -1.
         21   -1    0    0  501  503 -0.00000000000E+00 -0.00000000000E+00 -0.17736630623E+03  0.17736630623E+03  0.00000000000E+00 0.  1.
        -13    1    1    2    0    0  0.41833376611E+02  0.73573937828E+02 -0.41073753598E+02  0.94075608554E+02  0.10566000000E+00 0.  1.
         13    1    1    2    0    0 -0.38812928905E+02 -0.67334318490E+02 -0.18064795576E+02  0.79791615474E+02  0.10566000000E+00 0. -1.
          4    1    1    2  501    0 -0.55427537242E+00 -0.44027134036E+02 -0.52244023037E+02  0.68323741816E+02  0.00000000000E+00 0.  1.
         -4    1    1    2    0  502 -0.24661723335E+01  0.37787514699E+02  0.61800813638E+03  0.61916721078E+03  0.00000000000E+00 0. -1.
</event>
<event>
 6    1  0.1144920E-005  0.9078347E+02  0.7818608E-02  0.1180776E+00
         21   -1    0    0  503  502  0.00000000000E+00  0.00000000000E+00  0.67676543730E+02  0.67676543730E+02  0.00000000000E+00 0.  1.
         21   -1    0    0  501  503 -0.00000000000E+00 -0.00000000000E+00 -0.34480386056E+03  0.34480386056E+03  0.00000000000E+00 0. -1.
        -13    1    1    2    0    0  0.80510175264E+02  0.48811936211E+02  0.94871954593E+01  0.94628280547E+02  0.10566000000E+00 0.  1.
         13    1    1    2    0    0 -0.55514183826E+02 -0.66712459352E+02 -0.26595316910E+03  0.27975610119E+03  0.10566000000E+00 0. -1.
          4    1    1    2  501    0 -0.11364948726E+02  0.11107105515E+02 -0.60902722897E+01  0.17018262809E+02  0.00000000000E+00 0.  1.
         -4    1    1    2    0  502 -0.13631042712E+02  0.67934176264E+01 -0.14571070904E+02  0.21077759742E+02  0.00000000000E+00 0. -1.
</event>
<event>
 6    1  0.1144920E-005  0.4947433E+03  0.7818608E-02  0.9489569E-01
         21   -1    0    0  503  502  0.00000000000E+00  0.00000000000E+00  0.65063171047E+03  0.65063171047E+03  0.00000000000E+00 0.  1.
         21   -1    0    0  501  503 -0.00000000000E+00 -0.00000000000E+00 -0.89286554651E+03  0.89286554651E+03  0.00000000000E+00 0.  1.
        -13    1    1    2    0    0  0.44645783559E+03  0.15267266713E+02 -0.34200317730E+02  0.44802607211E+03  0.10566000000E+00 0.  1.
         13    1    1    2    0    0 -0.54818117108E+03 -0.10116740819E+03  0.19239544323E+03  0.58970624768E+03  0.10566000000E+00 0. -1.
          4    1    1    2  501    0  0.38798446036E+02  0.45954612395E+02 -0.42349497664E+03  0.42774424724E+03  0.00000000000E+00 0.  1.
         -4    1    1    2    0  502  0.62924889457E+02  0.39945529085E+02  0.23066015099E+02  0.78020689945E+02  0.00000000000E+00 0. -1.
</event>
<event>
 6    1  0.1144920E-005  0.5535233E+03  0.7818608E-02  0.9367791E-01
         21   -1    0    0  501  502  0.00000000000E+00  0.00000000000E+00  0.41742460556E+03  0.41742460556E+03  0.00000000000E+00 0. -1.
         21   -1    0    0  502  503 -0.00000000000E+00 -0.00000000000E+00 -0.10963736401E+04  0.10963736401E+04  0.00000000000E+00 0.  1.
        -13    1    1    2    0    0 -0.23244892401E+03 -0.51345425772E+03 -0.52631631832E+03  0.77115280920E+03  0.10566000000E+00 0.  1.
         13    1    1    2    0    0  0.18837398228E+03  0.50009448860E+03 -0.18148749393E+03  0.56437308258E+03  0.10566000000E+00 0. -1.
          4    1    1    2  501    0  0.93419557973E+01  0.36540918220E+02  0.93778549691E+02  0.10107881689E+03  0.00000000000E+00 0.  1.
         -4    1    1    2    0  503  0.34732985938E+02 -0.23181149095E+02 -0.64923772011E+02  0.77193537020E+02  0.00000000000E+00 0. -1.
</event>
<event>
 6    1  0.1144920E-005  0.7536246E+02  0.7818608E-02  0.1213322E+00
         21   -1    0    0  501  502  0.00000000000E+00  0.00000000000E+00  0.20978284513E+03  0.20978284513E+03  0.00000000000E+00 0.  1.
         21   -1    0    0  502  503 -0.00000000000E+00 -0.00000000000E+00 -0.27543587534E+03  0.27543587534E+03  0.00000000000E+00 0.  1.
        -13    1    1    2    0    0 -0.67027294810E+02  0.32305821654E+02 -0.43835413398E+02  0.86359012235E+02  0.10566000000E+00 0.  1.
         13    1    1    2    0    0  0.78361679296E+02 -0.14594081923E+02 -0.43781434691E+02  0.90941548243E+02  0.10566000000E+00 0. -1.
          4    1    1    2  501    0 -0.17286844223E+02 -0.82691633995E+01  0.16416495693E+03  0.16527960288E+03  0.00000000000E+00 0.  1.
         -4    1    1    2    0  503  0.59524597373E+01 -0.94425763311E+01 -0.14220113906E+03  0.14263855711E+03  0.00000000000E+00 0. -1.
</event>
<event>
 6    1  0.1144920E-005  0.1038638E+03  0.7818608E-02  0.1175056E+00
         21   -1    0    0  501  502  0.00000000000E+00  0.00000000000E+00  0.25183805313E+03  0.25183805313E+03  0.00000000000E+00 0.  1.
         21   -1    0    0  502  503 -0.00000000000E+00 -0.00000000000E+00 -0.21921065068E+03  0.21921065068E+03  0.00000000000E+00 0. -1.
        -13    1    1    2    0    0 -0.30199181529E+02 -0.63498043524E+02  0.23752644244E+01  0.70353714483E+02  0.10566000000E+00 0.  1.
         13    1    1    2    0    0  0.79629332454E+02  0.41354876227E+02  0.21509233373E+02  0.92269792777E+02  0.10566000000E+00 0. -1.
          4    1    1    2  501    0  0.61382845762E+02  0.32374705128E+02  0.12781874993E+03  0.14544280017E+03  0.00000000000E+00 0.  1.
         -4    1    1    2    0  503 -0.11081299669E+03 -0.10231537831E+02 -0.11907584529E+03  0.16298239639E+03  0.00000000000E+00 0. -1.
</event>
<event>
 6    1  0.1144920E-005  0.3846423E+02  0.7818608E-02  0.1359784E+00
         21   -1    0    0  503  502  0.00000000000E+00  0.00000000000E+00  0.48315600116E+03  0.48315600116E+03  0.00000000000E+00 0. -1.
         21   -1    0    0  501  503 -0.00000000000E+00 -0.00000000000E+00 -0.10986328381E+03  0.10986328381E+03  0.00000000000E+00 0.  1.
        -13    1    1    2    0    0 -0.33157473685E+02  0.49992151852E+02  0.47308716538E+02  0.76398685411E+02  0.10566000000E+00 0.  1.
         13    1    1    2    0    0  0.17609911989E+02  0.10738781618E+02 -0.49318583124E+01  0.21207659498E+02  0.10566000000E+00 0. -1.
          4    1    1    2  501    0  0.20364761449E+02 -0.23206549342E+02 -0.78447729557E+02  0.84304885469E+02  0.00000000000E+00 0.  1.
         -4    1    1    2    0  502 -0.48171997534E+01 -0.37524384129E+02  0.40936358868E+03  0.41110805460E+03  0.00000000000E+00 0. -1.
</event>
<event>
 6    1  0.1144920E-005  0.9558407E+02  0.7818608E-02  0.1172076E+00
         21   -1    0    0  501  502  0.00000000000E+00  0.00000000000E+00  0.17629354139E+03  0.17629354139E+03  0.00000000000E+00 0. -1.
         21   -1    0    0  502  503 -0.00000000000E+00 -0.00000000000E+00 -0.24073757385E+03  0.24073757385E+03  0.00000000000E+00 0.  1.
        -13    1    1    2    0    0 -0.87909962703E+02  0.12312718768E+02 -0.15409927510E+03  0.17783802275E+03  0.10566000000E+00 0.  1.
         13    1    1    2    0    0  0.89443474874E+02  0.27003824643E+02  0.33295849487E+02  0.99186523782E+02  0.10566000000E+00 0. -1.
          4    1    1    2  501    0  0.10197470298E+02 -0.32341545690E+02  0.94020347144E+02  0.99948935238E+02  0.00000000000E+00 0.  1.
         -4    1    1    2    0  503 -0.11730982469E+02 -0.69749977208E+01 -0.37660953995E+02  0.40057633463E+02  0.00000000000E+00 0. -1.
</event>
<event>
 6    1  0.1144920E-005  0.9339273E+02  0.7818608E-02  0.1175976E+00
         21   -1    0    0  503  502  0.00000000000E+00  0.00000000000E+00  0.25560192966E+03  0.25560192966E+03  0.00000000000E+00 0. -1.
         21   -1    0    0  501  503 -0.00000000000E+00 -0.00000000000E+00 -0.50147676796E+03  0.50147676796E+03  0.00000000000E+00 0. -1.
        -13    1    1    2    0    0  0.96417555697E+02  0.81015357268E+00  0.10314451826E+03  0.14119420741E+03  0.10566000000E+00 0.  1.
         13    1    1    2    0    0 -0.51231916204E+02  0.11232772301E+03 -0.18649067223E+03  0.22365376945E+03  0.10566000000E+00 0. -1.
          4    1    1    2  501    0 -0.60218977631E+01 -0.38816568027E+02 -0.26034453244E+03  0.26329121668E+03  0.00000000000E+00 0.  1.
         -4    1    1    2    0  502 -0.39163741730E+02 -0.74321308557E+02  0.97815848116E+02  0.12893950409E+03  0.00000000000E+00 0. -1.
</event>
<event>
 6    1  0.1664051E-005  0.1342597E+03  0.7818608E-02  0.1121012E+00
         21   -1    0    0  501  502  0.00000000000E+00  0.00000000000E+00  0.12053939600E+04  0.12053939600E+04  0.00000000000E+00 0. -1.
         21   -1    0    0  502  503 -0.00000000000E+00 -0.00000000000E+00 -0.40827086045E+03  0.40827086045E+03  0.00000000000E+00 0.  1.
        -13    1    1    2    0    0  0.51905798433E+01  0.83163756350E+02 -0.25735224927E+03  0.27050571872E+03  0.10566000000E+00 0.  1.
         13    1    1    2    0    0  0.78133740023E+02  0.16232589143E+03  0.87616693448E+03  0.89449599473E+03  0.10566000000E+00 0. -1.
          4    1    1    2  501    0 -0.24644409311E+02 -0.13097532961E+03  0.26284651039E+03  0.29470353222E+03  0.00000000000E+00 0.  1.
         -4    1    1    2    0  503 -0.58679910555E+02 -0.11451431817E+03 -0.84538096078E+02  0.15395957475E+03  0.00000000000E+00 0. -1.
</event>
<event>
 6    1  0.1144920E-005  0.1532856E+03  0.7818608E-02  0.1097916E+00
         21   -1    0    0  501  502  0.00000000000E+00  0.00000000000E+00  0.23751547393E+03  0.23751547393E+03  0.00000000000E+00 0.  1.
         21   -1    0    0  502  503 -0.00000000000E+00 -0.00000000000E+00 -0.24496332426E+03  0.24496332426E+03  0.00000000000E+00 0.  1.
        -13    1    1    2    0    0 -0.86897102110E+02  0.15955220834E+03  0.78631950134E+02  0.19796718993E+03  0.10566000000E+00 0.  1.
         13    1    1    2    0    0  0.26356061992E+02 -0.14111465753E+03  0.64890939031E+01  0.14370145468E+03  0.10566000000E+00 0. -1.
          4    1    1    2  501    0  0.71445070794E+02 -0.24560668334E+02 -0.37508731256E+02  0.84347670331E+02  0.00000000000E+00 0.  1.
         -4    1    1    2    0  503 -0.10904030675E+02  0.61231175212E+01 -0.55060163104E+02  0.56462483245E+02  0.00000000000E+00 0. -1.
</event>
<event>
 6    1  0.1144920E-005  0.7532219E+02  0.7818608E-02  0.1226536E+00
         21   -1    0    0  501  502  0.00000000000E+00  0.00000000000E+00  0.15837255923E+03  0.15837255923E+03  0.00000000000E+00 0. -1.
         21   -1    0    0  502  503 -0.00000000000E+00 -0.00000000000E+00 -0.20461407528E+03  0.20461407528E+03  0.00000000000E+00 0. -1.
        -13    1    1    2    0    0  0.55528894349E+02 -0.64328557270E+02 -0.21811073716E+01  0.85008174792E+02  0.10566000000E+00 0.  1.
         13    1    1    2    0    0  0.60205968785E+02  0.74932922782E+01  0.40322819281E+02  0.72848123004E+02  0.10566000000E+00 0. -1.
          4    1    1    2  501    0 -0.66198910187E+02  0.29829345738E+02  0.29236168835E+02  0.78274128198E+02  0.00000000000E+00 0.  1.
         -4    1    1    2    0  503 -0.49535952947E+02  0.27005919254E+02 -0.11361939680E+03  0.12685620851E+03  0.00000000000E+00 0. -1.
</event>
<event>
 6    1  0.1144920E-005  0.1686105E+03  0.7818608E-02  0.1084080E+00
         21   -1    0    0  501  502  0.00000000000E+00  0.00000000000E+00  0.41127925701E+03  0.41127925701E+03  0.00000000000E+00 0. -1.
         21   -1    0    0  502  503 -0.00000000000E+00 -0.00000000000E+00 -0.81874467978E+02  0.81874467978E+02  0.00000000000E+00 0.  1.
        -13    1    1    2    0    0  0.10534071968E+03  0.13994361673E+03  0.14982538017E+03  0.23049628802E+03  0.10566000000E+00 0.  1.
         13    1    1    2    0    0 -0.92150802863E+02 -0.13405559040E+03  0.14151797257E+03  0.21561544358E+03  0.10566000000E+00 0. -1.
          4    1    1    2  501    0 -0.60874974223E+01 -0.13946030718E+02  0.29908588001E+02  0.33557011695E+02  0.00000000000E+00 0.  1.
         -4    1    1    2    0  503 -0.71024193947E+01  0.80580043897E+01  0.81528482890E+01  0.13484981692E+02  0.00000000000E+00 0. -1.
</event>
<event>
 6    1  0.1144920E-005  0.2343160E+03  0.7818608E-02  0.1038857E+00
         21   -1    0    0  501  502  0.00000000000E+00  0.00000000000E+00  0.16221969241E+04  0.16221969241E+04  0.00000000000E+00 0. -1.
         21   -1    0    0  502  503 -0.00000000000E+00 -0.00000000000E+00 -0.33494341085E+03  0.33494341085E+03  0.00000000000E+00 0. -1.
        -13    1    1    2    0    0  0.64332714142E+02 -0.23644884357E+03 -0.56586830287E+02  0.25149320917E+03  0.10566000000E+00 0.  1.
         13    1    1    2    0    0 -0.46519225654E+02  0.23296258509E+03  0.13913036277E+04  0.14114394780E+04  0.10566000000E+00 0. -1.
          4    1    1    2  501    0  0.19491610785E+02 -0.10219622184E+01  0.12051113362E+03  0.12208153269E+03  0.00000000000E+00 0.  1.
         -4    1    1    2    0  503 -0.37305099274E+02  0.45082207026E+01 -0.16797441776E+03  0.17212611512E+03  0.00000000000E+00 0. -1.
</event>
<event>
 6    1  0.1144920E-005  0.1785576E+03  0.7818608E-02  0.1075921E+00
         21   -1    0    0  501  502  0.00000000000E+00  0.00000000000E+00  0.16905888261E+03  0.16905888261E+03  0.00000000000E+00 0. -1.
         21   -1    0    0  502  503 -0.00000000000E+00 -0.00000000000E+00 -0.14380433669E+04  0.14380433669E+04  0.00000000000E+00 0.  1.
        -13    1    1    2    0    0 -0.14754691240E+03 -0.16834728883E+03 -0.12762061924E+04  0.12956902245E+04  0.10566000000E+00 0.  1.
         13    1    1    2    0    0  0.13963472402E+03  0.12475643524E+03 -0.50792804028E+02  0.19401531999E+03  0.10566000000E+00 0. -1.
          4    1    1    2  501    0 -0.15432884820E+02 -0.12718395445E+02  0.52513183470E+02  0.56192223259E+02  0.00000000000E+00 0.  1.
         -4    1    1    2    0  503  0.23345073200E+02  0.56309249036E+02  0.55013287300E+01  0.61204481760E+02  0.00000000000E+00 0. -1.
</event>
<event>
 6    1  0.1144920E-005  0.1815160E+03  0.7818608E-02  0.1073604E+00
         21   -1    0    0  503  502  0.00000000000E+00  0.00000000000E+00  0.92588340925E+03  0.92588340925E+03  0.00000000000E+00 0.  1.
         21   -1    0    0  501  503 -0.00000000000E+00 -0.00000000000E+00 -0.67952309134E+02  0.67952309134E+02  0.00000000000E+00 0.  1.
        -13    1    1    2    0    0 -0.48115761184E+02  0.16869544133E+03  0.11494251517E+03  0.20972618186E+03  0.10566000000E+00 0.  1.
         13    1    1    2    0    0  0.54622032835E+02 -0.16449293103E+03  0.44811032274E+03  0.48046265552E+03  0.10566000000E+00 0. -1.
          4    1    1    2  501    0 -0.21951641796E+00  0.23417399538E+02  0.24631786067E+03  0.24742859833E+03  0.00000000000E+00 0.  1.
         -4    1    1    2    0  502 -0.62867552333E+01 -0.27619909832E+02  0.48560401531E+02  0.56218282679E+02  0.00000000000E+00 0. -1.
</event>
<event>
 6    1  0.1144920E-005  0.6873781E+02  0.7818608E-02  0.1230079E+00
         21   -1    0    0  501  502  0.00000000000E+00  0.00000000000E+00  0.11726218638E+02  0.11726218638E+02  0.00000000000E+00 0. -1.
         21   -1    0    0  502  503 -0.00000000000E+00 -0.00000000000E+00 -0.12344604965E+04  0.12344604965E+04  0.00000000000E+00 0.  1.
        -13    1    1    2    0    0  0.11133592633E+02 -0.85225545409E+02 -0.50155589217E+03  0.50886705003E+03  0.10566000000E+00 0.  1.
         13    1    1    2    0    0  0.72444160852E+00  0.55003698652E+02 -0.22312891540E+03  0.22980960757E+03  0.10566000000E+00 0. -1.
          4    1    1    2  501    0 -0.22811208548E+02  0.13843068296E+02 -0.34851296857E+02  0.43892991102E+02  0.00000000000E+00 0.  1.
         -4    1    1    2    0  503  0.10953174306E+02  0.16378778461E+02 -0.46319817347E+03  0.46361706647E+03  0.00000000000E+00 0. -1.
</event>
<event>
 6    1  0.1144920E-005  0.1522826E+03  0.7818608E-02  0.1098882E+00
         21   -1    0    0  503  502  0.00000000000E+00  0.00000000000E+00  0.89040418545E+02  0.89040418545E+02  0.00000000000E+00 0.  1.
         21   -1    0    0  501  503 -0.00000000000E+00 -0.00000000000E+00 -0.48933798643E+03  0.48933798643E+03  0.00000000000E+00 0. -1.
        -13    1    1    2    0    0  0.41446089382E+02  0.13570207816E+03 -0.70168500343E+02  0.15829233066E+03  0.10566000000E+00 0.  1.
         13    1    1    2    0    0 -0.84330970515E+02 -0.15057599652E+03 -0.21739332066E+03  0.27756928928E+03  0.10566000000E+00 0. -1.
          4    1    1    2  501    0  0.17572101229E-01  0.36162401015E+02 -0.30231038067E+02  0.47134225554E+02  0.00000000000E+00 0.  1.
         -4    1    1    2    0  502  0.42867309032E+02 -0.21288482654E+02 -0.82504708808E+02  0.95382559479E+02  0.00000000000E+00 0. -1.
</event>
<event>
 6    1  0.1144920E-005  0.3527315E+02  0.7818608E-02  0.1366966E+00
         21   -1    0    0  501  502  0.00000000000E+00  0.00000000000E+00  0.12277876920E+03  0.12277876920E+03  0.00000000000E+00 0. -1.
         21   -1    0    0  502  503 -0.00000000000E+00 -0.00000000000E+00 -0.66156019211E+02  0.66156019211E+02  0.00000000000E+00 0. -1.
        -13    1    1    2    0    0  0.63857837456E+00 -0.24412221796E+02 -0.16102937011E+02  0.29252010183E+02  0.10566000000E+00 0.  1.
         13    1    1    2    0    0 -0.21736174108E+01  0.57435354729E+02  0.81719812329E+02  0.99908375407E+02  0.10566000000E+00 0. -1.
          4    1    1    2  501    0  0.96782767578E+00 -0.20629856651E+02  0.19682344175E+02  0.28529324354E+02  0.00000000000E+00 0.  1.
         -4    1    1    2    0  503  0.56721136043E+00 -0.12393276282E+02 -0.28676469499E+02  0.31245078471E+02  0.00000000000E+00 0. -1.
</event>
<event>
 6    1  0.1144920E-005  0.3196782E+02  0.7818608E-02  0.1441656E+00
         21   -1    0    0  501  502  0.00000000000E+00  0.00000000000E+00  0.12521681541E+03  0.12521681541E+03  0.00000000000E+00 0. -1.
         21   -1    0    0  502  503 -0.00000000000E+00 -0.00000000000E+00 -0.15432918391E+03  0.15432918391E+03  0.00000000000E+00 0.  1.
        -13    1    1    2    0    0  0.81304588547E+01 -0.32543128790E+02 -0.10094498793E+03  0.10637227715E+03  0.10566000000E+00 0.  1.
         13    1    1    2    0    0 -0.96347030061E+01 -0.99033219249E+01  0.34397719030E+02  0.37069091244E+02  0.10566000000E+00 0. -1.
          4    1    1    2  501    0 -0.36017005796E+01  0.31726883080E+02  0.83046182657E+02  0.88973230867E+02  0.00000000000E+00 0.  1.
         -4    1    1    2    0  503  0.51059447310E+01  0.10719567635E+02 -0.45611282253E+02  0.47131400050E+02  0.00000000000E+00 0. -1.
</event>
<event>
 6    1  0.1144920E-005  0.7824712E+02  0.7818608E-02  0.1206613E+00
         21   -1    0    0  501  502  0.00000000000E+00  0.00000000000E+00  0.73417083542E+02  0.73417083542E+02  0.00000000000E+00 0. -1.
         21   -1    0    0  502  503 -0.00000000000E+00 -0.00000000000E+00 -0.13797320364E+03  0.13797320364E+03  0.00000000000E+00 0.  1.
        -13    1    1    2    0    0 -0.65196661374E+02 -0.29686214684E+02 -0.48375976701E+02  0.86441438456E+02  0.10566000000E+00 0.  1.
         13    1    1    2    0    0  0.85475994904E+02  0.13430126750E+02 -0.33347945037E+02  0.92728693572E+02  0.10566000000E+00 0. -1.
          4    1    1    2  501    0 -0.11129345089E+02  0.10153506700E+02  0.14485551331E+02  0.20899454963E+02  0.00000000000E+00 0.  1.
         -4    1    1    2    0  503 -0.91499884412E+01  0.61025812338E+01  0.26822503046E+01  0.11320700194E+02  0.00000000000E+00 0. -1.
</event>
<event>
 6    1  0.1144920E-005  0.1391480E+03  0.7818608E-02  0.1112337E+00
         21   -1    0    0  503  502  0.00000000000E+00  0.00000000000E+00  0.20771333566E+03  0.20771333566E+03  0.00000000000E+00 0. -1.
         21   -1    0    0  501  503 -0.00000000000E+00 -0.00000000000E+00 -0.17119868532E+03  0.17119868532E+03  0.00000000000E+00 0. -1.
        -13    1    1    2    0    0 -0.19131526992E+02 -0.11002904000E+03  0.22475333327E+02  0.11391907979E+03  0.10566000000E+00 0.  1.
         13    1    1    2    0    0 -0.19595372293E+02  0.17550795915E+03  0.17012253780E+02  0.17741603727E+03  0.10566000000E+00 0. -1.
          4    1    1    2  501    0  0.89023066828E+01 -0.31837078323E+02 -0.20971740840E+02  0.39149259690E+02  0.00000000000E+00 0.  1.
         -4    1    1    2    0  502  0.29824592602E+02 -0.33641840824E+02  0.17998804064E+02  0.48427644230E+02  0.00000000000E+00 0. -1.
</event>
<event>
 6    1  0.1144920E-005  0.6820749E+02  0.7818608E-02  0.1277585E+00
         21   -1    0    0  501  502  0.00000000000E+00  0.00000000000E+00  0.11857283299E+03  0.11857283299E+03  0.00000000000E+00 0. -1.
         21   -1    0    0  502  503 -0.00000000000E+00 -0.00000000000E+00 -0.15804917177E+04  0.15804917177E+04  0.00000000000E+00 0. -1.
        -13    1    1    2    0    0 -0.81965843332E+02 -0.10006499753E+03 -0.56308783014E+03  0.57775368352E+03  0.10566000000E+00 0.  1.
         13    1    1    2    0    0 -0.18428028394E+02  0.46149839553E+02  0.40810151838E+02  0.64303029309E+02  0.10566000000E+00 0. -1.
          4    1    1    2  501    0  0.88537614231E+01 -0.71920680208E+01  0.55063490556E+02  0.56232578867E+02  0.00000000000E+00 0.  1.
         -4    1    1    2    0  503  0.91540110302E+02  0.61107225993E+02 -0.99470469698E+03  0.10007752590E+04  0.00000000000E+00 0. -1.
</event>
<event>
 6    1  0.1144920E-005  0.5725614E+02  0.7818608E-02  0.1274795E+00
         21   -1    0    0  503  502  0.00000000000E+00  0.00000000000E+00  0.17242125086E+03  0.17242125086E+03  0.00000000000E+00 0.  1.
         21   -1    0    0  501  503 -0.00000000000E+00 -0.00000000000E+00 -0.10197052532E+03  0.10197052532E+03  0.00000000000E+00 0. -1.
        -13    1    1    2    0    0  0.69915421885E+02  0.34170709384E+01  0.54366461084E+02  0.88631630054E+02  0.10566000000E+00 0.  1.
         13    1    1    2    0    0 -0.36327469848E+02 -0.35314736531E+02 -0.17771269656E+02  0.53690267936E+02  0.10566000000E+00 0. -1.
          4    1    1    2  501    0 -0.18883278292E+02 -0.45257010158E+02  0.15217289548E+02  0.51345312042E+02  0.00000000000E+00 0.  1.
         -4    1    1    2    0  502 -0.14704673744E+02  0.77154675750E+02  0.18638244568E+02  0.80724566153E+02  0.00000000000E+00 0. -1.
</event>
<event>
 6    1  0.1144920E-005  0.3922071E+02  0.7818608E-02  0.1377400E+00
         21   -1    0    0  503  502  0.00000000000E+00  0.00000000000E+00  0.28406588044E+03  0.28406588044E+03  0.00000000000E+00 0.  1.
         21   -1    0    0  501  503 -0.00000000000E+00 -0.00000000000E+00 -0.22430217868E+02  0.22430217868E+02  0.00000000000E+00 0. -1.
        -13    1    1    2    0    0  0.34006306465E+02 -0.30327243784E+02  0.44024509624E+02  0.63358813172E+02  0.10566000000E+00 0.  1.
         13    1    1    2    0    0 -0.19749455763E+02  0.79152388309E+01 -0.19832793059E+01  0.21369056355E+02  0.10566000000E+00 0. -1.
          4    1    1    2  501    0 -0.15520138282E+02  0.11968714289E+02  0.16584597324E+03  0.16700003489E+03  0.00000000000E+00 0.  1.
         -4    1    1    2    0  502  0.12632875800E+01  0.10443290664E+02  0.53748459017E+02  0.54768193891E+02  0.00000000000E+00 0. -1.
</event>
<event>
 6    1  0.1144920E-005  0.2229814E+02  0.7818608E-02  0.1480191E+00
         21   -1    0    0  501  502  0.00000000000E+00  0.00000000000E+00  0.28544902290E+02  0.28544902290E+02  0.00000000000E+00 0. -1.
         21   -1    0    0  502  503 -0.00000000000E+00 -0.00000000000E+00 -0.12893782882E+03  0.12893782882E+03  0.00000000000E+00 0. -1.
        -13    1    1    2    0    0  0.14899400502E+02  0.11132378774E+02 -0.29946275437E+02  0.35252128575E+02  0.10566000000E+00 0.  1.
         13    1    1    2    0    0 -0.19079911503E+02 -0.17125128739E+02  0.11213499674E+02  0.27983330686E+02  0.10566000000E+00 0. -1.
          4    1    1    2  501    0  0.98140645240E+01 -0.53165019207E+01  0.45006518445E+00  0.11170658612E+02  0.00000000000E+00 0.  1.
         -4    1    1    2    0  503 -0.56335535231E+01  0.11309251886E+02 -0.82110215946E+02  0.83076613233E+02  0.00000000000E+00 0. -1.
</event>
<event>
 6    1  0.1144920E-005  0.3233124E+03  0.7818608E-02  0.9981217E-01
         21   -1    0    0  503  502  0.00000000000E+00  0.00000000000E+00  0.81484184342E+03  0.81484184342E+03  0.00000000000E+00 0.  1.
         21   -1    0    0  501  503 -0.00000000000E+00 -0.00000000000E+00 -0.29295566868E+03  0.29295566868E+03  0.00000000000E+00 0. -1.
        -13    1    1    2    0    0 -0.23745519139E+03 -0.14961036448E+03  0.30495025937E+03  0.41444288018E+03  0.10566000000E+00 0.  1.
         13    1    1    2    0    0  0.35597877754E+03  0.98659759218E+02  0.23439358391E+03  0.43748714437E+03  0.10566000000E+00 0. -1.
          4    1    1    2  501    0  0.21486836452E+02  0.76175783810E+01 -0.89640243591E+02  0.92493702014E+02  0.00000000000E+00 0.  1.
         -4    1    1    2    0  502 -0.14001042260E+03  0.43333026883E+02  0.72182575057E+02  0.16337378553E+03  0.00000000000E+00 0. -1.
</event>
<event>
 6    1  0.1144920E-005  0.1907813E+03  0.7818608E-02  0.1066646E+00
         21   -1    0    0  501  502  0.00000000000E+00  0.00000000000E+00  0.46533403772E+03  0.46533403772E+03  0.00000000000E+00 0.  1.
         21   -1    0    0  502  503 -0.00000000000E+00 -0.00000000000E+00 -0.16563784141E+03  0.16563784141E+03  0.00000000000E+00 0. -1.
        -13    1    1    2    0    0 -0.18160465942E+03 -0.72142791869E+02  0.46068489525E+01  0.19546372800E+03  0.10566000000E+00 0.  1.
         13    1    1    2    0    0  0.15485395281E+03  0.63496557153E+02  0.30201559634E+03  0.34528972048E+03  0.10566000000E+00 0. -1.
          4    1    1    2  501    0 -0.18505334084E+02  0.33420699711E+02 -0.31620816088E+00  0.38203279261E+02  0.00000000000E+00 0.  1.
         -4    1    1    2    0  503  0.45256040694E+02 -0.24774464995E+02 -0.66100408136E+01  0.52015151395E+02  0.00000000000E+00 0. -1.
</event>
<event>
 6    1  0.1144920E-005  0.1450036E+03  0.7818608E-02  0.1139951E+00
         21   -1    0    0  501  502  0.00000000000E+00  0.00000000000E+00  0.27098114929E+03  0.27098114929E+03  0.00000000000E+00 0. -1.
         21   -1    0    0  502  503 -0.00000000000E+00 -0.00000000000E+00 -0.61688116499E+03  0.61688116499E+03  0.00000000000E+00 0.  1.
        -13    1    1    2    0    0 -0.68009648561E+02 -0.65189149853E+02 -0.17341711279E+02  0.95789788965E+02  0.10566000000E+00 0.  1.
         13    1    1    2    0    0 -0.10987068050E+03  0.20375459821E+03  0.85595379096E+02  0.24680778515E+03  0.10566000000E+00 0. -1.
          4    1    1    2  501    0  0.15621610031E+03 -0.16296466238E+03 -0.13256275595E+03  0.26178967788E+03  0.00000000000E+00 0.  1.
         -4    1    1    2    0  503  0.21664228753E+02  0.24399214026E+02 -0.28159092757E+03  0.28347506229E+03  0.00000000000E+00 0. -1.
</event>
<event>
 6    1  0.1144920E-005  0.8698349E+02  0.7818608E-02  0.1188097E+00
         21   -1    0    0  501  502  0.00000000000E+00  0.00000000000E+00  0.38449106356E+03  0.38449106356E+03  0.00000000000E+00 0.  1.
         21   -1    0    0  502  503 -0.00000000000E+00 -0.00000000000E+00 -0.11079480317E+03  0.11079480317E+03  0.00000000000E+00 0.  1.
        -13    1    1    2    0    0 -0.26929739023E+02 -0.83618991295E+02 -0.43427619728E+02  0.97996509470E+02  0.10566000000E+00 0.  1.
         13    1    1    2    0    0 -0.32077773786E+01  0.10417447255E+03  0.10244769905E+03  0.14614428751E+03  0.10566000000E+00 0. -1.
          4    1    1    2  501    0  0.11032987454E+02 -0.22557338263E+02  0.22695948806E+03  0.22834440992E+03  0.00000000000E+00 0.  1.
         -4    1    1    2    0  503  0.19104528948E+02  0.20018570069E+01 -0.12283306991E+02  0.22800659825E+02  0.00000000000E+00 0. -1.
</event>
<event>
 6    1  0.1144920E-005  0.1728416E+03  0.7818608E-02  0.1080537E+00
         21   -1    0    0  503  502  0.00000000000E+00  0.00000000000E+00  0.85206935465E+02  0.85206935465E+02  0.00000000000E+00 0.  1.
         21   -1    0    0  501  503 -0.00000000000E+00 -0.00000000000E+00 -0.80296391081E+03  0.80296391081E+03  0.00000000000E+00 0. -1.
        -13    1    1    2    0    0 -0.71079348683E+01 -0.19198708517E+03 -0.11730178274E+03  0.22509838517E+03  0.10566000000E+00 0.  1.
         13    1    1    2    0    0  0.47321896842E+02  0.15445005505E+03 -0.37189278788E+03  0.40546077278E+03  0.10566000000E+00 0. -1.
          4    1    1    2  501    0 -0.26188306256E+02  0.15386563723E+02 -0.22937909348E+03  0.23138137836E+03  0.00000000000E+00 0.  1.
         -4    1    1    2    0  502 -0.14025655717E+02  0.22150466400E+02  0.81668874971E+00  0.26230309959E+02  0.00000000000E+00 0. -1.
</event>
<event>
 6    1  0.1144920E-005  0.7694292E+02  0.7818608E-02  0.1209606E+00
         21   -1    0    0  503  502  0.00000000000E+00  0.00000000000E+00  0.24361001362E+03  0.24361001362E+03  0.00000000000E+00 0.  1.
         21   -1    0    0  501  503 -0.00000000000E+00 -0.00000000000E+00 -0.91726133681E+02  0.91726133681E+02  0.00000000000E+00 0. -1.
        -13    1    1    2    0    0 -0.57845882084E+02  0.31769868018E+02  0.67888588504E+02  0.94680210187E+02  0.10566000000E+00 0.  1.
         13    1    1    2    0    0  0.77644561343E+02 -0.68507115476E+02 -0.18583924571E+02  0.10520112259E+03  0.10566000000E+00 0. -1.
          4    1    1    2  501    0 -0.89180541928E+00  0.50362833290E+02  0.28670119605E+02  0.57958485591E+02  0.00000000000E+00 0.  1.
         -4    1    1    2    0  502 -0.18906873840E+02 -0.13625585832E+02  0.73909096403E+02  0.77496328937E+02  0.00000000000E+00 0. -1.
</event>
<event>
 6    1  0.1144920E-005  0.8503771E+02  0.7818608E-02  0.1192008E+00
         21   -1    0    0  501  502  0.00000000000E+00  0.00000000000E+00  0.79095521258E+02  0.79095521258E+02  0.00000000000E+00 0. -1.
         21   -1    0    0  502  503 -0.00000000000E+00 -0.00000000000E+00 -0.23354004588E+03  0.23354004588E+03  0.00000000000E+00 0.  1.
        -13    1    1    2    0    0  0.93858167382E+02 -0.57182456743E+01 -0.15939588180E+03  0.18506515668E+03  0.10566000000E+00 0.  1.
         13    1    1    2    0    0 -0.75162068800E+02  0.28131124531E+02  0.11985885057E+02  0.81144127072E+02  0.10566000000E+00 0. -1.
          4    1    1    2  501    0 -0.85542236650E+01 -0.15738357322E+02  0.13596048513E+02  0.22488289594E+02  0.00000000000E+00 0.  1.
         -4    1    1    2    0  503 -0.10141874917E+02 -0.66745215353E+01 -0.20630576394E+02  0.23937993794E+02  0.00000000000E+00 0. -1.
</event>
<event>
 6    1  0.1144920E-005  0.6391478E+02  0.7818608E-02  0.1243660E+00
         21   -1    0    0  503  502  0.00000000000E+00  0.00000000000E+00  0.40032693433E+03  0.40032693433E+03  0.00000000000E+00 0.  1.
         21   -1    0    0  501  503 -0.00000000000E+00 -0.00000000000E+00 -0.33784455618E+02  0.33784455618E+02  0.00000000000E+00 0. -1.
        -13    1    1    2    0    0  0.78694464087E+02  0.34913614242E+02  0.52817453962E+02  0.10100234524E+03  0.10566000000E+00 0.  1.
         13    1    1    2    0    0 -0.46303810834E+02 -0.22543257305E+02  0.17289185371E+03  0.18039912858E+03  0.10566000000E+00 0. -1.
          4    1    1    2  501    0 -0.17846752675E+02 -0.14819078615E+02  0.18994154227E+02  0.29981487069E+02  0.00000000000E+00 0.  1.
         -4    1    1    2    0  502 -0.14543900578E+02  0.24487216767E+01  0.12183901681E+03  0.12272842906E+03  0.00000000000E+00 0. -1.
</event>
<event>
 6    1  0.1144920E-005  0.5753998E+02  0.7818608E-02  0.1293948E+00
         21   -1    0    0  501  502  0.00000000000E+00  0.00000000000E+00  0.82117320603E+02  0.82117320603E+02  0.00000000000E+00 0. -1.
         21   -1    0    0  502  503 -0.00000000000E+00 -0.00000000000E+00 -0.60639297435E+03  0.60639297435E+03  0.00000000000E+00 0. -1.
        -13    1    1    2    0    0  0.61522127805E+02  0.23119340612E+02 -0.17756036231E+03  0.18933348765E+03  0.10566000000E+00 0.  1.
         13    1    1    2    0    0  0.11998033286E+02 -0.29314645552E+02  0.56987452463E+02  0.65198789474E+02  0.10566000000E+00 0. -1.
          4    1    1    2  501    0 -0.55989103420E+02 -0.11263903729E+01 -0.37758074416E+02  0.67540511107E+02  0.00000000000E+00 0.  1.
         -4    1    1    2    0  503 -0.17531057671E+02  0.73216953128E+01 -0.36594466948E+03  0.36643750672E+03  0.00000000000E+00 0. -1.
</event>
<event>
 6    1  0.1144920E-005  0.1677091E+03  0.7818608E-02  0.1084849E+00
         21   -1    0    0  501  502  0.00000000000E+00  0.00000000000E+00  0.22865717118E+03  0.22865717118E+03  0.00000000000E+00 0. -1.
         21   -1    0    0  502  503 -0.00000000000E+00 -0.00000000000E+00 -0.25373689620E+03  0.25373689620E+03  0.00000000000E+00 0. -1.
        -13    1    1    2    0    0  0.12486064596E+03 -0.12386716879E+03 -0.16818405738E+01  0.17588660030E+03  0.10566000000E+00 0.  1.
         13    1    1    2    0    0 -0.72393393413E+02  0.14983512755E+03 -0.48810017756E+02  0.17341798597E+03  0.10566000000E+00 0. -1.
          4    1    1    2  501    0 -0.15984098622E+01  0.14684503772E+02  0.58297286828E+02  0.60139531230E+02  0.00000000000E+00 0.  1.
         -4    1    1    2    0  503 -0.50868842684E+02 -0.40652462537E+02 -0.32885153523E+02  0.72949949887E+02  0.00000000000E+00 0. -1.
</event>
<event>
 6    1  0.1144920E-005  0.9261829E+02  0.7818608E-02  0.1177382E+00
         21   -1    0    0  501  502  0.00000000000E+00  0.00000000000E+00  0.35804455407E+03  0.35804455407E+03  0.00000000000E+00 0.  1.
         21   -1    0    0  502  503 -0.00000000000E+00 -0.00000000000E+00 -0.15656760094E+03  0.15656760094E+03  0.00000000000E+00 0. -1.
        -13    1    1    2    0    0 -0.12069881843E+03  0.61579529827E+02 -0.35748330927E+02  0.14013635357E+03  0.10566000000E+00 0.  1.
         13    1    1    2    0    0  0.55699598378E+02 -0.31982380040E+02 -0.23278626106E+02  0.68317080514E+02  0.10566000000E+00 0. -1.
          4    1    1    2  501    0  0.13392230355E+02 -0.32205950576E+02  0.25125522869E+03  0.25366467044E+03  0.00000000000E+00 0.  1.
         -4    1    1    2    0  503  0.51606989696E+02  0.26088007883E+01  0.92486814751E+01  0.52494050483E+02  0.00000000000E+00 0. -1.
</event>
<event>
 6    1  0.1247614E-005  0.2433473E+03  0.7818608E-02  0.1033899E+00
         21   -1    0    0  503  502  0.00000000000E+00  0.00000000000E+00  0.17297388266E+04  0.17297388266E+04  0.00000000000E+00 0.  1.
         21   -1    0    0  501  503 -0.00000000000E+00 -0.00000000000E+00 -0.45898266407E+03  0.45898266407E+03  0.00000000000E+00 0.  1.
        -13    1    1    2    0    0 -0.10113910964E+03  0.26481257962E+03  0.15032405054E+04  0.15297342417E+04  0.10566000000E+00 0.  1.
         13    1    1    2    0    0  0.32658433840E+02 -0.26708412466E+03 -0.38956818175E+02  0.27187892120E+03  0.10566000000E+00 0. -1.
          4    1    1    2  501    0  0.74436831665E+02  0.54110702966E+02 -0.27520612890E+03  0.29018480916E+03  0.00000000000E+00 0.  1.
         -4    1    1    2    0  502 -0.59561558694E+01 -0.51839157925E+02  0.81678604223E+02  0.96923518689E+02  0.00000000000E+00 0. -1.
</event>
<event>
 6    1  0.1144920E-005  0.1166974E+03  0.7818608E-02  0.1139549E+00
         21   -1    0    0  501  502  0.00000000000E+00  0.00000000000E+00  0.38042994393E+03  0.38042994393E+03  0.00000000000E+00 0. -1.
         21   -1    0    0  502  503 -0.00000000000E+00 -0.00000000000E+00 -0.12696442534E+03  0.12696442534E+03  0.00000000000E+00 0.  1.
        -13    1    1    2    0    0 -0.24978426616E+02 -0.13320297502E+03  0.59601365634E+02  0.14805164065E+03  0.10566000000E+00 0.  1.
         13    1    1    2    0    0  0.95986453275E+01  0.10183838188E+03 -0.31681879649E+02  0.10708381146E+03  0.10566000000E+00 0. -1.
          4    1    1    2  501    0 -0.34377039676E+02  0.35570847305E+02  0.17230541529E+03  0.17926578639E+03  0.00000000000E+00 0.  1.
         -4    1    1    2    0  503  0.49756820965E+02 -0.42062541653E+01  0.53240617318E+02  0.72993130766E+02  0.00000000000E+00 0. -1.
</event>
<event>
 6    1  0.1144920E-005  0.6003989E+03  0.7818608E-02  0.9281528E-01
         21   -1    0    0  503  502  0.00000000000E+00  0.00000000000E+00  0.59401451628E+03  0.59401451628E+03  0.00000000000E+00 0. -1.
         21   -1    0    0  501  503 -0.00000000000E+00 -0.00000000000E+00 -0.19168926737E+04  0.19168926737E+04  0.00000000000E+00 0. -1.
        -13    1    1    2    0    0 -0.58970640031E+03  0.74911478639E+02 -0.52394956677E+03  0.79239417456E+03  0.10566000000E+00 0.  1.
         13    1    1    2    0    0  0.60565877512E+03 -0.11476314819E+03 -0.13441632652E+03  0.63092067018E+03  0.10566000000E+00 0. -1.
          4    1    1    2  501    0  0.78558741200E+01  0.18088035091E+02 -0.87471086478E+03  0.87493313387E+03  0.00000000000E+00 0.  1.
         -4    1    1    2    0  502 -0.23808248933E+02  0.21763634456E+02  0.21019860060E+03  0.21265921141E+03  0.00000000000E+00 0. -1.
</event>
<event>
 6    1  0.1144920E-005  0.7063204E+02  0.7818608E-02  0.1225079E+00
         21   -1    0    0  503  502  0.00000000000E+00  0.00000000000E+00  0.16758820747E+02  0.16758820747E+02  0.00000000000E+00 0. -1.
         21   -1    0    0  501  503 -0.00000000000E+00 -0.00000000000E+00 -0.63962817556E+03  0.63962817556E+03  0.00000000000E+00 0. -1.
        -13    1    1    2    0    0 -0.29511202120E+02  0.76410736832E+02 -0.15696585433E+03  0.17705310599E+03  0.10566000000E+00 0.  1.
         13    1    1    2    0    0  0.41812018161E+02 -0.55003014230E+02 -0.33906413636E+03  0.34603190051E+03  0.10566000000E+00 0. -1.
          4    1    1    2  501    0  0.98120074342E+01 -0.14487620569E+02 -0.46303372299E+02  0.49499181063E+02  0.00000000000E+00 0.  1.
         -4    1    1    2    0  502 -0.22112823475E+02 -0.69201020327E+01 -0.80535991830E+02  0.83802808749E+02  0.00000000000E+00 0. -1.
</event>
<event>
 6    1  0.1239162E-005  0.4080552E+02  0.7818608E-02  0.1341508E+00
         21   -1    0    0  501  502  0.00000000000E+00  0.00000000000E+00  0.51661198957E+03  0.51661198957E+03  0.00000000000E+00 0.  1.
         21   -1    0    0  502  503 -0.00000000000E+00 -0.00000000000E+00 -0.20757219872E+03  0.20757219872E+03  0.00000000000E+00 0.  1.
        -13    1    1    2    0    0  0.16300503766E+02  0.65328413910E+02 -0.15845169240E+03  0.17216404409E+03  0.10566000000E+00 0.  1.
         13    1    1    2    0    0  0.28347990695E+01 -0.57493831304E+02  0.91958139460E+02  0.10848911144E+03  0.10566000000E+00 0. -1.
          4    1    1    2  501    0  0.12573182397E+02  0.27365975732E+02  0.39216545624E+03  0.39332013248E+03  0.00000000000E+00 0.  1.
         -4    1    1    2    0  503 -0.31708485232E+02 -0.35200558339E+02 -0.16632112455E+02  0.50210900289E+02  0.00000000000E+00 0. -1.
</event>
<event>
 6    1  0.1144920E-005  0.1662873E+03  0.7818608E-02  0.1086073E+00
         21   -1    0    0  503  502  0.00000000000E+00  0.00000000000E+00  0.26551220630E+03  0.26551220630E+03  0.00000000000E+00 0.  1.
         21   -1    0    0  501  503 -0.00000000000E+00 -0.00000000000E+00 -0.66342415571E+03  0.66342415571E+03  0.00000000000E+00 0.  1.
        -13    1    1    2    0    0  0.17806805021E+03 -0.32604707141E+02  0.69697359954E+02  0.19398203675E+03  0.10566000000E+00 0.  1.
         13    1    1    2    0    0 -0.12513330805E+03  0.10848085825E+03  0.36013029257E+02  0.16947976525E+03  0.10566000000E+00 0. -1.
          4    1    1    2  501    0 -0.72427786358E+02 -0.31047989822E+02 -0.51011193863E+03  0.51616271838E+03  0.00000000000E+00 0.  1.
         -4    1    1    2    0  502  0.19493044195E+02 -0.44828161290E+02  0.64896000135E+01  0.49311841631E+02  0.00000000000E+00 0. -1.
</event>
<event>
 6    1  0.1144920E-005  0.6214580E+02  0.7818608E-02  0.1248978E+00
         21   -1    0    0  503  502  0.00000000000E+00  0.00000000000E+00  0.63960217645E+02  0.63960217645E+02  0.00000000000E+00 0.  1.
         21   -1    0    0  501  503 -0.00000000000E+00 -0.00000000000E+00 -0.15139976621E+03  0.15139976621E+03  0.00000000000E+00 0. -1.
        -13    1    1    2    0    0 -0.62682003532E+02  0.30805573307E+02  0.14461834272E+02  0.71324418877E+02  0.10566000000E+00 0.  1.
         13    1    1    2    0    0  0.50130774651E+02 -0.14350249538E+02 -0.97078077623E+02  0.11019613672E+03  0.10566000000E+00 0. -1.
          4    1    1    2  501    0  0.11537400539E+02 -0.19526406941E+01 -0.12729509618E+02  0.17290599527E+02  0.00000000000E+00 0.  1.
         -4    1    1    2    0  502  0.10138283418E+01 -0.14502683075E+02  0.79062044049E+01  0.16548828731E+02  0.00000000000E+00 0. -1.
</event>
<event>
 6    1  0.1144920E-005  0.9858333E+02  0.7818608E-02  0.1189463E+00
         21   -1    0    0  503  502  0.00000000000E+00  0.00000000000E+00  0.31324993400E+03  0.31324993400E+03  0.00000000000E+00 0. -1.
         21   -1    0    0  501  503 -0.00000000000E+00 -0.00000000000E+00 -0.18662837376E+03  0.18662837376E+03  0.00000000000E+00 0. -1.
        -13    1    1    2    0    0  0.54079685167E+02 -0.27533322813E+01  0.73046582452E+02  0.90928584936E+02  0.10566000000E+00 0.  1.
         13    1    1    2    0    0 -0.12469332358E+01  0.26379897407E+02 -0.98857329222E+02  0.10232417375E+03  0.10566000000E+00 0. -1.
          4    1    1    2  501    0  0.52321117975E+02  0.13190768615E+02 -0.51278807190E+02  0.74437973035E+02  0.00000000000E+00 0.  1.
         -4    1    1    2    0  502 -0.10515386991E+03 -0.36817333740E+02  0.20371111420E+03  0.23218757604E+03  0.00000000000E+00 0. -1.
</event>
<event>
 6    1  0.1144920E-005  0.3452945E+02  0.7818608E-02  0.1371842E+00
         21   -1    0    0  503  502  0.00000000000E+00  0.00000000000E+00  0.17596933509E+03  0.17596933509E+03  0.00000000000E+00 0.  1.
         21   -1    0    0  501  503 -0.00000000000E+00 -0.00000000000E+00 -0.66609058270E+02  0.66609058270E+02  0.00000000000E+00 0. -1.
        -13    1    1    2    0    0  0.24367383853E+01 -0.39345546966E+02  0.93069239677E+02  0.10107375672E+03  0.10566000000E+00 0.  1.
         13    1    1    2    0    0 -0.29885712478E+02  0.23233060469E+02 -0.50243777981E+02  0.62907704607E+02  0.10566000000E+00 0. -1.
          4    1    1    2  501    0  0.14874271227E+02  0.74381402914E+01  0.86801301994E+01  0.18759385272E+02  0.00000000000E+00 0.  1.
         -4    1    1    2    0  502  0.12574702866E+02  0.86743462052E+01  0.57854684924E+02  0.59837546757E+02  0.00000000000E+00 0. -1.
</event>
<event>
 6    1  0.1144920E-005  0.1368170E+03  0.7818608E-02  0.1152513E+00
         21   -1    0    0  501  502  0.00000000000E+00  0.00000000000E+00  0.39089608286E+03  0.39089608286E+03  0.00000000000E+00 0.  1.
         21   -1    0    0  502  503 -0.00000000000E+00 -0.00000000000E+00 -0.27793328770E+03  0.27793328770E+03  0.00000000000E+00 0. -1.
        -13    1    1    2    0    0  0.49038305936E+02  0.25482735020E+02 -0.24176264602E+02  0.60321042492E+02  0.10566000000E+00 0.  1.
         13    1    1    2    0    0 -0.78879923104E+02  0.10655910104E+03 -0.76715269463E+02  0.15317352257E+03  0.10566000000E+00 0. -1.
          4    1    1    2  501    0 -0.20055502563E+02  0.37024969706E+01  0.29080059064E+03  0.29151486271E+03  0.00000000000E+00 0.  1.
         -4    1    1    2    0  503  0.49897119731E+02 -0.13574433303E+03 -0.76946261407E+02  0.16381994278E+03  0.00000000000E+00 0. -1.
</event>
<event>
 6    1  0.1144920E-005  0.2347137E+03  0.7818608E-02  0.1038634E+00
         21   -1    0    0  501  502  0.00000000000E+00  0.00000000000E+00  0.70776310024E+03  0.70776310024E+03  0.00000000000E+00 0. -1.
         21   -1    0    0  502  503 -0.00000000000E+00 -0.00000000000E+00 -0.14528739886E+03  0.14528739886E+03  0.00000000000E+00 0. -1.
        -13    1    1    2    0    0  0.24940715373E+03 -0.74003881414E+00  0.11240305724E+03  0.27356705655E+03  0.10566000000E+00 0.  1.
         13    1    1    2    0    0 -0.21630271075E+03 -0.47094101433E+01  0.41925134317E+03  0.47178463427E+03  0.10566000000E+00 0. -1.
          4    1    1    2  501    0 -0.21608256311E+02  0.85954115288E+00  0.66503110666E+02  0.69930817813E+02  0.00000000000E+00 0.  1.
         -4    1    1    2    0  503 -0.11496186665E+02  0.45899078046E+01 -0.35681809689E+02  0.37767990470E+02  0.00000000000E+00 0. -1.
</event>
<event>
 6    1  0.1144920E-005  0.3077003E+03  0.7818608E-02  0.1004177E+00
         21   -1    0    0  501  502  0.00000000000E+00  0.00000000000E+00  0.10689342018E+04  0.10689342018E+04  0.00000000000E+00 0. -1.
         21   -1    0    0  502  503 -0.00000000000E+00 -0.00000000000E+00 -0.29212393044E+03  0.29212393044E+03  0.00000000000E+00 0.  1.
        -13    1    1    2    0    0  0.18579388145E+03  0.40437174099E+03  0.26630388583E+03  0.51860740649E+03  0.10566000000E+00 0.  1.
         13    1    1    2    0    0 -0.22633004704E+03 -0.12300280298E+03  0.19321745340E+03  0.32200617260E+03  0.10566000000E+00 0. -1.
          4    1    1    2  501    0  0.53596920136E+02 -0.60535817470E+02  0.28577452638E+03  0.29699207897E+03  0.00000000000E+00 0.  1.
         -4    1    1    2    0  503 -0.13060754541E+02 -0.22083312054E+03  0.31514405739E+02  0.22345247415E+03  0.00000000000E+00 0. -1.
</event>
<event>
 6    1  0.1144920E-005  0.9339324E+02  0.7818608E-02  0.1175975E+00
         21   -1    0    0  503  502  0.00000000000E+00  0.00000000000E+00  0.22742118444E+03  0.22742118444E+03  0.00000000000E+00 0.  1.
         21   -1    0    0  501  503 -0.00000000000E+00 -0.00000000000E+00 -0.74272064733E+02  0.74272064733E+02  0.00000000000E+00 0. -1.
        -13    1    1    2    0    0  0.31400425002E+01 -0.99691799091E+02  0.90316748185E+02  0.13455645967E+03  0.10566000000E+00 0.  1.
         13    1    1    2    0    0 -0.34978753623E+02  0.85672361129E+02  0.28454797004E+01  0.92581718418E+02  0.10566000000E+00 0. -1.
          4    1    1    2  501    0  0.19420426860E+02  0.39137987974E+01  0.10251432508E+02  0.22306112815E+02  0.00000000000E+00 0.  1.
         -4    1    1    2    0  502  0.12418284263E+02  0.10105639164E+02  0.49735459316E+02  0.52248958270E+02  0.00000000000E+00 0. -1.
</event>
<event>
 6    1  0.1144920E-005  0.9607988E+02  0.7818608E-02  0.1201798E+00
         21   -1    0    0  503  502  0.00000000000E+00  0.00000000000E+00  0.45852467941E+02  0.45852467941E+02  0.00000000000E+00 0. -1.
         21   -1    0    0  501  503 -0.00000000000E+00 -0.00000000000E+00 -0.50370952781E+03  0.50370952781E+03  0.00000000000E+00 0. -1.
        -13    1    1    2    0    0  0.13733279274E+02 -0.36200108032E+02 -0.38893531885E+02  0.54879584252E+02  0.10566000000E+00 0.  1.
         13    1    1    2    0    0 -0.79232412275E+02  0.22033407871E+02 -0.15866951598E+03  0.17871561958E+03  0.10566000000E+00 0. -1.
          4    1    1    2  501    0 -0.39855567412E+02  0.25147311641E+02 -0.17115911865E+03  0.17752830037E+03  0.00000000000E+00 0.  1.
         -4    1    1    2    0  502  0.10535470041E+03 -0.10980611480E+02 -0.89134893354E+02  0.13843849154E+03  0.00000000000E+00 0. -1.
</event>
<event>
 6    1  0.1144920E-005  0.4840233E+02  0.7818608E-02  0.1298434E+00
         21   -1    0    0  501  502  0.00000000000E+00  0.00000000000E+00  0.20893379484E+02  0.20893379484E+02  0.00000000000E+00 0.  1.
         21   -1    0    0  502  503 -0.00000000000E+00 -0.00000000000E+00 -0.36941180066E+03  0.36941180066E+03  0.00000000000E+00 0. -1.
        -13    1    1    2    0    0 -0.54650665278E+02 -0.27677958662E+02 -0.10245094698E+03  0.11936905928E+03  0.10566000000E+00 0.  1.
         13    1    1    2    0    0  0.42679588029E+02 -0.72598049975E+01 -0.12324659328E+03  0.13062919246E+03  0.10566000000E+00 0. -1.
          4    1    1    2  501    0  0.20279050854E+02 -0.96619181937E+01 -0.40293432981E+02  0.46131912036E+02  0.00000000000E+00 0.  1.
         -4    1    1    2    0  503 -0.83079736046E+01  0.44599681853E+02 -0.82527447931E+02  0.94175016373E+02  0.00000000000E+00 0. -1.
</event>
<event>
 6    1  0.1144920E-005  0.2372223E+03  0.7818608E-02  0.1037236E+00
         21   -1    0    0  503  502  0.00000000000E+00  0.00000000000E+00  0.60454977073E+03  0.60454977073E+03  0.00000000000E+00 0.  1.
         21   -1    0    0  501  503 -0.00000000000E+00 -0.00000000000E+00 -0.16462787307E+03  0.16462787307E+03  0.00000000000E+00 0. -1.
        -13    1    1    2    0    0 -0.17846379393E+03 -0.19438351264E+03  0.54334020301E+02  0.26941876820E+03  0.10566000000E+00 0.  1.
         13    1    1    2    0    0  0.15557977991E+03  0.15929972205E+03  0.32877235155E+03  0.39708026855E+03  0.10566000000E+00 0. -1.
          4    1    1    2  501    0  0.30273231435E+02  0.15818349984E+02 -0.76400536795E+01  0.35000845104E+02  0.00000000000E+00 0.  1.
         -4    1    1    2    0  502 -0.73892174108E+01  0.19265440600E+02  0.64455579487E+02  0.67677761950E+02  0.00000000000E+00 0. -1.
</event>
<event>
 6    1  0.1144920E-005  0.1392750E+03  0.7818608E-02  0.1112199E+00
         21   -1    0    0  503  502  0.00000000000E+00  0.00000000000E+00  0.12696497449E+03  0.12696497449E+03  0.00000000000E+00 0.  1.
         21   -1    0    0  501  503 -0.00000000000E+00 -0.00000000000E+00 -0.45856356622E+03  0.45856356622E+03  0.00000000000E+00 0. -1.
        -13    1    1    2    0    0  0.11438875147E+03 -0.17645238807E+02  0.46051468510E+02  0.12456680871E+03  0.10566000000E+00 0.  1.
         13    1    1    2    0    0 -0.15410340043E+03 -0.10159968494E+02 -0.32104882329E+03  0.35626316268E+03  0.10566000000E+00 0. -1.
          4    1    1    2  501    0  0.12203886907E+02  0.46483284501E+01 -0.66203428334E+02  0.67479150381E+02  0.00000000000E+00 0.  1.
         -4    1    1    2    0  502  0.27510762053E+02  0.23156878851E+02  0.96021913777E+01  0.37219418939E+02  0.00000000000E+00 0. -1.
</event>
<event>
 6    1  0.1144920E-005  0.1010244E+03  0.7818608E-02  0.1175668E+00
         21   -1    0    0  501  502  0.00000000000E+00  0.00000000000E+00  0.22255725238E+03  0.22255725238E+03  0.00000000000E+00 0. -1.
         21   -1    0    0  502  503 -0.00000000000E+00 -0.00000000000E+00 -0.70395833453E+03  0.70395833453E+03  0.00000000000E+00 0. -1.
        -13    1    1    2    0    0 -0.55551987417E+02 -0.26009397618E+02 -0.49678323399E+02  0.78933256934E+02  0.10566000000E+00 0.  1.
         13    1    1    2    0    0 -0.10127122473E+03  0.72086778111E+01  0.17149660702E+03  0.19929606965E+03  0.10566000000E+00 0. -1.
          4    1    1    2  501    0  0.74318819143E+02 -0.10192016287E+01 -0.52328074610E+02  0.90898586585E+02  0.00000000000E+00 0.  1.
         -4    1    1    2    0  503  0.82504393007E+02  0.19819921436E+02 -0.55089129117E+03  0.55738767374E+03  0.00000000000E+00 0. -1.
</event>
<event>
 6    1  0.1144920E-005  0.1570726E+03  0.7818608E-02  0.1111463E+00
         21   -1    0    0  501  502  0.00000000000E+00  0.00000000000E+00  0.66526096203E+03  0.66526096203E+03  0.00000000000E+00 0.  1.
         21   -1    0    0  502  503 -0.00000000000E+00 -0.00000000000E+00 -0.92739479385E+02  0.92739479385E+02  0.00000000000E+00 0.  1.
        -13    1    1    2    0    0  0.11135985858E+03 -0.37042797077E+02  0.55487704626E+02  0.12981557475E+03  0.10566000000E+00 0.  1.
         13    1    1    2    0    0  0.47654889351E+02  0.86621241792E+02  0.17694987954E+03  0.20269558220E+03  0.10566000000E+00 0. -1.
          4    1    1    2  501    0 -0.18704150671E+03 -0.34076514836E+02  0.34418097076E+03  0.39320004417E+03  0.00000000000E+00 0.  1.
         -4    1    1    2    0  503  0.28026758780E+02 -0.15501929879E+02 -0.40970722898E+01  0.32289240298E+02  0.00000000000E+00 0. -1.
</event>
<event>
 6    1  0.1144920E-005  0.5769466E+02  0.7818608E-02  0.1287549E+00
         21   -1    0    0  503  502  0.00000000000E+00  0.00000000000E+00  0.13618850089E+03  0.13618850089E+03  0.00000000000E+00 0.  1.
         21   -1    0    0  501  503 -0.00000000000E+00 -0.00000000000E+00 -0.96560401305E+02  0.96560401305E+02  0.00000000000E+00 0. -1.
        -13    1    1    2    0    0 -0.44147996071E+02  0.56055405334E+02  0.58555081303E+02  0.92303644211E+02  0.10566000000E+00 0.  1.
         13    1    1    2    0    0  0.15938603919E+02  0.14968124069E+02 -0.28637501382E+02  0.36030563171E+02  0.10566000000E+00 0. -1.
          4    1    1    2  501    0 -0.14601378164E+02  0.30425686887E+01 -0.81867411766E+01  0.17014117655E+02  0.00000000000E+00 0.  1.
         -4    1    1    2    0  502  0.42810770315E+02 -0.74066098092E+02  0.17897260839E+02  0.87400577155E+02  0.00000000000E+00 0. -1.
</event>
<event>
 6    1  0.1144920E-005  0.1025356E+03  0.7818608E-02  0.1221951E+00
         21   -1    0    0  503  502  0.00000000000E+00  0.00000000000E+00  0.53131468889E+03  0.53131468889E+03  0.00000000000E+00 0. -1.
         21   -1    0    0  501  503 -0.00000000000E+00 -0.00000000000E+00 -0.67015980383E+02  0.67015980383E+02  0.00000000000E+00 0. -1.
        -13    1    1    2    0    0  0.25323962836E+02  0.10871413944E+03  0.14908640180E+03  0.18624401620E+03  0.10566000000E+00 0.  1.
         13    1    1    2    0    0  0.75470425682E+01 -0.23677838192E+02 -0.27849771974E+02  0.37325846756E+02  0.10566000000E+00 0. -1.
          4    1    1    2  501    0 -0.25026090061E+02 -0.91461495833E+02  0.12717023803E+03  0.15863095488E+03  0.00000000000E+00 0.  1.
         -4    1    1    2    0  502 -0.78449153434E+01  0.64251945899E+01  0.21589184065E+03  0.21612985143E+03  0.00000000000E+00 0. -1.
</event>
<event>
 6    1  0.1144920E-005  0.2159596E+03  0.7818608E-02  0.1049713E+00
         21   -1    0    0  503  502  0.00000000000E+00  0.00000000000E+00  0.25674294084E+04  0.25674294084E+04  0.00000000000E+00 0.  1.
         21   -1    0    0  501  503 -0.00000000000E+00 -0.00000000000E+00 -0.75960279628E+02  0.75960279628E+02  0.00000000000E+00 0.  1.
        -13    1    1    2    0    0 -0.21933175440E+03 -0.38199836064E+02  0.10996888882E+04  0.11219988003E+04  0.10566000000E+00 0.  1.
         13    1    1    2    0    0  0.20818915049E+03  0.35563041712E+02  0.50108649908E+03  0.54377857906E+03  0.10566000000E+00 0. -1.
          4    1    1    2  501    0  0.68373956340E+01 -0.24413887819E+02 -0.39542815630E+02  0.46972568222E+02  0.00000000000E+00 0.  1.
         -4    1    1    2    0  502  0.43052082803E+01  0.27050682170E+02  0.93023655718E+03  0.93063974047E+03  0.00000000000E+00 0. -1.
</event>
<event>
 6    1  0.1144920E-005  0.5148564E+02  0.7818608E-02  0.1285855E+00
         21   -1    0    0  503  502  0.00000000000E+00  0.00000000000E+00  0.20068241359E+03  0.20068241359E+03  0.00000000000E+00 0.  1.
         21   -1    0    0  501  503 -0.00000000000E+00 -0.00000000000E+00 -0.39361323327E+02  0.39361323327E+02  0.00000000000E+00 0. -1.
        -13    1    1    2    0    0 -0.20174140655E+02  0.29704742394E+02  0.53807116586E+02  0.64688365501E+02  0.10566000000E+00 0.  1.
         13    1    1    2    0    0  0.11800645798E+02 -0.81670531192E+02  0.54360612769E+02  0.98815071174E+02  0.10566000000E+00 0. -1.
          4    1    1    2  501    0  0.19390812637E+01  0.31428809829E+02  0.20998785302E+02  0.37848105733E+02  0.00000000000E+00 0.  1.
         -4    1    1    2    0  502  0.64344135934E+01  0.20536978969E+02  0.32154575607E+02  0.38692194509E+02  0.00000000000E+00 0. -1.
</event>
<event>
 6    1  0.1144920E-005  0.1349610E+03  0.7818608E-02  0.1116970E+00
         21   -1    0    0  501  502  0.00000000000E+00  0.00000000000E+00  0.14205812534E+03  0.14205812534E+03  0.00000000000E+00 0. -1.
         21   -1    0    0  502  503 -0.00000000000E+00 -0.00000000000E+00 -0.31451295356E+03  0.31451295356E+03  0.00000000000E+00 0. -1.
        -13    1    1    2    0    0 -0.58269003827E+02 -0.79683610196E+02 -0.12620690744E+03  0.16022780405E+03  0.10566000000E+00 0.  1.
         13    1    1    2    0    0  0.10475951241E+03  0.13814916283E+03 -0.66362123406E+00  0.17337877087E+03  0.10566000000E+00 0. -1.
          4    1    1    2  501    0 -0.49321717428E+02 -0.27360966937E+01  0.22759257947E+01  0.49449953219E+02  0.00000000000E+00 0.  1.
         -4    1    1    2    0  503  0.28312088413E+01 -0.55729455943E+02 -0.47860225335E+02  0.73514550752E+02  0.00000000000E+00 0. -1.
</event>
<event>
 6    1  0.1144920E-005  0.1021407E+03  0.7818608E-02  0.1161061E+00
         21   -1    0    0  503  502  0.00000000000E+00  0.00000000000E+00  0.35183890727E+03  0.35183890727E+03  0.00000000000E+00 0. -1.
         21   -1    0    0  501  503 -0.00000000000E+00 -0.00000000000E+00 -0.49931191434E+02  0.49931191434E+02  0.00000000000E+00 0.  1.
        -13    1    1    2    0    0 -0.43600229543E+02 -0.94292404452E+02  0.49763194918E+02  0.11518864651E+03  0.10566000000E+00 0.  1.
         13    1    1    2    0    0  0.35930991964E+02  0.81569725001E+02  0.21499579195E+03  0.23273989331E+03  0.10566000000E+00 0. -1.
          4    1    1    2  501    0 -0.13607418206E+02 -0.80985635034E+00  0.11007634086E+02  0.17521007555E+02  0.00000000000E+00 0.  1.
         -4    1    1    2    0  502  0.21276655786E+02  0.13532535801E+02  0.26141094889E+02  0.36320551326E+02  0.00000000000E+00 0. -1.
</event>
<event>
 6    1  0.1144920E-005  0.1553756E+03  0.7818608E-02  0.1095928E+00
         21   -1    0    0  501  502  0.00000000000E+00  0.00000000000E+00  0.63063924711E+03  0.63063924711E+03  0.00000000000E+00 0. -1.
         21   -1    0    0  502  503 -0.00000000000E+00 -0.00000000000E+00 -0.15069779674E+03  0.15069779674E+03  0.00000000000E+00 0.  1.
        -13    1    1    2    0    0 -0.40729574447E+02 -0.12968618735E+03  0.45825224686E+02  0.14344813629E+03  0.10566000000E+00 0.  1.
         13    1    1    2    0    0  0.91473972913E+02  0.15612374457E+03  0.29415164923E+02  0.18332314210E+03  0.10566000000E+00 0. -1.
          4    1    1    2  501    0 -0.12526857721E+02 -0.15334615814E+02  0.41336248730E+03  0.41383646349E+03  0.00000000000E+00 0.  1.
         -4    1    1    2    0  503 -0.38217540745E+02 -0.11102941407E+02 -0.86614265413E+01  0.40729301961E+02  0.00000000000E+00 0. -1.
</event>
<event>
 6    1  0.1144920E-005  0.7388302E+02  0.7818608E-02  0.1216893E+00
         21   -1    0    0  503  502  0.00000000000E+00  0.00000000000E+00  0.37623439393E+02  0.37623439393E+02  0.00000000000E+00 0.  1.
         21   -1    0    0  501  503 -0.00000000000E+00 -0.00000000000E+00 -0.76333529070E+03  0.76333529070E+03  0.00000000000E+00 0. -1.
        -13    1    1    2    0    0 -0.59337513908E+02  0.52368095859E+02 -0.80856701456E+02  0.11314227925E+03  0.10566000000E+00 0.  1.
         13    1    1    2    0    0  0.10226768368E+03 -0.33266654167E+02 -0.36156086828E+03  0.37721561744E+03  0.10566000000E+00 0. -1.
          4    1    1    2  501    0 -0.46871958714E+02  0.13367337265E+02 -0.27148716739E+03  0.27582775110E+03  0.00000000000E+00 0.  1.
         -4    1    1    2    0  502  0.39417889434E+01 -0.32468778956E+02 -0.11807114174E+02  0.34773082292E+02  0.00000000000E+00 0. -1.
</event>
<event>
 6    1  0.1144920E-005  0.9748448E+02  0.7818608E-02  0.1168786E+00
         21   -1    0    0  501  502  0.00000000000E+00  0.00000000000E+00  0.30547811584E+03  0.30547811584E+03  0.00000000000E+00 0. -1.
         21   -1    0    0  502  503 -0.00000000000E+00 -0.00000000000E+00 -0.71974910965E+02  0.71974910965E+02  0.00000000000E+00 0.  1.
        -13    1    1    2    0    0 -0.79142544218E+02 -0.69977028862E+02  0.70641605300E+02  0.12708491034E+03  0.10566000000E+00 0.  1.
         13    1    1    2    0    0  0.70824189992E+02  0.66799095814E+02  0.75860628583E+02  0.12342216666E+03  0.10566000000E+00 0. -1.
          4    1    1    2  501    0 -0.17559832500E+02 -0.14209919630E+02  0.92560404613E+02  0.95276954377E+02  0.00000000000E+00 0.  1.
         -4    1    1    2    0  503  0.25878186726E+02  0.17387852678E+02 -0.55594336226E+01  0.31668995425E+02  0.00000000000E+00 0. -1.
</event>
<event>
 6    1  0.1144920E-005  0.1614725E+03  0.7818608E-02  0.1090317E+00
         21   -1    0    0  501  502  0.00000000000E+00  0.00000000000E+00  0.93452474522E+02  0.93452474522E+02  0.00000000000E+00 0. -1.
         21   -1    0    0  502  503 -0.00000000000E+00 -0.00000000000E+00 -0.12803727026E+04  0.12803727026E+04  0.00000000000E+00 0. -1.
        -13    1    1    2    0    0 -0.30984731283E+02 -0.14947743530E+03 -0.15528013590E+03  0.21775097934E+03  0.10566000000E+00 0.  1.
         13    1    1    2    0    0  0.69761713918E+02  0.15313123624E+03 -0.83768428603E+02  0.18797083028E+03  0.10566000000E+00 0. -1.
          4    1    1    2  501    0 -0.16648294670E+02  0.12075573849E+02 -0.73714304542E+00  0.20579809986E+02  0.00000000000E+00 0.  1.
         -4    1    1    2    0  503 -0.22128687964E+02 -0.15729374795E+02 -0.94713452049E+03  0.94752355747E+03  0.00000000000E+00 0. -1.
</event>
<event>
 6    1  0.1144920E-005  0.1134943E+03  0.7818608E-02  0.1143976E+00
         21   -1    0    0  501  502  0.00000000000E+00  0.00000000000E+00  0.50105024400E+03  0.50105024400E+03  0.00000000000E+00 0. -1.
         21   -1    0    0  502  503 -0.00000000000E+00 -0.00000000000E+00 -0.10467605642E+03  0.10467605642E+03  0.00000000000E+00 0.  1.
        -13    1    1    2    0    0 -0.95224089741E+02  0.80680738698E+02 -0.48451572432E+01  0.12490194385E+03  0.10566000000E+00 0.  1.
         13    1    1    2    0    0 -0.14052976636E+02 -0.11513308394E+03  0.31487231768E+03  0.33555580873E+03  0.10566000000E+00 0. -1.
          4    1    1    2  501    0  0.33122248096E+02  0.21669027141E+02  0.27991930536E+02  0.48478636855E+02  0.00000000000E+00 0.  1.
         -4    1    1    2    0  503  0.76154818281E+02  0.12783318098E+02  0.58355096598E+02  0.96789910982E+02  0.00000000000E+00 0. -1.
</event>
<event>
 6    1  0.1144920E-005  0.7443398E+02  0.7818608E-02  0.1216199E+00
         21   -1    0    0  501  502  0.00000000000E+00  0.00000000000E+00  0.19278786565E+03  0.19278786565E+03  0.00000000000E+00 0. -1.
         21   -1    0    0  502  503 -0.00000000000E+00 -0.00000000000E+00 -0.48801886369E+03  0.48801886369E+03  0.00000000000E+00 0. -1.
        -13    1    1    2    0    0 -0.10710208303E+02  0.72991933729E+02  0.51456979156E+02  0.89946444172E+02  0.10566000000E+00 0.  1.
         13    1    1    2    0    0 -0.80021510464E+02 -0.86275259231E+02  0.35704021344E+02  0.12297012156E+03  0.10566000000E+00 0. -1.
          4    1    1    2  501    0  0.18197915215E+02  0.74813420200E+00  0.37450104499E+02  0.41644137042E+02  0.00000000000E+00 0.  1.
         -4    1    1    2    0  503  0.72533803552E+02  0.12535191300E+02 -0.41984210303E+03  0.42624602656E+03  0.00000000000E+00 0. -1.
</event>
<event>
 6    1  0.1144920E-005  0.5232089E+02  0.7818608E-02  0.1282617E+00
         21   -1    0    0  503  502  0.00000000000E+00  0.00000000000E+00  0.80871215472E+02  0.80871215472E+02  0.00000000000E+00 0. -1.
         21   -1    0    0  501  503 -0.00000000000E+00 -0.00000000000E+00 -0.23466449983E+03  0.23466449983E+03  0.00000000000E+00 0.  1.
        -13    1    1    2    0    0 -0.46196608713E+02  0.47316259633E+02  0.37010413650E+01  0.66231895288E+02  0.10566000000E+00 0.  1.
         13    1    1    2    0    0  0.29472254207E+02 -0.29303697532E+02 -0.15204373690E+03  0.15762179276E+03  0.10566000000E+00 0. -1.
          4    1    1    2  501    0  0.20966419412E+01 -0.12668596472E+02 -0.46256294620E+02  0.48005562553E+02  0.00000000000E+00 0.  1.
         -4    1    1    2    0  502  0.14627712564E+02 -0.53439656284E+01  0.40805705798E+02  0.43676464705E+02  0.00000000000E+00 0. -1.
</event>
<event>
 6    1  0.1144920E-005  0.1688875E+03  0.7818608E-02  0.1118283E+00
         21   -1    0    0  501  502  0.00000000000E+00  0.00000000000E+00  0.44056549999E+03  0.44056549999E+03  0.00000000000E+00 0. -1.
         21   -1    0    0  502  503 -0.00000000000E+00 -0.00000000000E+00 -0.33753117772E+03  0.33753117772E+03  0.00000000000E+00 0.  1.
        -13    1    1    2    0    0  0.91349172353E+02  0.16971748726E+03 -0.14465141515E+03  0.24098286213E+03  0.10566000000E+00 0.  1.
         13    1    1    2    0    0 -0.75446149306E+02 -0.37558986952E+02  0.28410463286E+03  0.29634144584E+03  0.10566000000E+00 0. -1.
          4    1    1    2  501    0  0.18456193353E+02  0.39788475079E+02  0.30140503164E+02  0.53218453126E+02  0.00000000000E+00 0.  1.
         -4    1    1    2    0  503 -0.34359216400E+02 -0.17194697539E+03 -0.66559398592E+02  0.18755391662E+03  0.00000000000E+00 0. -1.
</event>
<event>
 6    1  0.1144920E-005  0.7634928E+02  0.7818608E-02  0.1210990E+00
         21   -1    0    0  501  502  0.00000000000E+00  0.00000000000E+00  0.42873463883E+02  0.42873463883E+02  0.00000000000E+00 0. -1.
         21   -1    0    0  502  503 -0.00000000000E+00 -0.00000000000E+00 -0.42638314364E+03  0.42638314364E+03  0.00000000000E+00 0.  1.
        -13    1    1    2    0    0  0.40121804763E+02 -0.62273262298E+02 -0.26178980431E+03  0.27206916624E+03  0.10566000000E+00 0.  1.
         13    1    1    2    0    0 -0.59694593240E+02  0.45209070883E+02 -0.11095582427E+03  0.13386004129E+03  0.10566000000E+00 0. -1.
          4    1    1    2  501    0 -0.18298216771E+02  0.37544626214E+01  0.62944124279E+01  0.19711427000E+02  0.00000000000E+00 0.  1.
         -4    1    1    2    0  503  0.37871005248E+02  0.13309728794E+02 -0.17058463608E+02  0.43615972989E+02  0.00000000000E+00 0. -1.
</event>
<event>
 6    1  0.1144920E-005  0.8255292E+02  0.7818608E-02  0.1238482E+00
         21   -1    0    0  501  502  0.00000000000E+00  0.00000000000E+00  0.24089065390E+03  0.24089065390E+03  0.00000000000E+00 0.  1.
         21   -1    0    0  502  503 -0.00000000000E+00 -0.00000000000E+00 -0.81006095543E+03  0.81006095543E+03  0.00000000000E+00 0. -1.
        -13    1    1    2    0    0  0.97967965516E+02 -0.16664167772E+02 -0.12866682548E+03  0.16257484399E+03  0.10566000000E+00 0.  1.
         13    1    1    2    0    0  0.14118748203E+02  0.30165361219E+02  0.94085234313E+02  0.99806465462E+02  0.10566000000E+00 0. -1.
          4    1    1    2  501    0 -0.79884774256E+02 -0.16608125090E+02  0.11343941604E+03  0.13973513549E+03  0.00000000000E+00 0.  1.
         -4    1    1    2    0  503 -0.32201939463E+02  0.31069316435E+01 -0.64802812642E+03  0.64883516440E+03  0.00000000000E+00 0. -1.
</event>
<event>
 6    1  0.1144920E-005  0.6691141E+02  0.7818608E-02  0.1279689E+00
         21   -1    0    0  503  502  0.00000000000E+00  0.00000000000E+00  0.21521262350E+03  0.21521262350E+03  0.00000000000E+00 0. -1.
         21   -1    0    0  501  503 -0.00000000000E+00 -0.00000000000E+00 -0.25872323498E+03  0.25872323498E+03  0.00000000000E+00 0.  1.
        -13    1    1    2    0    0 -0.14947114192E+02  0.21540137892E+02 -0.36931270112E+02  0.45291540481E+02  0.10566000000E+00 0.  1.
         13    1    1    2    0    0  0.18575233313E+02  0.61728986801E+01 -0.30065182011E+01  0.19803895740E+02  0.10566000000E+00 0. -1.
          4    1    1    2  501    0  0.38827428834E+02 -0.12514410298E+03 -0.16800028375E+03  0.21305565255E+03  0.00000000000E+00 0.  1.
         -4    1    1    2    0  502 -0.42455547955E+02  0.97431066409E+02  0.16442746059E+03  0.19578476970E+03  0.00000000000E+00 0. -1.
</event>
<event>
 6    1  0.1144920E-005  0.6166674E+02  0.7818608E-02  0.1250453E+00
         21   -1    0    0  503  502  0.00000000000E+00  0.00000000000E+00  0.26623697393E+03  0.26623697393E+03  0.00000000000E+00 0.  1.
         21   -1    0    0  501  503 -0.00000000000E+00 -0.00000000000E+00 -0.72522032195E+02  0.72522032195E+02  0.00000000000E+00 0. -1.
        -13    1    1    2    0    0  0.63973602068E+02 -0.40867674996E+02  0.19468646586E+03  0.20896320196E+03  0.10566000000E+00 0.  1.
         13    1    1    2    0    0 -0.63494658687E+02  0.96660965520E+01  0.15322245779E+02  0.66028686827E+02  0.10566000000E+00 0. -1.
          4    1    1    2  501    0  0.71037194375E+01 -0.86278813730E+01 -0.20147420008E+02  0.23039568134E+02  0.00000000000E+00 0.  1.
         -4    1    1    2    0  502 -0.75826628187E+01  0.39829459817E+02  0.38536501027E+01  0.40727549200E+02  0.00000000000E+00 0. -1.
</event>
<event>
 6    1  0.1144920E-005  0.7837033E+02  0.7818608E-02  0.1206334E+00
         21   -1    0    0  501  502  0.00000000000E+00  0.00000000000E+00  0.35503789370E+03  0.35503789370E+03  0.00000000000E+00 0. -1.
         21   -1    0    0  502  503 -0.00000000000E+00 -0.00000000000E+00 -0.27424670076E+03  0.27424670076E+03  0.00000000000E+00 0.  1.
        -13    1    1    2    0    0 -0.74945470916E+02 -0.37432851594E+02 -0.49925204668E+02  0.97522198573E+02  0.10566000000E+00 0.  1.
         13    1    1    2    0    0  0.91907020701E+02  0.34500487160E+02  0.19727350942E+03  0.22034979635E+03  0.10566000000E+00 0. -1.
          4    1    1    2  501    0 -0.27891084148E+02  0.51010119139E+01  0.12061818728E+03  0.12390593206E+03  0.00000000000E+00 0.  1.
         -4    1    1    2    0  503  0.10929534363E+02 -0.21686474795E+01 -0.18717529910E+03  0.18750666747E+03  0.00000000000E+00 0. -1.
</event>
<event>
 6    1  0.1144920E-005  0.7835155E+02  0.7818608E-02  0.1206376E+00
         21   -1    0    0  501  502  0.00000000000E+00  0.00000000000E+00  0.23630543806E+02  0.23630543806E+02  0.00000000000E+00 0. -1.
         21   -1    0    0  502  503 -0.00000000000E+00 -0.00000000000E+00 -0.65976240041E+03  0.65976240041E+03  0.00000000000E+00 0.  1.
        -13    1    1    2    0    0 -0.23817981735E+01 -0.79536677010E+02 -0.13013551525E+03  0.15253530557E+03  0.10566000000E+00 0.  1.
         13    1    1    2    0    0  0.48778856600E+02  0.65957009381E+02 -0.28195220071E+03  0.29364393163E+03  0.10566000000E+00 0. -1.
          4    1    1    2  501    0 -0.24233614109E+02  0.24075242447E+01 -0.19578461567E+02  0.31247085994E+02  0.00000000000E+00 0.  1.
         -4    1    1    2    0  503 -0.22163444317E+02  0.11172143384E+02 -0.20446567908E+03  0.20596662102E+03  0.00000000000E+00 0. -1.
</event>
<event>
 6    1  0.1144920E-005  0.5656009E+02  0.7818608E-02  0.1293687E+00
         21   -1    0    0  501  502  0.00000000000E+00  0.00000000000E+00  0.41625793133E+02  0.41625793133E+02  0.00000000000E+00 0.  1.
         21   -1    0    0  502  503 -0.00000000000E+00 -0.00000000000E+00 -0.40341599796E+03  0.40341599796E+03  0.00000000000E+00 0.  1.
        -13    1    1    2    0    0 -0.46989615580E+02  0.90798266558E+02 -0.12274002051E+03  0.15974189488E+03  0.10566000000E+00 0.  1.
         13    1    1    2    0    0  0.26157919542E+02  0.77539565518E+01 -0.42022682102E+02  0.50102670309E+02  0.10566000000E+00 0. -1.
          4    1    1    2  501    0  0.29499055929E+02 -0.31813547897E+02 -0.24086628220E+02  0.49623198098E+02  0.00000000000E+00 0.  1.
         -4    1    1    2    0  503 -0.86673598912E+01 -0.66738675213E+02 -0.17294087399E+03  0.18557402780E+03  0.00000000000E+00 0. -1.
</event>
<event>
 6    1  0.1144920E-005  0.8186705E+02  0.7818608E-02  0.1198633E+00
         21   -1    0    0  501  502  0.00000000000E+00  0.00000000000E+00  0.32866414464E+03  0.32866414464E+03  0.00000000000E+00 0. -1.
         21   -1    0    0  502  503 -0.00000000000E+00 -0.00000000000E+00 -0.10753791540E+03  0.10753791540E+03  0.00000000000E+00 0.  1.
        -13    1    1    2    0    0 -0.26138189559E+02 -0.10084408766E+03 -0.47364872131E+02  0.11443853042E+03  0.10566000000E+00 0.  1.
         13    1    1    2    0    0  0.28911180335E+02  0.90054844583E+02  0.22923245143E+03  0.24797834449E+03  0.10566000000E+00 0. -1.
          4    1    1    2  501    0 -0.22306530686E+02 -0.14913923076E+02  0.29895533854E+02  0.40171499315E+02  0.00000000000E+00 0.  1.
         -4    1    1    2    0  503  0.19533539909E+02  0.25703166149E+02  0.93631160834E+01  0.33613685818E+02  0.00000000000E+00 0. -1.
</event>
<event>
 6    1  0.1144920E-005  0.2692426E+03  0.7818608E-02  0.1020877E+00
         21   -1    0    0  503  502  0.00000000000E+00  0.00000000000E+00  0.21135708583E+04  0.21135708583E+04  0.00000000000E+00 0.  1.
         21   -1    0    0  501  503 -0.00000000000E+00 -0.00000000000E+00 -0.79152980581E+02  0.79152980581E+02  0.00000000000E+00 0. -1.
        -13    1    1    2    0    0  0.25401051897E+03  0.20404187464E+02  0.12496721152E+04  0.12753893841E+04  0.10566000000E+00 0.  1.
         13    1    1    2    0    0 -0.29407210256E+03 -0.54489942119E+02  0.54165761630E+03  0.61874109267E+03  0.10566000000E+00 0. -1.
          4    1    1    2  501    0  0.33522005981E+02  0.25873014499E+02 -0.11428288193E+02  0.43860500856E+02  0.00000000000E+00 0.  1.
         -4    1    1    2    0  502  0.65395776105E+01  0.82127401559E+01  0.25451643447E+03  0.25473286123E+03  0.00000000000E+00 0. -1.
</event>
<event>
 6    1  0.1144920E-005  0.5944244E+02  0.7818608E-02  0.1257500E+00
         21   -1    0    0  503  502  0.00000000000E+00  0.00000000000E+00  0.33391930189E+02  0.33391930189E+02  0.00000000000E+00 0.  1.
         21   -1    0    0  501  503 -0.00000000000E+00 -0.00000000000E+00 -0.43489909074E+03  0.43489909074E+03  0.00000000000E+00 0. -1.
        -13    1    1    2    0    0  0.56163438546E+02  0.30786240099E+02 -0.39094663247E+02  0.75036846064E+02  0.10566000000E+00 0.  1.
         13    1    1    2    0    0 -0.68979043000E+02  0.11200911742E+02 -0.26077217178E+03  0.26997352747E+03  0.10566000000E+00 0. -1.
          4    1    1    2  501    0  0.13321171701E+02 -0.22748420183E+02 -0.10061151607E+03  0.10400779491E+03  0.00000000000E+00 0.  1.
         -4    1    1    2    0  502 -0.50556724724E+00 -0.19238731657E+02 -0.10288094568E+01  0.19272852485E+02  0.00000000000E+00 0. -1.
</event>
<event>
 6    1  0.1144920E-005  0.7791407E+02  0.7818608E-02  0.1207371E+00
         21   -1    0    0  503  502  0.00000000000E+00  0.00000000000E+00  0.24049720798E+03  0.24049720798E+03  0.00000000000E+00 0. -1.
         21   -1    0    0  501  503 -0.00000000000E+00 -0.00000000000E+00 -0.22101289621E+03  0.22101289621E+03  0.00000000000E+00 0.  1.
        -13    1    1    2    0    0 -0.55181153462E+02  0.41671144878E+02  0.49610342358E+02  0.85103708766E+02  0.10566000000E+00 0.  1.
         13    1    1    2    0    0  0.92072173630E+02 -0.18272068372E+02 -0.14118246551E+03  0.16953953335E+03  0.10566000000E+00 0. -1.
          4    1    1    2  501    0 -0.24548352625E+02 -0.22485238209E+02 -0.41841486983E+02  0.53468846882E+02  0.00000000000E+00 0.  1.
         -4    1    1    2    0  502 -0.12342667543E+02 -0.91383829710E+00  0.15289792190E+03  0.15339801518E+03  0.00000000000E+00 0. -1.
</event>
<event>
 6    1  0.1144920E-005  0.5357218E+02  0.7818608E-02  0.1341037E+00
         21   -1    0    0  501  502  0.00000000000E+00  0.00000000000E+00  0.70432997992E+02  0.70432997992E+02  0.00000000000E+00 0.  1.
         21   -1    0    0  502  503 -0.00000000000E+00 -0.00000000000E+00 -0.78774515755E+03  0.78774515755E+03  0.00000000000E+00 0. -1.
        -13    1    1    2    0    0  0.15287376255E+02  0.64287319610E+02  0.23836652888E+02  0.70247850645E+02  0.10566000000E+00 0.  1.
         13    1    1    2    0    0  0.29926251903E+01 -0.12988164231E+02 -0.78602620573E+01  0.15473949052E+02  0.10566000000E+00 0. -1.
          4    1    1    2  501    0 -0.18252305253E+02 -0.37818791455E+02 -0.30609722212E+01  0.42104360642E+02  0.00000000000E+00 0.  1.
         -4    1    1    2    0  503 -0.27696191977E-01 -0.13480363924E+02 -0.73022757816E+03  0.73035199520E+03  0.00000000000E+00 0. -1.
</event>
<event>
 6    1  0.1144920E-005  0.1445784E+03  0.7818608E-02  0.1106585E+00
         21   -1    0    0  501  502  0.00000000000E+00  0.00000000000E+00  0.13921108794E+04  0.13921108794E+04  0.00000000000E+00 0. -1.
         21   -1    0    0  502  503 -0.00000000000E+00 -0.00000000000E+00 -0.75554351618E+02  0.75554351618E+02  0.00000000000E+00 0. -1.
        -13    1    1    2    0    0  0.11282430289E+02 -0.16087685750E+03  0.20090737398E+03  0.25762849337E+03  0.10566000000E+00 0.  1.
         13    1    1    2    0    0 -0.10465726220E+03  0.10669483916E+03  0.24998936835E+03  0.29125869375E+03  0.10566000000E+00 0. -1.
          4    1    1    2  501    0  0.47866663340E+02  0.18804338539E+02  0.85924248675E+03  0.86078015291E+03  0.00000000000E+00 0.  1.
         -4    1    1    2    0  503  0.45508168567E+02  0.35377679802E+02  0.64172986841E+01  0.57997890969E+02  0.00000000000E+00 0. -1.
</event>
<event>
 6    1  0.1144920E-005  0.4268524E+02  0.7818608E-02  0.1324820E+00
         21   -1    0    0  503  502  0.00000000000E+00  0.00000000000E+00  0.45361825575E+03  0.45361825575E+03  0.00000000000E+00 0. -1.
         21   -1    0    0  501  503 -0.00000000000E+00 -0.00000000000E+00 -0.18960862033E+02  0.18960862033E+02  0.00000000000E+00 0.  1.
        -13    1    1    2    0    0  0.74835812369E+01  0.41529007098E+02  0.15197738758E+03  0.15772697904E+03  0.10566000000E+00 0.  1.
         13    1    1    2    0    0  0.25633157655E+02 -0.41414312450E+02  0.25868738646E+03  0.26323255711E+03  0.10566000000E+00 0. -1.
          4    1    1    2  501    0 -0.50507819259E+01  0.13509436715E+02  0.61452038570E+01  0.15677334240E+02  0.00000000000E+00 0.  1.
         -4    1    1    2    0  502 -0.28065956966E+02 -0.13624131363E+02  0.17847415822E+02  0.35942247389E+02  0.00000000000E+00 0. -1.
</event>
<event>
 6    1  0.1144920E-005  0.7795896E+02  0.7818608E-02  0.1238252E+00
         21   -1    0    0  501  502  0.00000000000E+00  0.00000000000E+00  0.29922087296E+03  0.29922087296E+03  0.00000000000E+00 0.  1.
         21   -1    0    0  502  503 -0.00000000000E+00 -0.00000000000E+00 -0.30204555617E+03  0.30204555617E+03  0.00000000000E+00 0.  1.
        -13    1    1    2    0    0  0.92032758425E+02  0.24069605179E+02 -0.14403021393E+03  0.17260964112E+03  0.10566000000E+00 0.  1.
         13    1    1    2    0    0 -0.19148867267E+02  0.20994521374E+02  0.44677424536E+01  0.28764925378E+02  0.10566000000E+00 0. -1.
          4    1    1    2  501    0 -0.77183493722E+02 -0.57802425559E+01  0.25956743565E+03  0.27086150807E+03  0.00000000000E+00 0.  1.
         -4    1    1    2    0  503  0.42996025647E+01 -0.39283883997E+02 -0.12282964737E+03  0.12903035456E+03  0.00000000000E+00 0. -1.
</event>
<event>
 6    1  0.1144920E-005  0.4196512E+02  0.7818608E-02  0.1340355E+00
         21   -1    0    0  503  502  0.00000000000E+00  0.00000000000E+00  0.22445702182E+03  0.22445702182E+03  0.00000000000E+00 0. -1.
         21   -1    0    0  501  503 -0.00000000000E+00 -0.00000000000E+00 -0.70841623904E+03  0.70841623904E+03  0.00000000000E+00 0.  1.
        -13    1    1    2    0    0 -0.20213548941E+02 -0.20459834934E+02  0.51964231492E+02  0.59392633591E+02  0.10566000000E+00 0.  1.
         13    1    1    2    0    0  0.43915652329E+01  0.54237983796E+02 -0.45387354765E+02  0.70859493845E+02  0.10566000000E+00 0. -1.
          4    1    1    2  501    0 -0.25922897244E+02 -0.21562861191E+02 -0.64309734788E+03  0.64398070812E+03  0.00000000000E+00 0.  1.
         -4    1    1    2    0  502  0.41744880952E+02 -0.12215287670E+02  0.15256125393E+03  0.15864042530E+03  0.00000000000E+00 0. -1.
</event>
<event>
 6    1  0.1144920E-005  0.3491761E+02  0.7818608E-02  0.1369280E+00
         21   -1    0    0  503  502  0.00000000000E+00  0.00000000000E+00  0.57118628246E+02  0.57118628246E+02  0.00000000000E+00 0. -1.
         21   -1    0    0  501  503 -0.00000000000E+00 -0.00000000000E+00 -0.10253840387E+03  0.10253840387E+03  0.00000000000E+00 0.  1.
        -13    1    1    2    0    0  0.29572835355E+02  0.31951474825E+00  0.16590461627E+02  0.33910312025E+02  0.10566000000E+00 0.  1.
         13    1    1    2    0    0 -0.30054294077E+02 -0.21526296524E+02 -0.44181015814E+02  0.57607424495E+02  0.10566000000E+00 0. -1.
          4    1    1    2  501    0 -0.94752511297E+01  0.23100413213E+02 -0.38055843307E+02  0.45515455445E+02  0.00000000000E+00 0.  1.
         -4    1    1    2    0  502  0.99567098517E+01 -0.18936314375E+01  0.20226621868E+02  0.22623840153E+02  0.00000000000E+00 0. -1.
</event>
<event>
 6    1  0.1144920E-005  0.1495526E+03  0.7818608E-02  0.1101554E+00
         21   -1    0    0  501  502  0.00000000000E+00  0.00000000000E+00  0.81597985520E+03  0.81597985520E+03  0.00000000000E+00 0. -1.
         21   -1    0    0  502  503 -0.00000000000E+00 -0.00000000000E+00 -0.10167255545E+03  0.10167255545E+03  0.00000000000E+00 0. -1.
        -13    1    1    2    0    0 -0.14637146889E+03  0.49446152657E+02  0.89937503994E+02  0.17876883036E+03  0.10566000000E+00 0.  1.
         13    1    1    2    0    0  0.11984441487E+03 -0.61833753241E+02  0.55774030762E+03  0.57381212842E+03  0.10566000000E+00 0. -1.
          4    1    1    2  501    0  0.20485265702E+02  0.12457577140E+01  0.11410357840E+03  0.11593457045E+03  0.00000000000E+00 0.  1.
         -4    1    1    2    0  503  0.60417883228E+01  0.11141842870E+02 -0.47474090264E+02  0.49136881414E+02  0.00000000000E+00 0. -1.
</event>
<event>
 6    1  0.1144920E-005  0.9182665E+02  0.7818608E-02  0.1178836E+00
         21   -1    0    0  501  502  0.00000000000E+00  0.00000000000E+00  0.90950661934E+02  0.90950661934E+02  0.00000000000E+00 0. -1.
         21   -1    0    0  502  503 -0.00000000000E+00 -0.00000000000E+00 -0.31019075620E+03  0.31019075620E+03  0.00000000000E+00 0. -1.
        -13    1    1    2    0    0 -0.41919076696E+02  0.77710896599E+02 -0.19527380534E+03  0.21430833549E+03  0.10566000000E+00 0.  1.
         13    1    1    2    0    0  0.52203645689E+02 -0.92342794620E+02  0.35763831995E+02  0.11194407168E+03  0.10566000000E+00 0. -1.
          4    1    1    2  501    0  0.14831116065E+02  0.89125112909E+01 -0.35652090138E+02  0.39629110418E+02  0.00000000000E+00 0.  1.
         -4    1    1    2    0  503 -0.25115685058E+02  0.57193867302E+01 -0.24078030776E+02  0.35259900546E+02  0.00000000000E+00 0. -1.
</event>
<event>
 6    1  0.1144920E-005  0.1831413E+03  0.7818608E-02  0.1072351E+00
         21   -1    0    0  501  502  0.00000000000E+00  0.00000000000E+00  0.75270271070E+02  0.75270271070E+02  0.00000000000E+00 0. -1.
         21   -1    0    0  502  503 -0.00000000000E+00 -0.00000000000E+00 -0.95558915030E+03  0.95558915030E+03  0.00000000000E+00 0.  1.
        -13    1    1    2    0    0  0.64777240515E+02 -0.15476003833E+03 -0.59599408518E+03  0.61915726684E+03  0.10566000000E+00 0.  1.
         13    1    1    2    0    0 -0.98209869784E+02  0.15515128191E+03 -0.18026622273E+03  0.25731890918E+03  0.10566000000E+00 0. -1.
          4    1    1    2  501    0 -0.15223704560E+02  0.30730400402E+01  0.17502900184E+02  0.23399920309E+02  0.00000000000E+00 0.  1.
         -4    1    1    2    0  503  0.48656333829E+02 -0.34642836250E+01 -0.12156147151E+03  0.13098332504E+03  0.00000000000E+00 0. -1.
</event>
<event>
 6    1  0.1144920E-005  0.4617617E+02  0.7818608E-02  0.1310515E+00
         21   -1    0    0  501  502  0.00000000000E+00  0.00000000000E+00  0.16678220668E+03  0.16678220668E+03  0.00000000000E+00 0. -1.
         21   -1    0    0  502  503 -0.00000000000E+00 -0.00000000000E+00 -0.65316544180E+02  0.65316544180E+02  0.00000000000E+00 0.  1.
        -13    1    1    2    0    0  0.24403386235E+02  0.71894349718E+00 -0.24028022561E+02  0.34254914563E+02  0.10566000000E+00 0.  1.
         13    1    1    2    0    0  0.30519007576E-01  0.46116726625E+02  0.94646822760E+02  0.10528430856E+03  0.10566000000E+00 0. -1.
          4    1    1    2  501    0 -0.28189524532E+02 -0.57474641436E+02  0.42104772707E+02  0.76621117104E+02  0.00000000000E+00 0.  1.
         -4    1    1    2    0  503  0.37556192902E+01  0.10638971313E+02 -0.11257910406E+02  0.15938410635E+02  0.00000000000E+00 0. -1.
</event>
<event>
 6    1  0.1144920E-005  0.7450677E+02  0.7818608E-02  0.1215376E+00
         21   -1    0    0  501  502  0.00000000000E+00  0.00000000000E+00  0.35181415619E+02  0.35181415619E+02  0.00000000000E+00 0. -1.
         21   -1    0    0  502  503 -0.00000000000E+00 -0.00000000000E+00 -0.55168837940E+03  0.55168837940E+03  0.00000000000E+00 0.  1.
        -13    1    1    2    0    0 -0.59406463986E+02 -0.42531006709E+02 -0.39855509784E+03  0.40519648527E+03  0.10566000000E+00 0.  1.
         13    1    1    2    0    0  0.61818308489E+02  0.21581967351E+02 -0.18750728209E+02  0.68109364639E+02  0.10566000000E+00 0. -1.
          4    1    1    2  501    0  0.67121855766E+01  0.12774019552E+02 -0.85255596457E+00  0.14455305684E+02  0.00000000000E+00 0.  1.
         -4    1    1    2    0  503 -0.91240300801E+01  0.81750198055E+01 -0.98348581773E+02  0.99108639434E+02  0.00000000000E+00 0. -1.
</event>
<event>
 6    1  0.1144920E-005  0.3377790E+02  0.7818608E-02  0.1398384E+00
         21   -1    0    0  501  502  0.00000000000E+00  0.00000000000E+00  0.72771166761E+03  0.72771166761E+03  0.00000000000E+00 0.  1.
         21   -1    0    0  502  503 -0.00000000000E+00 -0.00000000000E+00 -0.20941619284E+02  0.20941619284E+02  0.00000000000E+00 0. -1.
        -13    1    1    2    0    0  0.17236734163E+02 -0.71076554127E+01 -0.66666158015E+01  0.19800977257E+02  0.10566000000E+00 0.  1.
         13    1    1    2    0    0 -0.25859439086E+02 -0.16804018207E+02  0.50351113883E+02  0.59045164502E+02  0.10566000000E+00 0. -1.
          4    1    1    2  501    0 -0.13743002021E+02 -0.18981886132E+02  0.47574521358E+03  0.47632204479E+03  0.00000000000E+00 0.  1.
         -4    1    1    2    0  503  0.22365706944E+02  0.42893559752E+02  0.18734033666E+03  0.19348510035E+03  0.00000000000E+00 0. -1.
</event>
<event>
 6    1  0.1144920E-005  0.9055870E+02  0.7818608E-02  0.1181198E+00
         21   -1    0    0  503  502  0.00000000000E+00  0.00000000000E+00  0.29824214936E+02  0.29824214936E+02  0.00000000000E+00 0.  1.
         21   -1    0    0  501  503 -0.00000000000E+00 -0.00000000000E+00 -0.67460277575E+03  0.67460277575E+03  0.00000000000E+00 0.  1.
        -13    1    1    2    0    0  0.80892521863E+02  0.43040628675E+02 -0.10243974534E+03  0.13744092695E+03  0.10566000000E+00 0.  1.
         13    1    1    2    0    0 -0.74424905465E+02 -0.18895110582E+02 -0.26890857379E+03  0.27965679677E+03  0.10566000000E+00 0. -1.
          4    1    1    2  501    0 -0.13250023659E+02 -0.47186992519E+02 -0.24614980739E+03  0.25098187797E+03  0.00000000000E+00 0.  1.
         -4    1    1    2    0  502  0.67824072604E+01  0.23041474426E+02 -0.27280434279E+02  0.36347388991E+02  0.00000000000E+00 0. -1.
</event>
<event>
 6    1  0.1144920E-005  0.2222888E+03  0.7818608E-02  0.1045844E+00
         21   -1    0    0  501  502  0.00000000000E+00  0.00000000000E+00  0.19407375673E+03  0.19407375673E+03  0.00000000000E+00 0. -1.
         21   -1    0    0  502  503 -0.00000000000E+00 -0.00000000000E+00 -0.51644886592E+03  0.51644886592E+03  0.00000000000E+00 0.  1.
        -13    1    1    2    0    0  0.21101562595E+03 -0.13323321979E+03 -0.32872825385E+03  0.41272383175E+03  0.10566000000E+00 0.  1.
         13    1    1    2    0    0 -0.17443092391E+03  0.10213716856E+03  0.36727942052E+02  0.20544366944E+03  0.10566000000E+00 0. -1.
          4    1    1    2  501    0 -0.17231905413E+02  0.86139229199E+01  0.23782144520E+02  0.30606022777E+02  0.00000000000E+00 0.  1.
         -4    1    1    2    0  503 -0.19352796626E+02  0.22482128309E+02 -0.54156941906E+02  0.61749098675E+02  0.00000000000E+00 0. -1.
</event>
<event>
 6    1  0.1144920E-005  0.6562454E+02  0.7818608E-02  0.1238698E+00
         21   -1    0    0  501  502  0.00000000000E+00  0.00000000000E+00  0.12065521409E+03  0.12065521409E+03  0.00000000000E+00 0. -1.
         21   -1    0    0  502  503 -0.00000000000E+00 -0.00000000000E+00 -0.11531359517E+03  0.11531359517E+03  0.00000000000E+00 0. -1.
        -13    1    1    2    0    0  0.37421519693E+01  0.54025151739E+02 -0.11823173240E+02  0.55430310403E+02  0.10566000000E+00 0.  1.
         13    1    1    2    0    0 -0.52441606236E+02 -0.63747068054E+02  0.63664654181E+02  0.10424495243E+03  0.10566000000E+00 0. -1.
          4    1    1    2  501    0  0.10519582662E+02  0.63378198746E+01  0.39806680253E+01  0.12910278776E+02  0.00000000000E+00 0.  1.
         -4    1    1    2    0  503  0.38179871605E+02  0.33840964404E+01 -0.50480530053E+02  0.63383267657E+02  0.00000000000E+00 0. -1.
</event>
<event>
 6    1  0.1144920E-005  0.1287410E+03  0.7818608E-02  0.1124199E+00
         21   -1    0    0  503  502  0.00000000000E+00  0.00000000000E+00  0.17176224363E+03  0.17176224363E+03  0.00000000000E+00 0.  1.
         21   -1    0    0  501  503 -0.00000000000E+00 -0.00000000000E+00 -0.44513583968E+03  0.44513583968E+03  0.00000000000E+00 0. -1.
        -13    1    1    2    0    0 -0.51972407469E+02  0.14130039389E+03  0.61621669405E+02  0.16267812931E+03  0.10566000000E+00 0.  1.
         13    1    1    2    0    0  0.74195193162E+02 -0.11441905145E+03 -0.21890205567E+03  0.25790456988E+03  0.10566000000E+00 0. -1.
          4    1    1    2  501    0  0.73544107135E+01  0.21763263858E+02 -0.13452725671E+03  0.13647457568E+03  0.00000000000E+00 0.  1.
         -4    1    1    2    0  502 -0.29577196406E+02 -0.48644606298E+02  0.18434046920E+02  0.59840808442E+02  0.00000000000E+00 0. -1.
</event>
<event>
 6    1  0.1144920E-005  0.1575774E+03  0.7818608E-02  0.1112527E+00
         21   -1    0    0  503  502  0.00000000000E+00  0.00000000000E+00  0.57520149906E+03  0.57520149906E+03  0.00000000000E+00 0. -1.
         21   -1    0    0  501  503 -0.00000000000E+00 -0.00000000000E+00 -0.21504877022E+03  0.21504877022E+03  0.00000000000E+00 0.  1.
        -13    1    1    2    0    0 -0.21405329395E+03  0.32110837673E+02 -0.52697461573E+02  0.22277107569E+03  0.10566000000E+00 0.  1.
         13    1    1    2    0    0  0.75046698731E+02  0.51705247967E+02  0.66103954971E+02  0.11258411826E+03  0.10566000000E+00 0. -1.
          4    1    1    2  501    0  0.10577387423E+03 -0.46812272703E+02  0.11793043360E+02  0.11626941651E+03  0.00000000000E+00 0.  1.
         -4    1    1    2    0  502  0.33232720987E+02 -0.37003812936E+02  0.33495319208E+03  0.33862565881E+03  0.00000000000E+00 0. -1.
</event>
<event>
 6    1  0.1144920E-005  0.1267747E+03  0.7818608E-02  0.1126577E+00
         21   -1    0    0  501  502  0.00000000000E+00  0.00000000000E+00  0.30983005359E+03  0.30983005359E+03  0.00000000000E+00 0. -1.
         21   -1    0    0  502  503 -0.00000000000E+00 -0.00000000000E+00 -0.11098480029E+03  0.11098480029E+03  0.00000000000E+00 0. -1.
        -13    1    1    2    0    0 -0.13973903403E+02  0.11883612079E+03  0.44374673636E+02  0.12761824480E+03  0.10566000000E+00 0.  1.
         13    1    1    2    0    0 -0.37288746081E+02 -0.14201351493E+03  0.47418345017E+02  0.15429452231E+03  0.10566000000E+00 0. -1.
          4    1    1    2  501    0  0.12976200687E+02 -0.22591203334E+02  0.49821631495E+02  0.56222230631E+02  0.00000000000E+00 0.  1.
         -4    1    1    2    0  503  0.38286448797E+02  0.45768597473E+02  0.57230603152E+02  0.82679856152E+02  0.00000000000E+00 0. -1.
</event>
<event>
 6    1  0.1144920E-005  0.7882147E+02  0.7818608E-02  0.1205316E+00
         21   -1    0    0  501  502  0.00000000000E+00  0.00000000000E+00  0.85293055393E+03  0.85293055393E+03  0.00000000000E+00 0.  1.
         21   -1    0    0  502  503 -0.00000000000E+00 -0.00000000000E+00 -0.41412905752E+02  0.41412905752E+02  0.00000000000E+00 0. -1.
        -13    1    1    2    0    0  0.40055646015E+02  0.74521546676E+02  0.17075941831E+03  0.19056942515E+03  0.10566000000E+00 0.  1.
         13    1    1    2    0    0  0.43985076593E+02 -0.82757023697E+02  0.28964381782E+03  0.30442891502E+03  0.10566000000E+00 0. -1.
          4    1    1    2  501    0 -0.39212307551E+02  0.24216820199E+01  0.35194763645E+03  0.35413360249E+03  0.00000000000E+00 0.  1.
         -4    1    1    2    0  503 -0.44828415057E+02  0.58137950011E+01 -0.83322440281E+00  0.45211517025E+02  0.00000000000E+00 0. -1.
</event>
<event>
 6    1  0.1144920E-005  0.2644432E+03  0.7818608E-02  0.1027886E+00
         21   -1    0    0  503  502  0.00000000000E+00  0.00000000000E+00  0.46965456341E+03  0.46965456341E+03  0.00000000000E+00 0. -1.
         21   -1    0    0  501  503 -0.00000000000E+00 -0.00000000000E+00 -0.12917571427E+04  0.12917571427E+04  0.00000000000E+00 0. -1.
        -13    1    1    2    0    0 -0.79677075169E+02 -0.10511283045E+03  0.14448691214E+03  0.19563645462E+03  0.10566000000E+00 0.  1.
         13    1    1    2    0    0  0.47732311641E+03  0.29348533691E+03 -0.59360240767E+03  0.81629334800E+03  0.10566000000E+00 0. -1.
          4    1    1    2  501    0 -0.22560739014E+03 -0.34823897327E+02 -0.45146537025E+03  0.50589759719E+03  0.00000000000E+00 0.  1.
         -4    1    1    2    0  502 -0.17203865110E+03 -0.15354860913E+03  0.78478286457E+02  0.24358430632E+03  0.00000000000E+00 0. -1.
</event>
<event>
 6    1  0.1144920E-005  0.6321217E+02  0.7818608E-02  0.1245749E+00
         21   -1    0    0  503  502  0.00000000000E+00  0.00000000000E+00  0.44216496051E+02  0.44216496051E+02  0.00000000000E+00 0.  1.
         21   -1    0    0  501  503 -0.00000000000E+00 -0.00000000000E+00 -0.21384322889E+03  0.21384322889E+03  0.00000000000E+00 0. -1.
        -13    1    1    2    0    0 -0.51826990629E+02 -0.37488047897E+02 -0.21177921912E+02  0.67378826298E+02  0.10566000000E+00 0.  1.
         13    1    1    2    0    0  0.56537360898E+02  0.39187928234E+02 -0.11477449768E+03  0.13381092399E+03  0.10566000000E+00 0. -1.
          4    1    1    2  501    0 -0.31406223604E+01 -0.11860434012E+02 -0.41927656634E+02  0.43685945046E+02  0.00000000000E+00 0.  1.
         -4    1    1    2    0  502 -0.15697479083E+01  0.10160553676E+02  0.82533433912E+01  0.13184029605E+02  0.00000000000E+00 0. -1.
</event>
<event>
 6    1  0.1144920E-005  0.1318571E+03  0.7818608E-02  0.1120523E+00
         21   -1    0    0  503  502  0.00000000000E+00  0.00000000000E+00  0.70753177827E+03  0.70753177827E+03  0.00000000000E+00 0.  1.
         21   -1    0    0  501  503 -0.00000000000E+00 -0.00000000000E+00 -0.17559054144E+03  0.17559054144E+03  0.00000000000E+00 0.  1.
        -13    1    1    2    0    0 -0.15659999248E+03 -0.64918228163E+02  0.18069972510E+03  0.24777073235E+03  0.10566000000E+00 0.  1.
         13    1    1    2    0    0  0.13800660729E+03 -0.45701641169E+02  0.26581853091E+03  0.30297519073E+03  0.10566000000E+00 0. -1.
          4    1    1    2  501    0  0.60485753775E+02  0.95462029351E+02 -0.94316805664E+02  0.14719777610E+03  0.00000000000E+00 0.  1.
         -4    1    1    2    0  502 -0.41892368587E+02  0.15157839980E+02  0.17973978648E+03  0.18517862053E+03  0.00000000000E+00 0. -1.
</event>
<event>
 6    1  0.1144920E-005  0.5108753E+02  0.7818608E-02  0.1287423E+00
         21   -1    0    0  503  502  0.00000000000E+00  0.00000000000E+00  0.63071080356E+02  0.63071080356E+02  0.00000000000E+00 0.  1.
         21   -1    0    0  501  503 -0.00000000000E+00 -0.00000000000E+00 -0.32438897194E+03  0.32438897194E+03  0.00000000000E+00 0. -1.
        -13    1    1    2    0    0 -0.13752561083E-01  0.35344471247E+02 -0.14129945436E+02  0.38064397525E+02  0.10566000000E+00 0.  1.
         13    1    1    2    0    0  0.81402902644E+01 -0.71936469743E+02  0.74001615055E+01  0.72772890275E+02  0.10566000000E+00 0. -1.
          4    1    1    2  501    0 -0.20577188178E+02  0.46180756780E+02 -0.25590615561E+03  0.26085253199E+03  0.00000000000E+00 0.  1.
         -4    1    1    2    0  502  0.12450650475E+02 -0.95887582842E+01  0.13180479554E+01  0.15770232500E+02  0.00000000000E+00 0. -1.
</event>
<event>
 6    1  0.1144920E-005  0.2980910E+02  0.7818608E-02  0.1425026E+00
         21   -1    0    0  501  502  0.00000000000E+00  0.00000000000E+00  0.17117000771E+03  0.17117000771E+03  0.00000000000E+00 0. -1.
         21   -1    0    0  502  503 -0.00000000000E+00 -0.00000000000E+00 -0.73339947746E+02  0.73339947746E+02  0.00000000000E+00 0.  1.
        -13    1    1    2    0    0  0.37693492211E+02 -0.19740563652E+02 -0.32689217450E+02  0.53657108661E+02  0.10566000000E+00 0.  1.
         13    1    1    2    0    0 -0.20054841804E+01  0.22318728569E+02  0.98013229688E+02  0.10054228946E+03  0.10566000000E+00 0. -1.
          4    1    1    2  501    0 -0.25030914363E+02  0.14143469629E+02  0.53932275791E+02  0.61116894383E+02  0.00000000000E+00 0.  1.
         -4    1    1    2    0  503 -0.10657093668E+02 -0.16721634546E+02 -0.21426228067E+02  0.29193662951E+02  0.00000000000E+00 0. -1.
</event>
<event>
 6    1  0.1144920E-005  0.3878109E+03  0.7818608E-02  0.9764923E-01
         21   -1    0    0  501  502  0.00000000000E+00  0.00000000000E+00  0.58576020844E+03  0.58576020844E+03  0.00000000000E+00 0. -1.
         21   -1    0    0  502  503 -0.00000000000E+00 -0.00000000000E+00 -0.79102207936E+03  0.79102207936E+03  0.00000000000E+00 0.  1.
        -13    1    1    2    0    0  0.33337325706E+03 -0.24863549062E+03  0.10002195897E+02  0.41600167163E+03  0.10566000000E+00 0.  1.
         13    1    1    2    0    0 -0.17543353327E+03  0.33998567895E+03 -0.93923233615E+02  0.39394006075E+03  0.10566000000E+00 0. -1.
          4    1    1    2  501    0 -0.14976889297E+03 -0.97710720000E+02  0.18675871356E+03  0.25856705744E+03  0.00000000000E+00 0.  1.
         -4    1    1    2    0  503 -0.81708308215E+01  0.63605316702E+01 -0.30809954676E+03  0.30827349798E+03  0.00000000000E+00 0. -1.
</event>
<event>
 6    1  0.1144920E-005  0.6102873E+02  0.7818608E-02  0.1252440E+00
         21   -1    0    0  501  502  0.00000000000E+00  0.00000000000E+00  0.19471557563E+03  0.19471557563E+03  0.00000000000E+00 0.  1.
         21   -1    0    0  502  503 -0.00000000000E+00 -0.00000000000E+00 -0.16698599321E+03  0.16698599321E+03  0.00000000000E+00 0.  1.
        -13    1    1    2    0    0  0.31664880622E+02  0.48831627081E+02 -0.84029949414E+02  0.10221661328E+03  0.10566000000E+00 0.  1.
         13    1    1    2    0    0 -0.29831585877E+02 -0.51878262013E+02  0.24917557821E+02  0.64824173247E+02  0.10566000000E+00 0. -1.
          4    1    1    2  501    0 -0.27657265572E+02  0.19321968662E+02  0.13416780582E+03  0.13834472498E+03  0.00000000000E+00 0.  1.
         -4    1    1    2    0  503  0.25823970826E+02 -0.16275333730E+02 -0.47325831811E+02  0.56316057335E+02  0.00000000000E+00 0. -1.
</event>
<event>
 6    1  0.1144920E-005  0.8634064E+02  0.7818608E-02  0.1189377E+00
         21   -1    0    0  501  502  0.00000000000E+00  0.00000000000E+00  0.15620089089E+03  0.15620089089E+03  0.00000000000E+00 0. -1.
         21   -1    0    0  502  503 -0.00000000000E+00 -0.00000000000E+00 -0.28092041624E+03  0.28092041624E+03  0.00000000000E+00 0.  1.
        -13    1    1    2    0    0 -0.17664470900E+02 -0.10196716761E+03 -0.11906835279E+03  0.15775493844E+03  0.10566000000E+00 0.  1.
         13    1    1    2    0    0 -0.69536338526E+02  0.82103068494E+02  0.67436890261E+02  0.12698016209E+03  0.10566000000E+00 0. -1.
          4    1    1    2  501    0  0.67100591046E+02 -0.27504854258E+01  0.62768127858E+01  0.67449632079E+02  0.00000000000E+00 0.  1.
         -4    1    1    2    0  503  0.20100218379E+02  0.22614584537E+02 -0.79364875602E+02  0.84936574525E+02  0.00000000000E+00 0. -1.
</event>
<event>
 6    1  0.1144920E-005  0.1416512E+03  0.7818608E-02  0.1109650E+00
         21   -1    0    0  501  502  0.00000000000E+00  0.00000000000E+00  0.51896773183E+02  0.51896773183E+02  0.00000000000E+00 0. -1.
         21   -1    0    0  502  503 -0.00000000000E+00 -0.00000000000E+00 -0.54947199110E+03  0.54947199110E+03  0.00000000000E+00 0.  1.
        -13    1    1    2    0    0 -0.10628096078E+03 -0.10269896027E+03 -0.27912481054E+03  0.31583760081E+03  0.10566000000E+00 0.  1.
         13    1    1    2    0    0  0.74426587881E+02  0.11479711886E+03 -0.17994444944E+03  0.22604802926E+03  0.10566000000E+00 0. -1.
          4    1    1    2  501    0  0.10773690602E+02  0.24499062549E+01  0.23181166657E+01  0.11289292038E+02  0.00000000000E+00 0.  1.
         -4    1    1    2    0  503  0.21080682295E+02 -0.14548064839E+02 -0.40824074605E+02  0.48193842179E+02  0.00000000000E+00 0. -1.
</event>
<event>
 6    1  0.1144920E-005  0.1334312E+03  0.7818608E-02  0.1118708E+00
         21   -1    0    0  501  502  0.00000000000E+00  0.00000000000E+00  0.58596007028E+03  0.58596007028E+03  0.00000000000E+00 0.  1.
         21   -1    0    0  502  503 -0.00000000000E+00 -0.00000000000E+00 -0.42591173157E+03  0.42591173157E+03  0.00000000000E+00 0.  1.
        -13    1    1    2    0    0  0.12643611988E+03  0.55787761961E+02 -0.29815666879E+03  0.32862710951E+03  0.10566000000E+00 0.  1.
         13    1    1    2    0    0 -0.11563654239E+03 -0.10918143269E+03  0.73887200171E+02  0.17536169677E+03  0.10566000000E+00 0. -1.
          4    1    1    2  501    0  0.14810393895E+02  0.28913857791E+02  0.44037359729E+03  0.44157022559E+03  0.00000000000E+00 0.  1.
         -4    1    1    2    0  503 -0.25609971380E+02  0.24479812940E+02 -0.56055789958E+02  0.66312769988E+02  0.00000000000E+00 0. -1.
</event>
<event>
 6    1  0.1144920E-005  0.3598435E+03  0.7818608E-02  0.9852777E-01
         21   -1    0    0  501  502  0.00000000000E+00  0.00000000000E+00  0.17967451139E+04  0.17967451139E+04  0.00000000000E+00 0.  1.
         21   -1    0    0  502  503 -0.00000000000E+00 -0.00000000000E+00 -0.61069367238E+03  0.61069367238E+03  0.00000000000E+00 0.  1.
        -13    1    1    2    0    0 -0.21151497688E+03  0.19497896506E+03 -0.10349004408E+03  0.30572141346E+03  0.10566000000E+00 0.  1.
         13    1    1    2    0    0  0.42082184036E+03 -0.20848995605E+03 -0.20397462977E+03  0.51202025727E+03  0.10566000000E+00 0. -1.
          4    1    1    2  501    0 -0.17911788147E+03  0.26121998156E+02  0.15300124663E+04  0.15406828750E+04  0.00000000000E+00 0.  1.
         -4    1    1    2    0  503 -0.30188982004E+02 -0.12611007168E+02 -0.36496350988E+02  0.49014240499E+02  0.00000000000E+00 0. -1.
</event>
<event>
 6    1  0.1144920E-005  0.8650801E+02  0.7818608E-02  0.1189042E+00
         21   -1    0    0  503  502  0.00000000000E+00  0.00000000000E+00  0.11582766331E+03  0.11582766331E+03  0.00000000000E+00 0.  1.
         21   -1    0    0  501  503 -0.00000000000E+00 -0.00000000000E+00 -0.18479057033E+03  0.18479057033E+03  0.00000000000E+00 0.  1.
        -13    1    1    2    0    0  0.42475327006E+02 -0.74774829706E+02  0.19013088023E+02  0.88073476383E+02  0.10566000000E+00 0.  1.
         13    1    1    2    0    0 -0.37971864655E+02  0.80238638240E+02  0.19002313146E+02  0.90781058822E+02  0.10566000000E+00 0. -1.
          4    1    1    2  501    0 -0.22369476263E+01  0.13463434098E+02 -0.10080769797E+03  0.10172738059E+03  0.00000000000E+00 0.  1.
         -4    1    1    2    0  502 -0.22665147255E+01 -0.18927242631E+02 -0.61706102220E+01  0.20036317854E+02  0.00000000000E+00 0. -1.
</event>
<event>
 6    1  0.1144920E-005  0.1695178E+03  0.7818608E-02  0.1083311E+00
         21   -1    0    0  501  502  0.00000000000E+00  0.00000000000E+00  0.71769051176E+03  0.71769051176E+03  0.00000000000E+00 0. -1.
         21   -1    0    0  502  503 -0.00000000000E+00 -0.00000000000E+00 -0.14355264722E+03  0.14355264722E+03  0.00000000000E+00 0. -1.
        -13    1    1    2    0    0 -0.59669345221E+02 -0.14652549287E+03  0.76092740664E+00  0.15821106471E+03  0.10566000000E+00 0.  1.
         13    1    1    2    0    0  0.11679762328E+03  0.16635997511E+03  0.45961955431E+03  0.50256091371E+03  0.10566000000E+00 0. -1.
          4    1    1    2  501    0 -0.40001704729E+02 -0.19294092543E+02  0.15211210077E+03  0.15846289656E+03  0.00000000000E+00 0.  1.
         -4    1    1    2    0  503 -0.17126573332E+02 -0.54038969054E+00 -0.38354717949E+02  0.42008283993E+02  0.00000000000E+00 0. -1.
</event>
<event>
 6    1  0.1144920E-005  0.2004901E+02  0.7818608E-02  0.1516155E+00
         21   -1    0    0  501  502  0.00000000000E+00  0.00000000000E+00  0.27031917597E+03  0.27031917597E+03  0.00000000000E+00 0.  1.
         21   -1    0    0  502  503 -0.00000000000E+00 -0.00000000000E+00 -0.19985561798E+02  0.19985561798E+02  0.00000000000E+00 0. -1.
        -13    1    1    2    0    0  0.29772933398E+02 -0.17369713569E+02  0.38652002719E+02  0.51789216936E+02  0.10566000000E+00 0.  1.
         13    1    1    2    0    0 -0.74889541144E+01  0.15353181598E+02  0.86809008292E+02  0.88473836266E+02  0.10566000000E+00 0. -1.
          4    1    1    2  501    0 -0.18264355491E+02 -0.75091671523E+01  0.13448342341E+03  0.13592558790E+03  0.00000000000E+00 0.  1.
         -4    1    1    2    0  503 -0.40196237923E+01  0.95256991230E+01 -0.96108202521E+01  0.14116096668E+02  0.00000000000E+00 0. -1.
</event>
<event>
 6    1  0.1144920E-005  0.5454225E+02  0.7818608E-02  0.1274324E+00
         21   -1    0    0  501  502  0.00000000000E+00  0.00000000000E+00  0.13736610041E+03  0.13736610041E+03  0.00000000000E+00 0. -1.
         21   -1    0    0  502  503 -0.00000000000E+00 -0.00000000000E+00 -0.93340183370E+02  0.93340183370E+02  0.00000000000E+00 0. -1.
        -13    1    1    2    0    0 -0.28426025716E+02  0.37884037208E+02 -0.29308568406E+02  0.55697778764E+02  0.10566000000E+00 0.  1.
         13    1    1    2    0    0  0.47366327518E+01 -0.60063976333E+02  0.35069368905E+02  0.69713619489E+02  0.10566000000E+00 0. -1.
          4    1    1    2  501    0  0.17123251909E+02  0.55122831938E+01  0.68132350362E+02  0.70467071656E+02  0.00000000000E+00 0.  1.
         -4    1    1    2    0  503  0.65661410555E+01  0.16667655931E+02 -0.29867233824E+02  0.34827813869E+02  0.00000000000E+00 0. -1.
</event>
<event>
 6    1  0.1144920E-005  0.4240330E+02  0.7818608E-02  0.1326240E+00
         21   -1    0    0  503  502  0.00000000000E+00  0.00000000000E+00  0.27944818022E+03  0.27944818022E+03  0.00000000000E+00 0.  1.
         21   -1    0    0  501  503 -0.00000000000E+00 -0.00000000000E+00 -0.68867748237E+02  0.68867748237E+02  0.00000000000E+00 0.  1.
        -13    1    1    2    0    0  0.26728488960E+02  0.22810244615E+02  0.16369355355E+03  0.16742254932E+03  0.10566000000E+00 0.  1.
         13    1    1    2    0    0 -0.51502430642E+02 -0.15185721927E+02  0.14253256134E+02  0.55554234644E+02  0.10566000000E+00 0. -1.
          4    1    1    2  501    0  0.10322936721E+02  0.53652053110E+01 -0.44396782840E+02  0.45895781691E+02  0.00000000000E+00 0.  1.
         -4    1    1    2    0  502  0.14451004961E+02 -0.12989727999E+02  0.77030405134E+02  0.79443362800E+02  0.00000000000E+00 0. -1.
</event>
<event>
 6    1  0.1144920E-005  0.2378450E+03  0.7818608E-02  0.1036891E+00
         21   -1    0    0  501  502  0.00000000000E+00  0.00000000000E+00  0.83088809405E+03  0.83088809405E+03  0.00000000000E+00 0. -1.
         21   -1    0    0  502  503 -0.00000000000E+00 -0.00000000000E+00 -0.16131786165E+03  0.16131786165E+03  0.00000000000E+00 0.  1.
        -13    1    1    2    0    0 -0.16221276412E+03  0.25528615338E+03  0.11503754597E+03  0.32360106474E+03  0.10566000000E+00 0.  1.
         13    1    1    2    0    0  0.17782162254E+03 -0.13520726523E+03  0.29959250851E+03  0.37370739401E+03  0.10566000000E+00 0. -1.
          4    1    1    2  501    0  0.23007724074E+02 -0.10034820481E+03  0.19963522020E+03  0.22461820657E+03  0.00000000000E+00 0.  1.
         -4    1    1    2    0  503 -0.38616582499E+02 -0.19730683339E+02  0.55304957712E+02  0.70279290381E+02  0.00000000000E+00 0. -1.
</event>
<event>
 6    1  0.1144920E-005  0.5027392E+02  0.7818608E-02  0.1290678E+00
         21   -1    0    0  501  502  0.00000000000E+00  0.00000000000E+00  0.46764965157E+03  0.46764965157E+03  0.00000000000E+00 0. -1.
         21   -1    0    0  502  503 -0.00000000000E+00 -0.00000000000E+00 -0.66322054851E+02  0.66322054851E+02  0.00000000000E+00 0.  1.
        -13    1    1    2    0    0 -0.26606985611E+02 -0.18603145452E+02 -0.48612861096E+02  0.58457079400E+02  0.10566000000E+00 0.  1.
         13    1    1    2    0    0  0.61414520803E+02 -0.33957626965E+01  0.32097935544E+03  0.32681957156E+03  0.10566000000E+00 0. -1.
          4    1    1    2  501    0 -0.11701473924E+02  0.14020007800E+02  0.12188662536E+03  0.12324704683E+03  0.00000000000E+00 0.  1.
         -4    1    1    2    0  503 -0.23106061269E+02  0.79789003487E+01  0.70744770060E+01  0.25448008626E+02  0.00000000000E+00 0. -1.
</event>
<event>
 6    1  0.1144920E-005  0.3771977E+03  0.7818608E-02  0.9797312E-01
         21   -1    0    0  503  502  0.00000000000E+00  0.00000000000E+00  0.14391586343E+04  0.14391586343E+04  0.00000000000E+00 0.  1.
         21   -1    0    0  501  503 -0.00000000000E+00 -0.00000000000E+00 -0.22577294183E+03  0.22577294183E+03  0.00000000000E+00 0. -1.
        -13    1    1    2    0    0 -0.37235631744E+03  0.79137021364E+02  0.45199421901E+03  0.59094050502E+03  0.10566000000E+00 0.  1.
         13    1    1    2    0    0  0.35135556792E+03 -0.38618085675E+02  0.80717931033E+02  0.36257066512E+03  0.10566000000E+00 0. -1.
          4    1    1    2  501    0  0.42120171822E+02 -0.36039611481E+02  0.35372823200E+02  0.65758642710E+02  0.00000000000E+00 0.  1.
         -4    1    1    2    0  502 -0.21119422306E+02 -0.44793242084E+01  0.64530071927E+03  0.64566176333E+03  0.00000000000E+00 0. -1.
</event>
<event>
 6    1  0.1144920E-005  0.2381228E+03  0.7818608E-02  0.1036738E+00
         21   -1    0    0  503  502  0.00000000000E+00  0.00000000000E+00  0.41263276458E+03  0.41263276458E+03  0.00000000000E+00 0. -1.
         21   -1    0    0  501  503 -0.00000000000E+00 -0.00000000000E+00 -0.21866848506E+04  0.21866848506E+04  0.00000000000E+00 0.  1.
        -13    1    1    2    0    0  0.27175247256E+03 -0.12593950266E+03 -0.19605795498E+03  0.35797890657E+03  0.10566000000E+00 0.  1.
         13    1    1    2    0    0 -0.15398012974E+03  0.12712460971E+03 -0.15217361092E+03  0.25105251597E+03  0.10566000000E+00 0. -1.
          4    1    1    2  501    0 -0.12747544711E+03  0.23348515607E+01 -0.17055788137E+04  0.17103375488E+04  0.00000000000E+00 0.  1.
         -4    1    1    2    0  502  0.97031042906E+01 -0.35199586120E+01  0.27975829360E+03  0.27994864382E+03  0.00000000000E+00 0. -1.
</event>
<event>
 6    1  0.1144920E-005  0.1088231E+03  0.7818608E-02  0.1150729E+00
         21   -1    0    0  501  502  0.00000000000E+00  0.00000000000E+00  0.33372283287E+03  0.33372283287E+03  0.00000000000E+00 0. -1.
         21   -1    0    0  502  503 -0.00000000000E+00 -0.00000000000E+00 -0.43974934712E+03  0.43974934712E+03  0.00000000000E+00 0.  1.
        -13    1    1    2    0    0  0.26690275707E+02 -0.11895443734E+03 -0.32887308484E+03  0.35074213616E+03  0.10566000000E+00 0.  1.
         13    1    1    2    0    0 -0.94339452579E+02  0.72224939610E+02  0.66120670451E+02  0.13597179281E+03  0.10566000000E+00 0. -1.
          4    1    1    2  501    0  0.22611558970E+02  0.72415190840E+01  0.20712309245E+03  0.20847948969E+03  0.00000000000E+00 0.  1.
         -4    1    1    2    0  503  0.45037617903E+02  0.39487978642E+02 -0.50397192309E+02  0.78278761336E+02  0.00000000000E+00 0. -1.
</event>
<event>
 6    1  0.1144920E-005  0.1371627E+03  0.7818608E-02  0.1114511E+00
         21   -1    0    0  503  502  0.00000000000E+00  0.00000000000E+00  0.14631399895E+03  0.14631399895E+03  0.00000000000E+00 0. -1.
         21   -1    0    0  501  503 -0.00000000000E+00 -0.00000000000E+00 -0.53689969426E+03  0.53689969426E+03  0.00000000000E+00 0.  1.
        -13    1    1    2    0    0  0.11436672940E+03  0.86517959356E+02 -0.38177479141E+02  0.14840025998E+03  0.10566000000E+00 0.  1.
         13    1    1    2    0    0 -0.11122170621E+03 -0.39041202329E+02 -0.33159065494E+03  0.35191882163E+03  0.10566000000E+00 0. -1.
          4    1    1    2  501    0 -0.93471904208E+01 -0.38621626199E+02 -0.97587304459E+02  0.10536736673E+03  0.00000000000E+00 0.  1.
         -4    1    1    2    0  502  0.62021672228E+01 -0.88551308279E+01  0.76769743234E+02  0.77527244866E+02  0.00000000000E+00 0. -1.
</event>
<event>
 6    1  0.1144920E-005  0.1906750E+03  0.7818608E-02  0.1066724E+00
         21   -1    0    0  501  502  0.00000000000E+00  0.00000000000E+00  0.57056987928E+03  0.57056987928E+03  0.00000000000E+00 0.  1.
         21   -1    0    0  502  503 -0.00000000000E+00 -0.00000000000E+00 -0.25166474544E+03  0.25166474544E+03  0.00000000000E+00 0. -1.
        -13    1    1    2    0    0 -0.84182752975E+02  0.17558369340E+03  0.24840522477E+03  0.31562879486E+03  0.10566000000E+00 0.  1.
         13    1    1    2    0    0  0.22408810004E+03 -0.41613996138E+02  0.11095156752E+03  0.25349055752E+03  0.10566000000E+00 0. -1.
          4    1    1    2  501    0 -0.10793884715E+03 -0.12472625035E+03  0.36799619592E+02  0.16900190606E+03  0.00000000000E+00 0.  1.
         -4    1    1    2    0  503 -0.31966499918E+02 -0.92434469119E+01 -0.77251278045E+02  0.84113366283E+02  0.00000000000E+00 0. -1.
</event>
<event>
 6    1  0.1144920E-005  0.1065998E+03  0.7818608E-02  0.1173592E+00
         21   -1    0    0  501  502  0.00000000000E+00  0.00000000000E+00  0.17727071785E+03  0.17727071785E+03  0.00000000000E+00 0.  1.
         21   -1    0    0  502  503 -0.00000000000E+00 -0.00000000000E+00 -0.36080430713E+03  0.36080430713E+03  0.00000000000E+00 0.  1.
        -13    1    1    2    0    0 -0.30628254949E+02  0.80422578614E+02 -0.17808116472E+03  0.19778471514E+03  0.10566000000E+00 0.  1.
         13    1    1    2    0    0  0.49599245947E+02  0.45219669209E+02  0.78013715625E+02  0.10291284989E+03  0.10566000000E+00 0. -1.
          4    1    1    2  501    0 -0.13892206860E+02 -0.11222633582E+03  0.34744078623E+02  0.11830002055E+03  0.00000000000E+00 0.  1.
         -4    1    1    2    0  503 -0.50787841384E+01 -0.13415912003E+02 -0.11821021881E+03  0.11907743940E+03  0.00000000000E+00 0. -1.
</event>
<event>
 6    1  0.1144920E-005  0.6404788E+02  0.7818608E-02  0.1243267E+00
         21   -1    0    0  503  502  0.00000000000E+00  0.00000000000E+00  0.22812934142E+02  0.22812934142E+02  0.00000000000E+00 0. -1.
         21   -1    0    0  501  503 -0.00000000000E+00 -0.00000000000E+00 -0.47023791657E+03  0.47023791657E+03  0.00000000000E+00 0. -1.
        -13    1    1    2    0    0  0.41699148850E+02  0.30200836853E+01 -0.28576028463E+02  0.50641292312E+02  0.10566000000E+00 0.  1.
         13    1    1    2    0    0 -0.76005264870E+02  0.77183454363E+01 -0.22027786825E+03  0.23314957334E+03  0.10566000000E+00 0. -1.
          4    1    1    2  501    0 -0.43091296673E+01 -0.11494052534E+02 -0.12985206572E+03  0.13043098103E+03  0.00000000000E+00 0.  1.
         -4    1    1    2    0  502  0.38615245687E+02  0.75562341200E+00 -0.68719019996E+02  0.78829004024E+02  0.00000000000E+00 0. -1.
</event>
<event>
 6    1  0.1144920E-005  0.4169096E+02  0.7818608E-02  0.1384720E+00
         21   -1    0    0  503  502  0.00000000000E+00  0.00000000000E+00  0.22455049293E+02  0.22455049293E+02  0.00000000000E+00 0. -1.
         21   -1    0    0  501  503 -0.00000000000E+00 -0.00000000000E+00 -0.21759260314E+03  0.21759260314E+03  0.00000000000E+00 0.  1.
        -13    1    1    2    0    0 -0.28560873957E+02 -0.33250618082E+02 -0.44256201759E+02  0.62289242106E+02  0.10566000000E+00 0.  1.
         13    1    1    2    0    0  0.76027397031E+01  0.16643685514E+02 -0.23880706654E+02  0.30085099847E+02  0.10566000000E+00 0. -1.
          4    1    1    2  501    0  0.31819810303E+02  0.26007042188E+02 -0.12681506269E+03  0.13330763930E+03  0.00000000000E+00 0.  1.
         -4    1    1    2    0  502 -0.10861676049E+02 -0.94001096203E+01 -0.18558274428E+00  0.14365671179E+02  0.00000000000E+00 0. -1.
</event>
<event>
 6    1  0.1144920E-005  0.9398034E+02  0.7818608E-02  0.1174919E+00
         21   -1    0    0  501  502  0.00000000000E+00  0.00000000000E+00  0.17858835458E+03  0.17858835458E+03  0.00000000000E+00 0. -1.
         21   -1    0    0  502  503 -0.00000000000E+00 -0.00000000000E+00 -0.24191764723E+03  0.24191764723E+03  0.00000000000E+00 0.  1.
        -13    1    1    2    0    0 -0.36434037678E+02  0.76287494217E+02 -0.10987263258E+03  0.13863342826E+03  0.10566000000E+00 0.  1.
         13    1    1    2    0    0  0.39840963713E+02 -0.75041559457E+02 -0.19930900008E+01  0.84985419968E+02  0.10566000000E+00 0. -1.
          4    1    1    2  501    0  0.14360340526E+02 -0.23379428762E+02  0.11836885666E+03  0.12150721500E+03  0.00000000000E+00 0.  1.
         -4    1    1    2    0  503 -0.17767266560E+02  0.22133494002E+02 -0.69832426736E+02  0.75379938588E+02  0.00000000000E+00 0. -1.
</event>
<event>
 6    1  0.1144920E-005  0.1165962E+03  0.7818608E-02  0.1139686E+00
         21   -1    0    0  503  502  0.00000000000E+00  0.00000000000E+00  0.77767852186E+02  0.77767852186E+02  0.00000000000E+00 0. -1.
         21   -1    0    0  501  503 -0.00000000000E+00 -0.00000000000E+00 -0.39414691830E+03  0.39414691830E+03  0.00000000000E+00 0. -1.
        -13    1    1    2    0    0 -0.86585798512E+02  0.67007582902E+02 -0.10294940617E+03  0.15028542200E+03  0.10566000000E+00 0.  1.
         13    1    1    2    0    0  0.67850620750E+02 -0.10256855666E+03 -0.21236964742E+03  0.24540760759E+03  0.10566000000E+00 0. -1.
          4    1    1    2  501    0  0.26516513561E+02  0.14267157627E+02 -0.27926632879E+02  0.41067920597E+02  0.00000000000E+00 0.  1.
         -4    1    1    2    0  502 -0.77813357993E+01  0.21293816127E+02  0.26866620362E+02  0.35153820301E+02  0.00000000000E+00 0. -1.
</event>
<event>
 6    1  0.1144920E-005  0.2773553E+02  0.7818608E-02  0.1429750E+00
         21   -1    0    0  503  502  0.00000000000E+00  0.00000000000E+00  0.23999965855E+02  0.23999965855E+02  0.00000000000E+00 0.  1.
         21   -1    0    0  501  503 -0.00000000000E+00 -0.00000000000E+00 -0.21878574932E+03  0.21878574932E+03  0.00000000000E+00 0. -1.
        -13    1    1    2    0    0  0.18051926447E+02 -0.18481481129E+01 -0.66799720638E+02  0.69220672788E+02  0.10566000000E+00 0.  1.
         13    1    1    2    0    0 -0.24579222558E+02 -0.29881560170E+02 -0.51698109373E+02  0.64573613005E+02  0.10566000000E+00 0. -1.
          4    1    1    2  501    0  0.15318446556E+02  0.24052127610E+02 -0.87970860256E+02  0.92477196657E+02  0.00000000000E+00 0.  1.
         -4    1    1    2    0  502 -0.87911504447E+01  0.76775806723E+01  0.11682906802E+02  0.16514232724E+02  0.00000000000E+00 0. -1.
</event>
<event>
 6    1  0.1144920E-005  0.4390230E+02  0.7818608E-02  0.1318826E+00
         21   -1    0    0  501  502  0.00000000000E+00  0.00000000000E+00  0.57864030065E+02  0.57864030065E+02  0.00000000000E+00 0. -1.
         21   -1    0    0  502  503 -0.00000000000E+00 -0.00000000000E+00 -0.15070231609E+03  0.15070231609E+03  0.00000000000E+00 0.  1.
        -13    1    1    2    0    0  0.37534082495E+02  0.39928456266E+02 -0.62518571919E+02  0.83136465930E+02  0.10566000000E+00 0.  1.
         13    1    1    2    0    0 -0.35824034345E+02 -0.28362756788E+02  0.69480306062E+01  0.46217893750E+02  0.10566000000E+00 0. -1.
          4    1    1    2  501    0 -0.16595994054E+00  0.11361200705E+02  0.16904128963E+02  0.20367965047E+02  0.00000000000E+00 0.  1.
         -4    1    1    2    0  503 -0.15440882097E+01 -0.22926900184E+02 -0.54171873674E+02  0.58844021427E+02  0.00000000000E+00 0. -1.
</event>
<event>
 6    1  0.2729743E-005  0.1953628E+03  0.7818608E-02  0.1063362E+00
         21   -1    0    0  503  502  0.00000000000E+00  0.00000000000E+00  0.58671452363E+03  0.58671452363E+03  0.00000000000E+00 0.  1.
         21   -1    0    0  501  503 -0.00000000000E+00 -0.00000000000E+00 -0.52477928861E+03  0.52477928861E+03  0.00000000000E+00 0. -1.
        -13    1    1    2    0    0  0.15191908677E+03  0.14321124278E+03  0.51337022298E+03  0.55420020388E+03  0.10566000000E+00 0.  1.
         13    1    1    2    0    0 -0.11848827431E+03 -0.14981718700E+03 -0.35327107104E+03  0.40160318907E+03  0.10566000000E+00 0. -1.
          4    1    1    2  501    0 -0.35713730912E+02  0.30024778755E+02 -0.11673548559E+03  0.12571448410E+03  0.00000000000E+00 0.  1.
         -4    1    1    2    0  502  0.22829184582E+01 -0.23418834535E+02  0.18571568674E+02  0.29975935192E+02  0.00000000000E+00 0. -1.
</event>
<event>
 6    1  0.1144920E-005  0.6212691E+02  0.7818608E-02  0.1249036E+00
         21   -1    0    0  501  502  0.00000000000E+00  0.00000000000E+00  0.38228241291E+02  0.38228241291E+02  0.00000000000E+00 0. -1.
         21   -1    0    0  502  503 -0.00000000000E+00 -0.00000000000E+00 -0.26147522481E+03  0.26147522481E+03  0.00000000000E+00 0.  1.
        -13    1    1    2    0    0 -0.36827150589E+02 -0.60669288207E+02 -0.50822424549E+02  0.87292219316E+02  0.10566000000E+00 0.  1.
         13    1    1    2    0    0  0.15667379063E+02  0.53080678371E+02 -0.43275458333E+02  0.70255260593E+02  0.10566000000E+00 0. -1.
          4    1    1    2  501    0  0.10349853500E+02  0.44678817104E+01  0.11868043478E+01  0.11335340269E+02  0.00000000000E+00 0.  1.
         -4    1    1    2    0  503  0.10809918026E+02  0.31207281247E+01 -0.13033590499E+03  0.13082064593E+03  0.00000000000E+00 0. -1.
</event>
<event>
 6    1  0.1144920E-005  0.6989524E+02  0.7818608E-02  0.1227002E+00
         21   -1    0    0  503  502  0.00000000000E+00  0.00000000000E+00  0.18401427402E+03  0.18401427402E+03  0.00000000000E+00 0. -1.
         21   -1    0    0  501  503 -0.00000000000E+00 -0.00000000000E+00 -0.58284544806E+03  0.58284544806E+03  0.00000000000E+00 0.  1.
        -13    1    1    2    0    0 -0.37619635508E+02 -0.60768496632E+02  0.38046355579E+02  0.80966557883E+02  0.10566000000E+00 0.  1.
         13    1    1    2    0    0  0.62646289629E+02  0.30361627896E+02 -0.10419392295E+03  0.12531069705E+03  0.10566000000E+00 0. -1.
          4    1    1    2  501    0  0.72572715806E+01 -0.87884748815E+01 -0.44089855757E+03  0.44104585175E+03  0.00000000000E+00 0.  1.
         -4    1    1    2    0  502 -0.32283925702E+02  0.39195343617E+02  0.10821495090E+03  0.11953661539E+03  0.00000000000E+00 0. -1.
</event>
<event>
 6    1  0.1144920E-005  0.1687039E+02  0.7818608E-02  0.1566364E+00
         21   -1    0    0  501  502  0.00000000000E+00  0.00000000000E+00  0.55903857197E+02  0.55903857197E+02  0.00000000000E+00 0.  1.
         21   -1    0    0  502  503 -0.00000000000E+00 -0.00000000000E+00 -0.88731945881E+02  0.88731945881E+02  0.00000000000E+00 0. -1.
        -13    1    1    2    0    0 -0.59011418951E+01  0.10060741446E+02 -0.57176014324E+00  0.11678187693E+02  0.10566000000E+00 0.  1.
         13    1    1    2    0    0 -0.43855321515E+01 -0.12418694118E+02  0.15068745986E+02  0.20013373666E+02  0.10566000000E+00 0. -1.
          4    1    1    2  501    0  0.90067893616E+01 -0.15354356464E+02  0.29302512875E+02  0.34285795569E+02  0.00000000000E+00 0.  1.
         -4    1    1    2    0  503  0.12798846851E+01  0.17712309136E+02 -0.76627587402E+02  0.78658446150E+02  0.00000000000E+00 0. -1.
</event>
<event>
 6    1  0.1144920E-005  0.1463294E+03  0.7818608E-02  0.1104789E+00
         21   -1    0    0  503  502  0.00000000000E+00  0.00000000000E+00  0.82892498723E+03  0.82892498723E+03  0.00000000000E+00 0.  1.
         21   -1    0    0  501  503 -0.00000000000E+00 -0.00000000000E+00 -0.19895457635E+03  0.19895457635E+03  0.00000000000E+00 0. -1.
        -13    1    1    2    0    0  0.56584620763E+02  0.14338555717E+03  0.34142744304E+03  0.37461172878E+03  0.10566000000E+00 0.  1.
         13    1    1    2    0    0 -0.64006414844E+02 -0.12072056311E+03  0.10408205202E+03  0.17176542206E+03  0.10566000000E+00 0. -1.
          4    1    1    2  501    0 -0.12413459950E+01 -0.13058839034E+02 -0.14810511811E+03  0.14868490248E+03  0.00000000000E+00 0.  1.
         -4    1    1    2    0  502  0.86631400761E+01 -0.96061550261E+01  0.33256603393E+03  0.33281751025E+03  0.00000000000E+00 0. -1.
</event>
<event>
 6    1  0.1144920E-005  0.1330881E+03  0.7818608E-02  0.1119101E+00
         21   -1    0    0  503  502  0.00000000000E+00  0.00000000000E+00  0.71888757718E+03  0.71888757718E+03  0.00000000000E+00 0. -1.
         21   -1    0    0  501  503 -0.00000000000E+00 -0.00000000000E+00 -0.89447248472E+02  0.89447248472E+02  0.00000000000E+00 0.  1.
        -13    1    1    2    0    0 -0.78564041746E+02 -0.96861079335E+02  0.28909712194E+03  0.31485160699E+03  0.10566000000E+00 0.  1.
         13    1    1    2    0    0  0.97162891517E+02  0.85365475075E+02  0.32693690936E+02  0.13340457419E+03  0.10566000000E+00 0. -1.
          4    1    1    2  501    0 -0.16973861611E+02  0.29031911957E+02 -0.15089149270E+02  0.36859819799E+02  0.00000000000E+00 0.  1.
         -4    1    1    2    0  502 -0.16249881590E+01 -0.17536307697E+02  0.32273866510E+03  0.32321882467E+03  0.00000000000E+00 0. -1.
</event>
<event>
 6    1  0.1144920E-005  0.7337311E+02  0.7818608E-02  0.1218146E+00
         21   -1    0    0  503  502  0.00000000000E+00  0.00000000000E+00  0.12001910270E+04  0.12001910270E+04  0.00000000000E+00 0. -1.
         21   -1    0    0  501  503 -0.00000000000E+00 -0.00000000000E+00 -0.29678443577E+02  0.29678443577E+02  0.00000000000E+00 0. -1.
        -13    1    1    2    0    0  0.93407192992E+02 -0.57377300949E+01  0.50355800910E+03  0.51218014891E+03  0.10566000000E+00 0.  1.
         13    1    1    2    0    0 -0.41994315630E+02  0.32165652617E+02  0.11637160838E+03  0.12783002055E+03  0.10566000000E+00 0. -1.
          4    1    1    2  501    0 -0.46649728189E+02 -0.28888137982E+01  0.88196631391E+01  0.47563944781E+02  0.00000000000E+00 0.  1.
         -4    1    1    2    0  502 -0.47631491728E+01 -0.23539108724E+02  0.54176330277E+03  0.54229535629E+03  0.00000000000E+00 0. -1.
</event>
<event>
 6    1  0.1144920E-005  0.1838762E+03  0.7818608E-02  0.1071789E+00
         21   -1    0    0  501  502  0.00000000000E+00  0.00000000000E+00  0.24301613255E+03  0.24301613255E+03  0.00000000000E+00 0.  1.
         21   -1    0    0  502  503 -0.00000000000E+00 -0.00000000000E+00 -0.36840196554E+03  0.36840196554E+03  0.00000000000E+00 0. -1.
        -13    1    1    2    0    0 -0.31184953834E+01  0.17405156143E+03  0.59956882703E+02  0.18411548006E+03  0.10566000000E+00 0.  1.
         13    1    1    2    0    0 -0.62330005158E+02 -0.23557204334E+03 -0.98892260349E+02  0.26298081197E+03  0.10566000000E+00 0. -1.
          4    1    1    2  501    0  0.48717941523E+01 -0.15916090186E+02  0.15460463691E+02  0.22717443576E+02  0.00000000000E+00 0.  1.
         -4    1    1    2    0  503  0.60576706389E+02  0.77436572092E+02 -0.10191091904E+03  0.14160436248E+03  0.00000000000E+00 0. -1.
</event>
<event>
 6    1  0.1144920E-005  0.9067437E+02  0.7818608E-02  0.1245022E+00
         21   -1    0    0  503  502  0.00000000000E+00  0.00000000000E+00  0.10127146880E+03  0.10127146880E+03  0.00000000000E+00 0. -1.
         21   -1    0    0  501  503 -0.00000000000E+00 -0.00000000000E+00 -0.37726772554E+03  0.37726772554E+03  0.00000000000E+00 0. -1.
        -13    1    1    2    0    0 -0.35428498905E+01  0.21454061081E+02  0.48739229872E+02  0.53369956106E+02  0.10566000000E+00 0.  1.
         13    1    1    2    0    0 -0.57777989598E+02 -0.96327953953E+02 -0.29232386165E+03  0.31316229347E+03  0.10566000000E+00 0. -1.
          4    1    1    2  501    0  0.12688626864E+02  0.25970004831E+01 -0.20263332892E+02  0.24048873635E+02  0.00000000000E+00 0.  1.
         -4    1    1    2    0  502  0.48632212625E+02  0.72276892389E+02 -0.12148292069E+02  0.87958071138E+02  0.00000000000E+00 0. -1.
</event>
<event>
 6    1  0.1144920E-005  0.7281838E+02  0.7818608E-02  0.1219521E+00
         21   -1    0    0  501  502  0.00000000000E+00  0.00000000000E+00  0.42980763288E+03  0.42980763288E+03  0.00000000000E+00 0.  1.
         21   -1    0    0  502  503 -0.00000000000E+00 -0.00000000000E+00 -0.70334709368E+02  0.70334709368E+02  0.00000000000E+00 0.  1.
        -13    1    1    2    0    0 -0.49270970426E+02  0.78334975848E+02  0.25461229456E+02  0.95980635220E+02  0.10566000000E+00 0.  1.
         13    1    1    2    0    0  0.39487153376E+02 -0.45282881215E+02  0.66647267981E+02  0.89730954003E+02  0.10566000000E+00 0. -1.
          4    1    1    2  501    0 -0.95495553908E+01 -0.20674645825E+02  0.28473438793E+03  0.28564367079E+03  0.00000000000E+00 0.  1.
         -4    1    1    2    0  503  0.19333372440E+02 -0.12377448808E+02 -0.17369961858E+02  0.28787082240E+02  0.00000000000E+00 0. -1.
</event>
<event>
 6    1  0.1144920E-005  0.6659734E+02  0.7818608E-02  0.1235949E+00
         21   -1    0    0  503  502  0.00000000000E+00  0.00000000000E+00  0.88449873879E+02  0.88449873879E+02  0.00000000000E+00 0.  1.
         21   -1    0    0  501  503 -0.00000000000E+00 -0.00000000000E+00 -0.35342268583E+03  0.35342268583E+03  0.00000000000E+00 0.  1.
        -13    1    1    2    0    0  0.81091537627E+02 -0.37832420744E+02  0.39977917290E+02  0.98007012856E+02  0.10566000000E+00 0.  1.
         13    1    1    2    0    0 -0.53132173750E+02  0.81406048782E+00 -0.10131844003E+03  0.11440772717E+03  0.10566000000E+00 0. -1.
          4    1    1    2  501    0 -0.16293641965E+02  0.50535126276E+01 -0.19307992184E+03  0.19383208448E+03  0.00000000000E+00 0.  1.
         -4    1    1    2    0  502 -0.11665721913E+02  0.31964847629E+02 -0.10552367379E+02  0.35625735206E+02  0.00000000000E+00 0. -1.
</event>
<event>
 6    1  0.1144920E-005  0.4347863E+02  0.7818608E-02  0.1320887E+00
         21   -1    0    0  503  502  0.00000000000E+00  0.00000000000E+00  0.39804210926E+03  0.39804210926E+03  0.00000000000E+00 0. -1.
         21   -1    0    0  501  503 -0.00000000000E+00 -0.00000000000E+00 -0.40875610536E+02  0.40875610536E+02  0.00000000000E+00 0. -1.
        -13    1    1    2    0    0  0.11870391318E+02  0.35551559020E+02  0.27460908971E+02  0.46464311297E+02  0.10566000000E+00 0.  1.
         13    1    1    2    0    0 -0.22067092410E+02 -0.41221181407E+02 -0.10035020729E+02  0.47821074529E+02  0.10566000000E+00 0. -1.
          4    1    1    2  501    0  0.97867221778E+01 -0.68817186941E+01  0.13064521858E+02  0.17714957368E+02  0.00000000000E+00 0.  1.
         -4    1    1    2    0  502  0.40997891446E+00  0.12551341081E+02  0.32667608863E+03  0.32691737661E+03  0.00000000000E+00 0. -1.
</event>
<event>
 6    1  0.1144920E-005  0.3536557E+03  0.7818608E-02  0.1027990E+00
         21   -1    0    0  503  502  0.00000000000E+00  0.00000000000E+00  0.91064147023E+03  0.91064147023E+03  0.00000000000E+00 0.  1.
         21   -1    0    0  501  503 -0.00000000000E+00 -0.00000000000E+00 -0.32706586077E+03  0.32706586077E+03  0.00000000000E+00 0.  1.
        -13    1    1    2    0    0  0.49433881474E+02  0.30912250491E+03  0.45408739355E+03  0.55153948529E+03  0.10566000000E+00 0.  1.
         13    1    1    2    0    0  0.86889238655E+02 -0.39726975721E+02  0.69085816351E+02  0.11790179633E+03  0.10566000000E+00 0. -1.
          4    1    1    2  501    0 -0.15809143703E+03 -0.33172192370E+03 -0.11159088496E+03  0.38403757984E+03  0.00000000000E+00 0.  1.
         -4    1    1    2    0  502  0.21768316906E+02  0.62326394504E+02  0.17199328451E+03  0.18422846954E+03  0.00000000000E+00 0. -1.
</event>
<event>
 6    1  0.1144920E-005  0.5138062E+02  0.7818608E-02  0.1314555E+00
         21   -1    0    0  503  502  0.00000000000E+00  0.00000000000E+00  0.53643299141E+02  0.53643299141E+02  0.00000000000E+00 0. -1.
         21   -1    0    0  501  503 -0.00000000000E+00 -0.00000000000E+00 -0.80770591333E+03  0.80770591333E+03  0.00000000000E+00 0.  1.
        -13    1    1    2    0    0 -0.27308442328E+02  0.54745131941E+01 -0.15199991649E+02  0.31729674238E+02  0.10566000000E+00 0.  1.
         13    1    1    2    0    0 -0.26850392752E+01  0.34028149538E+02 -0.33511157915E+02  0.47834435982E+02  0.10566000000E+00 0. -1.
          4    1    1    2  501    0 -0.30175492452E+01  0.16282801918E+02 -0.71591725652E+03  0.71610875809E+03  0.00000000000E+00 0.  1.
         -4    1    1    2    0  502  0.33011030848E+02 -0.55785464651E+02  0.10565791888E+02  0.65676344160E+02  0.00000000000E+00 0. -1.
</event>
<event>
 6    1  0.1144920E-005  0.3997096E+02  0.7818608E-02  0.1344609E+00
         21   -1    0    0  503  502  0.00000000000E+00  0.00000000000E+00  0.34820747699E+03  0.34820747699E+03  0.00000000000E+00 0.  1.
         21   -1    0    0  501  503 -0.00000000000E+00 -0.00000000000E+00 -0.51099335474E+02  0.51099335474E+02  0.00000000000E+00 0.  1.
        -13    1    1    2    0    0 -0.26914507344E+02  0.41387816842E+02  0.65505845245E+02  0.82026636002E+02  0.10566000000E+00 0.  1.
         13    1    1    2    0    0  0.16648986811E+02 -0.10503212534E+02  0.23761497513E+02  0.30856541664E+02  0.10566000000E+00 0. -1.
          4    1    1    2  501    0 -0.25653485480E+02 -0.34644922535E+02 -0.25645724730E+02  0.50160494133E+02  0.00000000000E+00 0.  1.
         -4    1    1    2    0  502  0.35919006013E+02  0.37603182270E+01  0.23348652349E+03  0.23626314066E+03  0.00000000000E+00 0. -1.
</event>
<event>
 6    1  0.1144920E-005  0.6822617E+02  0.7818608E-02  0.1231460E+00
         21   -1    0    0  503  502  0.00000000000E+00  0.00000000000E+00  0.87854915029E+02  0.87854915029E+02  0.00000000000E+00 0.  1.
         21   -1    0    0  501  503 -0.00000000000E+00 -0.00000000000E+00 -0.23916787737E+03  0.23916787737E+03  0.00000000000E+00 0. -1.
        -13    1    1    2    0    0 -0.94424096149E+01 -0.44552622298E+02  0.43925240471E+02  0.63273479180E+02  0.10566000000E+00 0.  1.
         13    1    1    2    0    0  0.39292225068E+02  0.71950425240E+02 -0.66464284387E+02  0.10553793113E+03  0.10566000000E+00 0. -1.
          4    1    1    2  501    0 -0.50820579599E+02 -0.16726576932E+01 -0.10713872473E+03  0.11859272925E+03  0.00000000000E+00 0.  1.
         -4    1    1    2    0  502  0.20970764146E+02 -0.25725145249E+02 -0.21635193698E+02  0.39618652845E+02  0.00000000000E+00 0. -1.
</event>
<event>
 6    1  0.1144920E-005  0.3385665E+02  0.7818608E-02  0.1382654E+00
         21   -1    0    0  501  502  0.00000000000E+00  0.00000000000E+00  0.47340638972E+02  0.47340638972E+02  0.00000000000E+00 0. -1.
         21   -1    0    0  502  503 -0.00000000000E+00 -0.00000000000E+00 -0.46410521131E+03  0.46410521131E+03  0.00000000000E+00 0. -1.
        -13    1    1    2    0    0  0.11353453744E+02 -0.17699018199E+02  0.18771670110E+02  0.28187637714E+02  0.10566000000E+00 0.  1.
         13    1    1    2    0    0 -0.33288841088E+02  0.29653507869E+01 -0.13781950119E+02  0.36150982828E+02  0.10566000000E+00 0. -1.
          4    1    1    2  501    0 -0.89027490113E+01  0.29051453582E+02 -0.72854453666E+01  0.31246177516E+02  0.00000000000E+00 0.  1.
         -4    1    1    2    0  503  0.30838136355E+02 -0.14317786170E+02 -0.41446884697E+03  0.41586105223E+03  0.00000000000E+00 0. -1.
</event>
<event>
 6    1  0.1144920E-005  0.1078265E+03  0.7818608E-02  0.1152218E+00
         21   -1    0    0  503  502  0.00000000000E+00  0.00000000000E+00  0.14424368102E+03  0.14424368102E+03  0.00000000000E+00 0.  1.
         21   -1    0    0  501  503 -0.00000000000E+00 -0.00000000000E+00 -0.17369934365E+03  0.17369934365E+03  0.00000000000E+00 0.  1.
        -13    1    1    2    0    0  0.12633167944E+02 -0.12537761910E+03  0.42464281671E+02  0.13297507543E+03  0.10566000000E+00 0.  1.
         13    1    1    2    0    0 -0.16347382714E+02  0.91117008998E+02 -0.33223448212E+02  0.98353215125E+02  0.10566000000E+00 0. -1.
          4    1    1    2  501    0  0.36420048607E+02  0.21831647195E+02 -0.22596023896E+02  0.48100114924E+02  0.00000000000E+00 0.  1.
         -4    1    1    2    0  502 -0.32705833837E+02  0.12428962911E+02 -0.16100472189E+02  0.38514619182E+02  0.00000000000E+00 0. -1.
</event>
<event>
 6    1  0.1144920E-005  0.1589492E+03  0.7818608E-02  0.1092606E+00
         21   -1    0    0  503  502  0.00000000000E+00  0.00000000000E+00  0.85601575586E+03  0.85601575586E+03  0.00000000000E+00 0. -1.
         21   -1    0    0  501  503 -0.00000000000E+00 -0.00000000000E+00 -0.55530086053E+02  0.55530086053E+02  0.00000000000E+00 0.  1.
        -13    1    1    2    0    0 -0.12172447663E+03  0.52207416664E+02  0.23926319960E+03  0.27347642021E+03  0.10566000000E+00 0.  1.
         13    1    1    2    0    0  0.15013791514E+03 -0.12642099932E+03  0.34184673281E+03  0.39418632971E+03  0.10566000000E+00 0. -1.
          4    1    1    2  501    0 -0.19474484029E+02  0.47481912893E+02  0.48213117412E+02  0.70415142339E+02  0.00000000000E+00 0.  1.
         -4    1    1    2    0  502 -0.89389544771E+01  0.26731669767E+02  0.17116262000E+03  0.17346794966E+03  0.00000000000E+00 0. -1.
</event>
<event>
 6    1  0.1144920E-005  0.9622985E+02  0.7818608E-02  0.1177324E+00
         21   -1    0    0  503  502  0.00000000000E+00  0.00000000000E+00  0.26869862022E+03  0.26869862022E+03  0.00000000000E+00 0. -1.
         21   -1    0    0  501  503 -0.00000000000E+00 -0.00000000000E+00 -0.15783528969E+03  0.15783528969E+03  0.00000000000E+00 0. -1.
        -13    1    1    2    0    0 -0.10333307490E+03 -0.55088957855E+02  0.13707291334E+03  0.18028175832E+03  0.10566000000E+00 0.  1.
         13    1    1    2    0    0  0.89222396869E+01  0.90546635081E+02  0.47233822022E+02  0.10251509446E+03  0.10566000000E+00 0. -1.
          4    1    1    2  501    0 -0.44778809663E+01  0.12723861862E+02 -0.65810324318E+01  0.15008599751E+02  0.00000000000E+00 0.  1.
         -4    1    1    2    0  502  0.98888716184E+02 -0.48181539088E+02 -0.66862372396E+02  0.12872845738E+03  0.00000000000E+00 0. -1.
</event>
<event>
 6    1  0.1144920E-005  0.3013852E+02  0.7818608E-02  0.1410357E+00
         21   -1    0    0  503  502  0.00000000000E+00  0.00000000000E+00  0.36148761749E+03  0.36148761749E+03  0.00000000000E+00 0.  1.
         21   -1    0    0  501  503 -0.00000000000E+00 -0.00000000000E+00 -0.49814131620E+02  0.49814131620E+02  0.00000000000E+00 0.  1.
        -13    1    1    2    0    0 -0.13200332284E+02  0.30763707015E+02  0.13346508261E+03  0.13759939637E+03  0.10566000000E+00 0.  1.
         13    1    1    2    0    0  0.29840577733E+02 -0.14798122371E+02  0.46427892001E+02  0.57140220728E+02  0.10566000000E+00 0. -1.
          4    1    1    2  501    0 -0.31365779866E+02  0.84896965575E+01 -0.34765677927E+02  0.47587177432E+02  0.00000000000E+00 0.  1.
         -4    1    1    2    0  502  0.14725534418E+02 -0.24455281201E+02  0.16654618919E+03  0.16897495458E+03  0.00000000000E+00 0. -1.
</event>
<event>
 6    1  0.1144920E-005  0.1165912E+03  0.7818608E-02  0.1139693E+00
         21   -1    0    0  503  502  0.00000000000E+00  0.00000000000E+00  0.32640157468E+03  0.32640157468E+03  0.00000000000E+00 0. -1.
         21   -1    0    0  501  503 -0.00000000000E+00 -0.00000000000E+00 -0.58092714504E+02  0.58092714504E+02  0.00000000000E+00 0.  1.
        -13    1    1    2    0    0  0.82459934448E+02 -0.66175472114E+02  0.10314666679E+03  0.14770944429E+03  0.10566000000E+00 0.  1.
         13    1    1    2    0    0 -0.88075984563E+02  0.93531487178E+02  0.15650017965E+03  0.20247922250E+03  0.10566000000E+00 0. -1.
          4    1    1    2  501    0  0.11733964359E+02 -0.15371829511E+02  0.77023211881E+01  0.20815974966E+02  0.00000000000E+00 0.  1.
         -4    1    1    2    0  502 -0.61179142444E+01 -0.11984185552E+02  0.95969255585E+00  0.13489647433E+02  0.00000000000E+00 0. -1.
</event>
<event>
 6    1  0.1144920E-005  0.5283473E+02  0.7818608E-02  0.1280659E+00
         21   -1    0    0  503  502  0.00000000000E+00  0.00000000000E+00  0.45043226935E+03  0.45043226935E+03  0.00000000000E+00 0. -1.
         21   -1    0    0  501  503 -0.00000000000E+00 -0.00000000000E+00 -0.91978323711E+02  0.91978323711E+02  0.00000000000E+00 0.  1.
        -13    1    1    2    0    0  0.18058555109E+00  0.55831090706E+02  0.16104479580E+02  0.58107733798E+02  0.10566000000E+00 0.  1.
         13    1    1    2    0    0  0.30776381423E+01 -0.48393130515E+02  0.36744255571E+02  0.60840105351E+02  0.10566000000E+00 0. -1.
          4    1    1    2  501    0 -0.20319147784E+02  0.10100511438E+01 -0.56915640249E+02  0.60442353321E+02  0.00000000000E+00 0.  1.
         -4    1    1    2    0  502  0.17060924091E+02 -0.84480113345E+01  0.36252085073E+03  0.36302040059E+03  0.00000000000E+00 0. -1.
</event>
<event>
 6    1  0.1144920E-005  0.4268356E+02  0.7818608E-02  0.1324828E+00
         21   -1    0    0  503  502  0.00000000000E+00  0.00000000000E+00  0.13437263796E+03  0.13437263796E+03  0.00000000000E+00 0. -1.
         21   -1    0    0  501  503 -0.00000000000E+00 -0.00000000000E+00 -0.22249671003E+03  0.22249671003E+03  0.00000000000E+00 0. -1.
        -13    1    1    2    0    0 -0.66783135288E+02 -0.56857403266E+01  0.47058889012E+02  0.81895451651E+02  0.10566000000E+00 0.  1.
         13    1    1    2    0    0  0.30239740438E+02  0.40832011423E+01 -0.16864552695E+03  0.17138389468E+03  0.10566000000E+00 0. -1.
          4    1    1    2  501    0  0.99191548289E+01  0.10124184432E+02 -0.30583917328E+02  0.33708526252E+02  0.00000000000E+00 0.  1.
         -4    1    1    2    0  502  0.26624240021E+02 -0.85216452475E+01  0.64046483198E+02  0.69881475403E+02  0.00000000000E+00 0. -1.
</event>
<event>
 6    1  0.1144920E-005  0.5410015E+02  0.7818608E-02  0.1275939E+00
         21   -1    0    0  503  502  0.00000000000E+00  0.00000000000E+00  0.24656479090E+03  0.24656479090E+03  0.00000000000E+00 0. -1.
         21   -1    0    0  501  503 -0.00000000000E+00 -0.00000000000E+00 -0.44948297171E+02  0.44948297171E+02  0.00000000000E+00 0. -1.
        -13    1    1    2    0    0 -0.73660426549E+02  0.12275848693E+02  0.17170574866E+02  0.76625026628E+02  0.10566000000E+00 0.  1.
         13    1    1    2    0    0  0.37819158979E+02 -0.35343022204E+02  0.59781576039E+02  0.79077594817E+02  0.10566000000E+00 0. -1.
          4    1    1    2  501    0  0.30824369757E+02  0.58568990638E+01  0.50039634591E+02  0.59062763799E+02  0.00000000000E+00 0.  1.
         -4    1    1    2    0  502  0.50168978134E+01  0.17210274448E+02  0.74624708236E+02  0.76747702829E+02  0.00000000000E+00 0. -1.
</event>
<event>
 6    1  0.1144920E-005  0.6707371E+02  0.7818608E-02  0.1234621E+00
         21   -1    0    0  503  502  0.00000000000E+00  0.00000000000E+00  0.16941866276E+03  0.16941866276E+03  0.00000000000E+00 0. -1.
         21   -1    0    0  501  503 -0.00000000000E+00 -0.00000000000E+00 -0.79409874734E+03  0.79409874734E+03  0.00000000000E+00 0.  1.
        -13    1    1    2    0    0 -0.40912596830E+02 -0.55059346810E+02  0.28404300348E+02  0.74244108809E+02  0.10566000000E+00 0.  1.
         13    1    1    2    0    0  0.33816120382E+02  0.43255498852E+02 -0.77931828197E+02  0.95330735803E+02  0.10566000000E+00 0. -1.
          4    1    1    2  501    0  0.37747532651E+00  0.19371971162E+02 -0.68417605334E+03  0.68445035445E+03  0.00000000000E+00 0.  1.
         -4    1    1    2    0  502  0.67190011212E+01 -0.75681232048E+01  0.10902349661E+03  0.10949221103E+03  0.00000000000E+00 0. -1.
</event>
<event>
 6    1  0.1144920E-005  0.1096773E+03  0.7818608E-02  0.1149466E+00
         21   -1    0    0  501  502  0.00000000000E+00  0.00000000000E+00  0.55354157237E+03  0.55354157237E+03  0.00000000000E+00 0. -1.
         21   -1    0    0  502  503 -0.00000000000E+00 -0.00000000000E+00 -0.10506917630E+03  0.10506917630E+03  0.00000000000E+00 0.  1.
        -13    1    1    2    0    0  0.95021208565E+02  0.50555809457E+01  0.11982693861E+02  0.95907169138E+02  0.10566000000E+00 0.  1.
         13    1    1    2    0    0 -0.10967714150E+03 -0.21766304490E+02  0.12091386287E+03  0.16469068212E+03  0.10566000000E+00 0. -1.
          4    1    1    2  501    0 -0.18850373874E+02  0.17232691166E+02  0.34943949711E+03  0.35037160898E+03  0.00000000000E+00 0.  1.
         -4    1    1    2    0  503  0.33506306805E+02 -0.52196762182E+00 -0.33863657767E+02  0.47641288430E+02  0.00000000000E+00 0. -1.
</event>
<event>
 6    1  0.1144920E-005  0.4018634E+02  0.7818608E-02  0.1337864E+00
         21   -1    0    0  503  502  0.00000000000E+00  0.00000000000E+00  0.77310540030E+02  0.77310540030E+02  0.00000000000E+00 0.  1.
         21   -1    0    0  501  503 -0.00000000000E+00 -0.00000000000E+00 -0.12049640032E+03  0.12049640032E+03  0.00000000000E+00 0. -1.
        -13    1    1    2    0    0  0.37948352063E+02 -0.29477497854E+02  0.27888600164E+02  0.55558847065E+02  0.10566000000E+00 0.  1.
         13    1    1    2    0    0 -0.23810117445E+02  0.40297782993E+02 -0.72771519892E+02  0.86524784185E+02  0.10566000000E+00 0. -1.
          4    1    1    2  501    0 -0.99893809767E+01 -0.24297787402E+02 -0.17747196000E+02  0.31703835269E+02  0.00000000000E+00 0.  1.
         -4    1    1    2    0  502 -0.41488536418E+01  0.13477502263E+02  0.19444255436E+02  0.24019473834E+02  0.00000000000E+00 0. -1.
</event>
<event>
 6    1  0.1144920E-005  0.9996788E+02  0.7818608E-02  0.1212927E+00
         21   -1    0    0  503  502  0.00000000000E+00  0.00000000000E+00  0.11161411143E+03  0.11161411143E+03  0.00000000000E+00 0.  1.
         21   -1    0    0  501  503 -0.00000000000E+00 -0.00000000000E+00 -0.28042565509E+03  0.28042565509E+03  0.00000000000E+00 0.  1.
        -13    1    1    2    0    0 -0.10379687431E+03 -0.24830300371E+01  0.62464221813E+02  0.12116825791E+03  0.10566000000E+00 0.  1.
         13    1    1    2    0    0  0.18241028377E+02 -0.14892541959E+02 -0.52722806772E+02  0.57742778252E+02  0.10566000000E+00 0. -1.
          4    1    1    2  501    0  0.82247395597E+02 -0.15028754744E+02 -0.12287878633E+03  0.14862601953E+03  0.00000000000E+00 0.  1.
         -4    1    1    2    0  502  0.33084503349E+01  0.32404326741E+02 -0.55674172378E+02  0.64502710836E+02  0.00000000000E+00 0. -1.
</event>
<event>
 6    1  0.1144920E-005  0.9926607E+02  0.7818608E-02  0.1165776E+00
         21   -1    0    0  503  502  0.00000000000E+00  0.00000000000E+00  0.99749553845E+02  0.99749553845E+02  0.00000000000E+00 0.  1.
         21   -1    0    0  501  503 -0.00000000000E+00 -0.00000000000E+00 -0.44424548350E+03  0.44424548350E+03  0.00000000000E+00 0. -1.
        -13    1    1    2    0    0 -0.23994211535E+01 -0.92902290081E+02  0.21605213755E+02  0.95411682459E+02  0.10566000000E+00 0.  1.
         13    1    1    2    0    0  0.68254442584E+02  0.88840982879E+02 -0.25703959869E+03  0.28039392938E+03  0.10566000000E+00 0. -1.
          4    1    1    2  501    0 -0.70818002796E+02  0.14869794522E+02 -0.12729192209E+03  0.14642244957E+03  0.00000000000E+00 0.  1.
         -4    1    1    2    0  502  0.49629813659E+01 -0.10808487320E+02  0.18230377374E+02  0.21766975935E+02  0.00000000000E+00 0. -1.
</event>
<event>
 6    1  0.1144920E-005  0.1163437E+03  0.7818608E-02  0.1149460E+00
         21   -1    0    0  503  502  0.00000000000E+00  0.00000000000E+00  0.49073539292E+03  0.49073539292E+03  0.00000000000E+00 0.  1.
         21   -1    0    0  501  503 -0.00000000000E+00 -0.00000000000E+00 -0.23417242639E+03  0.23417242639E+03  0.00000000000E+00 0. -1.
        -13    1    1    2    0    0  0.70574120991E+02 -0.59105615466E+02 -0.36110799258E+02  0.98884686986E+02  0.10566000000E+00 0.  1.
         13    1    1    2    0    0  0.12615738042E+03  0.56538419800E+02 -0.67219381771E+02  0.15372291305E+03  0.10566000000E+00 0. -1.
          4    1    1    2  501    0 -0.16736383081E+03  0.21664127166E+02  0.74004413180E+02  0.18427327380E+03  0.00000000000E+00 0.  1.
         -4    1    1    2    0  502 -0.29367670605E+02 -0.19096931499E+02  0.28588873438E+03  0.28802694546E+03  0.00000000000E+00 0. -1.
</event>
<event>
 6    1  0.1144920E-005  0.4262885E+02  0.7818608E-02  0.1325103E+00
         21   -1    0    0  501  502  0.00000000000E+00  0.00000000000E+00  0.22046222465E+03  0.22046222465E+03  0.00000000000E+00 0. -1.
         21   -1    0    0  502  503 -0.00000000000E+00 -0.00000000000E+00 -0.91225468836E+02  0.91225468836E+02  0.00000000000E+00 0. -1.
        -13    1    1    2    0    0 -0.45763416945E+02  0.93640766805E+00  0.10712306612E+03  0.11649261628E+03  0.10566000000E+00 0.  1.
         13    1    1    2    0    0  0.44859837196E+02 -0.28612489885E+02  0.58401527716E+02  0.79005247764E+02  0.10566000000E+00 0. -1.
          4    1    1    2  501    0  0.94035761694E+01 -0.87193463834E+01  0.34134623638E+02  0.36464047732E+02  0.00000000000E+00 0.  1.
         -4    1    1    2    0  503 -0.84999964201E+01  0.36395428601E+02 -0.70422461659E+02  0.79725781704E+02  0.00000000000E+00 0. -1.
</event>
<event>
 6    1  0.1144920E-005  0.1415444E+03  0.7818608E-02  0.1109764E+00
         21   -1    0    0  501  502  0.00000000000E+00  0.00000000000E+00  0.10657938617E+04  0.10657938617E+04  0.00000000000E+00 0. -1.
         21   -1    0    0  502  503 -0.00000000000E+00 -0.00000000000E+00 -0.51203934382E+02  0.51203934382E+02  0.00000000000E+00 0.  1.
        -13    1    1    2    0    0 -0.26227932709E+02 -0.13709080940E+03  0.38898538325E+03  0.41326920285E+03  0.10566000000E+00 0.  1.
         13    1    1    2    0    0  0.27902583223E+02  0.14552058992E+03  0.56232041740E+03  0.58151445316E+03  0.10566000000E+00 0. -1.
          4    1    1    2  501    0  0.90568269384E+01 -0.19066947989E+02  0.89499962700E+02  0.91955521548E+02  0.00000000000E+00 0.  1.
         -4    1    1    2    0  503 -0.10731477453E+02  0.10637167469E+02 -0.26215836001E+02  0.30258618562E+02  0.00000000000E+00 0. -1.
</event>
<event>
 6    1  0.1144920E-005  0.7410722E+02  0.7818608E-02  0.1232800E+00
         21   -1    0    0  503  502  0.00000000000E+00  0.00000000000E+00  0.23062339746E+03  0.23062339746E+03  0.00000000000E+00 0. -1.
         21   -1    0    0  501  503 -0.00000000000E+00 -0.00000000000E+00 -0.95214164687E+02  0.95214164687E+02  0.00000000000E+00 0. -1.
        -13    1    1    2    0    0  0.51540710478E+02 -0.78965322781E+01  0.14422952564E+03  0.15336546968E+03  0.10566000000E+00 0.  1.
         13    1    1    2    0    0  0.51370372583E+02 -0.20338404638E+02 -0.11561116879E+02  0.56446757835E+02  0.10566000000E+00 0. -1.
          4    1    1    2  501    0 -0.99160544598E+01 -0.11108599685E+02 -0.14659046443E+01  0.14962553239E+02  0.00000000000E+00 0.  1.
         -4    1    1    2    0  502 -0.92995028601E+02  0.39343536602E+02  0.42067286511E+01  0.10106278139E+03  0.00000000000E+00 0. -1.
</event>
<event>
 6    1  0.1144920E-005  0.5463060E+02  0.7818608E-02  0.1326663E+00
         21   -1    0    0  503  502  0.00000000000E+00  0.00000000000E+00  0.10044243556E+04  0.10044243556E+04  0.00000000000E+00 0.  1.
         21   -1    0    0  501  503 -0.00000000000E+00 -0.00000000000E+00 -0.10428200804E+02  0.10428200804E+02  0.00000000000E+00 0.  1.
        -13    1    1    2    0    0 -0.13223601256E+02 -0.65786810029E+02  0.38181810073E+03  0.38766975793E+03  0.10566000000E+00 0.  1.
         13    1    1    2    0    0 -0.87244312069E+01  0.17890885472E+02  0.21551560184E+02  0.29337354912E+02  0.10566000000E+00 0. -1.
          4    1    1    2  501    0  0.99289105651E+01  0.48074621338E+02  0.16742216695E+03  0.17447044009E+03  0.00000000000E+00 0.  1.
         -4    1    1    2    0  502  0.12019121898E+02 -0.17869678122E+00  0.42320432696E+03  0.42337500349E+03  0.00000000000E+00 0. -1.
</event>
<event>
 6    1  0.1144920E-005  0.4193662E+02  0.7818608E-02  0.1350492E+00
         21   -1    0    0  501  502  0.00000000000E+00  0.00000000000E+00  0.90650385208E+02  0.90650385208E+02  0.00000000000E+00 0. -1.
         21   -1    0    0  502  503 -0.00000000000E+00 -0.00000000000E+00 -0.11030944708E+03  0.11030944708E+03  0.00000000000E+00 0. -1.
        -13    1    1    2    0    0 -0.75441578315E+01  0.44307920936E+02 -0.37988502941E+02  0.58849330453E+02  0.10566000000E+00 0.  1.
         13    1    1    2    0    0 -0.28543217622E+02 -0.23728502112E+01  0.50298025266E+02  0.57881328596E+02  0.10566000000E+00 0. -1.
          4    1    1    2  501    0  0.25636404731E+02 -0.33533861181E+02  0.72076607693E+01  0.42821670530E+02  0.00000000000E+00 0.  1.
         -4    1    1    2    0  503  0.10450970723E+02 -0.84012095431E+01 -0.39176244972E+02  0.41407502713E+02  0.00000000000E+00 0. -1.
</event>
<event>
 6    1  0.1144920E-005  0.7487869E+02  0.7818608E-02  0.1214479E+00
         21   -1    0    0  501  502  0.00000000000E+00  0.00000000000E+00  0.24471934932E+03  0.24471934932E+03  0.00000000000E+00 0. -1.
         21   -1    0    0  502  503 -0.00000000000E+00 -0.00000000000E+00 -0.12581477078E+03  0.12581477078E+03  0.00000000000E+00 0. -1.
        -13    1    1    2    0    0  0.76354314290E+02 -0.20656136080E+01  0.90752632098E+01  0.76919566019E+02  0.10566000000E+00 0.  1.
         13    1    1    2    0    0 -0.68385179740E+02 -0.42366187598E+02 -0.60003384717E+02  0.10035857712E+03  0.10566000000E+00 0. -1.
          4    1    1    2  501    0  0.26359686290E+01 -0.16761565675E+02  0.92640842160E+02  0.94181866889E+02  0.00000000000E+00 0.  1.
         -4    1    1    2    0  503 -0.10605103179E+02  0.61193366881E+02  0.77191857881E+02  0.99074110074E+02  0.00000000000E+00 0. -1.
</event>
<event>
 6    1  0.1144920E-005  0.1735585E+03  0.7818608E-02  0.1101597E+00
         21   -1    0    0  501  502  0.00000000000E+00  0.00000000000E+00  0.12237498480E+04  0.12237498480E+04  0.00000000000E+00 0. -1.
         21   -1    0    0  502  503 -0.00000000000E+00 -0.00000000000E+00 -0.32888912376E+03  0.32888912376E+03  0.00000000000E+00 0.  1.
        -13    1    1    2    0    0 -0.50020048653E+02 -0.80965461684E+02 -0.27051560263E+03  0.28676839729E+03  0.10566000000E+00 0.  1.
         13    1    1    2    0    0 -0.62203826797E+02 -0.78318325171E+02  0.38291208036E+03  0.39575844726E+03  0.10566000000E+00 0. -1.
          4    1    1    2  501    0 -0.51488168251E+02 -0.10161448565E+02  0.49793636610E+03  0.50069442896E+03  0.00000000000E+00 0.  1.
         -4    1    1    2    0  503  0.16371204370E+03  0.16944523542E+03  0.28452788043E+03  0.36941769828E+03  0.00000000000E+00 0. -1.
</event>
<event>
 6    1  0.1144920E-005  0.9831222E+02  0.7818608E-02  0.1182529E+00
         21   -1    0    0  501  502  0.00000000000E+00  0.00000000000E+00  0.61236138433E+03  0.61236138433E+03  0.00000000000E+00 0. -1.
         21   -1    0    0  502  503 -0.00000000000E+00 -0.00000000000E+00 -0.48189165525E+02  0.48189165525E+02  0.00000000000E+00 0.  1.
        -13    1    1    2    0    0  0.11308541291E+03 -0.55862057122E+01  0.16639450758E+03  0.20126266326E+03  0.10566000000E+00 0.  1.
         13    1    1    2    0    0 -0.15425061623E+02  0.54574561347E+02  0.22352566285E+03  0.23060799723E+03  0.10566000000E+00 0. -1.
          4    1    1    2  501    0  0.13721838762E+02  0.46111365990E+01  0.55187744118E+02  0.57054697796E+02  0.00000000000E+00 0.  1.
         -4    1    1    2    0  503 -0.11138219005E+03 -0.53599492234E+02  0.11906430426E+03  0.17162519156E+03  0.00000000000E+00 0. -1.
</event>
<event>
 6    1  0.1144920E-005  0.6553673E+02  0.7818608E-02  0.1238948E+00
         21   -1    0    0  503  502  0.00000000000E+00  0.00000000000E+00  0.25696779723E+03  0.25696779723E+03  0.00000000000E+00 0.  1.
         21   -1    0    0  501  503 -0.00000000000E+00 -0.00000000000E+00 -0.17779525228E+03  0.17779525228E+03  0.00000000000E+00 0.  1.
        -13    1    1    2    0    0  0.48403905972E+02  0.22512175184E+02  0.11721116747E+03  0.12879520600E+03  0.10566000000E+00 0.  1.
         13    1    1    2    0    0 -0.56788824819E+02 -0.12340449628E+02 -0.66110080662E+02  0.88021652168E+02  0.10566000000E+00 0. -1.
          4    1    1    2  501    0 -0.64615031967E+01 -0.12743590813E+02 -0.93933690954E+02  0.95014148560E+02  0.00000000000E+00 0.  1.
         -4    1    1    2    0  502  0.14846422044E+02  0.25718652570E+01  0.12200514909E+03  0.12293204279E+03  0.00000000000E+00 0. -1.
</event>
<event>
 6    1  0.1144920E-005  0.1299438E+03  0.7818608E-02  0.1161387E+00
         21   -1    0    0  503  502  0.00000000000E+00  0.00000000000E+00  0.90025677519E+03  0.90025677519E+03  0.00000000000E+00 0.  1.
         21   -1    0    0  501  503 -0.00000000000E+00 -0.00000000000E+00 -0.24717061040E+03  0.24717061040E+03  0.00000000000E+00 0. -1.
        -13    1    1    2    0    0  0.14132649574E+03 -0.15410925336E+03  0.76963632043E+03  0.79753552727E+03  0.10566000000E+00 0.  1.
         13    1    1    2    0    0 -0.21554277926E+02 -0.17700181376E+02 -0.60758623287E+02  0.66854355022E+02  0.10566000000E+00 0. -1.
          4    1    1    2  501    0  0.23901306655E+02 -0.20564465421E+02 -0.26434916294E+02  0.41145771318E+02  0.00000000000E+00 0.  1.
         -4    1    1    2    0  502 -0.14367352447E+03  0.19237390015E+03 -0.29356616054E+02  0.24189173198E+03  0.00000000000E+00 0. -1.
</event>
<event>
 6    1  0.1144920E-005  0.1075896E+03  0.7818608E-02  0.1152574E+00
         21   -1    0    0  503  502  0.00000000000E+00  0.00000000000E+00  0.26053293119E+03  0.26053293119E+03  0.00000000000E+00 0.  1.
         21   -1    0    0  501  503 -0.00000000000E+00 -0.00000000000E+00 -0.26800078739E+03  0.26800078739E+03  0.00000000000E+00 0. -1.
        -13    1    1    2    0    0  0.59375253561E+02 -0.12441591628E+03  0.51389981993E+02  0.14712471707E+03  0.10566000000E+00 0.  1.
         13    1    1    2    0    0 -0.68378167961E+02  0.63990848097E+02 -0.15894070105E+03  0.18447915901E+03  0.10566000000E+00 0. -1.
          4    1    1    2  501    0 -0.18352771784E+02  0.98966153237E+00 -0.39061846176E+02  0.43169798340E+02  0.00000000000E+00 0.  1.
         -4    1    1    2    0  502  0.27355686184E+02  0.59435406648E+02  0.13914470903E+03  0.15376004416E+03  0.00000000000E+00 0. -1.
</event>
<event>
 6    1  0.1144920E-005  0.1849107E+03  0.7818608E-02  0.1071003E+00
         21   -1    0    0  503  502  0.00000000000E+00  0.00000000000E+00  0.99533872142E+02  0.99533872142E+02  0.00000000000E+00 0.  1.
         21   -1    0    0  501  503 -0.00000000000E+00 -0.00000000000E+00 -0.85354737070E+03  0.85354737070E+03  0.00000000000E+00 0. -1.
        -13    1    1    2    0    0 -0.94812891362E+02  0.23356258507E+03 -0.26175040401E+03  0.36339269486E+03  0.10566000000E+00 0.  1.
         13    1    1    2    0    0  0.34360434766E+02 -0.13169691304E+03 -0.11230995947E+03  0.17646034836E+03  0.10566000000E+00 0. -1.
          4    1    1    2  501    0 -0.11626120465E+02 -0.88198546329E+02 -0.19980935595E+03  0.21871883544E+03  0.00000000000E+00 0.  1.
         -4    1    1    2    0  502  0.72078577061E+02 -0.13667125701E+02 -0.18014377912E+03  0.19450936418E+03  0.00000000000E+00 0. -1.
</event>
<event>
 6    1  0.1144920E-005  0.8838443E+02  0.7818608E-02  0.1185351E+00
         21   -1    0    0  503  502  0.00000000000E+00  0.00000000000E+00  0.95674891771E+02  0.95674891771E+02  0.00000000000E+00 0. -1.
         21   -1    0    0  501  503 -0.00000000000E+00 -0.00000000000E+00 -0.59188413384E+03  0.59188413384E+03  0.00000000000E+00 0. -1.
        -13    1    1    2    0    0  0.57951320651E+02  0.40779825329E+02 -0.46590444497E+02  0.84805839430E+02  0.10566000000E+00 0.  1.
         13    1    1    2    0    0 -0.90380407664E+02 -0.15808236880E+02 -0.44697135741E+03  0.45629149011E+03  0.10566000000E+00 0. -1.
          4    1    1    2  501    0  0.11155351938E+01 -0.18771646267E+02 -0.69703384319E+02  0.72195435505E+02  0.00000000000E+00 0.  1.
         -4    1    1    2    0  502  0.31313551819E+02 -0.61999421819E+01  0.67055944157E+02  0.74266260559E+02  0.00000000000E+00 0. -1.
</event>
<event>
 6    1  0.1144920E-005  0.7080643E+02  0.7818608E-02  0.1224627E+00
         21   -1    0    0  501  502  0.00000000000E+00  0.00000000000E+00  0.10462584536E+04  0.10462584536E+04  0.00000000000E+00 0.  1.
         21   -1    0    0  502  503 -0.00000000000E+00 -0.00000000000E+00 -0.31441510558E+02  0.31441510558E+02  0.00000000000E+00 0.  1.
        -13    1    1    2    0    0 -0.30153868527E+02  0.84689826363E+02  0.10414269278E+03  0.13757664809E+03  0.10566000000E+00 0.  1.
         13    1    1    2    0    0 -0.99879696785E+01 -0.53816073939E+02  0.13289894558E+03  0.14372915589E+03  0.10566000000E+00 0. -1.
          4    1    1    2  501    0  0.27863468787E+02 -0.28613590011E+02  0.78214713813E+03  0.78316617401E+03  0.00000000000E+00 0.  1.
         -4    1    1    2    0  503  0.12278369418E+02 -0.22601624131E+01 -0.43718334669E+01  0.13227986149E+02  0.00000000000E+00 0. -1.
</event>
<event>
 6    1  0.1144920E-005  0.1787119E+03  0.7818608E-02  0.1075799E+00
         21   -1    0    0  501  502  0.00000000000E+00  0.00000000000E+00  0.18032181332E+03  0.18032181332E+03  0.00000000000E+00 0. -1.
         21   -1    0    0  502  503 -0.00000000000E+00 -0.00000000000E+00 -0.10284954347E+04  0.10284954347E+04  0.00000000000E+00 0. -1.
        -13    1    1    2    0    0  0.54108143768E+02 -0.15566666918E+03 -0.25862259614E+03  0.30666832493E+03  0.10566000000E+00 0.  1.
         13    1    1    2    0    0 -0.77932217175E+02  0.18915936455E+03  0.23910875919E+02  0.20597678710E+03  0.10566000000E+00 0. -1.
          4    1    1    2  501    0  0.12810181605E+02 -0.25543231286E+02  0.36339401865E+02  0.46228882154E+02  0.00000000000E+00 0.  1.
         -4    1    1    2    0  503  0.11013891802E+02 -0.79494640836E+01 -0.64980130301E+03  0.64994325382E+03  0.00000000000E+00 0. -1.
</event>
<event>
 6    1  0.1144920E-005  0.4849053E+02  0.7818608E-02  0.1321372E+00
         21   -1    0    0  501  502  0.00000000000E+00  0.00000000000E+00  0.40241516806E+03  0.40241516806E+03  0.00000000000E+00 0.  1.
         21   -1    0    0  502  503 -0.00000000000E+00 -0.00000000000E+00 -0.59881572712E+02  0.59881572712E+02  0.00000000000E+00 0. -1.
        -13    1    1    2    0    0  0.32206774867E+02 -0.13659329411E+02  0.12689665436E+03  0.13163064111E+03  0.10566000000E+00 0.  1.
         13    1    1    2    0    0 -0.25365098883E+02 -0.12651987623E+01  0.26230299589E+02  0.36510666247E+02  0.10566000000E+00 0. -1.
          4    1    1    2  501    0 -0.26875563752E+01  0.75371510986E+02  0.21540271037E+03  0.22822448437E+03  0.00000000000E+00 0.  1.
         -4    1    1    2    0  503 -0.41541196086E+01 -0.60446982813E+02 -0.25996068971E+02  0.65930949052E+02  0.00000000000E+00 0. -1.
</event>
<event>
 6    1  0.1144920E-005  0.2323777E+03  0.7818608E-02  0.1039953E+00
         21   -1    0    0  503  502  0.00000000000E+00  0.00000000000E+00  0.67141635853E+02  0.67141635853E+02  0.00000000000E+00 0.  1.
         21   -1    0    0  501  503 -0.00000000000E+00 -0.00000000000E+00 -0.14174786946E+04  0.14174786946E+04  0.00000000000E+00 0. -1.
        -13    1    1    2    0    0 -0.23021180539E+03 -0.56811524994E+02 -0.35536597090E+03  0.42721190193E+03  0.10566000000E+00 0.  1.
         13    1    1    2    0    0  0.23266148360E+03  0.45069048657E+02 -0.68554928647E+03  0.72535537527E+03  0.10566000000E+00 0. -1.
          4    1    1    2  501    0 -0.96707108733E+01 -0.32022667136E+02 -0.27191370141E+03  0.27396356486E+03  0.00000000000E+00 0.  1.
         -4    1    1    2    0  502  0.72210326715E+01  0.43765143473E+02 -0.37508099943E+02  0.58089488356E+02  0.00000000000E+00 0. -1.
</event>
<event>
 6    1  0.1144920E-005  0.2429721E+03  0.7818608E-02  0.1034100E+00
         21   -1    0    0  503  502  0.00000000000E+00  0.00000000000E+00  0.11436453925E+03  0.11436453925E+03  0.00000000000E+00 0.  1.
         21   -1    0    0  501  503 -0.00000000000E+00 -0.00000000000E+00 -0.12418960264E+04  0.12418960264E+04  0.00000000000E+00 0. -1.
        -13    1    1    2    0    0 -0.19476042049E+03 -0.20227090908E+02 -0.13571425442E+03  0.23824173986E+03  0.10566000000E+00 0.  1.
         13    1    1    2    0    0  0.28019068371E+03 -0.35387922897E+02 -0.47011345867E+03  0.54842118806E+03  0.10566000000E+00 0. -1.
          4    1    1    2  501    0 -0.45815663710E+01 -0.90584665772E+01 -0.43340738356E+03  0.43352624683E+03  0.00000000000E+00 0.  1.
         -4    1    1    2    0  502 -0.80848696848E+02  0.64673480383E+02 -0.88296390521E+02  0.13607139092E+03  0.00000000000E+00 0. -1.
</event>
<event>
 6    1  0.1144920E-005  0.2768420E+03  0.7818608E-02  0.1017350E+00
         21   -1    0    0  503  502  0.00000000000E+00  0.00000000000E+00  0.13808401526E+03  0.13808401526E+03  0.00000000000E+00 0.  1.
         21   -1    0    0  501  503 -0.00000000000E+00 -0.00000000000E+00 -0.12034846815E+04  0.12034846815E+04  0.00000000000E+00 0. -1.
        -13    1    1    2    0    0 -0.28272971181E+03  0.37265450529E+02 -0.59926056364E+03  0.66365505953E+03  0.10566000000E+00 0.  1.
         13    1    1    2    0    0  0.28836584842E+03 -0.33447341956E+02 -0.16332410661E+03  0.33308912048E+03  0.10566000000E+00 0. -1.
          4    1    1    2  501    0  0.19305554825E+02 -0.12990048476E+02 -0.31480985512E+03  0.31566864065E+03  0.00000000000E+00 0.  1.
         -4    1    1    2    0  502 -0.24941691433E+02  0.91719399027E+01  0.11993859153E+02  0.29155876088E+02  0.00000000000E+00 0. -1.
</event>
<event>
 6    1  0.1744821E-005  0.2920416E+03  0.7818608E-02  0.1010646E+00
         21   -1    0    0  503  502  0.00000000000E+00  0.00000000000E+00  0.43925998096E+03  0.43925998096E+03  0.00000000000E+00 0. -1.
         21   -1    0    0  501  503 -0.00000000000E+00 -0.00000000000E+00 -0.10661398095E+04  0.10661398095E+04  0.00000000000E+00 0. -1.
        -13    1    1    2    0    0  0.61481257835E+02 -0.28844323241E+03  0.22368497484E+03  0.37015459273E+03  0.10566000000E+00 0.  1.
         13    1    1    2    0    0  0.15632768080E+03  0.22933004272E+03 -0.71079141471E+03  0.76305639285E+03  0.10566000000E+00 0. -1.
          4    1    1    2  501    0 -0.56630041109E+02  0.56835640826E+02 -0.18760961088E+03  0.20404562656E+03  0.00000000000E+00 0.  1.
         -4    1    1    2    0  502 -0.16117889753E+03  0.22775488610E+01  0.47836222260E+02  0.16814317827E+03  0.00000000000E+00 0. -1.
</event>
<event>
 6    1  0.1144920E-005  0.5917224E+02  0.7818608E-02  0.1258379E+00
         21   -1    0    0  501  502  0.00000000000E+00  0.00000000000E+00  0.90689974813E+02  0.90689974813E+02  0.00000000000E+00 0. -1.
         21   -1    0    0  502  503 -0.00000000000E+00 -0.00000000000E+00 -0.21781033734E+03  0.21781033734E+03  0.00000000000E+00 0.  1.
        -13    1    1    2    0    0 -0.84433636038E+02 -0.11603594391E+02 -0.12792962865E+03  0.15371949567E+03  0.10566000000E+00 0.  1.
         13    1    1    2    0    0  0.39757588028E+02 -0.48180359403E+02  0.24280346648E+02  0.67019096050E+02  0.10566000000E+00 0. -1.
          4    1    1    2  501    0  0.14535035638E+02  0.32594968592E+02  0.77875489298E+01  0.36528689504E+02  0.00000000000E+00 0.  1.
         -4    1    1    2    0  503  0.30141012371E+02  0.27188985201E+02 -0.31258629449E+02  0.51233030928E+02  0.00000000000E+00 0. -1.
</event>
<event>
 6    1  0.1144920E-005  0.6118164E+02  0.7818608E-02  0.1251961E+00
         21   -1    0    0  501  502  0.00000000000E+00  0.00000000000E+00  0.13682796332E+03  0.13682796332E+03  0.00000000000E+00 0. -1.
         21   -1    0    0  502  503 -0.00000000000E+00 -0.00000000000E+00 -0.10206389613E+03  0.10206389613E+03  0.00000000000E+00 0.  1.
        -13    1    1    2    0    0 -0.86242116698E+02 -0.75108503513E+01 -0.27392992063E+02  0.90799244181E+02  0.10566000000E+00 0.  1.
         13    1    1    2    0    0  0.39179586500E+02  0.22782512162E+02 -0.10337373244E+02  0.46486076500E+02  0.10566000000E+00 0. -1.
          4    1    1    2  501    0  0.30841132483E+02 -0.13553663637E+02  0.77531778453E+02  0.84534335752E+02  0.00000000000E+00 0.  1.
         -4    1    1    2    0  503  0.16221397715E+02 -0.17179981737E+01 -0.50373459544E+01  0.17072203016E+02  0.00000000000E+00 0. -1.
</event>
<event>
 6    1  0.1144920E-005  0.5173845E+02  0.7818608E-02  0.1322248E+00
         21   -1    0    0  503  502  0.00000000000E+00  0.00000000000E+00  0.27531851598E+03  0.27531851598E+03  0.00000000000E+00 0.  1.
         21   -1    0    0  501  503 -0.00000000000E+00 -0.00000000000E+00 -0.19935001848E+03  0.19935001848E+03  0.00000000000E+00 0. -1.
        -13    1    1    2    0    0  0.52702087187E+02  0.51803271323E+02  0.17183087873E+03  0.18704799107E+03  0.10566000000E+00 0.  1.
         13    1    1    2    0    0 -0.50328433490E+02  0.17817233015E+02 -0.15987079266E+03  0.16854995259E+03  0.10566000000E+00 0. -1.
          4    1    1    2  501    0  0.21558091427E+02  0.14011653889E+01  0.18135024213E+01  0.21679560914E+02  0.00000000000E+00 0.  1.
         -4    1    1    2    0  502 -0.23931745124E+02 -0.71021669728E+02  0.62194909004E+02  0.97391029883E+02  0.00000000000E+00 0. -1.
</event>
<event>
 6    1  0.1144920E-005  0.3020462E+02  0.7818608E-02  0.1403273E+00
         21   -1    0    0  503  502  0.00000000000E+00  0.00000000000E+00  0.91271780957E+02  0.91271780957E+02  0.00000000000E+00 0. -1.
         21   -1    0    0  501  503 -0.00000000000E+00 -0.00000000000E+00 -0.18629623505E+03  0.18629623505E+03  0.00000000000E+00 0. -1.
        -13    1    1    2    0    0 -0.31188990960E+01 -0.32006846072E+02  0.24221085991E+02  0.40259631116E+02  0.10566000000E+00 0.  1.
         13    1    1    2    0    0  0.11918143772E+02  0.33391362570E+02 -0.96638555408E+02  0.10293710119E+03  0.10566000000E+00 0. -1.
          4    1    1    2  501    0  0.82565335049E+01 -0.10890425809E+02 -0.76156452588E+02  0.77372973257E+02  0.00000000000E+00 0.  1.
         -4    1    1    2    0  502 -0.17055778181E+02  0.95059093114E+01  0.53549467908E+02  0.56998310452E+02  0.00000000000E+00 0. -1.
</event>
<event>
 6    1  0.1144920E-005  0.7983045E+02  0.7818608E-02  0.1203065E+00
         21   -1    0    0  503  502  0.00000000000E+00  0.00000000000E+00  0.40607792952E+03  0.40607792952E+03  0.00000000000E+00 0. -1.
         21   -1    0    0  501  503 -0.00000000000E+00 -0.00000000000E+00 -0.11483549249E+03  0.11483549249E+03  0.00000000000E+00 0. -1.
        -13    1    1    2    0    0 -0.83516573749E+02  0.64088818520E+02  0.11273292319E+03  0.15424369642E+03  0.10566000000E+00 0.  1.
         13    1    1    2    0    0  0.70039297098E+02 -0.47334186563E+02  0.14027964726E+02  0.85690275493E+02  0.10566000000E+00 0. -1.
          4    1    1    2  501    0 -0.20132457316E+02  0.83260612597E+01 -0.54146827412E+02  0.58365384026E+02  0.00000000000E+00 0.  1.
         -4    1    1    2    0  502  0.33609733967E+02 -0.25080693216E+02  0.21862837652E+03  0.22261406607E+03  0.00000000000E+00 0. -1.
</event>
<event>
 6    1  0.1144920E-005  0.1929198E+03  0.7818608E-02  0.1065101E+00
         21   -1    0    0  503  502  0.00000000000E+00  0.00000000000E+00  0.15769993722E+03  0.15769993722E+03  0.00000000000E+00 0.  1.
         21   -1    0    0  501  503 -0.00000000000E+00 -0.00000000000E+00 -0.61335870497E+03  0.61335870497E+03  0.00000000000E+00 0.  1.
        -13    1    1    2    0    0 -0.15622472053E+02  0.19681076293E+03 -0.50559108325E+02  0.20380081608E+03  0.10566000000E+00 0.  1.
         13    1    1    2    0    0  0.81373865491E+01 -0.19549831568E+03 -0.20718731410E+03  0.28497789876E+03  0.10566000000E+00 0. -1.
          4    1    1    2  501    0  0.59738874307E+01  0.99281222844E+01 -0.23919101050E+03  0.23947148984E+03  0.00000000000E+00 0.  1.
         -4    1    1    2    0  502  0.15111980734E+01 -0.11240569528E+02  0.41278665179E+02  0.42808437508E+02  0.00000000000E+00 0. -1.
</event>
<event>
 6    1  0.1144920E-005  0.7831569E+02  0.7818608E-02  0.1206458E+00
         21   -1    0    0  503  502  0.00000000000E+00  0.00000000000E+00  0.28375677454E+03  0.28375677454E+03  0.00000000000E+00 0.  1.
         21   -1    0    0  501  503 -0.00000000000E+00 -0.00000000000E+00 -0.18521109183E+03  0.18521109183E+03  0.00000000000E+00 0.  1.
        -13    1    1    2    0    0  0.78664358069E+02 -0.93130624530E+02  0.10007922904E+03  0.15772526020E+03  0.10566000000E+00 0.  1.
         13    1    1    2    0    0 -0.14919151319E+02  0.57708024607E+02 -0.29717528443E+02  0.66602851597E+02  0.10566000000E+00 0. -1.
          4    1    1    2  501    0 -0.20840009094E+02  0.11982093533E+02 -0.10241026328E+03  0.10519381431E+03  0.00000000000E+00 0.  1.
         -4    1    1    2    0  502 -0.42905197657E+02  0.23440506390E+02  0.13059424539E+03  0.13944594026E+03  0.00000000000E+00 0. -1.
</event>
<event>
 6    1  0.1144920E-005  0.1282337E+03  0.7818608E-02  0.1124808E+00
         21   -1    0    0  501  502  0.00000000000E+00  0.00000000000E+00  0.10283704379E+04  0.10283704379E+04  0.00000000000E+00 0.  1.
         21   -1    0    0  502  503 -0.00000000000E+00 -0.00000000000E+00 -0.72894074461E+02  0.72894074461E+02  0.00000000000E+00 0. -1.
        -13    1    1    2    0    0 -0.12559169688E+03  0.64421374935E+02  0.43553717418E+03  0.45783843125E+03  0.10566000000E+00 0.  1.
         13    1    1    2    0    0  0.11547989671E+03 -0.57173518564E+02  0.38513036922E+03  0.40611553803E+03  0.10566000000E+00 0. -1.
          4    1    1    2  501    0  0.49239834940E+02 -0.82539543183E+02  0.11555672974E+03  0.15030201370E+03  0.00000000000E+00 0.  1.
         -4    1    1    2    0  503 -0.39128034770E+02  0.75291686812E+02  0.19252090328E+02  0.87008529410E+02  0.00000000000E+00 0. -1.
</event>
<event>
 6    1  0.1144920E-005  0.3432426E+02  0.7818608E-02  0.1387482E+00
         21   -1    0    0  501  502  0.00000000000E+00  0.00000000000E+00  0.16240681261E+03  0.16240681261E+03  0.00000000000E+00 0.  1.
         21   -1    0    0  502  503 -0.00000000000E+00 -0.00000000000E+00 -0.22419387954E+03  0.22419387954E+03  0.00000000000E+00 0. -1.
        -13    1    1    2    0    0  0.44575260329E+02 -0.64303405647E+01  0.35294111986E+00  0.45038193177E+02  0.10566000000E+00 0.  1.
         13    1    1    2    0    0  0.65174202112E+01  0.33529132248E+02  0.83534829048E+02  0.90248314686E+02  0.10566000000E+00 0. -1.
          4    1    1    2  501    0 -0.17780157732E+02 -0.20119837776E+02  0.47823372388E+02  0.54845390214E+02  0.00000000000E+00 0.  1.
         -4    1    1    2    0  503 -0.33312522808E+02 -0.69789539079E+01 -0.19349820948E+03  0.19646879407E+03  0.00000000000E+00 0. -1.
</event>
<event>
 6    1  0.1144920E-005  0.1648162E+03  0.7818608E-02  0.1087353E+00
         21   -1    0    0  501  502  0.00000000000E+00  0.00000000000E+00  0.12961000558E+03  0.12961000558E+03  0.00000000000E+00 0. -1.
         21   -1    0    0  502  503 -0.00000000000E+00 -0.00000000000E+00 -0.41035720056E+03  0.41035720056E+03  0.00000000000E+00 0. -1.
        -13    1    1    2    0    0 -0.16952859571E+03  0.26980781647E+01 -0.20329746933E+03  0.26472078987E+03  0.10566000000E+00 0.  1.
         13    1    1    2    0    0  0.16992958185E+03 -0.28315456466E+01  0.18818135774E+02  0.17099185313E+03  0.10566000000E+00 0. -1.
          4    1    1    2  501    0 -0.99391446059E+01 -0.54073308434E+01 -0.50816536200E+01  0.12403589233E+02  0.00000000000E+00 0.  1.
         -4    1    1    2    0  503  0.95381584725E+01  0.55407983253E+01 -0.91186207813E+02  0.91850973912E+02  0.00000000000E+00 0. -1.
</event>
<event>
 6    1  0.1144920E-005  0.1580977E+03  0.7818608E-02  0.1093389E+00
         21   -1    0    0  501  502  0.00000000000E+00  0.00000000000E+00  0.22846140332E+03  0.22846140332E+03  0.00000000000E+00 0. -1.
         21   -1    0    0  502  503 -0.00000000000E+00 -0.00000000000E+00 -0.49900179627E+03  0.49900179627E+03  0.00000000000E+00 0. -1.
        -13    1    1    2    0    0  0.15258506687E+03 -0.77364940974E+02  0.65459295876E+02  0.18317332585E+03  0.10566000000E+00 0.  1.
         13    1    1    2    0    0 -0.90484552457E+02  0.12271176605E+03  0.13724353384E+02  0.15308168016E+03  0.10566000000E+00 0. -1.
          4    1    1    2  501    0  0.49695275530E+01  0.89005384712E+01  0.14043138732E+02  0.17352969043E+02  0.00000000000E+00 0.  1.
         -4    1    1    2    0  503 -0.67070041962E+02 -0.54247363547E+02 -0.36376718095E+03  0.37385522454E+03  0.00000000000E+00 0. -1.
</event>
<event>
 6    1  0.1144920E-005  0.2158869E+03  0.7818608E-02  0.1068100E+00
         21   -1    0    0  503  502  0.00000000000E+00  0.00000000000E+00  0.52246968598E+03  0.52246968598E+03  0.00000000000E+00 0.  1.
         21   -1    0    0  501  503 -0.00000000000E+00 -0.00000000000E+00 -0.44754174658E+03  0.44754174658E+03  0.00000000000E+00 0.  1.
        -13    1    1    2    0    0  0.11049784219E+01 -0.24152425343E+03 -0.15536219581E+03  0.28718044680E+03  0.10566000000E+00 0.  1.
         13    1    1    2    0    0 -0.82996429191E+02  0.93263569495E+02 -0.17502731193E+03  0.21499086432E+03  0.10566000000E+00 0. -1.
          4    1    1    2  501    0  0.93241420414E+02  0.13027256455E+03  0.17778833061E+03  0.23931902151E+03  0.00000000000E+00 0.  1.
         -4    1    1    2    0  502 -0.11349969644E+02  0.17988119386E+02  0.22752911652E+03  0.22852109994E+03  0.00000000000E+00 0. -1.
</event>
<event>
 6    1  0.1144920E-005  0.2101741E+03  0.7818608E-02  0.1053376E+00
         21   -1    0    0  501  502  0.00000000000E+00  0.00000000000E+00  0.33787162155E+03  0.33787162155E+03  0.00000000000E+00 0. -1.
         21   -1    0    0  502  503 -0.00000000000E+00 -0.00000000000E+00 -0.36423053918E+03  0.36423053918E+03  0.00000000000E+00 0.  1.
        -13    1    1    2    0    0  0.20510880175E+03 -0.44593985598E+02  0.82006315164E+01  0.21006071891E+03  0.10566000000E+00 0.  1.
         13    1    1    2    0    0 -0.18279083921E+03  0.11446635836E+03  0.75971409500E+02  0.22866286170E+03  0.10566000000E+00 0. -1.
          4    1    1    2  501    0 -0.22402504473E+02 -0.51130415884E+02  0.65666299458E+02  0.86187322267E+02  0.00000000000E+00 0.  1.
         -4    1    1    2    0  503  0.84541935387E-01 -0.18741956881E+02 -0.17619725811E+03  0.17719125786E+03  0.00000000000E+00 0. -1.
</event>
<event>
 6    1  0.1144920E-005  0.6519764E+02  0.7818608E-02  0.1239921E+00
         21   -1    0    0  503  502  0.00000000000E+00  0.00000000000E+00  0.43302048861E+02  0.43302048861E+02  0.00000000000E+00 0.  1.
         21   -1    0    0  501  503 -0.00000000000E+00 -0.00000000000E+00 -0.18956392212E+03  0.18956392212E+03  0.00000000000E+00 0. -1.
        -13    1    1    2    0    0  0.68611365884E+02 -0.17296329166E+02 -0.86592990445E+02  0.11182593478E+03  0.10566000000E+00 0.  1.
         13    1    1    2    0    0 -0.53226071109E+02  0.17207989884E+02 -0.19241382516E+02  0.59155486023E+02  0.10566000000E+00 0. -1.
          4    1    1    2  501    0  0.43836705093E+01  0.10914924994E+02 -0.37322663145E+02  0.39132254458E+02  0.00000000000E+00 0.  1.
         -4    1    1    2    0  502 -0.19768965285E+02 -0.10826585712E+02 -0.31048371484E+01  0.22752295715E+02  0.00000000000E+00 0. -1.
</event>
<event>
 6    1  0.1144920E-005  0.1157212E+03  0.7818608E-02  0.1167060E+00
         21   -1    0    0  503  502  0.00000000000E+00  0.00000000000E+00  0.10313639189E+04  0.10313639189E+04  0.00000000000E+00 0. -1.
         21   -1    0    0  501  503 -0.00000000000E+00 -0.00000000000E+00 -0.78462856721E+02  0.78462856721E+02  0.00000000000E+00 0. -1.
        -13    1    1    2    0    0 -0.84505875921E+02 -0.96031210230E+02  0.31994518147E+03  0.34456953829E+03  0.10566000000E+00 0.  1.
         13    1    1    2    0    0 -0.51804784450E+02 -0.94968180687E+00 -0.31573633110E+02  0.60675720509E+02  0.10566000000E+00 0. -1.
          4    1    1    2  501    0  0.79332756327E+02  0.75918194634E+02  0.14691985267E+03  0.18341946901E+03  0.00000000000E+00 0.  1.
         -4    1    1    2    0  502  0.56977904044E+02  0.21062697403E+02  0.51760966111E+03  0.52116204778E+03  0.00000000000E+00 0. -1.
</event>
<event>
 6    1  0.2394222E-005  0.1193772E+03  0.7818608E-02  0.1135963E+00
         21   -1    0    0  501  502  0.00000000000E+00  0.00000000000E+00  0.43529105781E+03  0.43529105781E+03  0.00000000000E+00 0. -1.
         21   -1    0    0  502  503 -0.00000000000E+00 -0.00000000000E+00 -0.41304002387E+03  0.41304002387E+03  0.00000000000E+00 0.  1.
        -13    1    1    2    0    0  0.23636497604E+02 -0.11640600846E+03 -0.29725063904E+03  0.32010466476E+03  0.10566000000E+00 0.  1.
         13    1    1    2    0    0 -0.67703872289E+02  0.11368029781E+03  0.39177432537E+03  0.41351439832E+03  0.10566000000E+00 0. -1.
          4    1    1    2  501    0  0.54013124278E+02  0.49797201836E+01 -0.14638714753E+02  0.56182801434E+02  0.00000000000E+00 0.  1.
         -4    1    1    2    0  503 -0.99457495932E+01 -0.22540095313E+01 -0.57633937639E+02  0.58529217163E+02  0.00000000000E+00 0. -1.
</event>
<event>
 6    1  0.1144920E-005  0.5173858E+03  0.7818608E-02  0.9440659E-01
         21   -1    0    0  501  502  0.00000000000E+00  0.00000000000E+00  0.12119110792E+04  0.12119110792E+04  0.00000000000E+00 0. -1.
         21   -1    0    0  502  503 -0.00000000000E+00 -0.00000000000E+00 -0.35115860047E+03  0.35115860047E+03  0.00000000000E+00 0.  1.
        -13    1    1    2    0    0  0.34697693168E+03  0.39474990261E+03  0.35856266062E+03  0.63622925859E+03  0.10566000000E+00 0.  1.
         13    1    1    2    0    0 -0.31625805116E+03 -0.38024071772E+03  0.95004720259E+02  0.50361499816E+03  0.10566000000E+00 0. -1.
          4    1    1    2  501    0  0.17504005356E+02  0.26546888312E+02  0.27299510285E+03  0.27484077875E+03  0.00000000000E+00 0.  1.
         -4    1    1    2    0  503 -0.48222885883E+02 -0.41056073199E+02  0.13418999505E+03  0.14838464422E+03  0.00000000000E+00 0. -1.
</event>
<event>
 6    1  0.1144920E-005  0.4879246E+03  0.7818608E-02  0.9504839E-01
         21   -1    0    0  501  502  0.00000000000E+00  0.00000000000E+00  0.32882365823E+03  0.32882365823E+03  0.00000000000E+00 0.  1.
         21   -1    0    0  502  503 -0.00000000000E+00 -0.00000000000E+00 -0.13787846222E+04  0.13787846222E+04  0.00000000000E+00 0. -1.
        -13    1    1    2    0    0  0.47298342970E+03  0.21782013525E+03 -0.26531289392E+03  0.58442268858E+03  0.10566000000E+00 0.  1.
         13    1    1    2    0    0 -0.28176713973E+03 -0.38744520014E+03 -0.40787065472E+03  0.62917802432E+03  0.10566000000E+00 0. -1.
          4    1    1    2  501    0 -0.85669125726E+02  0.18121873962E+03 -0.17541410137E+03  0.26636354415E+03  0.00000000000E+00 0.  1.
         -4    1    1    2    0  503 -0.10554716424E+03 -0.11593674736E+02 -0.20136331401E+03  0.22764402343E+03  0.00000000000E+00 0. -1.
</event>
<event>
 6    1  0.1144920E-005  0.3090685E+02  0.7818608E-02  0.1455559E+00
         21   -1    0    0  503  502  0.00000000000E+00  0.00000000000E+00  0.29058879396E+03  0.29058879396E+03  0.00000000000E+00 0.  1.
         21   -1    0    0  501  503 -0.00000000000E+00 -0.00000000000E+00 -0.24377045665E+02  0.24377045665E+02  0.00000000000E+00 0. -1.
        -13    1    1    2    0    0  0.10324476055E+02  0.10342732631E+02  0.48858714923E+02  0.50997569668E+02  0.10566000000E+00 0.  1.
         13    1    1    2    0    0  0.38783319101E+02 -0.30316971301E+02  0.19848574467E+02  0.53077694579E+02  0.10566000000E+00 0. -1.
          4    1    1    2  501    0 -0.38028086592E+02  0.33254231694E+02  0.10190425619E+03  0.11373854547E+03  0.00000000000E+00 0.  1.
         -4    1    1    2    0  502 -0.11079708564E+02 -0.13279993024E+02  0.95600202716E+02  0.97152029911E+02  0.00000000000E+00 0. -1.
</event>
<event>
 6    1  0.1144920E-005  0.2558394E+03  0.7818608E-02  0.1027410E+00
         21   -1    0    0  501  502  0.00000000000E+00  0.00000000000E+00  0.52519993992E+03  0.52519993992E+03  0.00000000000E+00 0. -1.
         21   -1    0    0  502  503 -0.00000000000E+00 -0.00000000000E+00 -0.42562831097E+03  0.42562831097E+03  0.00000000000E+00 0.  1.
        -13    1    1    2    0    0  0.14253423523E+03 -0.22547899417E+03  0.18234820701E+03  0.32312174918E+03  0.10566000000E+00 0.  1.
         13    1    1    2    0    0 -0.14325544111E+03  0.20006243162E+03  0.22359419088E+01  0.24607338043E+03  0.10566000000E+00 0. -1.
          4    1    1    2  501    0  0.11731488194E+02  0.21510139952E+02  0.14715049559E+03  0.14917634628E+03  0.00000000000E+00 0.  1.
         -4    1    1    2    0  503 -0.11010282315E+02  0.39064225981E+01 -0.23216301556E+03  0.23245677501E+03  0.00000000000E+00 0. -1.
</event>
<event>
 6    1  0.1144920E-005  0.3410676E+03  0.7818608E-02  0.1003223E+00
         21   -1    0    0  501  502  0.00000000000E+00  0.00000000000E+00  0.68378479507E+03  0.68378479507E+03  0.00000000000E+00 0. -1.
         21   -1    0    0  502  503 -0.00000000000E+00 -0.00000000000E+00 -0.64796961107E+03  0.64796961107E+03  0.00000000000E+00 0.  1.
        -13    1    1    2    0    0 -0.49199624206E+03  0.11256325339E+03 -0.21928278630E+03  0.55028696127E+03  0.10566000000E+00 0.  1.
         13    1    1    2    0    0  0.23248392678E+03  0.12925219943E+02  0.37599697033E+03  0.44225509651E+03  0.10566000000E+00 0. -1.
          4    1    1    2  501    0  0.25332203848E+03 -0.78565441080E+02 -0.81027049010E+02  0.27732646174E+03  0.00000000000E+00 0.  1.
         -4    1    1    2    0  503  0.61902767963E+01 -0.46923032258E+02 -0.39871951026E+02  0.61885886612E+02  0.00000000000E+00 0. -1.
</event>
<event>
 6    1  0.1144920E-005  0.2236124E+03  0.7818608E-02  0.1045052E+00
         21   -1    0    0  501  502  0.00000000000E+00  0.00000000000E+00  0.90558025635E+03  0.90558025635E+03  0.00000000000E+00 0. -1.
         21   -1    0    0  502  503 -0.00000000000E+00 -0.00000000000E+00 -0.88674351368E+02  0.88674351368E+02  0.00000000000E+00 0.  1.
        -13    1    1    2    0    0  0.22871488256E+03 -0.50363143087E+02  0.21245143129E+03  0.31620019846E+03  0.10566000000E+00 0.  1.
         13    1    1    2    0    0 -0.22599265249E+03 -0.13101458337E+02  0.47107151620E+03  0.52264013597E+03  0.10566000000E+00 0. -1.
          4    1    1    2  501    0  0.11659427706E+02  0.17833195782E+02  0.83982873176E+02  0.86643453954E+02  0.00000000000E+00 0.  1.
         -4    1    1    2    0  503 -0.14381657775E+02  0.45631405642E+02  0.49400084320E+02  0.68770819335E+02  0.00000000000E+00 0. -1.
</event>
<event>
 6    1  0.1144920E-005  0.4257428E+03  0.7818608E-02  0.9657514E-01
         21   -1    0    0  503  502  0.00000000000E+00  0.00000000000E+00  0.52230193134E+03  0.52230193134E+03  0.00000000000E+00 0.  1.
         21   -1    0    0  501  503 -0.00000000000E+00 -0.00000000000E+00 -0.61006195168E+03  0.61006195168E+03  0.00000000000E+00 0.  1.
        -13    1    1    2    0    0  0.43253419893E+03 -0.18581507740E+03 -0.14148053144E+03  0.49155857044E+03  0.10566000000E+00 0.  1.
         13    1    1    2    0    0 -0.35683610658E+03  0.10839819841E+03  0.21963916309E+03  0.43280890646E+03  0.10566000000E+00 0. -1.
          4    1    1    2  501    0 -0.18927783287E+02  0.49379536503E+02 -0.11559504407E+03  0.12711732305E+03  0.00000000000E+00 0.  1.
         -4    1    1    2    0  502 -0.56770309062E+02  0.28037342479E+02 -0.50323607921E+02  0.80879083072E+02  0.00000000000E+00 0. -1.
</event>
<event>
 6    1  0.1144920E-005  0.1021188E+03  0.7818608E-02  0.1161097E+00
         21   -1    0    0  503  502  0.00000000000E+00  0.00000000000E+00  0.47424387279E+03  0.47424387279E+03  0.00000000000E+00 0.  1.
         21   -1    0    0  501  503 -0.00000000000E+00 -0.00000000000E+00 -0.11792519447E+03  0.11792519447E+03  0.00000000000E+00 0. -1.
        -13    1    1    2    0    0  0.62974743858E+02  0.11128837718E+03  0.24861940305E+03  0.27957564271E+03  0.10566000000E+00 0.  1.
         13    1    1    2    0    0 -0.36024662289E+02 -0.12526424753E+03 -0.25918853763E+02  0.13289358957E+03  0.10566000000E+00 0. -1.
          4    1    1    2  501    0  0.60732793442E+01  0.41879413542E+02  0.33558028186E+01  0.42450340554E+02  0.00000000000E+00 0.  1.
         -4    1    1    2    0  502 -0.33023360913E+02 -0.27903543190E+02  0.13026232622E+03  0.13724949443E+03  0.00000000000E+00 0. -1.
</event>
<event>
 6    1  0.1144920E-005  0.1159102E+03  0.7818608E-02  0.1140622E+00
         21   -1    0    0  501  502  0.00000000000E+00  0.00000000000E+00  0.13104421487E+03  0.13104421487E+03  0.00000000000E+00 0.  1.
         21   -1    0    0  502  503 -0.00000000000E+00 -0.00000000000E+00 -0.42364294716E+03  0.42364294716E+03  0.00000000000E+00 0.  1.
        -13    1    1    2    0    0 -0.11914505307E+02 -0.12921385106E+03 -0.29778999947E+03  0.32483391093E+03  0.10566000000E+00 0.  1.
         13    1    1    2    0    0 -0.74066290254E+01  0.10203847338E+03 -0.50044861447E+02  0.11389120916E+03  0.10566000000E+00 0. -1.
          4    1    1    2  501    0 -0.31306119039E+01  0.17004678868E+02  0.79509847260E+02  0.81368148840E+02  0.00000000000E+00 0.  1.
         -4    1    1    2    0  503  0.22451746236E+02  0.10170698818E+02 -0.24273718642E+02  0.34593893106E+02  0.00000000000E+00 0. -1.
</event>
<event>
 6    1  0.1144920E-005  0.7510943E+02  0.7818608E-02  0.1225750E+00
         21   -1    0    0  503  502  0.00000000000E+00  0.00000000000E+00  0.10919362932E+03  0.10919362932E+03  0.00000000000E+00 0.  1.
         21   -1    0    0  501  503 -0.00000000000E+00 -0.00000000000E+00 -0.26059329489E+03  0.26059329489E+03  0.00000000000E+00 0.  1.
        -13    1    1    2    0    0 -0.82790340300E+02  0.31846809755E+02 -0.58461313104E+02  0.10623650988E+03  0.10566000000E+00 0.  1.
         13    1    1    2    0    0  0.67603926244E+01  0.32274546494E+02 -0.36207269595E+02  0.48972714805E+02  0.10566000000E+00 0. -1.
          4    1    1    2  501    0  0.96451319951E+01  0.75842331803E+01 -0.10491265421E+03  0.10562771500E+03  0.00000000000E+00 0.  1.
         -4    1    1    2    0  502  0.66384815680E+02 -0.71705589430E+02  0.48181571340E+02  0.10894998451E+03  0.00000000000E+00 0. -1.
</event>
<event>
 6    1  0.1144920E-005  0.7200125E+02  0.7818608E-02  0.1244415E+00
         21   -1    0    0  501  502  0.00000000000E+00  0.00000000000E+00  0.47104660830E+02  0.47104660830E+02  0.00000000000E+00 0. -1.
         21   -1    0    0  502  503 -0.00000000000E+00 -0.00000000000E+00 -0.38592100943E+03  0.38592100943E+03  0.00000000000E+00 0.  1.
        -13    1    1    2    0    0 -0.42973059012E+02 -0.72572667252E+01 -0.14844350919E+03  0.15470888244E+03  0.10566000000E+00 0.  1.
         13    1    1    2    0    0  0.92927597985E+02  0.32387528779E+02 -0.16358101014E+03  0.19090114858E+03  0.10566000000E+00 0. -1.
          4    1    1    2  501    0 -0.14851937859E+01 -0.12573982139E+02  0.16794580149E+02  0.21032564032E+02  0.00000000000E+00 0.  1.
         -4    1    1    2    0  503 -0.48469345187E+02 -0.12556279915E+02 -0.43586409430E+02  0.66383075216E+02  0.00000000000E+00 0. -1.
</event>
<event>
 6    1  0.1234981E-005  0.5299400E+02  0.7818608E-02  0.1280057E+00
         21   -1    0    0  503  502  0.00000000000E+00  0.00000000000E+00  0.43246511899E+03  0.43246511899E+03  0.00000000000E+00 0.  1.
         21   -1    0    0  501  503 -0.00000000000E+00 -0.00000000000E+00 -0.35393170586E+03  0.35393170586E+03  0.00000000000E+00 0. -1.
        -13    1    1    2    0    0  0.50665611640E+02 -0.62044665929E+02  0.36884148883E+03  0.37743953134E+03  0.10566000000E+00 0.  1.
         13    1    1    2    0    0 -0.24936911034E+02  0.41274459397E+02 -0.87094392906E+02  0.99553377493E+02  0.10566000000E+00 0. -1.
          4    1    1    2  501    0  0.20497621337E+02  0.12561670840E+02 -0.24522603113E+03  0.24640161200E+03  0.00000000000E+00 0.  1.
         -4    1    1    2    0  502 -0.46226321943E+02  0.82085356916E+01  0.42012348337E+02  0.63002304016E+02  0.00000000000E+00 0. -1.
</event>
<event>
 6    1  0.1144920E-005  0.2230113E+02  0.7818608E-02  0.1503344E+00
         21   -1    0    0  503  502  0.00000000000E+00  0.00000000000E+00  0.55305758943E+02  0.55305758943E+02  0.00000000000E+00 0. -1.
         21   -1    0    0  501  503 -0.00000000000E+00 -0.00000000000E+00 -0.30779361031E+02  0.30779361031E+02  0.00000000000E+00 0. -1.
        -13    1    1    2    0    0  0.72992900659E+01  0.75153851633E+01  0.11509083179E+02  0.15563765909E+02  0.10566000000E+00 0.  1.
         13    1    1    2    0    0 -0.13509361748E+01  0.14916730504E+02 -0.67394799372E+01  0.16424543566E+02  0.10566000000E+00 0. -1.
          4    1    1    2  501    0  0.15701485042E+02 -0.21508986710E+01 -0.37043263814E+01  0.16275288985E+02  0.00000000000E+00 0.  1.
         -4    1    1    2    0  502 -0.21649838933E+02 -0.20281216996E+02  0.23461121052E+02  0.37821521515E+02  0.00000000000E+00 0. -1.
</event>
<event>
 6    1  0.1144920E-005  0.7557008E+02  0.7818608E-02  0.1251409E+00
         21   -1    0    0  501  502  0.00000000000E+00  0.00000000000E+00  0.13913782870E+03  0.13913782870E+03  0.00000000000E+00 0. -1.
         21   -1    0    0  502  503 -0.00000000000E+00 -0.00000000000E+00 -0.11723332561E+03  0.11723332561E+03  0.00000000000E+00 0.  1.
        -13    1    1    2    0    0  0.30530062561E+02  0.10275320013E+02 -0.32868853369E+02  0.46022164303E+02  0.10566000000E+00 0.  1.
         13    1    1    2    0    0 -0.70932509820E+01 -0.94199212793E+02  0.31963768325E+02  0.99727125447E+02  0.10566000000E+00 0. -1.
          4    1    1    2  501    0  0.74081592324E+01  0.72642645588E+02  0.26260106371E+02  0.77597860588E+02  0.00000000000E+00 0.  1.
         -4    1    1    2    0  503 -0.30844970811E+02  0.11281247192E+02 -0.34505182374E+01  0.33024003977E+02  0.00000000000E+00 0. -1.
</event>
<event>
 6    1  0.1144920E-005  0.1813652E+03  0.7818608E-02  0.1083222E+00
         21   -1    0    0  501  502  0.00000000000E+00  0.00000000000E+00  0.92157715108E+03  0.92157715108E+03  0.00000000000E+00 0.  1.
         21   -1    0    0  502  503 -0.00000000000E+00 -0.00000000000E+00 -0.70354630558E+03  0.70354630558E+03  0.00000000000E+00 0. -1.
        -13    1    1    2    0    0 -0.24226133044E+03 -0.40479130415E+02  0.12153319644E+03  0.27404277262E+03  0.10566000000E+00 0.  1.
         13    1    1    2    0    0  0.11814706373E+03 -0.11420880132E+02  0.96390732646E+02  0.15290634283E+03  0.10566000000E+00 0. -1.
          4    1    1    2  501    0  0.65140624504E+02  0.17750711333E+03  0.57577038724E+03  0.60602278428E+03  0.00000000000E+00 0.  1.
         -4    1    1    2    0  503  0.58973642203E+02 -0.12560710278E+03 -0.57566347082E+03  0.59215155693E+03  0.00000000000E+00 0. -1.
</event>
<event>
 6    1  0.1144920E-005  0.1718203E+03  0.7818608E-02  0.1081382E+00
         21   -1    0    0  501  502  0.00000000000E+00  0.00000000000E+00  0.38752190325E+03  0.38752190325E+03  0.00000000000E+00 0. -1.
         21   -1    0    0  502  503 -0.00000000000E+00 -0.00000000000E+00 -0.18359586952E+03  0.18359586952E+03  0.00000000000E+00 0. -1.
        -13    1    1    2    0    0  0.17417326304E+03  0.47143106626E+02  0.29632145102E+02  0.18285752172E+03  0.10566000000E+00 0.  1.
         13    1    1    2    0    0 -0.14779581650E+03 -0.86068095704E+02  0.80912977589E+02  0.18920423246E+03  0.10566000000E+00 0. -1.
          4    1    1    2  501    0  0.12405166169E+02 -0.52082004010E+01  0.12942899221E+03  0.13012639057E+03  0.00000000000E+00 0.  1.
         -4    1    1    2    0  503 -0.38782612708E+02  0.44133189479E+02 -0.36048081170E+02  0.68929628013E+02  0.00000000000E+00 0. -1.
</event>
<event>
 6    1  0.1144920E-005  0.8574392E+02  0.7818608E-02  0.1190575E+00
         21   -1    0    0  503  502  0.00000000000E+00  0.00000000000E+00  0.19389039159E+03  0.19389039159E+03  0.00000000000E+00 0.  1.
         21   -1    0    0  501  503 -0.00000000000E+00 -0.00000000000E+00 -0.26434361798E+03  0.26434361798E+03  0.00000000000E+00 0. -1.
        -13    1    1    2    0    0  0.12430853754E+03  0.89294449942E+02  0.11524004359E+03  0.19158911792E+03  0.10566000000E+00 0.  1.
         13    1    1    2    0    0 -0.52332032261E+02 -0.45380130406E+02 -0.12311792174E+02  0.70353317099E+02  0.10566000000E+00 0. -1.
          4    1    1    2  501    0 -0.50065338116E+01 -0.15397054960E+02 -0.54897695474E+02  0.57235405568E+02  0.00000000000E+00 0.  1.
         -4    1    1    2    0  502 -0.66969971468E+02 -0.28517264576E+02 -0.11848378233E+03  0.13905616898E+03  0.00000000000E+00 0. -1.
</event>
<event>
 6    1  0.1144920E-005  0.1354269E+03  0.7818608E-02  0.1120273E+00
         21   -1    0    0  503  502  0.00000000000E+00  0.00000000000E+00  0.20190236786E+03  0.20190236786E+03  0.00000000000E+00 0.  1.
         21   -1    0    0  501  503 -0.00000000000E+00 -0.00000000000E+00 -0.49115283622E+03  0.49115283622E+03  0.00000000000E+00 0. -1.
        -13    1    1    2    0    0 -0.49667201544E+00 -0.51993441083E+02  0.11301872882E+03  0.12440582313E+03  0.10566000000E+00 0.  1.
         13    1    1    2    0    0 -0.39283634540E+02 -0.14024717836E+03 -0.30318345987E+03  0.33635204248E+03  0.10566000000E+00 0. -1.
          4    1    1    2  501    0  0.59804023275E+02  0.14912561252E+03 -0.89099773742E+02  0.18372190721E+03  0.00000000000E+00 0.  1.
         -4    1    1    2    0  502 -0.20023716720E+02  0.43115006923E+02 -0.99859635814E+01  0.48575431258E+02  0.00000000000E+00 0. -1.
</event>
<event>
 6    1  0.1144920E-005  0.6343062E+02  0.7818608E-02  0.1245096E+00
         21   -1    0    0  503  502  0.00000000000E+00  0.00000000000E+00  0.77495442291E+03  0.77495442291E+03  0.00000000000E+00 0. -1.
         21   -1    0    0  501  503 -0.00000000000E+00 -0.00000000000E+00 -0.14506559174E+03  0.14506559174E+03  0.00000000000E+00 0. -1.
        -13    1    1    2    0    0 -0.13958405128E+02 -0.53388190547E+02  0.89119920560E+02  0.10482131161E+03  0.10566000000E+00 0.  1.
         13    1    1    2    0    0 -0.26610783403E+02  0.49002750388E+02 -0.59261269518E+02  0.81371448112E+02  0.10566000000E+00 0. -1.
          4    1    1    2  501    0  0.41988814812E+02  0.18910024409E+02 -0.58883284806E+02  0.74752196102E+02  0.00000000000E+00 0.  1.
         -4    1    1    2    0  502 -0.14196262809E+01 -0.14524584251E+02  0.65891346494E+03  0.65907505882E+03  0.00000000000E+00 0. -1.
</event>
<event>
 6    1  0.1144920E-005  0.3896470E+02  0.7818608E-02  0.1344639E+00
         21   -1    0    0  503  502  0.00000000000E+00  0.00000000000E+00  0.16773511002E+03  0.16773511002E+03  0.00000000000E+00 0.  1.
         21   -1    0    0  501  503 -0.00000000000E+00 -0.00000000000E+00 -0.55417345074E+02  0.55417345074E+02  0.00000000000E+00 0.  1.
        -13    1    1    2    0    0 -0.32470753420E+02 -0.57525034176E+02  0.11877252273E+03  0.13590585971E+03  0.10566000000E+00 0.  1.
         13    1    1    2    0    0  0.14213173632E+02  0.23296699078E+02  0.19196056020E+01  0.27357751046E+02  0.10566000000E+00 0. -1.
          4    1    1    2  501    0  0.21520554387E+01  0.15291814345E+02 -0.25422770028E+02  0.29745388962E+02  0.00000000000E+00 0.  1.
         -4    1    1    2    0  502  0.16105524349E+02  0.18936520753E+02  0.17048406641E+02  0.30143455372E+02  0.00000000000E+00 0. -1.
</event>
<event>
 6    1  0.1144920E-005  0.1983693E+03  0.7818608E-02  0.1076917E+00
         21   -1    0    0  503  502  0.00000000000E+00  0.00000000000E+00  0.39688910739E+03  0.39688910739E+03  0.00000000000E+00 0.  1.
         21   -1    0    0  501  503 -0.00000000000E+00 -0.00000000000E+00 -0.78854466233E+03  0.78854466233E+03  0.00000000000E+00 0.  1.
        -13    1    1    2    0    0 -0.27987021349E+03  0.60109190354E+02  0.14239067997E+03  0.31971169523E+03  0.10566000000E+00 0.  1.
         13    1    1    2    0    0  0.11658266821E+03  0.55743253407E+02 -0.13098354458E+03  0.18399871994E+03  0.10566000000E+00 0. -1.
          4    1    1    2  501    0  0.17565855164E+03 -0.78151140204E+02 -0.52203275136E+03  0.55631081328E+03  0.00000000000E+00 0.  1.
         -4    1    1    2    0  502 -0.12371006362E+02 -0.37701303558E+02  0.11897006103E+03  0.12541254127E+03  0.00000000000E+00 0. -1.
</event>
<event>
 6    1  0.1144920E-005  0.1255130E+03  0.7818608E-02  0.1128128E+00
         21   -1    0    0  503  502  0.00000000000E+00  0.00000000000E+00  0.13719882502E+04  0.13719882502E+04  0.00000000000E+00 0. -1.
         21   -1    0    0  501  503 -0.00000000000E+00 -0.00000000000E+00 -0.17687789551E+02  0.17687789551E+02  0.00000000000E+00 0. -1.
        -13    1    1    2    0    0 -0.12144548771E+03  0.35548846388E+02  0.64025214625E+03  0.65263737934E+03  0.10566000000E+00 0.  1.
         13    1    1    2    0    0  0.11406533347E+03 -0.32349446870E+02  0.32796047686E+03  0.34873410008E+03  0.10566000000E+00 0. -1.
          4    1    1    2  501    0  0.19932493279E+02  0.38569262465E+01  0.11108690562E+03  0.11292688240E+03  0.00000000000E+00 0.  1.
         -4    1    1    2    0  502 -0.12552339032E+02 -0.70563257648E+01  0.27500093192E+03  0.27537767793E+03  0.00000000000E+00 0. -1.
</event>
<event>
 6    1  0.1144920E-005  0.3958497E+03  0.7818608E-02  0.9741109E-01
         21   -1    0    0  501  502  0.00000000000E+00  0.00000000000E+00  0.87525336598E+03  0.87525336598E+03  0.00000000000E+00 0. -1.
         21   -1    0    0  502  503 -0.00000000000E+00 -0.00000000000E+00 -0.40042316816E+03  0.40042316816E+03  0.00000000000E+00 0.  1.
        -13    1    1    2    0    0 -0.29304645394E+03  0.31316798009E+03  0.17807260127E+02  0.42926392534E+03  0.10566000000E+00 0.  1.
         13    1    1    2    0    0  0.29055183749E+03 -0.22172138411E+03  0.80878661828E+02  0.37432888152E+03  0.10566000000E+00 0. -1.
          4    1    1    2  501    0 -0.10812589638E+02 -0.89200805357E+02  0.41828899328E+03  0.42783101532E+03  0.00000000000E+00 0.  1.
         -4    1    1    2    0  503  0.13307206088E+02 -0.22457906281E+01 -0.42144717421E+02  0.44252711961E+02  0.00000000000E+00 0. -1.
</event>
<event>
 6    1  0.1144920E-005  0.3151755E+03  0.7818608E-02  0.1001231E+00
         21   -1    0    0  503  502  0.00000000000E+00  0.00000000000E+00  0.29680640810E+03  0.29680640810E+03  0.00000000000E+00 0.  1.
         21   -1    0    0  501  503 -0.00000000000E+00 -0.00000000000E+00 -0.57066005693E+03  0.57066005693E+03  0.00000000000E+00 0. -1.
        -13    1    1    2    0    0 -0.12216592070E+03 -0.28995988085E+03  0.68013020777E+02  0.32191152021E+03  0.10566000000E+00 0.  1.
         13    1    1    2    0    0  0.15887969841E+03  0.27523377215E+03 -0.20378517519E+03  0.37752456436E+03  0.10566000000E+00 0. -1.
          4    1    1    2  501    0 -0.13666236588E+02  0.36961591697E+01 -0.14154018094E+03  0.14224644261E+03  0.00000000000E+00 0.  1.
         -4    1    1    2    0  502 -0.23047541122E+02  0.11029949533E+02  0.34586865235E+01  0.25783937848E+02  0.00000000000E+00 0. -1.
</event>
<event>
 6    1  0.1144920E-005  0.2427812E+03  0.7818608E-02  0.1034203E+00
         21   -1    0    0  503  502  0.00000000000E+00  0.00000000000E+00  0.92870835912E+03  0.92870835912E+03  0.00000000000E+00 0. -1.
         21   -1    0    0  501  503 -0.00000000000E+00 -0.00000000000E+00 -0.44491632478E+03  0.44491632478E+03  0.00000000000E+00 0. -1.
        -13    1    1    2    0    0  0.26075274651E+03 -0.92766612559E+02  0.37906976637E+03  0.46935225381E+03  0.10566000000E+00 0.  1.
         13    1    1    2    0    0 -0.24131083478E+03  0.32138878731E+02 -0.24275463549E+03  0.34379303472E+03  0.10566000000E+00 0. -1.
          4    1    1    2  501    0  0.10698360598E+02  0.27950621377E+02 -0.10328349600E+03  0.10753219379E+03  0.00000000000E+00 0.  1.
         -4    1    1    2    0  502 -0.30140272328E+02  0.32677112451E+02  0.45076039946E+03  0.45294720157E+03  0.00000000000E+00 0. -1.
</event>
<event>
 6    1  0.1144920E-005  0.4431996E+02  0.7818608E-02  0.1335116E+00
         21   -1    0    0  503  502  0.00000000000E+00  0.00000000000E+00  0.35065029664E+03  0.35065029664E+03  0.00000000000E+00 0. -1.
         21   -1    0    0  501  503 -0.00000000000E+00 -0.00000000000E+00 -0.77868136405E+02  0.77868136405E+02  0.00000000000E+00 0. -1.
        -13    1    1    2    0    0  0.15221561223E+01  0.50953446473E+02  0.76367864955E+02  0.91818476510E+02  0.10566000000E+00 0.  1.
         13    1    1    2    0    0 -0.28394491587E+02 -0.12962675259E+02 -0.56707608237E+02  0.64730534513E+02  0.10566000000E+00 0. -1.
          4    1    1    2  501    0  0.35792976137E+02 -0.31188259697E+02  0.51529871678E+02  0.70065486218E+02  0.00000000000E+00 0.  1.
         -4    1    1    2    0  502 -0.89206406724E+01 -0.68025115162E+01  0.20159203184E+03  0.20190393581E+03  0.00000000000E+00 0. -1.
</event>
<event>
 6    1  0.1144920E-005  0.5345220E+02  0.7818608E-02  0.1278338E+00
         21   -1    0    0  503  502  0.00000000000E+00  0.00000000000E+00  0.31255375831E+02  0.31255375831E+02  0.00000000000E+00 0.  1.
         21   -1    0    0  501  503 -0.00000000000E+00 -0.00000000000E+00 -0.29275596364E+03  0.29275596364E+03  0.00000000000E+00 0.  1.
        -13    1    1    2    0    0  0.20107767262E+02 -0.40753361731E+02 -0.22713911128E+02  0.50804445863E+02  0.10566000000E+00 0.  1.
         13    1    1    2    0    0 -0.43346531721E+02  0.35240686394E+02 -0.10050774440E+03  0.11498976319E+03  0.10566000000E+00 0. -1.
          4    1    1    2  501    0 -0.59595231705E+01  0.97776067636E+01 -0.12556588043E+03  0.12608690589E+03  0.00000000000E+00 0.  1.
         -4    1    1    2    0  502  0.29198287629E+02 -0.42649314268E+01 -0.12713051850E+02  0.32130224523E+02  0.00000000000E+00 0. -1.
</event>
<event>
 6    1  0.1144920E-005  0.3734589E+03  0.7818608E-02  0.9808991E-01
         21   -1    0    0  501  502  0.00000000000E+00  0.00000000000E+00  0.41880164334E+03  0.41880164334E+03  0.00000000000E+00 0. -1.
         21   -1    0    0  502  503 -0.00000000000E+00 -0.00000000000E+00 -0.11834081151E+04  0.11834081151E+04  0.00000000000E+00 0.  1.
        -13    1    1    2    0    0  0.36897365661E+03  0.12989754746E+03 -0.66161216602E+03  0.76859976678E+03  0.10566000000E+00 0.  1.
         13    1    1    2    0    0 -0.27794073887E+03 -0.18054271992E+03 -0.12068064014E+03  0.35271880600E+03  0.10566000000E+00 0. -1.
          4    1    1    2  501    0 -0.97766926219E+02  0.42461687188E+02  0.23776163277E+03  0.26056085807E+03  0.00000000000E+00 0.  1.
         -4    1    1    2    0  503  0.67340084789E+01  0.81834852716E+01 -0.22007529838E+03  0.22033032760E+03  0.00000000000E+00 0. -1.
</event>
<event>
 6    1  0.1144920E-005  0.7302635E+02  0.7818608E-02  0.1219004E+00
         21   -1    0    0  503  502  0.00000000000E+00  0.00000000000E+00  0.43974187244E+03  0.43974187244E+03  0.00000000000E+00 0. -1.
         21   -1    0    0  501  503 -0.00000000000E+00 -0.00000000000E+00 -0.80146207340E+02  0.80146207340E+02  0.00000000000E+00 0. -1.
        -13    1    1    2    0    0  0.49501447566E+02  0.80740772427E+02  0.27619842306E+02  0.98652584843E+02  0.10566000000E+00 0.  1.
         13    1    1    2    0    0 -0.30988669820E+02 -0.48497054249E+02 -0.59160623145E+01  0.57855621036E+02  0.10566000000E+00 0. -1.
          4    1    1    2  501    0 -0.93720306700E+01 -0.10121941782E+02 -0.84730136362E+01  0.16188904360E+02  0.00000000000E+00 0.  1.
         -4    1    1    2    0  502 -0.91407470759E+01 -0.22121776396E+02  0.34636489875E+03  0.34719096954E+03  0.00000000000E+00 0. -1.
</event>
<event>
 6    1  0.1144920E-005  0.3376330E+02  0.7818608E-02  0.1377013E+00
         21   -1    0    0  503  502  0.00000000000E+00  0.00000000000E+00  0.77957850010E+02  0.77957850010E+02  0.00000000000E+00 0. -1.
         21   -1    0    0  501  503 -0.00000000000E+00 -0.00000000000E+00 -0.14008038608E+03  0.14008038608E+03  0.00000000000E+00 0. -1.
        -13    1    1    2    0    0 -0.16046748838E+02 -0.18137805075E+02  0.26614474022E+02  0.35983600608E+02  0.10566000000E+00 0.  1.
         13    1    1    2    0    0  0.33128909637E+02  0.41021404092E+02 -0.10761371615E+03  0.11983740366E+03  0.10566000000E+00 0. -1.
          4    1    1    2  501    0 -0.90474570359E+01 -0.15863364597E+02 -0.16900886117E+02  0.24882579582E+02  0.00000000000E+00 0.  1.
         -4    1    1    2    0  502 -0.80347037631E+01 -0.70202344202E+01  0.35777592178E+02  0.37334652240E+02  0.00000000000E+00 0. -1.
</event>
<event>
 6    1  0.1144920E-005  0.6640486E+02  0.7818608E-02  0.1236488E+00
         21   -1    0    0  503  502  0.00000000000E+00  0.00000000000E+00  0.20398916773E+03  0.20398916773E+03  0.00000000000E+00 0.  1.
         21   -1    0    0  501  503 -0.00000000000E+00 -0.00000000000E+00 -0.78942452198E+02  0.78942452198E+02  0.00000000000E+00 0. -1.
        -13    1    1    2    0    0 -0.13768259801E+02 -0.81920458730E+02  0.64442480238E+02  0.10513501301E+03  0.10566000000E+00 0.  1.
         13    1    1    2    0    0  0.17379400325E+02  0.41984664441E+02 -0.44691101272E+02  0.63734302388E+02  0.10566000000E+00 0. -1.
          4    1    1    2  501    0  0.47036360332E+01  0.19992981458E+02  0.35660364240E+02  0.41152218376E+02  0.00000000000E+00 0.  1.
         -4    1    1    2    0  502 -0.83147765573E+01  0.19942812831E+02  0.69634972326E+02  0.72910086158E+02  0.00000000000E+00 0. -1.
</event>
<event>
 6    1  0.1144920E-005  0.3901200E+02  0.7818608E-02  0.1356632E+00
         21   -1    0    0  501  502  0.00000000000E+00  0.00000000000E+00  0.15254629338E+03  0.15254629338E+03  0.00000000000E+00 0. -1.
         21   -1    0    0  502  503 -0.00000000000E+00 -0.00000000000E+00 -0.81417696143E+02  0.81417696143E+02  0.00000000000E+00 0. -1.
        -13    1    1    2    0    0  0.24157676802E+02 -0.11022289591E+02 -0.52590710438E+02  0.58914159629E+02  0.10566000000E+00 0.  1.
         13    1    1    2    0    0  0.27836489187E+02 -0.34071664367E+02  0.68684818315E+02  0.81568154779E+02  0.10566000000E+00 0. -1.
          4    1    1    2  501    0 -0.22491526046E+02  0.21762912853E+02  0.44532263556E+02  0.54429914727E+02  0.00000000000E+00 0.  1.
         -4    1    1    2    0  503 -0.29502639942E+02  0.23331041105E+02  0.10502225803E+02  0.39051760388E+02  0.00000000000E+00 0. -1.
</event>
<event>
 6    1  0.1144920E-005  0.7201359E+02  0.7818608E-02  0.1221541E+00
         21   -1    0    0  501  502  0.00000000000E+00  0.00000000000E+00  0.76470854038E+03  0.76470854038E+03  0.00000000000E+00 0.  1.
         21   -1    0    0  502  503 -0.00000000000E+00 -0.00000000000E+00 -0.12267421658E+03  0.12267421658E+03  0.00000000000E+00 0.  1.
        -13    1    1    2    0    0  0.62728686437E+02 -0.28374678309E+01  0.15343815932E+02  0.64640414426E+02  0.10566000000E+00 0.  1.
         13    1    1    2    0    0 -0.76712841894E+02 -0.33043942776E+02  0.35176338575E+03  0.36154426145E+03  0.10566000000E+00 0. -1.
          4    1    1    2  501    0  0.79098541025E+01  0.90659737052E+01  0.36593236808E+03  0.36613010759E+03  0.00000000000E+00 0.  1.
         -4    1    1    2    0  503  0.60743013550E+01  0.26815436902E+02 -0.91005245966E+02  0.95067973506E+02  0.00000000000E+00 0. -1.
</event>
<event>
 6    1  0.1144920E-005  0.1888351E+03  0.7818608E-02  0.1068072E+00
         21   -1    0    0  501  502  0.00000000000E+00  0.00000000000E+00  0.31645762047E+03  0.31645762047E+03  0.00000000000E+00 0. -1.
         21   -1    0    0  502  503 -0.00000000000E+00 -0.00000000000E+00 -0.17258526548E+03  0.17258526548E+03  0.00000000000E+00 0.  1.
        -13    1    1    2    0    0  0.83535284100E+01  0.16255901540E+03 -0.66815263294E+01  0.16291061624E+03  0.10566000000E+00 0.  1.
         13    1    1    2    0    0  0.13360701609E+02 -0.20853587457E+03  0.17007066777E+03  0.26942487363E+03  0.10566000000E+00 0. -1.
          4    1    1    2  501    0 -0.10002757158E+02  0.82282952291E+01 -0.80233155976E+00  0.12977046238E+02  0.00000000000E+00 0.  1.
         -4    1    1    2    0  503 -0.11711472862E+02  0.37748563941E+02 -0.18714454887E+02  0.43730349849E+02  0.00000000000E+00 0. -1.
</event>
<event>
 6    1  0.1144920E-005  0.7197670E+02  0.7818608E-02  0.1221634E+00
         21   -1    0    0  501  502  0.00000000000E+00  0.00000000000E+00  0.24501695105E+02  0.24501695105E+02  0.00000000000E+00 0.  1.
         21   -1    0    0  502  503 -0.00000000000E+00 -0.00000000000E+00 -0.10881408964E+04  0.10881408964E+04  0.00000000000E+00 0.  1.
        -13    1    1    2    0    0 -0.72745429908E+02 -0.25601732509E+02 -0.34990321976E+03  0.35830101960E+03  0.10566000000E+00 0.  1.
         13    1    1    2    0    0  0.63117495919E+02  0.16831121373E+02 -0.17408892342E+03  0.18594103732E+03  0.10566000000E+00 0. -1.
          4    1    1    2  501    0  0.13141164351E+02 -0.65539771466E+01  0.10485015968E+02  0.18043845953E+02  0.00000000000E+00 0.  1.
         -4    1    1    2    0  503 -0.35132303614E+01  0.15324588283E+02 -0.55013207408E+03  0.55035668863E+03  0.00000000000E+00 0. -1.
</event>
<event>
 6    1  0.1144920E-005  0.4285367E+02  0.7818608E-02  0.1323977E+00
         21   -1    0    0  503  502  0.00000000000E+00  0.00000000000E+00  0.95466326685E+02  0.95466326685E+02  0.00000000000E+00 0. -1.
         21   -1    0    0  501  503 -0.00000000000E+00 -0.00000000000E+00 -0.99156865804E+02  0.99156865804E+02  0.00000000000E+00 0.  1.
        -13    1    1    2    0    0 -0.42905275605E+02  0.61110733173E+01  0.16514547506E+02  0.46378328293E+02  0.10566000000E+00 0.  1.
         13    1    1    2    0    0  0.28689904461E+02 -0.13591550917E+02 -0.34443600686E+02  0.46842434465E+02  0.10566000000E+00 0. -1.
          4    1    1    2  501    0  0.14480843235E+02 -0.29010053870E+02 -0.29918733949E+02  0.44118121984E+02  0.00000000000E+00 0.  1.
         -4    1    1    2    0  502 -0.26547209136E+00  0.36490531469E+02  0.44157248009E+02  0.57284307748E+02  0.00000000000E+00 0. -1.
</event>
<event>
 6    1  0.1144920E-005  0.1958006E+03  0.7818608E-02  0.1063053E+00
         21   -1    0    0  501  502  0.00000000000E+00  0.00000000000E+00  0.41013611006E+03  0.41013611006E+03  0.00000000000E+00 0. -1.
         21   -1    0    0  502  503 -0.00000000000E+00 -0.00000000000E+00 -0.55243387025E+03  0.55243387025E+03  0.00000000000E+00 0. -1.
        -13    1    1    2    0    0 -0.16098370888E+03 -0.10412644612E+03 -0.44301627149E+02  0.19677580298E+03  0.10566000000E+00 0.  1.
         13    1    1    2    0    0  0.26749699118E+03  0.67245263191E+01  0.25975105450E+02  0.26883931411E+03  0.10566000000E+00 0. -1.
          4    1    1    2  501    0 -0.12596369033E+03 -0.91445147247E+01  0.15368574139E+03  0.19892154367E+03  0.00000000000E+00 0.  1.
         -4    1    1    2    0  503  0.19450408028E+02  0.10654643452E+03 -0.27765697988E+03  0.29803331954E+03  0.00000000000E+00 0. -1.
</event>
<event>
 6    1  0.1144920E-005  0.1278100E+03  0.7818608E-02  0.1125319E+00
         21   -1    0    0  501  502  0.00000000000E+00  0.00000000000E+00  0.41314991601E+03  0.41314991601E+03  0.00000000000E+00 0.  1.
         21   -1    0    0  502  503 -0.00000000000E+00 -0.00000000000E+00 -0.41068057725E+03  0.41068057725E+03  0.00000000000E+00 0.  1.
        -13    1    1    2    0    0  0.97766713183E+02 -0.93194165339E+02 -0.31995342883E+03  0.34729481776E+03  0.10566000000E+00 0.  1.
         13    1    1    2    0    0 -0.57162064156E+02  0.13440606800E+03  0.32458367996E+02  0.14961968290E+03  0.10566000000E+00 0. -1.
          4    1    1    2  501    0 -0.27198625416E+02 -0.43092294914E+02  0.30351439696E+03  0.30776240880E+03  0.00000000000E+00 0.  1.
         -4    1    1    2    0  503 -0.13406023611E+02  0.18803922562E+01 -0.13549997369E+02  0.19153583811E+02  0.00000000000E+00 0. -1.
</event>
<event>
 6    1  0.1144920E-005  0.1693922E+03  0.7818608E-02  0.1083417E+00
         21   -1    0    0  501  502  0.00000000000E+00  0.00000000000E+00  0.13013755654E+03  0.13013755654E+03  0.00000000000E+00 0. -1.
         21   -1    0    0  502  503 -0.00000000000E+00 -0.00000000000E+00 -0.12014524148E+04  0.12014524148E+04  0.00000000000E+00 0.  1.
        -13    1    1    2    0    0 -0.23376090740E+02 -0.15961330890E+03 -0.40311550335E+03  0.43419462249E+03  0.10566000000E+00 0.  1.
         13    1    1    2    0    0  0.29500911195E+02  0.18460776036E+03 -0.89621484422E+01  0.18716479428E+03  0.10566000000E+00 0. -1.
          4    1    1    2  501    0  0.14354621887E+02 -0.22542157665E+02  0.18293449989E+02  0.32386020969E+02  0.00000000000E+00 0.  1.
         -4    1    1    2    0  503 -0.20479442342E+02 -0.24522937995E+01 -0.67753065648E+03  0.67784453364E+03  0.00000000000E+00 0. -1.
</event>
<event>
 6    1  0.1144920E-005  0.4191937E+02  0.7818608E-02  0.1384089E+00
         21   -1    0    0  501  502  0.00000000000E+00  0.00000000000E+00  0.20332750771E+03  0.20332750771E+03  0.00000000000E+00 0. -1.
         21   -1    0    0  502  503 -0.00000000000E+00 -0.00000000000E+00 -0.26100989843E+02  0.26100989843E+02  0.00000000000E+00 0. -1.
        -13    1    1    2    0    0 -0.12020961883E+02  0.74380729454E+01 -0.88931574511E+01  0.16701133710E+02  0.10566000000E+00 0.  1.
         13    1    1    2    0    0  0.79166018879E+01 -0.50934469007E+02  0.12089804147E+03  0.13142808039E+03  0.10566000000E+00 0. -1.
          4    1    1    2  501    0  0.57086207873E+01  0.96448154189E+01  0.51648265685E+01  0.12340431485E+02  0.00000000000E+00 0.  1.
         -4    1    1    2    0  503 -0.16042607927E+01  0.33851580643E+02  0.60056807275E+02  0.68958851969E+02  0.00000000000E+00 0. -1.
</event>
<event>
 6    1  0.1144920E-005  0.1067677E+03  0.7818608E-02  0.1153819E+00
         21   -1    0    0  501  502  0.00000000000E+00  0.00000000000E+00  0.20745056513E+03  0.20745056513E+03  0.00000000000E+00 0. -1.
         21   -1    0    0  502  503 -0.00000000000E+00 -0.00000000000E+00 -0.87707452209E+02  0.87707452209E+02  0.00000000000E+00 0.  1.
        -13    1    1    2    0    0  0.55844440016E+01  0.11269802820E+03  0.27580195239E+02  0.11615812459E+03  0.10566000000E+00 0.  1.
         13    1    1    2    0    0 -0.84473437685E+01 -0.99360306824E+02  0.10074317919E+03  0.14174987657E+03  0.10566000000E+00 0. -1.
          4    1    1    2  501    0 -0.14576815436E+02 -0.42866131211E+01  0.13142261857E+01  0.15250763613E+02  0.00000000000E+00 0.  1.
         -4    1    1    2    0  503  0.17439715203E+02 -0.90511082516E+01 -0.98944876967E+01  0.21999252572E+02  0.00000000000E+00 0. -1.
</event>
<event>
 6    1  0.1144920E-005  0.1768509E+03  0.7818608E-02  0.1077280E+00
         21   -1    0    0  503  502  0.00000000000E+00  0.00000000000E+00  0.13507189559E+03  0.13507189559E+03  0.00000000000E+00 0. -1.
         21   -1    0    0  501  503 -0.00000000000E+00 -0.00000000000E+00 -0.77771454774E+03  0.77771454774E+03  0.00000000000E+00 0.  1.
        -13    1    1    2    0    0  0.16683767469E+02 -0.21665102720E+03 -0.30215558250E+03  0.37217472091E+03  0.10566000000E+00 0.  1.
         13    1    1    2    0    0  0.16160478207E+03  0.11999669952E+03 -0.12609810512E+03  0.23752064492E+03  0.10566000000E+00 0. -1.
          4    1    1    2  501    0 -0.52681493102E+02 -0.32215284226E+01 -0.40972163619E+02  0.66816436245E+02  0.00000000000E+00 0.  1.
         -4    1    1    2    0  502 -0.12560705644E+03  0.99875856098E+02 -0.17341680092E+03  0.23627464125E+03  0.00000000000E+00 0. -1.
</event>
<event>
 6    1  0.1144920E-005  0.3259749E+03  0.7818608E-02  0.9971257E-01
         21   -1    0    0  501  502  0.00000000000E+00  0.00000000000E+00  0.28693480826E+03  0.28693480826E+03  0.00000000000E+00 0. -1.
         21   -1    0    0  502  503 -0.00000000000E+00 -0.00000000000E+00 -0.84659612793E+03  0.84659612793E+03  0.00000000000E+00 0.  1.
        -13    1    1    2    0    0  0.28973489197E+03 -0.13599713779E+03 -0.50082961251E+03  0.59436675634E+03  0.10566000000E+00 0.  1.
         13    1    1    2    0    0 -0.25346470714E+03  0.15771384606E+03  0.11171904721E+03  0.31874624967E+03  0.10566000000E+00 0. -1.
          4    1    1    2  501    0 -0.46006453018E+02 -0.39949546562E+01  0.24452237762E+01  0.46244269930E+02  0.00000000000E+00 0.  1.
         -4    1    1    2    0  503  0.97362681884E+01 -0.17721753614E+02 -0.17299597815E+03  0.17417366025E+03  0.00000000000E+00 0. -1.
</event>
<event>
 6    1  0.1144920E-005  0.7130245E+02  0.7818608E-02  0.1223351E+00
         21   -1    0    0  501  502  0.00000000000E+00  0.00000000000E+00  0.22406712292E+04  0.22406712292E+04  0.00000000000E+00 0.  1.
         21   -1    0    0  502  503 -0.00000000000E+00 -0.00000000000E+00 -0.47088155048E+02  0.47088155048E+02  0.00000000000E+00 0. -1.
        -13    1    1    2    0    0  0.50812483796E+02 -0.44014643518E+02  0.15154803266E+03  0.16578906695E+03  0.10566000000E+00 0.  1.
         13    1    1    2    0    0 -0.20616330798E+02  0.72139130030E+02  0.31555100536E+03  0.32434786160E+03  0.10566000000E+00 0. -1.
          4    1    1    2  501    0 -0.24693057404E+02  0.53532817035E+01  0.17538513218E+04  0.17540333132E+04  0.00000000000E+00 0.  1.
         -4    1    1    2    0  503 -0.55030955942E+01 -0.33477768216E+02 -0.27367285640E+02  0.43589142560E+02  0.00000000000E+00 0. -1.
</event>
<event>
 6    1  0.1144920E-005  0.9070375E+02  0.7818608E-02  0.1204026E+00
         21   -1    0    0  503  502  0.00000000000E+00  0.00000000000E+00  0.61399929446E+02  0.61399929446E+02  0.00000000000E+00 0.  1.
         21   -1    0    0  501  503 -0.00000000000E+00 -0.00000000000E+00 -0.53615757787E+03  0.53615757787E+03  0.00000000000E+00 0. -1.
        -13    1    1    2    0    0 -0.22125652552E+02  0.21847951231E+02 -0.39151767857E+01  0.31340345358E+02  0.10566000000E+00 0.  1.
         13    1    1    2    0    0 -0.13495038419E+03  0.21397818878E+02 -0.21288292721E+03  0.25295972942E+03  0.10566000000E+00 0. -1.
          4    1    1    2  501    0  0.11641081345E+03 -0.97941307568E+01 -0.21736834837E+03  0.24677196226E+03  0.00000000000E+00 0.  1.
         -4    1    1    2    0  502  0.40665223289E+02 -0.33451639353E+02 -0.40591196055E+02  0.66485470275E+02  0.00000000000E+00 0. -1.
</event>
<event>
 6    1  0.1144920E-005  0.3898981E+02  0.7818608E-02  0.1354797E+00
         21   -1    0    0  501  502  0.00000000000E+00  0.00000000000E+00  0.49541962062E+03  0.49541962062E+03  0.00000000000E+00 0. -1.
         21   -1    0    0  502  503 -0.00000000000E+00 -0.00000000000E+00 -0.40105050469E+02  0.40105050469E+02  0.00000000000E+00 0.  1.
        -13    1    1    2    0    0  0.32514498670E+02  0.14752240926E+01 -0.29025673679E+01  0.32677285249E+02  0.10566000000E+00 0.  1.
         13    1    1    2    0    0 -0.51464205070E+02 -0.50107432203E+02  0.36402695883E+03  0.37104576144E+03  0.10566000000E+00 0. -1.
          4    1    1    2  501    0 -0.53647617486E+01  0.20420523948E+02  0.92111140223E+02  0.94499950371E+02  0.00000000000E+00 0.  1.
         -4    1    1    2    0  503  0.24314468149E+02  0.28211684163E+02  0.20790384714E+01  0.37301674032E+02  0.00000000000E+00 0. -1.
</event>
<event>
 6    1  0.1144920E-005  0.2220096E+03  0.7818608E-02  0.1050898E+00
         21   -1    0    0  501  502  0.00000000000E+00  0.00000000000E+00  0.38440749558E+03  0.38440749558E+03  0.00000000000E+00 0. -1.
         21   -1    0    0  502  503 -0.00000000000E+00 -0.00000000000E+00 -0.35710005876E+03  0.35710005876E+03  0.00000000000E+00 0.  1.
        -13    1    1    2    0    0 -0.19307309608E+03  0.54469526666E+02 -0.73122204352E+02  0.21352053226E+03  0.10566000000E+00 0.  1.
         13    1    1    2    0    0  0.19773019029E+03  0.17377719750E+03  0.12696754904E+03  0.29226103435E+03  0.10566000000E+00 0. -1.
          4    1    1    2  501    0 -0.13891783633E+02 -0.21834320756E+03 -0.17579417667E+02  0.21948980356E+03  0.00000000000E+00 0.  1.
         -4    1    1    2    0  503  0.92346894195E+01 -0.99035166041E+01 -0.89584902029E+01  0.16236184174E+02  0.00000000000E+00 0. -1.
</event>
<event>
 6    1  0.1144920E-005  0.1016310E+03  0.7818608E-02  0.1161885E+00
         21   -1    0    0  501  502  0.00000000000E+00  0.00000000000E+00  0.54840340539E+03  0.54840340539E+03  0.00000000000E+00 0. -1.
         21   -1    0    0  502  503 -0.00000000000E+00 -0.00000000000E+00 -0.10023134286E+03  0.10023134286E+03  0.00000000000E+00 0. -1.
        -13    1    1    2    0    0 -0.88906610754E+02  0.56128505048E+02  0.22564706681E+03  0.24894056407E+03  0.10566000000E+00 0.  1.
         13    1    1    2    0    0  0.61172363072E+02 -0.77691807362E+02  0.39643806236E+02  0.10653505279E+03  0.10566000000E+00 0. -1.
          4    1    1    2  501    0  0.78316305846E+01  0.72615233669E+01  0.23516959747E+03  0.23541198724E+03  0.00000000000E+00 0.  1.
         -4    1    1    2    0  503  0.19902617097E+02  0.14301778947E+02 -0.52288407991E+02  0.57747144160E+02  0.00000000000E+00 0. -1.
</event>
<event>
 6    1  0.1144920E-005  0.4905734E+02  0.7818608E-02  0.1295675E+00
         21   -1    0    0  501  502  0.00000000000E+00  0.00000000000E+00  0.56166750577E+03  0.56166750577E+03  0.00000000000E+00 0. -1.
         21   -1    0    0  502  503 -0.00000000000E+00 -0.00000000000E+00 -0.31699567876E+02  0.31699567876E+02  0.00000000000E+00 0.  1.
        -13    1    1    2    0    0  0.41251447836E+01 -0.31800828136E+02 -0.12013125643E+02  0.34243770840E+02  0.10566000000E+00 0.  1.
         13    1    1    2    0    0  0.27929552029E+02  0.54437691171E+02  0.22895604986E+03  0.23699030788E+03  0.10566000000E+00 0. -1.
          4    1    1    2  501    0 -0.32530644101E+02 -0.24661203510E+01  0.28866367071E+03  0.29050135859E+03  0.00000000000E+00 0.  1.
         -4    1    1    2    0  503  0.47594728795E+00 -0.20170742684E+02  0.24361342968E+02  0.31631636338E+02  0.00000000000E+00 0. -1.
</event>
<event>
 6    1  0.1144920E-005  0.4898342E+02  0.7818608E-02  0.1319757E+00
         21   -1    0    0  501  502  0.00000000000E+00  0.00000000000E+00  0.18312568436E+03  0.18312568436E+03  0.00000000000E+00 0.  1.
         21   -1    0    0  502  503 -0.00000000000E+00 -0.00000000000E+00 -0.91362923246E+02  0.91362923246E+02  0.00000000000E+00 0. -1.
        -13    1    1    2    0    0  0.24361333331E+02  0.19721085432E+02 -0.11444809821E+02  0.33367508270E+02  0.10566000000E+00 0.  1.
         13    1    1    2    0    0 -0.77493889272E+01 -0.46652139368E+02  0.22259181443E+02  0.52268130432E+02  0.10566000000E+00 0. -1.
          4    1    1    2  501    0  0.10934653465E+02 -0.18045051243E+02  0.12087527043E+03  0.12270298090E+03  0.00000000000E+00 0.  1.
         -4    1    1    2    0  503 -0.27546597868E+02  0.44976105178E+02 -0.39926880938E+02  0.66149988001E+02  0.00000000000E+00 0. -1.
</event>
<event>
 6    1  0.1144920E-005  0.9595936E+02  0.7818608E-02  0.1181176E+00
         21   -1    0    0  501  502  0.00000000000E+00  0.00000000000E+00  0.32470248811E+03  0.32470248811E+03  0.00000000000E+00 0. -1.
         21   -1    0    0  502  503 -0.00000000000E+00 -0.00000000000E+00 -0.14026452571E+03  0.14026452571E+03  0.00000000000E+00 0.  1.
        -13    1    1    2    0    0 -0.54134805978E+02  0.42543676466E+02 -0.70723638107E+02  0.98703524642E+02  0.10566000000E+00 0.  1.
         13    1    1    2    0    0  0.82987596085E+02 -0.12347904552E+03  0.15153194189E+03  0.21235808523E+03  0.10566000000E+00 0. -1.
          4    1    1    2  501    0 -0.22527886087E+02  0.95337254089E+02  0.87045075165E+02  0.13104786446E+03  0.00000000000E+00 0.  1.
         -4    1    1    2    0  503 -0.63249040206E+01 -0.14401885032E+02  0.16584583457E+02  0.22857539495E+02  0.00000000000E+00 0. -1.
</event>
<event>
 6    1  0.1144920E-005  0.5334887E+02  0.7818608E-02  0.1278724E+00
         21   -1    0    0  501  502  0.00000000000E+00  0.00000000000E+00  0.13853966527E+03  0.13853966527E+03  0.00000000000E+00 0.  1.
         21   -1    0    0  502  503 -0.00000000000E+00 -0.00000000000E+00 -0.25820366218E+03  0.25820366218E+03  0.00000000000E+00 0. -1.
        -13    1    1    2    0    0 -0.33190640766E+02 -0.42441023546E+02 -0.24879398043E+02  0.59345216530E+02  0.10566000000E+00 0.  1.
         13    1    1    2    0    0  0.35058520214E+01  0.51359911765E+02  0.13682460203E+02  0.53266804073E+02  0.10566000000E+00 0. -1.
          4    1    1    2  501    0  0.27355080033E+02  0.26535947277E+02  0.81976017683E+02  0.90402015335E+02  0.00000000000E+00 0.  1.
         -4    1    1    2    0  503  0.23297087110E+01 -0.35454835495E+02 -0.19044307676E+03  0.19372929151E+03  0.00000000000E+00 0. -1.
</event>
<event>
 6    1  0.1144920E-005  0.1429795E+03  0.7818608E-02  0.1108249E+00
         21   -1    0    0  501  502  0.00000000000E+00  0.00000000000E+00  0.84489361956E+03  0.84489361956E+03  0.00000000000E+00 0. -1.
         21   -1    0    0  502  503 -0.00000000000E+00 -0.00000000000E+00 -0.26763152813E+03  0.26763152813E+03  0.00000000000E+00 0.  1.
        -13    1    1    2    0    0  0.90917575815E+02 -0.12290615577E+03 -0.18116852150E+03  0.23705267994E+03  0.10566000000E+00 0.  1.
         13    1    1    2    0    0 -0.61124393562E+02  0.57138749322E+02  0.34359009390E+03  0.35363143519E+03  0.10566000000E+00 0. -1.
          4    1    1    2  501    0 -0.71367793009E+02  0.17667495124E+02  0.44531079590E+03  0.45133934817E+03  0.00000000000E+00 0.  1.
         -4    1    1    2    0  503  0.41574610756E+02  0.48099911329E+02 -0.30470276879E+02  0.70501684395E+02  0.00000000000E+00 0. -1.
</event>
<event>
 6    1  0.1144920E-005  0.2801275E+03  0.7818608E-02  0.1015863E+00
         21   -1    0    0  503  502  0.00000000000E+00  0.00000000000E+00  0.28504190483E+03  0.28504190483E+03  0.00000000000E+00 0.  1.
         21   -1    0    0  501  503 -0.00000000000E+00 -0.00000000000E+00 -0.93213684877E+03  0.93213684877E+03  0.00000000000E+00 0. -1.
        -13    1    1    2    0    0  0.28345404982E+03 -0.20516767071E+02  0.90292190991E+02  0.29819427729E+03  0.10566000000E+00 0.  1.
         13    1    1    2    0    0 -0.27395777070E+03 -0.66181182832E+02 -0.28564764131E+03  0.40128218904E+03  0.10566000000E+00 0. -1.
          4    1    1    2  501    0 -0.72096852793E+01  0.98445560578E+02 -0.47840074790E+03  0.48847802770E+03  0.00000000000E+00 0.  1.
         -4    1    1    2    0  502 -0.22865938462E+01 -0.11747610675E+02  0.26661254274E+02  0.29224259571E+02  0.00000000000E+00 0. -1.
</event>
<event>
 6    1  0.1144920E-005  0.1338095E+03  0.7818608E-02  0.1118276E+00
         21   -1    0    0  501  502  0.00000000000E+00  0.00000000000E+00  0.20692672839E+04  0.20692672839E+04  0.00000000000E+00 0.  1.
         21   -1    0    0  502  503 -0.00000000000E+00 -0.00000000000E+00 -0.15074912758E+03  0.15074912758E+03  0.00000000000E+00 0.  1.
        -13    1    1    2    0    0  0.10984349352E+03 -0.42281772807E+02 -0.28968085525E+02  0.12121263351E+03  0.10566000000E+00 0.  1.
         13    1    1    2    0    0 -0.90822915813E+02 -0.23925129815E+02  0.24559265518E+03  0.26293911332E+03  0.10566000000E+00 0. -1.
          4    1    1    2  501    0 -0.67497027501E+02  0.41437752017E+02  0.17567774593E+04  0.17585619061E+04  0.00000000000E+00 0.  1.
         -4    1    1    2    0  503  0.48476449794E+02  0.24769150605E+02 -0.54883872633E+02  0.77302758563E+02  0.00000000000E+00 0. -1.
</event>
<event>
 6    1  0.1144920E-005  0.3834715E+02  0.7818608E-02  0.1357521E+00
         21   -1    0    0  501  502  0.00000000000E+00  0.00000000000E+00  0.52538437319E+02  0.52538437319E+02  0.00000000000E+00 0.  1.
         21   -1    0    0  502  503 -0.00000000000E+00 -0.00000000000E+00 -0.11686439323E+03  0.11686439323E+03  0.00000000000E+00 0. -1.
        -13    1    1    2    0    0  0.26090073474E+02 -0.12169416792E+02  0.30394701080E+01  0.28948854580E+02  0.10566000000E+00 0.  1.
         13    1    1    2    0    0 -0.37135409965E+02 -0.24575123101E+01 -0.17888287836E+02  0.41292614906E+02  0.10566000000E+00 0. -1.
          4    1    1    2  501    0 -0.27956152042E+02  0.16447930842E+02  0.42847776463E+01  0.32717582207E+02  0.00000000000E+00 0.  1.
         -4    1    1    2    0  503  0.39001488533E+02 -0.18210017397E+01 -0.53761915833E+02  0.66443778860E+02  0.00000000000E+00 0. -1.
</event>
<event>
 6    1  0.1144920E-005  0.1259121E+03  0.7818608E-02  0.1134368E+00
         21   -1    0    0  503  502  0.00000000000E+00  0.00000000000E+00  0.38157348708E+03  0.38157348708E+03  0.00000000000E+00 0. -1.
         21   -1    0    0  501  503 -0.00000000000E+00 -0.00000000000E+00 -0.26789867858E+03  0.26789867858E+03  0.00000000000E+00 0.  1.
        -13    1    1    2    0    0  0.12000862405E+03 -0.14836578845E+02  0.28953091039E+02  0.12434020494E+03  0.10566000000E+00 0.  1.
         13    1    1    2    0    0 -0.59858947308E+02  0.82118549599E+02 -0.10925885167E+03  0.14921145262E+03  0.10566000000E+00 0. -1.
          4    1    1    2  501    0 -0.10492199979E+03 -0.15050629118E+03  0.28938274576E+02  0.18573689310E+03  0.00000000000E+00 0.  1.
         -4    1    1    2    0  502  0.44772323046E+02  0.83224320424E+02  0.16504229456E+03  0.19018361500E+03  0.00000000000E+00 0. -1.
</event>
<event>
 6    1  0.1144920E-005  0.1125031E+03  0.7818608E-02  0.1145379E+00
         21   -1    0    0  501  502  0.00000000000E+00  0.00000000000E+00  0.74368085679E+03  0.74368085679E+03  0.00000000000E+00 0.  1.
         21   -1    0    0  502  503 -0.00000000000E+00 -0.00000000000E+00 -0.30229919814E+03  0.30229919814E+03  0.00000000000E+00 0.  1.
        -13    1    1    2    0    0 -0.21642127585E+01  0.14112146548E+03 -0.72145328554E+01  0.14132237079E+03  0.10566000000E+00 0.  1.
         13    1    1    2    0    0  0.29769532549E+02 -0.92240504332E+02  0.12395172224E+03  0.15734858219E+03  0.10566000000E+00 0. -1.
          4    1    1    2  501    0 -0.32336225672E+02 -0.18961474306E+02  0.53423119978E+03  0.53554471691E+03  0.00000000000E+00 0.  1.
         -4    1    1    2    0  503  0.47309058813E+01 -0.29919486847E+02 -0.20958673051E+03  0.21176438503E+03  0.00000000000E+00 0. -1.
</event>
<event>
 6    1  0.1144920E-005  0.5157137E+02  0.7818608E-02  0.1319382E+00
         21   -1    0    0  501  502  0.00000000000E+00  0.00000000000E+00  0.33892738788E+03  0.33892738788E+03  0.00000000000E+00 0.  1.
         21   -1    0    0  502  503 -0.00000000000E+00 -0.00000000000E+00 -0.35555233761E+02  0.35555233761E+02  0.00000000000E+00 0.  1.
        -13    1    1    2    0    0  0.49331985754E+02 -0.34809296754E+02  0.12938512332E+03  0.14277903649E+03  0.10566000000E+00 0.  1.
         13    1    1    2    0    0  0.10796044051E+02  0.23732432201E+02  0.59726003253E+02  0.65168930741E+02  0.10566000000E+00 0. -1.
          4    1    1    2  501    0 -0.38059666353E+02  0.26287039882E+02  0.12822502242E+03  0.13631288656E+03  0.00000000000E+00 0.  1.
         -4    1    1    2    0  503 -0.22068363452E+02 -0.15210175329E+02 -0.13963994877E+02  0.30221767849E+02  0.00000000000E+00 0. -1.
</event>
<event>
 6    1  0.1144920E-005  0.8368483E+02  0.7818608E-02  0.1194796E+00
         21   -1    0    0  501  502  0.00000000000E+00  0.00000000000E+00  0.63733183329E+03  0.63733183329E+03  0.00000000000E+00 0. -1.
         21   -1    0    0  502  503 -0.00000000000E+00 -0.00000000000E+00 -0.67046980394E+02  0.67046980394E+02  0.00000000000E+00 0. -1.
        -13    1    1    2    0    0 -0.57522781329E+02 -0.73059268390E+02  0.38022627367E+03  0.39143142110E+03  0.10566000000E+00 0.  1.
         13    1    1    2    0    0  0.79989199544E+02  0.81455949153E+02  0.11210291448E+03  0.16000130717E+03  0.10566000000E+00 0. -1.
          4    1    1    2  501    0  0.18153037767E+02  0.14279814923E+02  0.99164732743E+02  0.10181890843E+03  0.00000000000E+00 0.  1.
         -4    1    1    2    0  503 -0.40619455982E+02 -0.22676495686E+02 -0.21209068002E+02  0.51127176984E+02  0.00000000000E+00 0. -1.
</event>
<event>
 6    1  0.1144920E-005  0.5097748E+02  0.7818608E-02  0.1287859E+00
         21   -1    0    0  503  502  0.00000000000E+00  0.00000000000E+00  0.32047587344E+03  0.32047587344E+03  0.00000000000E+00 0. -1.
         21   -1    0    0  501  503 -0.00000000000E+00 -0.00000000000E+00 -0.89589834771E+02  0.89589834771E+02  0.00000000000E+00 0. -1.
        -13    1    1    2    0    0  0.41739375789E+02 -0.27086774985E+01  0.44151467348E+02  0.60818382567E+02  0.10566000000E+00 0.  1.
         13    1    1    2    0    0 -0.54958722754E+02 -0.22958320396E+02  0.57639047985E+01  0.59839614343E+02  0.10566000000E+00 0. -1.
          4    1    1    2  501    0 -0.35181067639E+00  0.11642730752E+02 -0.53182272479E+02  0.54442915573E+02  0.00000000000E+00 0.  1.
         -4    1    1    2    0  502  0.13571157641E+02  0.14024267142E+02  0.23415293900E+03  0.23496479573E+03  0.00000000000E+00 0. -1.
</event>
<event>
 6    1  0.1144920E-005  0.7979101E+02  0.7818608E-02  0.1203153E+00
         21   -1    0    0  503  502  0.00000000000E+00  0.00000000000E+00  0.44368412326E+02  0.44368412326E+02  0.00000000000E+00 0.  1.
         21   -1    0    0  501  503 -0.00000000000E+00 -0.00000000000E+00 -0.32971888084E+03  0.32971888084E+03  0.00000000000E+00 0. -1.
        -13    1    1    2    0    0  0.29345232744E+02 -0.89844883010E+02 -0.52540350864E+02  0.10813762213E+03  0.10566000000E+00 0.  1.
         13    1    1    2    0    0 -0.28117148631E+02  0.73308284975E+02 -0.16885533697E+03  0.18621711704E+03  0.10566000000E+00 0. -1.
          4    1    1    2  501    0 -0.11525210937E+02 -0.12367506339E+02 -0.23965339436E+02  0.29327856971E+02  0.00000000000E+00 0.  1.
         -4    1    1    2    0  502  0.10297126824E+02  0.28904104374E+02 -0.39989441248E+02  0.50404697022E+02  0.00000000000E+00 0. -1.
</event>
<event>
 6    1  0.1144920E-005  0.4910692E+02  0.7818608E-02  0.1295468E+00
         21   -1    0    0  503  502  0.00000000000E+00  0.00000000000E+00  0.55542423263E+03  0.55542423263E+03  0.00000000000E+00 0. -1.
         21   -1    0    0  501  503 -0.00000000000E+00 -0.00000000000E+00 -0.77965700263E+02  0.77965700263E+02  0.00000000000E+00 0.  1.
        -13    1    1    2    0    0 -0.16002375480E+02 -0.53984209295E+02  0.30690605445E+02  0.64127180671E+02  0.10566000000E+00 0.  1.
         13    1    1    2    0    0  0.16736983203E+02  0.37947699404E+02  0.18414296337E+01  0.41515738268E+02  0.10566000000E+00 0. -1.
          4    1    1    2  501    0  0.81764575413E+01  0.97157974208E+01 -0.40373833988E+02  0.42323724415E+02  0.00000000000E+00 0.  1.
         -4    1    1    2    0  502 -0.89110652647E+01  0.63207124698E+01  0.48530033128E+03  0.48542328954E+03  0.00000000000E+00 0. -1.
</event>
<event>
 6    1  0.1144920E-005  0.1001994E+03  0.7818608E-02  0.1182720E+00
         21   -1    0    0  501  502  0.00000000000E+00  0.00000000000E+00  0.34659170944E+03  0.34659170944E+03  0.00000000000E+00 0. -1.
         21   -1    0    0  502  503 -0.00000000000E+00 -0.00000000000E+00 -0.14507302038E+03  0.14507302038E+03  0.00000000000E+00 0. -1.
        -13    1    1    2    0    0  0.34452615349E+02  0.64849327367E+02  0.16747404490E+03  0.18286602977E+03  0.10566000000E+00 0.  1.
         13    1    1    2    0    0  0.12934075062E+02 -0.10937851048E+03 -0.88686853911E+02  0.14140833806E+03  0.10566000000E+00 0. -1.
          4    1    1    2  501    0  0.31825987493E+01 -0.18532820663E+02  0.66023151397E+02  0.68648750148E+02  0.00000000000E+00 0.  1.
         -4    1    1    2    0  503 -0.50569289160E+02  0.63062003777E+02  0.56708346668E+02  0.98741611838E+02  0.00000000000E+00 0. -1.
</event>
<event>
 6    1  0.1144920E-005  0.5772061E+02  0.7818608E-02  0.1263197E+00
         21   -1    0    0  503  502  0.00000000000E+00  0.00000000000E+00  0.70072907849E+03  0.70072907849E+03  0.00000000000E+00 0. -1.
         21   -1    0    0  501  503 -0.00000000000E+00 -0.00000000000E+00 -0.38021803925E+02  0.38021803925E+02  0.00000000000E+00 0. -1.
        -13    1    1    2    0    0 -0.63415211437E+02 -0.63921685482E+01  0.11018783851E+03  0.12729383245E+03  0.10566000000E+00 0.  1.
         13    1    1    2    0    0  0.51748019512E+02 -0.39307670498E+01  0.59341641578E+01  0.52235370405E+02  0.10566000000E+00 0. -1.
          4    1    1    2  501    0  0.40718176894E+01  0.22563417455E+02  0.14906085417E+02  0.27347374445E+02  0.00000000000E+00 0.  1.
         -4    1    1    2    0  502  0.75953742350E+01 -0.12240481857E+02  0.53167918648E+03  0.53187430512E+03  0.00000000000E+00 0. -1.
</event>
<event>
 6    1  0.1144920E-005  0.2102288E+03  0.7818608E-02  0.1053341E+00
         21   -1    0    0  501  502  0.00000000000E+00  0.00000000000E+00  0.13017497559E+04  0.13017497559E+04  0.00000000000E+00 0. -1.
         21   -1    0    0  502  503 -0.00000000000E+00 -0.00000000000E+00 -0.21345897527E+03  0.21345897527E+03  0.00000000000E+00 0. -1.
        -13    1    1    2    0    0 -0.90329938532E+02  0.19392867680E+03  0.42753828154E+03  0.47807616844E+03  0.10566000000E+00 0.  1.
         13    1    1    2    0    0  0.71664468990E+02 -0.19556907057E+03  0.38044122576E+03  0.43372640558E+03  0.10566000000E+00 0. -1.
          4    1    1    2  501    0 -0.55627499095E+01 -0.16843001925E+02  0.44024142262E+03  0.44059861676E+03  0.00000000000E+00 0.  1.
         -4    1    1    2    0  503  0.24228219451E+02  0.18483395686E+02 -0.15993014932E+03  0.16280754035E+03  0.00000000000E+00 0. -1.
</event>
<event>
 6    1  0.1144920E-005  0.7049517E+02  0.7818608E-02  0.1225434E+00
         21   -1    0    0  503  502  0.00000000000E+00  0.00000000000E+00  0.29295667718E+02  0.29295667718E+02  0.00000000000E+00 0. -1.
         21   -1    0    0  501  503 -0.00000000000E+00 -0.00000000000E+00 -0.49410401928E+03  0.49410401928E+03  0.00000000000E+00 0. -1.
        -13    1    1    2    0    0  0.88340350745E+01  0.70278125868E+02 -0.12378945140E+03  0.14262150817E+03  0.10566000000E+00 0.  1.
         13    1    1    2    0    0 -0.16096050052E+02 -0.68424847525E+02 -0.13888979249E+03  0.15566447317E+03  0.10566000000E+00 0. -1.
          4    1    1    2  501    0 -0.13834066317E+02  0.15916515528E+01 -0.20323319049E+03  0.20370970635E+03  0.00000000000E+00 0.  1.
         -4    1    1    2    0  502  0.21096081295E+02 -0.34449298963E+01  0.11040828011E+01  0.21403999318E+02  0.00000000000E+00 0. -1.
</event>
<event>
 6    1  0.1144920E-005  0.2876753E+02  0.7818608E-02  0.1415086E+00
         21   -1    0    0  501  502  0.00000000000E+00  0.00000000000E+00  0.17549738869E+03  0.17549738869E+03  0.00000000000E+00 0.  1.
         21   -1    0    0  502  503 -0.00000000000E+00 -0.00000000000E+00 -0.32032197216E+02  0.32032197216E+02  0.00000000000E+00 0. -1.
        -13    1    1    2    0    0  0.25182893548E+02 -0.20402797854E+02  0.69038227574E+02  0.76267557443E+02  0.10566000000E+00 0.  1.
         13    1    1    2    0    0 -0.10232228446E+02  0.25052975676E+02  0.89973240683E+02  0.93955017387E+02  0.10566000000E+00 0. -1.
          4    1    1    2  501    0 -0.26772845072E+01  0.12232698013E+02 -0.27387920118E+01  0.12818257865E+02  0.00000000000E+00 0.  1.
         -4    1    1    2    0  503 -0.12273380595E+02 -0.16882875835E+02 -0.12807484771E+02  0.24488753211E+02  0.00000000000E+00 0. -1.
</event>
<event>
 6    1  0.1144920E-005  0.9823850E+02  0.7818608E-02  0.1167503E+00
         21   -1    0    0  503  502  0.00000000000E+00  0.00000000000E+00  0.44959857267E+03  0.44959857267E+03  0.00000000000E+00 0. -1.
         21   -1    0    0  501  503 -0.00000000000E+00 -0.00000000000E+00 -0.42155300268E+03  0.42155300268E+03  0.00000000000E+00 0. -1.
        -13    1    1    2    0    0  0.26404632002E+02 -0.71757935273E+02  0.47169967651E+02  0.89841097935E+02  0.10566000000E+00 0.  1.
         13    1    1    2    0    0 -0.44218499144E+02  0.79191471407E+02 -0.33922159427E+03  0.35113795863E+03  0.10566000000E+00 0. -1.
          4    1    1    2  501    0 -0.10186974336E+02  0.68335616985E+01 -0.53686500121E+02  0.55070067249E+02  0.00000000000E+00 0.  1.
         -4    1    1    2    0  502  0.28000841479E+02 -0.14267097833E+02  0.37378369673E+03  0.37510245153E+03  0.00000000000E+00 0. -1.
</event>
<event>
 6    1  0.1144920E-005  0.2960235E+03  0.7818608E-02  0.1008961E+00
         21   -1    0    0  501  502  0.00000000000E+00  0.00000000000E+00  0.91723390928E+03  0.91723390928E+03  0.00000000000E+00 0. -1.
         21   -1    0    0  502  503 -0.00000000000E+00 -0.00000000000E+00 -0.21501555130E+03  0.21501555130E+03  0.00000000000E+00 0.  1.
        -13    1    1    2    0    0 -0.18639602750E+03  0.23416580123E+03  0.35744842450E+03  0.46620434241E+03  0.10566000000E+00 0.  1.
         13    1    1    2    0    0  0.13953309387E+03 -0.25371170794E+03  0.23518185112E+03  0.37302765218E+03  0.10566000000E+00 0. -1.
          4    1    1    2  501    0  0.86596900516E+01  0.51350707196E+02  0.19081143994E+03  0.19779001737E+03  0.00000000000E+00 0.  1.
         -4    1    1    2    0  503  0.38203243586E+02 -0.31804800488E+02 -0.81223357581E+02  0.95227448623E+02  0.00000000000E+00 0. -1.
</event>
<event>
 6    1  0.1144920E-005  0.4004341E+02  0.7818608E-02  0.1338643E+00
         21   -1    0    0  503  502  0.00000000000E+00  0.00000000000E+00  0.90681962940E+02  0.90681962940E+02  0.00000000000E+00 0.  1.
         21   -1    0    0  501  503 -0.00000000000E+00 -0.00000000000E+00 -0.34975628125E+03  0.34975628125E+03  0.00000000000E+00 0. -1.
        -13    1    1    2    0    0 -0.40516215977E+02 -0.22901462136E+02  0.60928222588E+02  0.76670073672E+02  0.10566000000E+00 0.  1.
         13    1    1    2    0    0  0.33356164068E+02 -0.27695877274E+02 -0.24419297847E+03  0.24801192955E+03  0.10566000000E+00 0. -1.
          4    1    1    2  501    0  0.46707783023E+01  0.14175880728E+02 -0.77777643922E+02  0.79196803335E+02  0.00000000000E+00 0.  1.
         -4    1    1    2    0  502  0.24892736066E+01  0.36421458682E+02  0.19680814942E+01  0.36559437637E+02  0.00000000000E+00 0. -1.
</event>
<event>
 6    1  0.1144920E-005  0.4976582E+02  0.7818608E-02  0.1339079E+00
         21   -1    0    0  501  502  0.00000000000E+00  0.00000000000E+00  0.47433149241E+02  0.47433149241E+02  0.00000000000E+00 0. -1.
         21   -1    0    0  502  503 -0.00000000000E+00 -0.00000000000E+00 -0.15259650954E+03  0.15259650954E+03  0.00000000000E+00 0. -1.
        -13    1    1    2    0    0 -0.20170557415E+02  0.54428776577E-01 -0.38751114893E+02  0.43686547339E+02  0.10566000000E+00 0.  1.
         13    1    1    2    0    0 -0.13732256689E+02  0.44799044697E+02 -0.95957120864E+01  0.47829051151E+02  0.10566000000E+00 0. -1.
          4    1    1    2  501    0 -0.63055979250E+01 -0.96272110556E+01  0.15050191839E+02  0.18946029460E+02  0.00000000000E+00 0.  1.
         -4    1    1    2    0  503  0.40208412029E+02 -0.35226262418E+02 -0.71866725157E+02  0.89568030830E+02  0.00000000000E+00 0. -1.
</event>
<event>
 6    1  0.1144920E-005  0.1058971E+03  0.7818608E-02  0.1155151E+00
         21   -1    0    0  503  502  0.00000000000E+00  0.00000000000E+00  0.13848495362E+04  0.13848495362E+04  0.00000000000E+00 0. -1.
         21   -1    0    0  501  503 -0.00000000000E+00 -0.00000000000E+00 -0.42826339630E+02  0.42826339630E+02  0.00000000000E+00 0. -1.
        -13    1    1    2    0    0  0.19585471666E+02 -0.11378429754E+03  0.41185755135E+03  0.42773486044E+03  0.10566000000E+00 0.  1.
         13    1    1    2    0    0  0.29043920882E+02  0.97324996279E+02  0.56436967500E+02  0.11619314397E+03  0.10566000000E+00 0. -1.
          4    1    1    2  501    0  0.95321278035E+01  0.40517651584E+01  0.27165077393E+01  0.10707832444E+02  0.00000000000E+00 0.  1.
         -4    1    1    2    0  502 -0.58161520352E+02  0.12407536105E+02  0.87101216994E+03  0.87304003894E+03  0.00000000000E+00 0. -1.
</event>
<event>
 6    1  0.1144920E-005  0.1023723E+03  0.7818608E-02  0.1183662E+00
         21   -1    0    0  503  502  0.00000000000E+00  0.00000000000E+00  0.97749015346E+02  0.97749015346E+02  0.00000000000E+00 0.  1.
         21   -1    0    0  501  503 -0.00000000000E+00 -0.00000000000E+00 -0.41222224418E+03  0.41222224418E+03  0.00000000000E+00 0.  1.
        -13    1    1    2    0    0  0.11974267413E+03  0.88007140898E+02 -0.51916322300E+02  0.15741308885E+03  0.10566000000E+00 0.  1.
         13    1    1    2    0    0 -0.55816579531E+02 -0.26832781310E+02 -0.56192517286E+01  0.62185817172E+02  0.10566000000E+00 0. -1.
          4    1    1    2  501    0 -0.84744491679E+02 -0.42340930310E+02 -0.23891678221E+03  0.25701286363E+03  0.00000000000E+00 0.  1.
         -4    1    1    2    0  502  0.20818397076E+02 -0.18833429278E+02 -0.18020872593E+02  0.33359489867E+02  0.00000000000E+00 0. -1.
</event>
<event>
 6    1  0.1144920E-005  0.3407473E+02  0.7818608E-02  0.1375875E+00
         21   -1    0    0  503  502  0.00000000000E+00  0.00000000000E+00  0.23799710745E+03  0.23799710745E+03  0.00000000000E+00 0.  1.
         21   -1    0    0  501  503 -0.00000000000E+00 -0.00000000000E+00 -0.25719220481E+02  0.25719220481E+02  0.00000000000E+00 0. -1.
        -13    1    1    2    0    0 -0.33161319710E+01  0.35653405132E+02  0.69568123165E+02  0.78242552065E+02  0.10566000000E+00 0.  1.
         13    1    1    2    0    0 -0.29310784772E+02 -0.22985060025E+02  0.67448308666E+02  0.77050117419E+02  0.10566000000E+00 0. -1.
          4    1    1    2  501    0  0.28731286316E+02 -0.21935324693E+02  0.38996394044E+01  0.36357289094E+02  0.00000000000E+00 0.  1.
         -4    1    1    2    0  502  0.38956304267E+01  0.92669795859E+01  0.71361815735E+02  0.72066369356E+02  0.00000000000E+00 0. -1.
</event>
<event>
 6    1  0.1144920E-005  0.1257766E+03  0.7818608E-02  0.1127802E+00
         21   -1    0    0  503  502  0.00000000000E+00  0.00000000000E+00  0.12732306569E+03  0.12732306569E+03  0.00000000000E+00 0.  1.
         21   -1    0    0  501  503 -0.00000000000E+00 -0.00000000000E+00 -0.24683262482E+03  0.24683262482E+03  0.00000000000E+00 0.  1.
        -13    1    1    2    0    0 -0.13476432883E+03  0.23561920724E+02 -0.87241367916E+01  0.13708650612E+03  0.10566000000E+00 0.  1.
         13    1    1    2    0    0  0.11307951402E+03 -0.37503513160E+02 -0.11596789187E+02  0.11969956839E+03  0.10566000000E+00 0. -1.
          4    1    1    2  501    0  0.33022185041E+02 -0.68119693678E+01 -0.80340285197E+02  0.87128807275E+02  0.00000000000E+00 0.  1.
         -4    1    1    2    0  502 -0.11337370232E+02  0.20753561804E+02 -0.18848347959E+02  0.30240808721E+02  0.00000000000E+00 0. -1.
</event>
<event>
 6    1  0.1144920E-005  0.3946429E+02  0.7818608E-02  0.1341835E+00
         21   -1    0    0  501  502  0.00000000000E+00  0.00000000000E+00  0.27680949744E+03  0.27680949744E+03  0.00000000000E+00 0. -1.
         21   -1    0    0  502  503 -0.00000000000E+00 -0.00000000000E+00 -0.33058228662E+02  0.33058228662E+02  0.00000000000E+00 0.  1.
        -13    1    1    2    0    0 -0.16468164219E+02  0.28343387892E+02  0.18582778607E+02  0.37681280429E+02  0.10566000000E+00 0.  1.
         13    1    1    2    0    0  0.38370356475E+02 -0.27707414072E+02  0.77147607951E+02  0.90508284854E+02  0.10566000000E+00 0. -1.
          4    1    1    2  501    0 -0.20184790336E+02 -0.12739234933E+02  0.16163110732E+03  0.16338399163E+03  0.00000000000E+00 0.  1.
         -4    1    1    2    0  503 -0.17174019201E+01  0.12103261113E+02 -0.13610225102E+02  0.18294169187E+02  0.00000000000E+00 0. -1.
</event>
<event>
 6    1  0.1144920E-005  0.1137007E+03  0.7818608E-02  0.1143686E+00
         21   -1    0    0  501  502  0.00000000000E+00  0.00000000000E+00  0.17553816802E+03  0.17553816802E+03  0.00000000000E+00 0. -1.
         21   -1    0    0  502  503 -0.00000000000E+00 -0.00000000000E+00 -0.17042034042E+03  0.17042034042E+03  0.00000000000E+00 0. -1.
        -13    1    1    2    0    0 -0.86954410535E+02 -0.54019991646E+02 -0.75055300165E+01  0.10264294011E+03  0.10566000000E+00 0.  1.
         13    1    1    2    0    0  0.11976273860E+03  0.52508820632E+02  0.85340369054E+02  0.15615146350E+03  0.10566000000E+00 0. -1.
          4    1    1    2  501    0 -0.20794999489E+02  0.13605216491E+01 -0.96542345303E+01  0.22967090962E+02  0.00000000000E+00 0.  1.
         -4    1    1    2    0  503 -0.12013328573E+02  0.15064936502E+00 -0.63062776909E+02  0.64197013872E+02  0.00000000000E+00 0. -1.
</event>
<event>
 6    1  0.1144920E-005  0.1624250E+03  0.7818608E-02  0.1089465E+00
         21   -1    0    0  501  502  0.00000000000E+00  0.00000000000E+00  0.72070409915E+02  0.72070409915E+02  0.00000000000E+00 0.  1.
         21   -1    0    0  502  503 -0.00000000000E+00 -0.00000000000E+00 -0.93854169789E+03  0.93854169789E+03  0.00000000000E+00 0.  1.
        -13    1    1    2    0    0 -0.13279538737E+03  0.11720031555E+03 -0.62354015094E+03  0.64820742041E+03  0.10566000000E+00 0.  1.
         13    1    1    2    0    0  0.52207523688E+02 -0.11235630453E+03 -0.61649579601E+02  0.13838441576E+03  0.10566000000E+00 0. -1.
          4    1    1    2  501    0  0.90224595940E+02  0.31192726937E+01 -0.76029359002E+02  0.11802826359E+03  0.00000000000E+00 0.  1.
         -4    1    1    2    0  503 -0.96367322609E+01 -0.79632837145E+01 -0.10525219843E+03  0.10599200805E+03  0.00000000000E+00 0. -1.
</event>
<event>
 6    1  0.1144920E-005  0.2146795E+03  0.7818608E-02  0.1050513E+00
         21   -1    0    0  501  502  0.00000000000E+00  0.00000000000E+00  0.60655514724E+03  0.60655514724E+03  0.00000000000E+00 0.  1.
         21   -1    0    0  502  503 -0.00000000000E+00 -0.00000000000E+00 -0.28885077498E+03  0.28885077498E+03  0.00000000000E+00 0.  1.
        -13    1    1    2    0    0 -0.15282783300E+03 -0.13786772008E+03 -0.16922575781E+03  0.26646054689E+03  0.10566000000E+00 0.  1.
         13    1    1    2    0    0  0.17698840812E+03  0.13609267163E+03  0.21601927499E+03  0.31066131109E+03  0.10566000000E+00 0. -1.
          4    1    1    2  501    0  0.32022329078E+02 -0.68102907118E+02  0.14928034524E+03  0.16717672383E+03  0.00000000000E+00 0.  1.
         -4    1    1    2    0  503 -0.56182904195E+02  0.69877955564E+02  0.12163050984E+03  0.15110734040E+03  0.00000000000E+00 0. -1.
</event>
<event>
 6    1  0.1144920E-005  0.1548459E+03  0.7818608E-02  0.1096428E+00
         21   -1    0    0  501  502  0.00000000000E+00  0.00000000000E+00  0.11924563604E+03  0.11924563604E+03  0.00000000000E+00 0. -1.
         21   -1    0    0  502  503 -0.00000000000E+00 -0.00000000000E+00 -0.54536102219E+03  0.54536102219E+03  0.00000000000E+00 0.  1.
        -13    1    1    2    0    0  0.96660083482E+02 -0.14732864741E+03 -0.56964961136E+02  0.18518617672E+03  0.10566000000E+00 0.  1.
         13    1    1    2    0    0 -0.32432776916E+02  0.14007870783E+03 -0.16796508408E+03  0.22110226150E+03  0.10566000000E+00 0. -1.
          4    1    1    2  501    0 -0.15824809466E+02  0.18257153719E+02  0.20165103481E+02  0.31470297980E+02  0.00000000000E+00 0.  1.
         -4    1    1    2    0  503 -0.48402497100E+02 -0.11007214135E+02 -0.22135044441E+03  0.22684792203E+03  0.00000000000E+00 0. -1.
</event>
<event>
 6    1  0.1144920E-005  0.6862035E+02  0.7818608E-02  0.1246918E+00
         21   -1    0    0  503  502  0.00000000000E+00  0.00000000000E+00  0.21264780493E+02  0.21264780493E+02  0.00000000000E+00 0.  1.
         21   -1    0    0  501  503 -0.00000000000E+00 -0.00000000000E+00 -0.87574625432E+03  0.87574625432E+03  0.00000000000E+00 0. -1.
        -13    1    1    2    0    0 -0.21481113624E+02  0.12723756792E+02 -0.18192280847E+01  0.25033037856E+02  0.10566000000E+00 0.  1.
         13    1    1    2    0    0 -0.74077626062E+01 -0.79305559224E+02 -0.41618398514E+03  0.42373738013E+03  0.10566000000E+00 0. -1.
          4    1    1    2  501    0  0.34017288810E+02  0.78403108617E+02 -0.32612470739E+03  0.33713728383E+03  0.00000000000E+00 0.  1.
         -4    1    1    2    0  502 -0.51284125792E+01 -0.11821306185E+02 -0.11035355321E+03  0.11110333299E+03  0.00000000000E+00 0. -1.
</event>
<event>
 6    1  0.1144920E-005  0.3096272E+03  0.7818608E-02  0.1005635E+00
         21   -1    0    0  503  502  0.00000000000E+00  0.00000000000E+00  0.59689438735E+03  0.59689438735E+03  0.00000000000E+00 0.  1.
         21   -1    0    0  501  503 -0.00000000000E+00 -0.00000000000E+00 -0.86754108866E+03  0.86754108866E+03  0.00000000000E+00 0.  1.
        -13    1    1    2    0    0 -0.24019915746E+03 -0.30412099097E+02  0.13770068755E+03  0.27853549421E+03  0.10566000000E+00 0.  1.
         13    1    1    2    0    0 -0.27700352660E+03  0.21377239603E+03 -0.24846374849E+03  0.42914314224E+03  0.10566000000E+00 0. -1.
          4    1    1    2  501    0  0.33364808524E+03 -0.52310360371E+01 -0.31394961578E+03  0.45816238363E+03  0.00000000000E+00 0.  1.
         -4    1    1    2    0  502  0.18355459882E+03 -0.17812926089E+03  0.15406597541E+03  0.29859445593E+03  0.00000000000E+00 0. -1.
</event>
<event>
 6    1  0.1144920E-005  0.1498070E+03  0.7818608E-02  0.1101302E+00
         21   -1    0    0  501  502  0.00000000000E+00  0.00000000000E+00  0.21717139019E+03  0.21717139019E+03  0.00000000000E+00 0. -1.
         21   -1    0    0  502  503 -0.00000000000E+00 -0.00000000000E+00 -0.39781345557E+03  0.39781345557E+03  0.00000000000E+00 0.  1.
        -13    1    1    2    0    0  0.95199625283E+01 -0.15774114848E+03 -0.18606163589E+03  0.24411440581E+03  0.10566000000E+00 0.  1.
         13    1    1    2    0    0  0.32385489194E+02  0.16218463949E+03  0.43620682331E+02  0.17104225293E+03  0.10566000000E+00 0. -1.
          4    1    1    2  501    0 -0.44382610335E+01 -0.22555722560E+02  0.75409483064E+02  0.78835581543E+02  0.00000000000E+00 0.  1.
         -4    1    1    2    0  503 -0.37467190689E+02  0.18112231550E+02 -0.11361059489E+03  0.12099260548E+03  0.00000000000E+00 0. -1.
</event>
<event>
 6    1  0.1144920E-005  0.5164859E+02  0.7818608E-02  0.1285218E+00
         21   -1    0    0  501  502  0.00000000000E+00  0.00000000000E+00  0.55301213351E+02  0.55301213351E+02  0.00000000000E+00 0. -1.
         21   -1    0    0  502  503 -0.00000000000E+00 -0.00000000000E+00 -0.26703601166E+03  0.26703601166E+03  0.00000000000E+00 0.  1.
        -13    1    1    2    0    0 -0.52283218502E+02  0.16948994329E+02 -0.16030639265E+03  0.16946667529E+03  0.10566000000E+00 0.  1.
         13    1    1    2    0    0  0.57011568167E+02 -0.66319322993E+01  0.26530831820E+01  0.57457388082E+02  0.10566000000E+00 0. -1.
          4    1    1    2  501    0 -0.67123248816E+01  0.10753724943E+02  0.17023732522E+02  0.21225111883E+02  0.00000000000E+00 0.  1.
         -4    1    1    2    0  503  0.19839752171E+01 -0.21070786973E+02 -0.71105221362E+02  0.74188049753E+02  0.00000000000E+00 0. -1.
</event>
<event>
 6    1  0.1144920E-005  0.3852478E+02  0.7818608E-02  0.1347149E+00
         21   -1    0    0  503  502  0.00000000000E+00  0.00000000000E+00  0.56428952138E+02  0.56428952138E+02  0.00000000000E+00 0. -1.
         21   -1    0    0  501  503 -0.00000000000E+00 -0.00000000000E+00 -0.15112256372E+03  0.15112256372E+03  0.00000000000E+00 0. -1.
        -13    1    1    2    0    0 -0.18835295899E+02  0.24373652852E+02  0.24904150240E+02  0.39611503230E+02  0.10566000000E+00 0.  1.
         13    1    1    2    0    0  0.55071375809E+02  0.87587464104E+01 -0.42672873742E+02  0.70217927836E+02  0.10566000000E+00 0. -1.
          4    1    1    2  501    0 -0.18104360665E+02 -0.28143728647E+02 -0.70168596996E+02  0.77739753933E+02  0.00000000000E+00 0.  1.
         -4    1    1    2    0  502 -0.18131719245E+02 -0.49886706156E+01 -0.67562910853E+01  0.19982330858E+02  0.00000000000E+00 0. -1.
</event>
<event>
 6    1  0.1144920E-005  0.9914481E+02  0.7818608E-02  0.1165978E+00
         21   -1    0    0  501  502  0.00000000000E+00  0.00000000000E+00  0.48139915136E+02  0.48139915136E+02  0.00000000000E+00 0.  1.
         21   -1    0    0  502  503 -0.00000000000E+00 -0.00000000000E+00 -0.58498006920E+03  0.58498006920E+03  0.00000000000E+00 0.  1.
        -13    1    1    2    0    0  0.15013039430E+02 -0.11788073890E+03 -0.32987640454E+03  0.35062759930E+03  0.10566000000E+00 0.  1.
         13    1    1    2    0    0  0.45769660618E+01  0.87378981135E+02 -0.67734047310E+02  0.11065237138E+03  0.10566000000E+00 0. -1.
          4    1    1    2  501    0 -0.13362566385E+02  0.96002415253E+01  0.11157275872E+02  0.19879829542E+02  0.00000000000E+00 0.  1.
         -4    1    1    2    0  503 -0.62274391069E+01  0.20901516235E+02 -0.15038697809E+03  0.15196018412E+03  0.00000000000E+00 0. -1.
</event>
<event>
 6    1  0.1144920E-005  0.1002788E+03  0.7818608E-02  0.1164095E+00
         21   -1    0    0  501  502  0.00000000000E+00  0.00000000000E+00  0.83973261474E+02  0.83973261474E+02  0.00000000000E+00 0. -1.
         21   -1    0    0  502  503 -0.00000000000E+00 -0.00000000000E+00 -0.44800127176E+03  0.44800127176E+03  0.00000000000E+00 0.  1.
        -13    1    1    2    0    0 -0.88480473431E+02 -0.23675100617E+02 -0.24614903346E+03  0.26263789217E+03  0.10566000000E+00 0.  1.
         13    1    1    2    0    0  0.12872039416E+03  0.37775603444E+02  0.69542122858E+01  0.13432910452E+03  0.10566000000E+00 0. -1.
          4    1    1    2  501    0 -0.32009482852E+02 -0.19811212781E+02 -0.72146511516E+02  0.81376963990E+02  0.00000000000E+00 0.  1.
         -4    1    1    2    0  503 -0.82304378806E+01  0.57107099535E+01 -0.52686677601E+02  0.53630572554E+02  0.00000000000E+00 0. -1.
</event>
<event>
 6    1  0.1144920E-005  0.2743342E+03  0.7818608E-02  0.1018501E+00
         21   -1    0    0  503  502  0.00000000000E+00  0.00000000000E+00  0.18319179556E+04  0.18319179556E+04  0.00000000000E+00 0.  1.
         21   -1    0    0  501  503 -0.00000000000E+00 -0.00000000000E+00 -0.55565760718E+02  0.55565760718E+02  0.00000000000E+00 0. -1.
        -13    1    1    2    0    0 -0.20852340878E+03  0.15367285793E+03  0.10964118437E+04  0.11265950033E+04  0.10566000000E+00 0.  1.
         13    1    1    2    0    0  0.24328308619E+03 -0.13832527802E+03  0.60817998603E+03  0.66947998412E+03  0.10566000000E+00 0. -1.
          4    1    1    2  501    0  0.13866545620E+01 -0.19412436530E+02  0.18071484320E+02  0.26558314111E+02  0.00000000000E+00 0.  1.
         -4    1    1    2    0  502 -0.36146331971E+02  0.40648566225E+01  0.53688880836E+02  0.64850414800E+02  0.00000000000E+00 0. -1.
</event>
<event>
 6    1  0.1144920E-005  0.1595777E+03  0.7818608E-02  0.1098582E+00
         21   -1    0    0  501  502  0.00000000000E+00  0.00000000000E+00  0.53353894698E+03  0.53353894698E+03  0.00000000000E+00 0.  1.
         21   -1    0    0  502  503 -0.00000000000E+00 -0.00000000000E+00 -0.49231572681E+03  0.49231572681E+03  0.00000000000E+00 0.  1.
        -13    1    1    2    0    0  0.44821664690E+02 -0.13332108997E+03 -0.14178623648E+03  0.19971690633E+03  0.10566000000E+00 0.  1.
         13    1    1    2    0    0 -0.15430499295E+03 -0.18584394062E+02 -0.79034462616E+02  0.17436131451E+03  0.10566000000E+00 0. -1.
          4    1    1    2  501    0 -0.18287469761E+02  0.25106602719E+02  0.41463376054E+03  0.41579553680E+03  0.00000000000E+00 0.  1.
         -4    1    1    2    0  503  0.12777079802E+03  0.12679888131E+03 -0.15258984126E+03  0.23598091615E+03  0.00000000000E+00 0. -1.
</event>
<event>
 6    1  0.1144920E-005  0.1056033E+03  0.7818608E-02  0.1155603E+00
         21   -1    0    0  503  502  0.00000000000E+00  0.00000000000E+00  0.28354091748E+03  0.28354091748E+03  0.00000000000E+00 0.  1.
         21   -1    0    0  501  503 -0.00000000000E+00 -0.00000000000E+00 -0.92328862737E+02  0.92328862737E+02  0.00000000000E+00 0.  1.
        -13    1    1    2    0    0  0.96718392515E+02  0.83082066216E+02  0.59014044960E+02  0.14049820584E+03  0.10566000000E+00 0.  1.
         13    1    1    2    0    0 -0.61474753691E+02 -0.63066803646E+02  0.85049375862E+02  0.12243355162E+03  0.10566000000E+00 0. -1.
          4    1    1    2  501    0 -0.41187905554E+02  0.11765341884E+02 -0.12902423827E+02  0.44736331702E+02  0.00000000000E+00 0.  1.
         -4    1    1    2    0  502  0.59442667296E+01 -0.31780604454E+02  0.60051057751E+02  0.68201691060E+02  0.00000000000E+00 0. -1.
</event>
<event>
 6    1  0.1144920E-005  0.1008241E+03  0.7818608E-02  0.1183930E+00
         21   -1    0    0  501  502  0.00000000000E+00  0.00000000000E+00  0.36039704601E+03  0.36039704601E+03  0.00000000000E+00 0.  1.
         21   -1    0    0  502  503 -0.00000000000E+00 -0.00000000000E+00 -0.12192333978E+03  0.12192333978E+03  0.00000000000E+00 0.  1.
        -13    1    1    2    0    0 -0.57052511359E+02  0.21011932317E+02 -0.31071507773E+02  0.68278401500E+02  0.10566000000E+00 0.  1.
         13    1    1    2    0    0  0.10319549836E+03  0.41924569945E+02  0.10244322111E+03  0.15133276301E+03  0.10566000000E+00 0. -1.
          4    1    1    2  501    0  0.26181141529E+01  0.29172928814E+02  0.15505281738E+03  0.15779509015E+03  0.00000000000E+00 0.  1.
         -4    1    1    2    0  503 -0.48761101152E+02 -0.92109431076E+02  0.12049175515E+02  0.10491413112E+03  0.00000000000E+00 0. -1.
</event>
<event>
 6    1  0.1144920E-005  0.6289018E+02  0.7818608E-02  0.1267998E+00
         21   -1    0    0  501  502  0.00000000000E+00  0.00000000000E+00  0.68171921379E+02  0.68171921379E+02  0.00000000000E+00 0. -1.
         21   -1    0    0  502  503 -0.00000000000E+00 -0.00000000000E+00 -0.34414647759E+03  0.34414647759E+03  0.00000000000E+00 0.  1.
        -13    1    1    2    0    0 -0.11752004320E+02 -0.74365914256E+02 -0.16591352961E+03  0.18219689701E+03  0.10566000000E+00 0.  1.
         13    1    1    2    0    0  0.48800056660E+02  0.15570931500E+02 -0.77506844170E+02  0.92904367470E+02  0.10566000000E+00 0. -1.
          4    1    1    2  501    0  0.21309822378E+02 -0.23570443484E+02 -0.24020924518E+01  0.31866038096E+02  0.00000000000E+00 0.  1.
         -4    1    1    2    0  503 -0.58357874718E+02  0.82365426240E+02 -0.30152089982E+02  0.10535109640E+03  0.00000000000E+00 0. -1.
</event>
<event>
 6    1  0.1144920E-005  0.1316242E+03  0.7818608E-02  0.1120794E+00
         21   -1    0    0  501  502  0.00000000000E+00  0.00000000000E+00  0.64254529999E+03  0.64254529999E+03  0.00000000000E+00 0.  1.
         21   -1    0    0  502  503 -0.00000000000E+00 -0.00000000000E+00 -0.12469368111E+04  0.12469368111E+04  0.00000000000E+00 0. -1.
        -13    1    1    2    0    0 -0.65616553687E+00 -0.12031821150E+03 -0.11830928951E+03  0.16874241233E+03  0.10566000000E+00 0.  1.
         13    1    1    2    0    0  0.10787044267E+03  0.58113552845E+02  0.14891850293E+03  0.19284695773E+03  0.10566000000E+00 0. -1.
          4    1    1    2  501    0 -0.22658874959E+02  0.61668802769E+02  0.44236330700E+03  0.44721556461E+03  0.00000000000E+00 0.  1.
         -4    1    1    2    0  503 -0.84555402172E+02  0.53585588946E+00 -0.10773640315E+04  0.10806771764E+04  0.00000000000E+00 0. -1.
</event>
<event>
 6    1  0.1144920E-005  0.7931396E+02  0.7818608E-02  0.1224891E+00
         21   -1    0    0  501  502  0.00000000000E+00  0.00000000000E+00  0.69415268323E+02  0.69415268323E+02  0.00000000000E+00 0.  1.
         21   -1    0    0  502  503 -0.00000000000E+00 -0.00000000000E+00 -0.22971851652E+03  0.22971851652E+03  0.00000000000E+00 0.  1.
        -13    1    1    2    0    0 -0.60112040184E+02 -0.64332473969E+02 -0.14102451958E+03  0.16625297251E+03  0.10566000000E+00 0.  1.
         13    1    1    2    0    0 -0.26209282942E+01  0.54244915713E+02 -0.81168901515E+01  0.54911521702E+02  0.10566000000E+00 0. -1.
          4    1    1    2  501    0  0.60177000108E+02  0.21870900916E+02 -0.44811073989E+01  0.64184795492E+02  0.00000000000E+00 0.  1.
         -4    1    1    2    0  503  0.25559683704E+01 -0.11783342661E+02 -0.66807310621E+01  0.13784495134E+02  0.00000000000E+00 0. -1.
</event>
<event>
 6    1  0.1144920E-005  0.3162161E+03  0.7818608E-02  0.1000827E+00
         21   -1    0    0  501  502  0.00000000000E+00  0.00000000000E+00  0.28799821935E+03  0.28799821935E+03  0.00000000000E+00 0. -1.
         21   -1    0    0  502  503 -0.00000000000E+00 -0.00000000000E+00 -0.68826800248E+03  0.68826800248E+03  0.00000000000E+00 0. -1.
        -13    1    1    2    0    0  0.24319857264E+03  0.19611711027E+03 -0.11208168540E+03  0.33191833641E+03  0.10566000000E+00 0.  1.
         13    1    1    2    0    0 -0.22663175644E+03 -0.22737449807E+03 -0.11609285345E+03  0.34137761671E+03  0.10566000000E+00 0. -1.
          4    1    1    2  501    0 -0.10267339870E+02  0.23317819093E+02  0.62844115003E+02  0.67812401120E+02  0.00000000000E+00 0.  1.
         -4    1    1    2    0  503 -0.62994763289E+01  0.79395687046E+01 -0.23493935928E+03  0.23515786759E+03  0.00000000000E+00 0. -1.
</event>
<event>
 6    1  0.1357838E-005  0.6058537E+02  0.7818608E-02  0.1253836E+00
         21   -1    0    0  503  502  0.00000000000E+00  0.00000000000E+00  0.55177827572E+03  0.55177827572E+03  0.00000000000E+00 0. -1.
         21   -1    0    0  501  503 -0.00000000000E+00 -0.00000000000E+00 -0.20943248506E+03  0.20943248506E+03  0.00000000000E+00 0.  1.
        -13    1    1    2    0    0  0.24540104542E+02  0.36073539426E+02  0.88719464795E+02  0.98866938737E+02  0.10566000000E+00 0.  1.
         13    1    1    2    0    0 -0.39512649221E+02 -0.62753472257E+02 -0.18124220383E+03  0.19582644189E+03  0.10566000000E+00 0. -1.
          4    1    1    2  501    0  0.94331132183E+01  0.89624028432E+01 -0.12924423472E+02  0.18339820387E+02  0.00000000000E+00 0.  1.
         -4    1    1    2    0  502  0.55394314611E+01  0.17717529987E+02  0.44779295317E+03  0.44817755977E+03  0.00000000000E+00 0. -1.
</event>
<event>
 6    1  0.1144920E-005  0.1918259E+03  0.7818608E-02  0.1065889E+00
         21   -1    0    0  501  502  0.00000000000E+00  0.00000000000E+00  0.21903253812E+03  0.21903253812E+03  0.00000000000E+00 0.  1.
         21   -1    0    0  502  503 -0.00000000000E+00 -0.00000000000E+00 -0.11141081671E+04  0.11141081671E+04  0.00000000000E+00 0.  1.
        -13    1    1    2    0    0  0.17282796184E+02 -0.17605634854E+03 -0.63727660226E+03  0.66137433565E+03  0.10566000000E+00 0.  1.
         13    1    1    2    0    0 -0.55348797981E+01  0.20013512827E+03 -0.41254848959E+03  0.45856403248E+03  0.10566000000E+00 0. -1.
          4    1    1    2  501    0 -0.26853734110E+02  0.60394069181E+01  0.17279961678E+03  0.17497801299E+03  0.00000000000E+00 0.  1.
         -4    1    1    2    0  503  0.15105817724E+02 -0.30118186651E+02 -0.18050153914E+02  0.38224324096E+02  0.00000000000E+00 0. -1.
</event>
<event>
 6    1  0.1144920E-005  0.1050564E+03  0.7818608E-02  0.1156450E+00
         21   -1    0    0  501  502  0.00000000000E+00  0.00000000000E+00  0.35177289968E+03  0.35177289968E+03  0.00000000000E+00 0. -1.
         21   -1    0    0  502  503 -0.00000000000E+00 -0.00000000000E+00 -0.80523465690E+02  0.80523465690E+02  0.00000000000E+00 0.  1.
        -13    1    1    2    0    0 -0.71508748424E+01  0.90010876380E+02  0.23789746729E+02  0.93375886027E+02  0.10566000000E+00 0.  1.
         13    1    1    2    0    0 -0.20224703628E+02 -0.11659633556E+03  0.93236158238E+02  0.15065436094E+03  0.10566000000E+00 0. -1.
          4    1    1    2  501    0  0.17450187057E+02 -0.27434552135E+02  0.11818043273E+03  0.12257152344E+03  0.00000000000E+00 0.  1.
         -4    1    1    2    0  503  0.99253914133E+01  0.54020011313E+02  0.36043096297E+02  0.65694594965E+02  0.00000000000E+00 0. -1.
</event>
<event>
 6    1  0.1144920E-005  0.1428884E+03  0.7818608E-02  0.1108345E+00
         21   -1    0    0  501  502  0.00000000000E+00  0.00000000000E+00  0.19746196050E+03  0.19746196050E+03  0.00000000000E+00 0. -1.
         21   -1    0    0  502  503 -0.00000000000E+00 -0.00000000000E+00 -0.49134195290E+03  0.49134195290E+03  0.00000000000E+00 0.  1.
        -13    1    1    2    0    0 -0.72550010967E+02  0.12226335478E+03 -0.28674032976E+03  0.32004977720E+03  0.10566000000E+00 0.  1.
         13    1    1    2    0    0  0.75144229973E+02 -0.12296233636E+03  0.14705483536E+03  0.20589202808E+03  0.10566000000E+00 0. -1.
          4    1    1    2  501    0 -0.22454780753E+02 -0.10485761323E+02 -0.45579356150E+02  0.51881076283E+02  0.00000000000E+00 0.  1.
         -4    1    1    2    0  503  0.19860561747E+02  0.11184742910E+02 -0.10861514185E+03  0.11098103183E+03  0.00000000000E+00 0. -1.
</event>
<event>
 6    1  0.1144920E-005  0.8220910E+02  0.7818608E-02  0.1197903E+00
         21   -1    0    0  503  502  0.00000000000E+00  0.00000000000E+00  0.16146981087E+03  0.16146981087E+03  0.00000000000E+00 0.  1.
         21   -1    0    0  501  503 -0.00000000000E+00 -0.00000000000E+00 -0.15335980353E+03  0.15335980353E+03  0.00000000000E+00 0. -1.
        -13    1    1    2    0    0  0.26471109584E+02 -0.70711759117E+02  0.25404391134E+02  0.79663459459E+02  0.10566000000E+00 0.  1.
         13    1    1    2    0    0 -0.74924518015E+02  0.78785947017E+02 -0.91625012868E+02  0.14218320222E+03  0.10566000000E+00 0. -1.
          4    1    1    2  501    0  0.32797358366E+02 -0.12030912017E+02  0.30870503247E+02  0.46619711823E+02  0.00000000000E+00 0.  1.
         -4    1    1    2    0  502  0.15656050065E+02  0.39567241171E+01  0.43460125830E+02  0.46363240897E+02  0.00000000000E+00 0. -1.
</event>
<event>
 6    1  0.1144920E-005  0.2468249E+03  0.7818608E-02  0.1064437E+00
         21   -1    0    0  503  502  0.00000000000E+00  0.00000000000E+00  0.43255601565E+03  0.43255601565E+03  0.00000000000E+00 0. -1.
         21   -1    0    0  501  503 -0.00000000000E+00 -0.00000000000E+00 -0.12939462905E+04  0.12939462905E+04  0.00000000000E+00 0.  1.
        -13    1    1    2    0    0  0.80405594979E+02 -0.43129557003E+02  0.54974424988E+02  0.10652425526E+03  0.10566000000E+00 0.  1.
         13    1    1    2    0    0  0.16002173833E+02  0.28815737568E+03 -0.29544985242E+03  0.41301497453E+03  0.10566000000E+00 0. -1.
          4    1    1    2  501    0  0.31200133395E+02 -0.35832329171E+02 -0.86194004985E+03  0.86324854687E+03  0.00000000000E+00 0.  1.
         -4    1    1    2    0  502 -0.12760790221E+03 -0.20919548951E+03  0.24102520247E+03  0.34371452946E+03  0.00000000000E+00 0. -1.
</event>
<event>
 6    1  0.1144920E-005  0.2015731E+03  0.7818608E-02  0.1067849E+00
         21   -1    0    0  501  502  0.00000000000E+00  0.00000000000E+00  0.21748597106E+03  0.21748597106E+03  0.00000000000E+00 0. -1.
         21   -1    0    0  502  503 -0.00000000000E+00 -0.00000000000E+00 -0.12339384898E+04  0.12339384898E+04  0.00000000000E+00 0. -1.
        -13    1    1    2    0    0  0.95508310836E+02 -0.12046319977E+03 -0.27758724562E+03  0.31731358312E+03  0.10566000000E+00 0.  1.
         13    1    1    2    0    0 -0.37004357409E+01 -0.45119570462E+02  0.14706419427E+03  0.15387448542E+03  0.10566000000E+00 0. -1.
          4    1    1    2  501    0  0.18504913299E+01 -0.27980310295E+02  0.29022188167E+02  0.40356034101E+02  0.00000000000E+00 0.  1.
         -4    1    1    2    0  503 -0.93658366425E+02  0.19356308053E+03 -0.91495165561E+03  0.93988035826E+03  0.00000000000E+00 0. -1.
</event>
<event>
 6    1  0.1144920E-005  0.2895130E+03  0.7818608E-02  0.1011731E+00
         21   -1    0    0  503  502  0.00000000000E+00  0.00000000000E+00  0.46306965724E+03  0.46306965724E+03  0.00000000000E+00 0. -1.
         21   -1    0    0  501  503 -0.00000000000E+00 -0.00000000000E+00 -0.67775294021E+03  0.67775294021E+03  0.00000000000E+00 0. -1.
        -13    1    1    2    0    0  0.91945880916E+02  0.26311343247E+03  0.12846933391E+03  0.30689917609E+03  0.10566000000E+00 0.  1.
         13    1    1    2    0    0 -0.54560899008E+02 -0.23656937918E+03 -0.37011523100E+03  0.44263671137E+03  0.10566000000E+00 0. -1.
          4    1    1    2  501    0 -0.18359386928E+02 -0.63454391473E+02 -0.17398001795E+03  0.18609828997E+03  0.00000000000E+00 0.  1.
         -4    1    1    2    0  502 -0.19025594980E+02  0.36910338181E+02  0.20094263207E+03  0.20518842002E+03  0.00000000000E+00 0. -1.
</event>
<event>
 6    1  0.1144920E-005  0.8698663E+02  0.7818608E-02  0.1196291E+00
         21   -1    0    0  503  502  0.00000000000E+00  0.00000000000E+00  0.99613215757E+03  0.99613215757E+03  0.00000000000E+00 0.  1.
         21   -1    0    0  501  503 -0.00000000000E+00 -0.00000000000E+00 -0.33152725585E+02  0.33152725585E+02  0.00000000000E+00 0. -1.
        -13    1    1    2    0    0  0.72608659316E+02 -0.68190568652E+01  0.37032061108E+03  0.37743328297E+03  0.10566000000E+00 0.  1.
         13    1    1    2    0    0  0.26152604599E+02 -0.46282162514E+02  0.20282383900E+02  0.56898010114E+02  0.10566000000E+00 0. -1.
          4    1    1    2  501    0 -0.50870047468E+01  0.24469657539E+02  0.15241780891E+02  0.29273770548E+02  0.00000000000E+00 0.  1.
         -4    1    1    2    0  502 -0.93674259168E+02  0.28631561840E+02  0.55713465612E+03  0.56567981952E+03  0.00000000000E+00 0. -1.
</event>
<event>
 6    1  0.1144920E-005  0.4264423E+02  0.7818608E-02  0.1325025E+00
         21   -1    0    0  503  502  0.00000000000E+00  0.00000000000E+00  0.58652632941E+02  0.58652632941E+02  0.00000000000E+00 0. -1.
         21   -1    0    0  501  503 -0.00000000000E+00 -0.00000000000E+00 -0.50407785141E+03  0.50407785141E+03  0.00000000000E+00 0. -1.
        -13    1    1    2    0    0 -0.45828896400E+02  0.72374660411E+01 -0.17934883133E+03  0.18525302460E+03  0.10566000000E+00 0.  1.
         13    1    1    2    0    0  0.39138475797E+02  0.14834695870E+02 -0.13723451601E+03  0.14347547538E+03  0.10566000000E+00 0. -1.
          4    1    1    2  501    0  0.26715042621E+01 -0.12833848542E+02 -0.18069971327E+03  0.18117458701E+03  0.00000000000E+00 0.  1.
         -4    1    1    2    0  502  0.40189163410E+01 -0.92383133686E+01  0.51857842125E+02  0.52827397365E+02  0.00000000000E+00 0. -1.
</event>
<event>
 6    1  0.1144920E-005  0.2606957E+03  0.7818608E-02  0.1024995E+00
         21   -1    0    0  501  502  0.00000000000E+00  0.00000000000E+00  0.30696927106E+03  0.30696927106E+03  0.00000000000E+00 0. -1.
         21   -1    0    0  502  503 -0.00000000000E+00 -0.00000000000E+00 -0.36401818211E+03  0.36401818211E+03  0.00000000000E+00 0.  1.
        -13    1    1    2    0    0  0.16633531377E+03 -0.17461404806E+03 -0.15468474643E+03  0.28650459740E+03  0.10566000000E+00 0.  1.
         13    1    1    2    0    0 -0.20670503969E+03  0.18600665096E+03  0.48901000796E+02  0.28234157801E+03  0.10566000000E+00 0. -1.
          4    1    1    2  501    0  0.16496745395E+02 -0.26229825485E+01  0.68135767334E+02  0.70153442085E+02  0.00000000000E+00 0.  1.
         -4    1    1    2    0  503  0.23872980519E+02 -0.87696203507E+01 -0.19400932750E+02  0.31987835680E+02  0.00000000000E+00 0. -1.
</event>
<event>
 6    1  0.1144920E-005  0.6435930E+02  0.7818608E-02  0.1250653E+00
         21   -1    0    0  501  502  0.00000000000E+00  0.00000000000E+00  0.11745511555E+03  0.11745511555E+03  0.00000000000E+00 0. -1.
         21   -1    0    0  502  503 -0.00000000000E+00 -0.00000000000E+00 -0.31836174598E+03  0.31836174598E+03  0.00000000000E+00 0.  1.
        -13    1    1    2    0    0  0.45178409738E+02  0.22906097353E+02 -0.21294836442E+03  0.21888991543E+03  0.10566000000E+00 0.  1.
         13    1    1    2    0    0 -0.78437426175E+02 -0.67550076178E+02  0.46512765767E+02  0.11348520238E+03  0.10566000000E+00 0. -1.
          4    1    1    2  501    0  0.26280685583E+02  0.60205287733E+02 -0.79795235078E+00  0.65696178227E+02  0.00000000000E+00 0.  1.
         -4    1    1    2    0  503  0.69783308543E+01 -0.15561308907E+02 -0.33673079423E+02  0.37745565491E+02  0.00000000000E+00 0. -1.
</event>
<event>
 6    1  0.1144920E-005  0.2104068E+03  0.7818608E-02  0.1053227E+00
         21   -1    0    0  503  502  0.00000000000E+00  0.00000000000E+00  0.63378580373E+03  0.63378580373E+03  0.00000000000E+00 0. -1.
         21   -1    0    0  501  503 -0.00000000000E+00 -0.00000000000E+00 -0.31279262097E+03  0.31279262097E+03  0.00000000000E+00 0. -1.
        -13    1    1    2    0    0  0.42323537725E+02  0.23796710365E+03 -0.12594527247E+03  0.27254696309E+03  0.10566000000E+00 0.  1.
         13    1    1    2    0    0  0.36801262728E+02 -0.19469648167E+03 -0.12205238407E+02  0.19851960085E+03  0.10566000000E+00 0. -1.
          4    1    1    2  501    0  0.89262436540E+01 -0.60231742387E+01  0.58680759009E+01  0.12263391393E+02  0.00000000000E+00 0.  1.
         -4    1    1    2    0  502 -0.88051044107E+02 -0.37247447739E+02  0.45327561774E+03  0.46324846936E+03  0.00000000000E+00 0. -1.
</event>
<event>
 6    1  0.1144920E-005  0.1828871E+03  0.7818608E-02  0.1072546E+00
         21   -1    0    0  501  502  0.00000000000E+00  0.00000000000E+00  0.25255123665E+03  0.25255123665E+03  0.00000000000E+00 0.  1.
         21   -1    0    0  502  503 -0.00000000000E+00 -0.00000000000E+00 -0.24119121620E+03  0.24119121620E+03  0.00000000000E+00 0.  1.
        -13    1    1    2    0    0 -0.98053992538E+02  0.17372901510E+03 -0.62886362103E+02  0.20916754491E+03  0.10566000000E+00 0.  1.
         13    1    1    2    0    0  0.74427106690E+02 -0.13884357708E+03  0.33503314845E+02  0.16105718356E+03  0.10566000000E+00 0. -1.
          4    1    1    2  501    0  0.21141394861E+02 -0.53879219683E+02  0.68572026772E+02  0.89733225430E+02  0.00000000000E+00 0.  1.
         -4    1    1    2    0  503  0.24854909869E+01  0.18993781660E+02 -0.27828959059E+02  0.33784498953E+02  0.00000000000E+00 0. -1.
</event>
<event>
 6    1  0.1144920E-005  0.1204117E+03  0.7818608E-02  0.1134607E+00
         21   -1    0    0  501  502  0.00000000000E+00  0.00000000000E+00  0.59933693516E+03  0.59933693516E+03  0.00000000000E+00 0. -1.
         21   -1    0    0  502  503 -0.00000000000E+00 -0.00000000000E+00 -0.10237187010E+03  0.10237187010E+03  0.00000000000E+00 0.  1.
        -13    1    1    2    0    0  0.10571175885E+03 -0.58228893555E+02  0.92183306157E+02  0.15186623424E+03  0.10566000000E+00 0.  1.
         13    1    1    2    0    0 -0.54602779519E+02  0.14748343296E+03  0.14944292524E+03  0.21694705713E+03  0.10566000000E+00 0. -1.
          4    1    1    2  501    0 -0.29676994122E+02 -0.11660103320E+03  0.26968381868E+03  0.29530642895E+03  0.00000000000E+00 0.  1.
         -4    1    1    2    0  503 -0.21431985204E+02  0.27346493791E+02 -0.14344985012E+02  0.37589084951E+02  0.00000000000E+00 0. -1.
</event>
<event>
 6    1  0.1144920E-005  0.3570860E+03  0.7818608E-02  0.9861895E-01
         21   -1    0    0  501  502  0.00000000000E+00  0.00000000000E+00  0.18111864618E+03  0.18111864618E+03  0.00000000000E+00 0.  1.
         21   -1    0    0  502  503 -0.00000000000E+00 -0.00000000000E+00 -0.15026362251E+04  0.15026362251E+04  0.00000000000E+00 0. -1.
        -13    1    1    2    0    0 -0.35578890455E+03 -0.10332200184E+03 -0.88267881731E+03  0.95727900132E+03  0.10566000000E+00 0.  1.
         13    1    1    2    0    0  0.26659649744E+03  0.15912253817E+03 -0.12800415376E+03  0.33582547423E+03  0.10566000000E+00 0. -1.
          4    1    1    2  501    0 -0.24677969511E+02  0.34874462580E+02 -0.20821174068E+03  0.21254966308E+03  0.00000000000E+00 0.  1.
         -4    1    1    2    0  503  0.11387037662E+03 -0.90674998907E+02 -0.10262286713E+03  0.17810073261E+03  0.00000000000E+00 0. -1.
</event>
<event>
 6    1  0.1144920E-005  0.1253819E+03  0.7818608E-02  0.1139762E+00
         21   -1    0    0  501  502  0.00000000000E+00  0.00000000000E+00  0.23123116062E+03  0.23123116062E+03  0.00000000000E+00 0. -1.
         21   -1    0    0  502  503 -0.00000000000E+00 -0.00000000000E+00 -0.84773989686E+03  0.84773989686E+03  0.00000000000E+00 0. -1.
        -13    1    1    2    0    0  0.72872791006E+02 -0.58644933127E+02 -0.52029962054E+02  0.10703644223E+03  0.10566000000E+00 0.  1.
         13    1    1    2    0    0 -0.99369634724E+02  0.19181061606E+03  0.10300495485E+02  0.21626776946E+03  0.10566000000E+00 0. -1.
          4    1    1    2  501    0 -0.16789633980E+02 -0.20146465724E+02  0.82897708200E+02  0.86947121373E+02  0.00000000000E+00 0.  1.
         -4    1    1    2    0  503  0.43286477699E+02 -0.11301921720E+03 -0.65767697787E+03  0.66871972442E+03  0.00000000000E+00 0. -1.
</event>
<event>
 6    1  0.1144920E-005  0.4520766E+02  0.7818608E-02  0.1312634E+00
         21   -1    0    0  501  502  0.00000000000E+00  0.00000000000E+00  0.40895802060E+03  0.40895802060E+03  0.00000000000E+00 0. -1.
         21   -1    0    0  502  503 -0.00000000000E+00 -0.00000000000E+00 -0.11082202746E+03  0.11082202746E+03  0.00000000000E+00 0. -1.
        -13    1    1    2    0    0 -0.49428723888E+02 -0.16872445242E+01  0.19175745852E+03  0.19803277406E+03  0.10566000000E+00 0.  1.
         13    1    1    2    0    0  0.38848064900E+02 -0.25915063152E+02  0.18230371821E+03  0.18818984957E+03  0.10566000000E+00 0. -1.
          4    1    1    2  501    0  0.33811854734E+02  0.23464566822E+02  0.11719155162E+02  0.42792125612E+02  0.00000000000E+00 0.  1.
         -4    1    1    2    0  503 -0.23231195746E+02  0.41377408545E+01 -0.87644338745E+02  0.90765298817E+02  0.00000000000E+00 0. -1.
</event>
<event>
 6    1  0.1144920E-005  0.2485664E+03  0.7818608E-02  0.1031138E+00
         21   -1    0    0  501  502  0.00000000000E+00  0.00000000000E+00  0.11702999415E+04  0.11702999415E+04  0.00000000000E+00 0. -1.
         21   -1    0    0  502  503 -0.00000000000E+00 -0.00000000000E+00 -0.11697104226E+03  0.11697104226E+03  0.00000000000E+00 0.  1.
        -13    1    1    2    0    0  0.86602643482E+02 -0.23668442284E+03  0.14152692064E+03  0.28904915551E+03  0.10566000000E+00 0.  1.
         13    1    1    2    0    0 -0.14135254863E+03  0.18201079795E+03  0.81984481095E+03  0.85161845845E+03  0.10566000000E+00 0. -1.
          4    1    1    2  501    0  0.39321464337E+02  0.53654470778E+02  0.10637536861E+03  0.12546194179E+03  0.00000000000E+00 0.  1.
         -4    1    1    2    0  503  0.15428440807E+02  0.10191541150E+01 -0.14418200927E+02  0.21141428022E+02  0.00000000000E+00 0. -1.
</event>
<event>
 6    1  0.1144920E-005  0.7674783E+02  0.7818608E-02  0.1210059E+00
         21   -1    0    0  503  502  0.00000000000E+00  0.00000000000E+00  0.32267865763E+02  0.32267865763E+02  0.00000000000E+00 0.  1.
         21   -1    0    0  501  503 -0.00000000000E+00 -0.00000000000E+00 -0.50650745217E+03  0.50650745217E+03  0.00000000000E+00 0. -1.
        -13    1    1    2    0    0  0.56547228972E+02 -0.15908234321E+02 -0.10743802600E+03  0.12244836307E+03  0.10566000000E+00 0.  1.
         13    1    1    2    0    0 -0.10015315327E+03  0.95652853119E+01 -0.22376178143E+03  0.24533954998E+03  0.10566000000E+00 0. -1.
          4    1    1    2  501    0  0.10127035957E+02 -0.25298158276E+01 -0.13503742858E+03  0.13544025968E+03  0.00000000000E+00 0.  1.
         -4    1    1    2    0  502  0.33478888340E+02  0.88727648371E+01 -0.80023504058E+01  0.35547145207E+02  0.00000000000E+00 0. -1.
</event>
<event>
 6    1  0.1144920E-005  0.7950373E+02  0.7818608E-02  0.1261081E+00
         21   -1    0    0  503  502  0.00000000000E+00  0.00000000000E+00  0.76397466436E+02  0.76397466436E+02  0.00000000000E+00 0.  1.
         21   -1    0    0  501  503 -0.00000000000E+00 -0.00000000000E+00 -0.21397592670E+03  0.21397592670E+03  0.00000000000E+00 0.  1.
        -13    1    1    2    0    0  0.44694284918E+02  0.53550286440E+02 -0.62925962998E+02  0.93940940305E+02  0.10566000000E+00 0.  1.
         13    1    1    2    0    0  0.22715296437E+02 -0.25927328419E+01 -0.39147649741E+02  0.45334937963E+02  0.10566000000E+00 0. -1.
          4    1    1    2  501    0 -0.71536577627E+02 -0.63638667653E+02 -0.67023370245E+02  0.11687383847E+03  0.00000000000E+00 0.  1.
         -4    1    1    2    0  502  0.41269962726E+01  0.12681114055E+02  0.31518522720E+02  0.34223676400E+02  0.00000000000E+00 0. -1.
</event>
<event>
 6    1  0.1144920E-005  0.3793389E+02  0.7818608E-02  0.1350580E+00
         21   -1    0    0  503  502  0.00000000000E+00  0.00000000000E+00  0.17667056642E+03  0.17667056642E+03  0.00000000000E+00 0. -1.
         21   -1    0    0  501  503 -0.00000000000E+00 -0.00000000000E+00 -0.32960467641E+02  0.32960467641E+02  0.00000000000E+00 0. -1.
        -13    1    1    2    0    0  0.97209085508E+01  0.37839356730E+02  0.74625101973E+02  0.84233188170E+02  0.10566000000E+00 0.  1.
         13    1    1    2    0    0 -0.33773623568E+02 -0.14788277926E+02  0.66864581379E+01  0.37470931392E+02  0.10566000000E+00 0. -1.
          4    1    1    2  501    0  0.92597520616E+01 -0.21057658062E+02 -0.77220098987E+00  0.23016608475E+02  0.00000000000E+00 0.  1.
         -4    1    1    2    0  502  0.14792962955E+02 -0.19934207418E+01  0.63170739662E+02  0.64910306028E+02  0.00000000000E+00 0. -1.
</event>
<event>
 6    1  0.1144920E-005  0.7438629E+03  0.7818608E-02  0.9275989E-01
         21   -1    0    0  503  502  0.00000000000E+00  0.00000000000E+00  0.11731083439E+04  0.11731083439E+04  0.00000000000E+00 0. -1.
         21   -1    0    0  501  503 -0.00000000000E+00 -0.00000000000E+00 -0.14347256646E+04  0.14347256646E+04  0.00000000000E+00 0. -1.
        -13    1    1    2    0    0  0.20998502305E+03  0.24479049642E+03 -0.31837946496E+03  0.45319045876E+03  0.10566000000E+00 0.  1.
         13    1    1    2    0    0  0.58453249120E+03 -0.24029753573E+03 -0.50685694955E+03  0.81013894945E+03  0.10566000000E+00 0. -1.
          4    1    1    2  501    0 -0.12914057755E+02  0.10560597614E+02 -0.22995071223E+03  0.23055504585E+03  0.00000000000E+00 0.  1.
         -4    1    1    2    0  502 -0.78160345649E+03 -0.15053558304E+02  0.79356980599E+03  0.11139495544E+04  0.00000000000E+00 0. -1.
</event>
<event>
 6    1  0.1144920E-005  0.1560557E+03  0.7818608E-02  0.1112777E+00
         21   -1    0    0  503  502  0.00000000000E+00  0.00000000000E+00  0.39186692658E+03  0.39186692658E+03  0.00000000000E+00 0.  1.
         21   -1    0    0  501  503 -0.00000000000E+00 -0.00000000000E+00 -0.23251814953E+03  0.23251814953E+03  0.00000000000E+00 0. -1.
        -13    1    1    2    0    0 -0.34331505989E+02 -0.15556947345E+03  0.22286403569E+03  0.27395054835E+03  0.10566000000E+00 0.  1.
         13    1    1    2    0    0 -0.74064125867E+02  0.70244491356E+02 -0.26297740734E+02  0.10541046266E+03  0.10566000000E+00 0. -1.
          4    1    1    2  501    0  0.93869418507E+02  0.12666097121E+03 -0.85893687070E+02  0.17953326944E+03  0.00000000000E+00 0.  1.
         -4    1    1    2    0  502  0.14526213349E+02 -0.41335989118E+02  0.48676169172E+02  0.65490795657E+02  0.00000000000E+00 0. -1.
</event>
<event>
 6    1  0.1144920E-005  0.9745014E+02  0.7818608E-02  0.1168845E+00
         21   -1    0    0  501  502  0.00000000000E+00  0.00000000000E+00  0.32770663415E+03  0.32770663415E+03  0.00000000000E+00 0. -1.
         21   -1    0    0  502  503 -0.00000000000E+00 -0.00000000000E+00 -0.31028471673E+03  0.31028471673E+03  0.00000000000E+00 0.  1.
        -13    1    1    2    0    0 -0.85960895746E+02  0.22684719797E+02 -0.20466709514E+03  0.22314233822E+03  0.10566000000E+00 0.  1.
         13    1    1    2    0    0  0.84910790695E+02 -0.57033004649E+02  0.24649716465E+03  0.26687725520E+03  0.10566000000E+00 0. -1.
          4    1    1    2  501    0  0.45242968939E+01  0.17391321162E+02  0.59573528309E+02  0.62224855077E+02  0.00000000000E+00 0.  1.
         -4    1    1    2    0  503 -0.34741918432E+01  0.16956963690E+02 -0.83981680393E+02  0.85746902382E+02  0.00000000000E+00 0. -1.
</event>
<event>
 6    1  0.1144920E-005  0.2436029E+02  0.7818608E-02  0.1491884E+00
         21   -1    0    0  501  502  0.00000000000E+00  0.00000000000E+00  0.13611826990E+03  0.13611826990E+03  0.00000000000E+00 0. -1.
         21   -1    0    0  502  503 -0.00000000000E+00 -0.00000000000E+00 -0.24208529307E+03  0.24208529307E+03  0.00000000000E+00 0.  1.
        -13    1    1    2    0    0  0.20940443475E+02 -0.69540789105E+01 -0.54316189564E+02  0.58626964779E+02  0.10566000000E+00 0.  1.
         13    1    1    2    0    0 -0.20163791467E+00  0.29331715097E+02  0.12346426586E+03  0.12690085215E+03  0.10566000000E+00 0. -1.
          4    1    1    2  501    0  0.13038662890E+01 -0.45174153872E+02 -0.74038241858E+02  0.86741371345E+02  0.00000000000E+00 0.  1.
         -4    1    1    2    0  503 -0.22042671849E+02  0.22796517686E+02 -0.10107685760E+03  0.10593437470E+03  0.00000000000E+00 0. -1.
</event>
<event>
 6    1  0.1144920E-005  0.3288490E+02  0.7818608E-02  0.1390094E+00
         21   -1    0    0  501  502  0.00000000000E+00  0.00000000000E+00  0.43881565470E+02  0.43881565470E+02  0.00000000000E+00 0. -1.
         21   -1    0    0  502  503 -0.00000000000E+00 -0.00000000000E+00 -0.25053071007E+03  0.25053071007E+03  0.00000000000E+00 0. -1.
        -13    1    1    2    0    0  0.42933344315E+01 -0.30365581920E+02 -0.58934360943E+02  0.66436220164E+02  0.10566000000E+00 0.  1.
         13    1    1    2    0    0 -0.10393279759E+02 -0.19495256586E+02  0.28057281398E+02  0.35711447702E+02  0.10566000000E+00 0. -1.
          4    1    1    2  501    0  0.11092127471E+02  0.16557809365E+02 -0.85514958832E+01  0.21686964395E+02  0.00000000000E+00 0.  1.
         -4    1    1    2    0  503 -0.49921821436E+01  0.33303029141E+02 -0.16722056917E+03  0.17057764327E+03  0.00000000000E+00 0. -1.
</event>
<event>
 6    1  0.1144920E-005  0.1697352E+03  0.7818608E-02  0.1083127E+00
         21   -1    0    0  501  502  0.00000000000E+00  0.00000000000E+00  0.36000690945E+03  0.36000690945E+03  0.00000000000E+00 0. -1.
         21   -1    0    0  502  503 -0.00000000000E+00 -0.00000000000E+00 -0.30220026425E+03  0.30220026425E+03  0.00000000000E+00 0.  1.
        -13    1    1    2    0    0 -0.38162744752E+02  0.15191966255E+03 -0.11028811447E+03  0.19157102681E+03  0.10566000000E+00 0.  1.
         13    1    1    2    0    0 -0.43132909075E+02 -0.13393110293E+03  0.21480800812E+03  0.25678878421E+03  0.10566000000E+00 0. -1.
          4    1    1    2  501    0  0.38314727474E+02 -0.53623265223E+02  0.62729480101E+02  0.90986046119E+02  0.00000000000E+00 0.  1.
         -4    1    1    2    0  503  0.42980926353E+02  0.35634705606E+02 -0.10944272855E+03  0.12286131656E+03  0.00000000000E+00 0. -1.
</event>
<event>
 6    1  0.1144920E-005  0.6444083E+03  0.7818608E-02  0.9207775E-01
         21   -1    0    0  501  502  0.00000000000E+00  0.00000000000E+00  0.75254047633E+03  0.75254047633E+03  0.00000000000E+00 0.  1.
         21   -1    0    0  502  503 -0.00000000000E+00 -0.00000000000E+00 -0.11420221252E+04  0.11420221252E+04  0.00000000000E+00 0. -1.
        -13    1    1    2    0    0 -0.30550625395E+03  0.58679393309E+03 -0.61469827647E+03  0.90305878733E+03  0.10566000000E+00 0.  1.
         13    1    1    2    0    0  0.42939888555E+03 -0.52707949571E+03  0.74947382587E+02  0.68396879975E+03  0.10566000000E+00 0. -1.
          4    1    1    2  501    0 -0.10885209377E+03 -0.14445461904E+03  0.86963170207E+02  0.20069506285E+03  0.00000000000E+00 0.  1.
         -4    1    1    2    0  503 -0.15040537828E+02  0.84740181655E+02  0.63306074764E+02  0.10683995164E+03  0.00000000000E+00 0. -1.
</event>
<event>
 6    1  0.1144920E-005  0.1173926E+03  0.7818608E-02  0.1138609E+00
         21   -1    0    0  501  502  0.00000000000E+00  0.00000000000E+00  0.68589025252E+03  0.68589025252E+03  0.00000000000E+00 0. -1.
         21   -1    0    0  502  503 -0.00000000000E+00 -0.00000000000E+00 -0.23895061790E+03  0.23895061790E+03  0.00000000000E+00 0. -1.
        -13    1    1    2    0    0 -0.49208776271E+02  0.13058539227E+03  0.34162154597E+02  0.14367015107E+03  0.10566000000E+00 0.  1.
         13    1    1    2    0    0  0.25540307855E+01 -0.13269434330E+03  0.45243952419E+03  0.47150381338E+03  0.10566000000E+00 0. -1.
          4    1    1    2  501    0 -0.11536289766E+01  0.21508584035E+02  0.13028866734E+03  0.13205713492E+03  0.00000000000E+00 0.  1.
         -4    1    1    2    0  503  0.47808374463E+02 -0.19399633009E+02 -0.16995071151E+03  0.17760977105E+03  0.00000000000E+00 0. -1.
</event>
<event>
 6    1  0.1144920E-005  0.5268270E+02  0.7818608E-02  0.1281236E+00
         21   -1    0    0  501  502  0.00000000000E+00  0.00000000000E+00  0.24673968890E+02  0.24673968890E+02  0.00000000000E+00 0.  1.
         21   -1    0    0  502  503 -0.00000000000E+00 -0.00000000000E+00 -0.37787364173E+03  0.37787364173E+03  0.00000000000E+00 0.  1.
        -13    1    1    2    0    0 -0.38005318729E+02 -0.47649605455E+02 -0.13590108499E+03  0.14894295961E+03  0.10566000000E+00 0.  1.
         13    1    1    2    0    0  0.37902876571E+02  0.25676842637E+02 -0.15108200207E+03  0.15786611674E+03  0.10566000000E+00 0. -1.
          4    1    1    2  501    0 -0.82750097096E+01  0.15571228428E+02  0.89924925802E+01  0.19794036053E+02  0.00000000000E+00 0.  1.
         -4    1    1    2    0  503  0.83774518670E+01  0.64015343902E+01 -0.75209078361E+02  0.75944498222E+02  0.00000000000E+00 0. -1.
</event>
<event>
 6    1  0.1144920E-005  0.1920813E+03  0.7818608E-02  0.1089239E+00
         21   -1    0    0  503  502  0.00000000000E+00  0.00000000000E+00  0.38551466835E+03  0.38551466835E+03  0.00000000000E+00 0.  1.
         21   -1    0    0  501  503 -0.00000000000E+00 -0.00000000000E+00 -0.48198661479E+03  0.48198661479E+03  0.00000000000E+00 0. -1.
        -13    1    1    2    0    0  0.41703842476E+02 -0.70991111348E+02 -0.41751401318E+01  0.82440228814E+02  0.10566000000E+00 0.  1.
         13    1    1    2    0    0 -0.22365196509E+03  0.13946003858E+03 -0.36439692742E+03  0.44972706804E+03  0.10566000000E+00 0. -1.
          4    1    1    2  501    0  0.17243746095E+03 -0.64826150099E+02  0.24611479433E+03  0.30742413644E+03  0.00000000000E+00 0.  1.
         -4    1    1    2    0  502  0.95106616598E+01 -0.36427771316E+01  0.25985326782E+02  0.27909849845E+02  0.00000000000E+00 0. -1.
</event>
<event>
 6    1  0.1144920E-005  0.1207460E+03  0.7818608E-02  0.1157773E+00
         21   -1    0    0  501  502  0.00000000000E+00  0.00000000000E+00  0.41705129300E+03  0.41705129300E+03  0.00000000000E+00 0.  1.
         21   -1    0    0  502  503 -0.00000000000E+00 -0.00000000000E+00 -0.38871205542E+03  0.38871205542E+03  0.00000000000E+00 0.  1.
        -13    1    1    2    0    0  0.66695137895E+02  0.37553154352E+00 -0.14569375504E+03  0.16023440287E+03  0.10566000000E+00 0.  1.
         13    1    1    2    0    0 -0.13173260330E+03 -0.69217152716E+02  0.10598978066E+03  0.18269739399E+03  0.10566000000E+00 0. -1.
          4    1    1    2  501    0  0.66336884447E+01 -0.35827343343E+02  0.24577432912E+03  0.24846051036E+03  0.00000000000E+00 0.  1.
         -4    1    1    2    0  503  0.58403776964E+02  0.10466896452E+03 -0.17773111716E+03  0.21437104120E+03  0.00000000000E+00 0. -1.
</event>
<event>
 6    1  0.1144920E-005  0.9327971E+02  0.7818608E-02  0.1195977E+00
         21   -1    0    0  501  502  0.00000000000E+00  0.00000000000E+00  0.50791248355E+03  0.50791248355E+03  0.00000000000E+00 0.  1.
         21   -1    0    0  502  503 -0.00000000000E+00 -0.00000000000E+00 -0.19236475491E+03  0.19236475491E+03  0.00000000000E+00 0.  1.
        -13    1    1    2    0    0  0.72812301962E+02  0.37799012250E+02 -0.14766810161E+03  0.16892683636E+03  0.10566000000E+00 0.  1.
         13    1    1    2    0    0  0.12099631042E+02 -0.56090908207E+02  0.33928856152E+02  0.66661604381E+02  0.10566000000E+00 0. -1.
          4    1    1    2  501    0 -0.88309533193E+02  0.33622503002E+02  0.43706661212E+03  0.44716470096E+03  0.00000000000E+00 0.  1.
         -4    1    1    2    0  503  0.33976001893E+01 -0.15330607045E+02 -0.77796380187E+01  0.17524096756E+02  0.00000000000E+00 0. -1.
</event>
<event>
 6    1  0.1144920E-005  0.1512179E+03  0.7818608E-02  0.1099917E+00
         21   -1    0    0  503  502  0.00000000000E+00  0.00000000000E+00  0.68187367066E+03  0.68187367066E+03  0.00000000000E+00 0.  1.
         21   -1    0    0  501  503 -0.00000000000E+00 -0.00000000000E+00 -0.14491411316E+03  0.14491411316E+03  0.00000000000E+00 0. -1.
        -13    1    1    2    0    0 -0.12488680621E+03 -0.12974641103E+03  0.18925720226E+03  0.26124537376E+03  0.10566000000E+00 0.  1.
         13    1    1    2    0    0  0.13847893912E+02  0.12453699494E+03 -0.97208145193E+01  0.12568107524E+03  0.10566000000E+00 0. -1.
          4    1    1    2  501    0  0.83267899127E+02  0.95917618534E+01  0.25304282008E+01  0.83856711046E+02  0.00000000000E+00 0.  1.
         -4    1    1    2    0  502  0.27771013170E+02 -0.43823457689E+01  0.35489274156E+03  0.35600462376E+03  0.00000000000E+00 0. -1.
</event>
<event>
 6    1  0.1144920E-005  0.1012769E+03  0.7818608E-02  0.1162460E+00
         21   -1    0    0  501  502  0.00000000000E+00  0.00000000000E+00  0.38129029283E+03  0.38129029283E+03  0.00000000000E+00 0. -1.
         21   -1    0    0  502  503 -0.00000000000E+00 -0.00000000000E+00 -0.82716463455E+02  0.82716463455E+02  0.00000000000E+00 0. -1.
        -13    1    1    2    0    0 -0.33938494880E+01 -0.87382962471E+02  0.44168346814E+02  0.97970170812E+02  0.10566000000E+00 0.  1.
         13    1    1    2    0    0  0.54835850006E+02  0.11085268884E+03  0.66790465529E+02  0.14055698673E+03  0.10566000000E+00 0. -1.
          4    1    1    2  501    0  0.41532248883E+01 -0.10022350444E+02  0.16274851090E+03  0.16310970108E+03  0.00000000000E+00 0.  1.
         -4    1    1    2    0  503 -0.55595225406E+02 -0.13447375927E+02  0.24866506130E+02  0.62369897662E+02  0.00000000000E+00 0. -1.
</event>
<event>
 6    1  0.1144920E-005  0.4234612E+02  0.7818608E-02  0.1362047E+00
         21   -1    0    0  501  502  0.00000000000E+00  0.00000000000E+00  0.13085105112E+02  0.13085105112E+02  0.00000000000E+00 0. -1.
         21   -1    0    0  502  503 -0.00000000000E+00 -0.00000000000E+00 -0.82224844737E+03  0.82224844737E+03  0.00000000000E+00 0.  1.
        -13    1    1    2    0    0  0.38547048090E+02  0.48462477418E+02 -0.28961831663E+03  0.29616425700E+03  0.10566000000E+00 0.  1.
         13    1    1    2    0    0 -0.13754527600E+02 -0.14582658930E+02 -0.36239060671E+02  0.41414027253E+02  0.10566000000E+00 0. -1.
          4    1    1    2  501    0 -0.66873031366E+01  0.29944140734E+02 -0.45046037682E+02  0.54502450389E+02  0.00000000000E+00 0.  1.
         -4    1    1    2    0  503 -0.18105217354E+02 -0.63823959222E+02 -0.43825992727E+03  0.44325281784E+03  0.00000000000E+00 0. -1.
</event>
<event>
 6    1  0.1144920E-005  0.6394569E+02  0.7818608E-02  0.1243568E+00
         21   -1    0    0  503  502  0.00000000000E+00  0.00000000000E+00  0.34416991839E+02  0.34416991839E+02  0.00000000000E+00 0.  1.
         21   -1    0    0  501  503 -0.00000000000E+00 -0.00000000000E+00 -0.31948723722E+03  0.31948723722E+03  0.00000000000E+00 0.  1.
        -13    1    1    2    0    0 -0.67212984364E+02  0.19847858295E+02 -0.21664511567E+02  0.73354515686E+02  0.10566000000E+00 0.  1.
         13    1    1    2    0    0  0.42525488791E+02 -0.10015123988E+02 -0.11555394218E+03  0.12353721959E+03  0.10566000000E+00 0. -1.
          4    1    1    2  501    0  0.32521400066E+02 -0.23010486168E+01 -0.13962940082E+03  0.14338516611E+03  0.00000000000E+00 0.  1.
         -4    1    1    2    0  502 -0.78339044931E+01 -0.75316856902E+01 -0.82223908097E+01  0.13627327675E+02  0.00000000000E+00 0. -1.
</event>
<event>
 6    1  0.1144920E-005  0.9155010E+02  0.7818608E-02  0.1180205E+00
         21   -1    0    0  503  502  0.00000000000E+00  0.00000000000E+00  0.49477429490E+03  0.49477429490E+03  0.00000000000E+00 0.  1.
         21   -1    0    0  501  503 -0.00000000000E+00 -0.00000000000E+00 -0.36160080494E+03  0.36160080494E+03  0.00000000000E+00 0. -1.
        -13    1    1    2    0    0 -0.50382114318E+02  0.58198393768E+02  0.37281451114E+03  0.38067844877E+03  0.10566000000E+00 0.  1.
         13    1    1    2    0    0  0.31060535394E+02  0.86020515107E+02 -0.12793632060E+03  0.15726410643E+03  0.10566000000E+00 0. -1.
          4    1    1    2  501    0  0.13183722415E+02 -0.91325035365E+02 -0.19719483622E+03  0.21771512592E+03  0.00000000000E+00 0.  1.
         -4    1    1    2    0  502  0.61378565087E+01 -0.52893873511E+02  0.85490135659E+02  0.10071741871E+03  0.00000000000E+00 0. -1.
</event>
<event>
 6    1  0.1144920E-005  0.1031315E+03  0.7818608E-02  0.1159476E+00
         21   -1    0    0  501  502  0.00000000000E+00  0.00000000000E+00  0.20239652159E+03  0.20239652159E+03  0.00000000000E+00 0. -1.
         21   -1    0    0  502  503 -0.00000000000E+00 -0.00000000000E+00 -0.99703112756E+02  0.99703112756E+02  0.00000000000E+00 0.  1.
        -13    1    1    2    0    0  0.10429267289E+03 -0.11881927968E+01 -0.34740595370E+01  0.10435733646E+03  0.10566000000E+00 0.  1.
         13    1    1    2    0    0 -0.10297929253E+03  0.21294043176E+02  0.73151984559E+02  0.12809916071E+03  0.10566000000E+00 0. -1.
          4    1    1    2  501    0 -0.26379007378E+01  0.19962835279E+02  0.50424438833E+01  0.20758120170E+02  0.00000000000E+00 0.  1.
         -4    1    1    2    0  503  0.13245203863E+01 -0.40068685658E+02  0.27973039931E+02  0.48885017005E+02  0.00000000000E+00 0. -1.
</event>
<event>
 6    1  0.1144920E-005  0.1625299E+03  0.7818608E-02  0.1133565E+00
         21   -1    0    0  503  502  0.00000000000E+00  0.00000000000E+00  0.78387193464E+03  0.78387193464E+03  0.00000000000E+00 0.  1.
         21   -1    0    0  501  503 -0.00000000000E+00 -0.00000000000E+00 -0.23361166721E+03  0.23361166721E+03  0.00000000000E+00 0.  1.
        -13    1    1    2    0    0 -0.20952575598E+03 -0.77835583976E+02  0.48893215185E+03  0.53760029839E+03  0.10566000000E+00 0.  1.
         13    1    1    2    0    0  0.48478031175E+02 -0.12363992142E+02 -0.10024686526E+03  0.11203764084E+03  0.10566000000E+00 0. -1.
          4    1    1    2  501    0  0.13324066832E+03  0.80867020897E+02 -0.42597630515E+02  0.16157694418E+03  0.00000000000E+00 0.  1.
         -4    1    1    2    0  502  0.27807056486E+02  0.93325552211E+01  0.20417261136E+03  0.20626871844E+03  0.00000000000E+00 0. -1.
</event>
<event>
 6    1  0.1144920E-005  0.6570127E+02  0.7818608E-02  0.1238479E+00
         21   -1    0    0  503  502  0.00000000000E+00  0.00000000000E+00  0.46753747188E+02  0.46753747188E+02  0.00000000000E+00 0.  1.
         21   -1    0    0  501  503 -0.00000000000E+00 -0.00000000000E+00 -0.30804880439E+03  0.30804880439E+03  0.00000000000E+00 0. -1.
        -13    1    1    2    0    0 -0.39311003985E+02 -0.86507482485E+02 -0.98042356904E+02  0.13653283294E+03  0.10566000000E+00 0.  1.
         13    1    1    2    0    0  0.46379293324E+02  0.20612729014E+02 -0.33118231302E+02  0.60603233043E+02  0.10566000000E+00 0. -1.
          4    1    1    2  501    0 -0.22771398275E+02  0.32885631860E+02 -0.10743049517E+03  0.11463556453E+03  0.00000000000E+00 0.  1.
         -4    1    1    2    0  502  0.15703108936E+02  0.33009121611E+02 -0.22703973819E+02  0.43030921057E+02  0.00000000000E+00 0. -1.
</event>
<event>
 6    1  0.1144920E-005  0.3745873E+02  0.7818608E-02  0.1370306E+00
         21   -1    0    0  501  502  0.00000000000E+00  0.00000000000E+00  0.61256445738E+02  0.61256445738E+02  0.00000000000E+00 0. -1.
         21   -1    0    0  502  503 -0.00000000000E+00 -0.00000000000E+00 -0.18988998131E+03  0.18988998131E+03  0.00000000000E+00 0. -1.
        -13    1    1    2    0    0  0.20248621459E+02  0.22480659788E+02 -0.13112185123E+02  0.32974646295E+02  0.10566000000E+00 0.  1.
         13    1    1    2    0    0 -0.27121479100E+02 -0.45524188885E+02 -0.22976149141E+02  0.57757605522E+02  0.10566000000E+00 0. -1.
          4    1    1    2  501    0  0.16770147314E+01 -0.12249180419E+02  0.30177472813E+02  0.32611879196E+02  0.00000000000E+00 0.  1.
         -4    1    1    2    0  503  0.51958429092E+01  0.35292709516E+02 -0.12272267412E+03  0.12780229604E+03  0.00000000000E+00 0. -1.
</event>
<event>
 6    1  0.1144920E-005  0.2836425E+02  0.7818608E-02  0.1469413E+00
         21   -1    0    0  501  502  0.00000000000E+00  0.00000000000E+00  0.37170969041E+03  0.37170969041E+03  0.00000000000E+00 0. -1.
         21   -1    0    0  502  503 -0.00000000000E+00 -0.00000000000E+00 -0.61793106424E+02  0.61793106424E+02  0.00000000000E+00 0.  1.
        -13    1    1    2    0    0 -0.15580200252E+02 -0.89326092981E+01 -0.23963671403E+02  0.29946666925E+02  0.10566000000E+00 0.  1.
         13    1    1    2    0    0  0.54456467976E+02 -0.21455764964E+02  0.33350217276E+03  0.33859941990E+03  0.10566000000E+00 0. -1.
          4    1    1    2  501    0 -0.34428881022E+02  0.19297336499E+02  0.18229745692E+02  0.43474805029E+02  0.00000000000E+00 0.  1.
         -4    1    1    2    0  503 -0.44473867022E+01  0.11091037763E+02 -0.17851663068E+02  0.21481904977E+02  0.00000000000E+00 0. -1.
</event>
<event>
 6    1  0.1144920E-005  0.4138779E+02  0.7818608E-02  0.1331462E+00
         21   -1    0    0  503  502  0.00000000000E+00  0.00000000000E+00  0.92920781826E+02  0.92920781826E+02  0.00000000000E+00 0. -1.
         21   -1    0    0  501  503 -0.00000000000E+00 -0.00000000000E+00 -0.59701473977E+02  0.59701473977E+02  0.00000000000E+00 0.  1.
        -13    1    1    2    0    0  0.24706684638E+02  0.24929290306E+02  0.18824222331E+02  0.39827782908E+02  0.10566000000E+00 0.  1.
         13    1    1    2    0    0 -0.10463446168E+02 -0.52632636013E+02  0.28920195787E+01  0.53740608675E+02  0.10566000000E+00 0. -1.
          4    1    1    2  501    0  0.87878931510E+01  0.10147992576E+02 -0.14765569753E+02  0.19955722725E+02  0.00000000000E+00 0.  1.
         -4    1    1    2    0  502 -0.23031131620E+02  0.17555353132E+02  0.26268635691E+02  0.39098141495E+02  0.00000000000E+00 0. -1.
</event>
<event>
 6    1  0.1144920E-005  0.4318317E+02  0.7818608E-02  0.1322340E+00
         21   -1    0    0  501  502  0.00000000000E+00  0.00000000000E+00  0.55393158251E+02  0.55393158251E+02  0.00000000000E+00 0. -1.
         21   -1    0    0  502  503 -0.00000000000E+00 -0.00000000000E+00 -0.49213225168E+03  0.49213225168E+03  0.00000000000E+00 0.  1.
        -13    1    1    2    0    0 -0.52666466519E+02 -0.30189468345E+02 -0.17974402873E+03  0.18971844328E+03  0.10566000000E+00 0.  1.
         13    1    1    2    0    0  0.53797138388E+02 -0.11827276935E+02 -0.55892449444E+01  0.55364857098E+02  0.10566000000E+00 0. -1.
          4    1    1    2  501    0 -0.18403762624E+02  0.27212035236E+02  0.14253866161E+02  0.35810138801E+02  0.00000000000E+00 0.  1.
         -4    1    1    2    0  503  0.17273090755E+02  0.14804710045E+02 -0.26565968592E+03  0.26663197075E+03  0.00000000000E+00 0. -1.
</event>
<event>
 6    1  0.1144920E-005  0.6123580E+02  0.7818608E-02  0.1251792E+00
         21   -1    0    0  501  502  0.00000000000E+00  0.00000000000E+00  0.44511622222E+02  0.44511622222E+02  0.00000000000E+00 0. -1.
         21   -1    0    0  502  503 -0.00000000000E+00 -0.00000000000E+00 -0.49147839952E+03  0.49147839952E+03  0.00000000000E+00 0.  1.
        -13    1    1    2    0    0 -0.64083404948E+02 -0.34668783631E+02 -0.31290318890E+03  0.32127406390E+03  0.10566000000E+00 0.  1.
         13    1    1    2    0    0  0.32847686743E+01  0.63126711604E+02  0.56663027153E-01  0.63212228231E+02  0.10566000000E+00 0. -1.
          4    1    1    2  501    0  0.10907170920E+02 -0.17570238020E+01 -0.92456646752E+01  0.14406103755E+02  0.00000000000E+00 0.  1.
         -4    1    1    2    0  503  0.49891465353E+02 -0.26700904171E+02 -0.12487458675E+03  0.13709762585E+03  0.00000000000E+00 0. -1.
</event>
<event>
 6    1  0.1144920E-005  0.1300150E+03  0.7818608E-02  0.1133078E+00
         21   -1    0    0  503  502  0.00000000000E+00  0.00000000000E+00  0.79519297913E+03  0.79519297913E+03  0.00000000000E+00 0.  1.
         21   -1    0    0  501  503 -0.00000000000E+00 -0.00000000000E+00 -0.21661137310E+03  0.21661137310E+03  0.00000000000E+00 0.  1.
        -13    1    1    2    0    0 -0.15316159206E+03 -0.19940442160E+03  0.61229113811E+03  0.66190712763E+03  0.10566000000E+00 0.  1.
         13    1    1    2    0    0  0.41882568986E+02  0.22196414633E+02 -0.25035228198E+02  0.53606009201E+02  0.10566000000E+00 0. -1.
          4    1    1    2  501    0  0.28584100941E+02  0.12195703817E+03 -0.10075532959E+03  0.16075511322E+03  0.00000000000E+00 0.  1.
         -4    1    1    2    0  502  0.82694922134E+02  0.55250968805E+02  0.92081025711E+02  0.13553610219E+03  0.00000000000E+00 0. -1.
</event>
<event>
 6    1  0.1144920E-005  0.2832663E+03  0.7818608E-02  0.1014462E+00
         21   -1    0    0  501  502  0.00000000000E+00  0.00000000000E+00  0.10930441106E+03  0.10930441106E+03  0.00000000000E+00 0. -1.
         21   -1    0    0  502  503 -0.00000000000E+00 -0.00000000000E+00 -0.20291199123E+04  0.20291199123E+04  0.00000000000E+00 0. -1.
        -13    1    1    2    0    0 -0.15993642315E+03  0.20685866507E+03 -0.30224470784E+03  0.39965240065E+03  0.10566000000E+00 0.  1.
         13    1    1    2    0    0  0.20309396749E+03 -0.25088640987E+03 -0.51702480812E+03  0.60951276743E+03  0.10566000000E+00 0. -1.
          4    1    1    2  501    0  0.10939833944E+02 -0.88189828672E+00  0.10972335597E+02  0.15519338251E+02  0.00000000000E+00 0.  1.
         -4    1    1    2    0  503 -0.54097378281E+02  0.44909643086E+02 -0.11115183208E+04  0.11137398170E+04  0.00000000000E+00 0. -1.
</event>
<event>
 6    1  0.1144920E-005  0.6670839E+02  0.7818608E-02  0.1237671E+00
         21   -1    0    0  501  502  0.00000000000E+00  0.00000000000E+00  0.30061124442E+03  0.30061124442E+03  0.00000000000E+00 0. -1.
         21   -1    0    0  502  503 -0.00000000000E+00 -0.00000000000E+00 -0.22763350855E+03  0.22763350855E+03  0.00000000000E+00 0.  1.
        -13    1    1    2    0    0 -0.20091024297E+02 -0.91012899783E+02 -0.10500487246E+03  0.14040310391E+03  0.10566000000E+00 0.  1.
         13    1    1    2    0    0  0.45857332722E+02  0.22364806801E+02  0.93645583836E+02  0.10664232782E+03  0.10566000000E+00 0. -1.
          4    1    1    2  501    0  0.11221520123E+02  0.13684088210E+02  0.17111216087E+03  0.17202484815E+03  0.00000000000E+00 0.  1.
         -4    1    1    2    0  503 -0.36987828549E+02  0.54964004772E+02 -0.86775136380E+02  0.10917447309E+03  0.00000000000E+00 0. -1.
</event>
<event>
 6    1  0.1144920E-005  0.6115996E+03  0.7818608E-02  0.9262141E-01
         21   -1    0    0  503  502  0.00000000000E+00  0.00000000000E+00  0.87546351484E+03  0.87546351484E+03  0.00000000000E+00 0.  1.
         21   -1    0    0  501  503 -0.00000000000E+00 -0.00000000000E+00 -0.14796822149E+04  0.14796822149E+04  0.00000000000E+00 0.  1.
        -13    1    1    2    0    0  0.36865913857E+03 -0.51679459382E+03  0.35825243844E+03  0.72892457324E+03  0.10566000000E+00 0.  1.
         13    1    1    2    0    0 -0.32688291152E+03  0.51312676966E+03 -0.89874654758E+01  0.60846717683E+03  0.10566000000E+00 0. -1.
          4    1    1    2  501    0 -0.11325332627E+01 -0.25486659891E+02 -0.96588400259E+03  0.96622086446E+03  0.00000000000E+00 0.  1.
         -4    1    1    2    0  502 -0.40643693796E+02  0.29154484058E+02  0.12400329598E+02  0.51533115181E+02  0.00000000000E+00 0. -1.
</event>
<event>
 6    1  0.1144920E-005  0.7731924E+02  0.7818608E-02  0.1221761E+00
         21   -1    0    0  503  502  0.00000000000E+00  0.00000000000E+00  0.57151814654E+02  0.57151814654E+02  0.00000000000E+00 0. -1.
         21   -1    0    0  501  503 -0.00000000000E+00 -0.00000000000E+00 -0.53492663252E+03  0.53492663252E+03  0.00000000000E+00 0. -1.
        -13    1    1    2    0    0 -0.51258098193E+02  0.29554922045E+02 -0.29798110102E+02  0.66248204331E+02  0.10566000000E+00 0.  1.
         13    1    1    2    0    0  0.11243799453E+03 -0.29976168752E+02 -0.35367315959E+03  0.37232457384E+03  0.10566000000E+00 0. -1.
          4    1    1    2  501    0  0.11327977529E+02 -0.44387496296E+01 -0.78111100666E+02  0.79052954533E+02  0.00000000000E+00 0.  1.
         -4    1    1    2    0  502 -0.72507873862E+02  0.48599963360E+01 -0.16192447515E+02  0.74452714477E+02  0.00000000000E+00 0. -1.
</event>
<event>
 6    1  0.1144920E-005  0.1183099E+03  0.7818608E-02  0.1137379E+00
         21   -1    0    0  503  502  0.00000000000E+00  0.00000000000E+00  0.91249445355E+03  0.91249445355E+03  0.00000000000E+00 0.  1.
         21   -1    0    0  501  503 -0.00000000000E+00 -0.00000000000E+00 -0.13343468434E+03  0.13343468434E+03  0.00000000000E+00 0.  1.
        -13    1    1    2    0    0 -0.10133795295E+03  0.16468220961E+03  0.22199282401E+02  0.19463409304E+03  0.10566000000E+00 0.  1.
         13    1    1    2    0    0  0.29503069135E+02 -0.89752504540E+02  0.43697556569E+03  0.44707225293E+03  0.10566000000E+00 0. -1.
          4    1    1    2  501    0  0.47999491678E+02 -0.59929669304E+02 -0.60994695588E+01  0.77024152011E+02  0.00000000000E+00 0.  1.
         -4    1    1    2    0  502  0.23835392133E+02 -0.15000035771E+02  0.32598439068E+03  0.32719863991E+03  0.00000000000E+00 0. -1.
</event>
<event>
 6    1  0.1144920E-005  0.2279238E+03  0.7818608E-02  0.1069863E+00
         21   -1    0    0  501  502  0.00000000000E+00  0.00000000000E+00  0.10467431516E+04  0.10467431516E+04  0.00000000000E+00 0.  1.
         21   -1    0    0  502  503 -0.00000000000E+00 -0.00000000000E+00 -0.13939772915E+03  0.13939772915E+03  0.00000000000E+00 0. -1.
        -13    1    1    2    0    0 -0.18109784126E+01 -0.26101315783E+03  0.31632586899E+03  0.41011366078E+03  0.10566000000E+00 0.  1.
         13    1    1    2    0    0  0.27814750738E+01  0.10613208493E+03  0.27642134671E+03  0.29610898017E+03  0.10566000000E+00 0. -1.
          4    1    1    2  501    0  0.88071180606E+02  0.19447151828E+03  0.31730149524E+03  0.38243423377E+03  0.00000000000E+00 0.  1.
         -4    1    1    2    0  503 -0.89041677267E+02 -0.39590445384E+02 -0.27032885210E+01  0.97484005996E+02  0.00000000000E+00 0. -1.
</event>
<event>
 6    1  0.1144920E-005  0.9712204E+02  0.7818608E-02  0.1169407E+00
         21   -1    0    0  501  502  0.00000000000E+00  0.00000000000E+00  0.63506721650E+02  0.63506721650E+02  0.00000000000E+00 0. -1.
         21   -1    0    0  502  503 -0.00000000000E+00 -0.00000000000E+00 -0.54045537208E+03  0.54045537208E+03  0.00000000000E+00 0.  1.
        -13    1    1    2    0    0 -0.69376167106E+02  0.46637060832E+02 -0.22882561833E+03  0.24361700017E+03  0.10566000000E+00 0.  1.
         13    1    1    2    0    0  0.87599626470E+02 -0.62757334816E+02 -0.31166866550E+02  0.11217647866E+03  0.10566000000E+00 0. -1.
          4    1    1    2  501    0 -0.11489051336E+02 -0.62491153110E+00  0.13082830529E+02  0.17422665401E+02  0.00000000000E+00 0.  1.
         -4    1    1    2    0  503 -0.67344080278E+01  0.16745185515E+02 -0.23003899608E+03  0.23074594949E+03  0.00000000000E+00 0. -1.
</event>
<event>
 6    1  0.1144920E-005  0.8144720E+02  0.7818608E-02  0.1199535E+00
         21   -1    0    0  501  502  0.00000000000E+00  0.00000000000E+00  0.41727827573E+02  0.41727827573E+02  0.00000000000E+00 0. -1.
         21   -1    0    0  502  503 -0.00000000000E+00 -0.00000000000E+00 -0.46795670317E+03  0.46795670317E+03  0.00000000000E+00 0.  1.
        -13    1    1    2    0    0 -0.44048317488E+02  0.64222874016E+02 -0.14597176967E+03  0.16544666973E+03  0.10566000000E+00 0.  1.
         13    1    1    2    0    0  0.90559062203E+02 -0.59090566840E+02 -0.90606808459E+02  0.14107531230E+03  0.10566000000E+00 0. -1.
          4    1    1    2  501    0 -0.52244282764E+02  0.99483357992E+01 -0.16763021649E+03  0.17586450451E+03  0.00000000000E+00 0.  1.
         -4    1    1    2    0  503  0.57335380489E+01 -0.15080642975E+02 -0.22020080979E+02  0.27298044205E+02  0.00000000000E+00 0. -1.
</event>
<event>
 6    1  0.1144920E-005  0.5882869E+02  0.7818608E-02  0.1259505E+00
         21   -1    0    0  503  502  0.00000000000E+00  0.00000000000E+00  0.43786792507E+02  0.43786792507E+02  0.00000000000E+00 0.  1.
         21   -1    0    0  501  503 -0.00000000000E+00 -0.00000000000E+00 -0.62005985967E+03  0.62005985967E+03  0.00000000000E+00 0.  1.
        -13    1    1    2    0    0  0.27499788427E+02  0.45372768300E+02  0.11170021514E+02  0.54219065018E+02  0.10566000000E+00 0.  1.
         13    1    1    2    0    0 -0.13711697831E+02 -0.46443088508E+02 -0.25917864680E+03  0.26366371242E+03  0.10566000000E+00 0. -1.
          4    1    1    2  501    0 -0.45186560131E+01 -0.11780324172E+02 -0.32980315808E+03  0.33004441727E+03  0.00000000000E+00 0.  1.
         -4    1    1    2    0  502 -0.92694345830E+01  0.12850644380E+02  0.15387162057E+01  0.15919457466E+02  0.00000000000E+00 0. -1.
</event>
<event>
 6    1  0.1144920E-005  0.3226368E+02  0.7818608E-02  0.1387603E+00
         21   -1    0    0  501  502  0.00000000000E+00  0.00000000000E+00  0.79260069634E+03  0.79260069634E+03  0.00000000000E+00 0. -1.
         21   -1    0    0  502  503 -0.00000000000E+00 -0.00000000000E+00 -0.44257137074E+01  0.44257137074E+01  0.00000000000E+00 0.  1.
        -13    1    1    2    0    0 -0.33542742637E+02  0.26637448355E+02  0.20022504360E+03  0.20475533812E+03  0.10566000000E+00 0.  1.
         13    1    1    2    0    0  0.29646931660E+02  0.26936179606E+01  0.15464942532E+03  0.15748857752E+03  0.10566000000E+00 0. -1.
          4    1    1    2  501    0 -0.62246610420E+01 -0.15473317312E+02  0.28598515878E+03  0.28647108230E+03  0.00000000000E+00 0.  1.
         -4    1    1    2    0  503  0.10120472019E+02 -0.13857749004E+02  0.14731535493E+03  0.14831141210E+03  0.00000000000E+00 0. -1.
</event>
<event>
 6    1  0.1144920E-005  0.2277055E+02  0.7818608E-02  0.1480978E+00
         21   -1    0    0  501  502  0.00000000000E+00  0.00000000000E+00  0.17500691030E+03  0.17500691030E+03  0.00000000000E+00 0. -1.
         21   -1    0    0  502  503 -0.00000000000E+00 -0.00000000000E+00 -0.35752486735E+02  0.35752486735E+02  0.00000000000E+00 0.  1.
        -13    1    1    2    0    0 -0.29244138932E+02 -0.23423040803E+02 -0.13142019149E+02  0.39706200192E+02  0.10566000000E+00 0.  1.
         13    1    1    2    0    0  0.21897520805E+02  0.94336365486E+01  0.38533232417E+02  0.45313530877E+02  0.10566000000E+00 0. -1.
          4    1    1    2  501    0 -0.44255962915E+01 -0.14036204054E+02  0.74844416286E+02  0.76277700385E+02  0.00000000000E+00 0.  1.
         -4    1    1    2    0  503  0.11772214418E+02  0.28025608309E+02  0.39018794014E+02  0.49461965586E+02  0.00000000000E+00 0. -1.
</event>
<event>
 6    1  0.1144920E-005  0.7095296E+02  0.7818608E-02  0.1226104E+00
         21   -1    0    0  503  502  0.00000000000E+00  0.00000000000E+00  0.68256792601E+03  0.68256792601E+03  0.00000000000E+00 0. -1.
         21   -1    0    0  501  503 -0.00000000000E+00 -0.00000000000E+00 -0.11108316015E+04  0.11108316015E+04  0.00000000000E+00 0.  1.
        -13    1    1    2    0    0  0.33869839682E+02 -0.71368116357E+02  0.88194617347E+02  0.11840133346E+03  0.10566000000E+00 0.  1.
         13    1    1    2    0    0  0.22393799587E+02  0.12492730829E+02 -0.11872603515E+02  0.28258104355E+02  0.10566000000E+00 0. -1.
          4    1    1    2  501    0  0.20006685528E+02  0.44082501568E+02 -0.10724719747E+04  0.10735640041E+04  0.00000000000E+00 0.  1.
         -4    1    1    2    0  502 -0.76270324797E+02  0.14792883959E+02  0.56788628543E+03  0.57317608554E+03  0.00000000000E+00 0. -1.
</event>
<event>
 6    1  0.1144920E-005  0.2904990E+03  0.7818608E-02  0.1029394E+00
         21   -1    0    0  501  502  0.00000000000E+00  0.00000000000E+00  0.10184769763E+04  0.10184769763E+04  0.00000000000E+00 0. -1.
         21   -1    0    0  502  503 -0.00000000000E+00 -0.00000000000E+00 -0.35070331051E+03  0.35070331051E+03  0.00000000000E+00 0. -1.
        -13    1    1    2    0    0 -0.15155270344E+03 -0.50917837424E+02  0.15483889678E+03  0.22256671631E+03  0.10566000000E+00 0.  1.
         13    1    1    2    0    0  0.38188763335E+03  0.19390575580E+03  0.61889851876E+03  0.75264400239E+03  0.10566000000E+00 0. -1.
          4    1    1    2  501    0 -0.40343793212E+02  0.57687417115E+02  0.40495385114E+02  0.81211673789E+02  0.00000000000E+00 0.  1.
         -4    1    1    2    0  503 -0.18999113670E+03 -0.20067533550E+03 -0.14645913484E+03  0.31275789435E+03  0.00000000000E+00 0. -1.
</event>
<event>
 6    1  0.1144920E-005  0.7114021E+02  0.7818608E-02  0.1223767E+00
         21   -1    0    0  501  502  0.00000000000E+00  0.00000000000E+00  0.50041205425E+02  0.50041205425E+02  0.00000000000E+00 0. -1.
         21   -1    0    0  502  503 -0.00000000000E+00 -0.00000000000E+00 -0.52196927166E+03  0.52196927166E+03  0.00000000000E+00 0.  1.
        -13    1    1    2    0    0 -0.51376760531E+02 -0.70712699564E+02 -0.16318192231E+03  0.18511674245E+03  0.10566000000E+00 0.  1.
         13    1    1    2    0    0  0.76109126107E+01  0.39057516063E+02  0.19483259664E+02  0.44306028065E+02  0.10566000000E+00 0. -1.
          4    1    1    2  501    0  0.38074233033E+02 -0.94310610423E+01 -0.63569791691E+02  0.74697460125E+02  0.00000000000E+00 0.  1.
         -4    1    1    2    0  503  0.56916148870E+01  0.41086244544E+02 -0.26465961191E+03  0.26789024645E+03  0.00000000000E+00 0. -1.
</event>
<event>
 6    1  0.1144920E-005  0.7527142E+02  0.7818608E-02  0.1213539E+00
         21   -1    0    0  501  502  0.00000000000E+00  0.00000000000E+00  0.68548902922E+03  0.68548902922E+03  0.00000000000E+00 0.  1.
         21   -1    0    0  502  503 -0.00000000000E+00 -0.00000000000E+00 -0.21276741574E+02  0.21276741574E+02  0.00000000000E+00 0.  1.
        -13    1    1    2    0    0  0.67821142215E+02 -0.39113213712E+02  0.18542624619E+03  0.20127705970E+03  0.10566000000E+00 0.  1.
         13    1    1    2    0    0 -0.48279749504E+02  0.57873281593E+02  0.17198832387E+03  0.18777711694E+03  0.10566000000E+00 0. -1.
          4    1    1    2  501    0 -0.13911131598E+02 -0.29778483492E+02  0.30298702111E+03  0.30476451995E+03  0.00000000000E+00 0.  1.
         -4    1    1    2    0  503 -0.56302611134E+01  0.11018415611E+02  0.38106964674E+01  0.12947074200E+02  0.00000000000E+00 0. -1.
</event>
<event>
 6    1  0.1144920E-005  0.8554342E+02  0.7818608E-02  0.1190981E+00
         21   -1    0    0  501  502  0.00000000000E+00  0.00000000000E+00  0.45245770181E+03  0.45245770181E+03  0.00000000000E+00 0.  1.
         21   -1    0    0  502  503 -0.00000000000E+00 -0.00000000000E+00 -0.10624699300E+03  0.10624699300E+03  0.00000000000E+00 0.  1.
        -13    1    1    2    0    0  0.57300518503E+02 -0.76881479192E+02 -0.69355207929E+02  0.11833962690E+03  0.10566000000E+00 0.  1.
         13    1    1    2    0    0 -0.40555352503E+02  0.61306581856E+02  0.13610171861E+03  0.15468329763E+03  0.10566000000E+00 0. -1.
          4    1    1    2  501    0 -0.23416245841E+02  0.23529687032E+00  0.25483826544E+03  0.25591193303E+03  0.00000000000E+00 0.  1.
         -4    1    1    2    0  503  0.66710798413E+01  0.15339600466E+02  0.24625932685E+02  0.29769837240E+02  0.00000000000E+00 0. -1.
</event>
<event>
 6    1  0.1144920E-005  0.7733682E+02  0.7818608E-02  0.1214166E+00
         21   -1    0    0  503  502  0.00000000000E+00  0.00000000000E+00  0.11872237702E+04  0.11872237702E+04  0.00000000000E+00 0.  1.
         21   -1    0    0  501  503 -0.00000000000E+00 -0.00000000000E+00 -0.49773221813E+02  0.49773221813E+02  0.00000000000E+00 0. -1.
        -13    1    1    2    0    0  0.86337709340E+02  0.51659531565E+02  0.47193065586E+03  0.48253648811E+03  0.10566000000E+00 0.  1.
         13    1    1    2    0    0 -0.53417282013E+01 -0.68391382299E+02 -0.11656668923E+02  0.69583075006E+02  0.10566000000E+00 0. -1.
          4    1    1    2  501    0 -0.68892704952E+02  0.11114706600E+02  0.32312447793E+03  0.33057400039E+03  0.00000000000E+00 0.  1.
         -4    1    1    2    0  502 -0.12103276187E+02  0.56171441348E+01  0.35405208353E+03  0.35430342852E+03  0.00000000000E+00 0. -1.
</event>
<event>
 6    1  0.1144920E-005  0.9939367E+02  0.7818608E-02  0.1165563E+00
         21   -1    0    0  501  502  0.00000000000E+00  0.00000000000E+00  0.60495217797E+03  0.60495217797E+03  0.00000000000E+00 0. -1.
         21   -1    0    0  502  503 -0.00000000000E+00 -0.00000000000E+00 -0.39277942195E+02  0.39277942195E+02  0.00000000000E+00 0.  1.
        -13    1    1    2    0    0 -0.85528453395E+02 -0.41187380190E+02  0.10316321536E+03  0.14019335503E+03  0.10566000000E+00 0.  1.
         13    1    1    2    0    0  0.85084891563E+02  0.39510096901E+02  0.37955328708E+03  0.39097467364E+03  0.10566000000E+00 0. -1.
          4    1    1    2  501    0  0.59918391781E+01  0.13310433800E+02  0.94584508374E+02  0.95704226704E+02  0.00000000000E+00 0.  1.
         -4    1    1    2    0  503 -0.55482773468E+01 -0.11633150511E+02 -0.11626775039E+02  0.17357864792E+02  0.00000000000E+00 0. -1.
</event>
<event>
 6    1  0.1144920E-005  0.6840910E+02  0.7818608E-02  0.1231699E+00
         21   -1    0    0  501  502  0.00000000000E+00  0.00000000000E+00  0.39683712454E+03  0.39683712454E+03  0.00000000000E+00 0.  1.
         21   -1    0    0  502  503 -0.00000000000E+00 -0.00000000000E+00 -0.57579950892E+03  0.57579950892E+03  0.00000000000E+00 0. -1.
        -13    1    1    2    0    0 -0.10275950550E+02 -0.66082585933E+02 -0.10830411337E+03  0.12728823771E+03  0.10566000000E+00 0.  1.
         13    1    1    2    0    0 -0.46251588661E+02  0.49851752827E+02  0.41191006759E+02  0.79505452111E+02  0.10566000000E+00 0. -1.
          4    1    1    2  501    0 -0.11188452436E+02 -0.16728305441E+01  0.32410268827E+03  0.32430006533E+03  0.00000000000E+00 0.  1.
         -4    1    1    2    0  503  0.67715991647E+02  0.17903663650E+02 -0.43595196603E+03  0.44154287831E+03  0.00000000000E+00 0. -1.
</event>
<event>
 6    1  0.1144920E-005  0.2750718E+02  0.7818608E-02  0.1428906E+00
         21   -1    0    0  501  502  0.00000000000E+00  0.00000000000E+00  0.54539641436E+03  0.54539641436E+03  0.00000000000E+00 0.  1.
         21   -1    0    0  502  503 -0.00000000000E+00 -0.00000000000E+00 -0.92892246618E+02  0.92892246618E+02  0.00000000000E+00 0. -1.
        -13    1    1    2    0    0 -0.15010522871E+02 -0.24438394212E+02  0.40667638254E+02  0.49763630029E+02  0.10566000000E+00 0.  1.
         13    1    1    2    0    0  0.36219897230E+02  0.83999825061E+01  0.90965253730E+01  0.38277912683E+02  0.10566000000E+00 0. -1.
          4    1    1    2  501    0  0.24420863397E+01  0.27540355413E+02  0.47373302397E+03  0.47453915852E+03  0.00000000000E+00 0.  1.
         -4    1    1    2    0  503 -0.23651460699E+02 -0.11501943707E+02 -0.70993019853E+02  0.75707959754E+02  0.00000000000E+00 0. -1.
</event>
<event>
 6    1  0.1144920E-005  0.9354236E+02  0.7818608E-02  0.1175706E+00
         21   -1    0    0  503  502  0.00000000000E+00  0.00000000000E+00  0.61728974671E+02  0.61728974671E+02  0.00000000000E+00 0.  1.
         21   -1    0    0  501  503 -0.00000000000E+00 -0.00000000000E+00 -0.45161571524E+03  0.45161571524E+03  0.00000000000E+00 0.  1.
        -13    1    1    2    0    0  0.31645374717E+02  0.73527885749E+02 -0.46505131656E+02  0.92577093053E+02  0.10566000000E+00 0.  1.
         13    1    1    2    0    0 -0.20810327127E+02 -0.10876473194E+03 -0.65887437113E+02  0.12885651773E+03  0.10566000000E+00 0. -1.
          4    1    1    2  501    0 -0.24161674320E+01  0.20605088140E+02 -0.27385834407E+03  0.27464304131E+03  0.00000000000E+00 0.  1.
         -4    1    1    2    0  502 -0.84188801587E+01  0.14631758051E+02 -0.36358277315E+01  0.17268037818E+02  0.00000000000E+00 0. -1.
</event>
<event>
 6    1  0.1144920E-005  0.2840322E+02  0.7818608E-02  0.1418207E+00
         21   -1    0    0  503  502  0.00000000000E+00  0.00000000000E+00  0.39640153953E+02  0.39640153953E+02  0.00000000000E+00 0.  1.
         21   -1    0    0  501  503 -0.00000000000E+00 -0.00000000000E+00 -0.11463255143E+03  0.11463255143E+03  0.00000000000E+00 0. -1.
        -13    1    1    2    0    0  0.26071949432E+02  0.31699891970E+02 -0.27782842709E+02  0.49563365615E+02  0.10566000000E+00 0.  1.
         13    1    1    2    0    0 -0.72000463171E+01 -0.95265360050E+01 -0.61676826268E+02  0.62822270078E+02  0.10566000000E+00 0. -1.
          4    1    1    2  501    0 -0.25004306237E+01 -0.15797952002E+02 -0.39070670203E+01  0.16464890326E+02  0.00000000000E+00 0.  1.
         -4    1    1    2    0  502 -0.16371472491E+02 -0.63754039629E+01  0.18374338524E+02  0.25422179360E+02  0.00000000000E+00 0. -1.
</event>
<event>
 6    1  0.1144920E-005  0.4319322E+02  0.7818608E-02  0.1322291E+00
         21   -1    0    0  503  502  0.00000000000E+00  0.00000000000E+00  0.14031820406E+03  0.14031820406E+03  0.00000000000E+00 0. -1.
         21   -1    0    0  501  503 -0.00000000000E+00 -0.00000000000E+00 -0.87546510536E+02  0.87546510536E+02  0.00000000000E+00 0. -1.
        -13    1    1    2    0    0  0.97440679362E+01 -0.50674765570E+02  0.21679834535E+02  0.55972360277E+02  0.10566000000E+00 0.  1.
         13    1    1    2    0    0  0.23614017048E+00  0.37317084380E+02 -0.48431309768E+02  0.61141013066E+02  0.10566000000E+00 0. -1.
          4    1    1    2  501    0 -0.19076115539E+02  0.14992365761E+01 -0.88791107072E+01  0.21094655752E+02  0.00000000000E+00 0.  1.
         -4    1    1    2    0  502  0.90959074322E+01  0.11858444614E+02  0.88402279467E+02  0.89656685505E+02  0.00000000000E+00 0. -1.
</event>
<event>
 6    1  0.1144920E-005  0.2524365E+03  0.7818608E-02  0.1029138E+00
         21   -1    0    0  503  502  0.00000000000E+00  0.00000000000E+00  0.46286484483E+03  0.46286484483E+03  0.00000000000E+00 0.  1.
         21   -1    0    0  501  503 -0.00000000000E+00 -0.00000000000E+00 -0.66328345942E+03  0.66328345942E+03  0.00000000000E+00 0.  1.
        -13    1    1    2    0    0  0.54281102657E+02 -0.32988858102E+03  0.33233134668E+03  0.47139903388E+03  0.10566000000E+00 0.  1.
         13    1    1    2    0    0  0.33686212862E+02  0.18597678329E+03 -0.28058109616E+03  0.33830147435E+03  0.10566000000E+00 0. -1.
          4    1    1    2  501    0 -0.75837436522E+02  0.93021652140E+02 -0.10226910690E+03  0.15768105394E+03  0.00000000000E+00 0.  1.
         -4    1    1    2    0  502 -0.12129878997E+02  0.50890145585E+02 -0.14989975820E+03  0.15876674208E+03  0.00000000000E+00 0. -1.
</event>
<event>
 6    1  0.1144920E-005  0.1610050E+03  0.7818608E-02  0.1099787E+00
         21   -1    0    0  503  502  0.00000000000E+00  0.00000000000E+00  0.23579683732E+03  0.23579683732E+03  0.00000000000E+00 0.  1.
         21   -1    0    0  501  503 -0.00000000000E+00 -0.00000000000E+00 -0.37182524717E+03  0.37182524717E+03  0.00000000000E+00 0. -1.
        -13    1    1    2    0    0 -0.99689180031E+02 -0.77201199863E+02 -0.15231691324E+03  0.19773318158E+03  0.10566000000E+00 0.  1.
         13    1    1    2    0    0 -0.62375091242E+02  0.18197578725E+03 -0.25665673360E+02  0.19407363836E+03  0.10566000000E+00 0. -1.
          4    1    1    2  501    0  0.12791147045E+03 -0.11712336945E+03  0.23312355031E+02  0.17499341085E+03  0.00000000000E+00 0.  1.
         -4    1    1    2    0  502  0.34152800822E+02  0.12348782068E+02  0.18641821708E+02  0.40821853696E+02  0.00000000000E+00 0. -1.
</event>
<event>
 6    1  0.1144920E-005  0.4884507E+02  0.7818608E-02  0.1301462E+00
         21   -1    0    0  503  502  0.00000000000E+00  0.00000000000E+00  0.18400576519E+03  0.18400576519E+03  0.00000000000E+00 0.  1.
         21   -1    0    0  501  503 -0.00000000000E+00 -0.00000000000E+00 -0.11224169268E+03  0.11224169268E+03  0.00000000000E+00 0.  1.
        -13    1    1    2    0    0 -0.33250910077E+01 -0.99471254750E+02  0.89983399302E+02  0.13417380544E+03  0.10566000000E+00 0.  1.
         13    1    1    2    0    0 -0.10141504338E+02  0.42265040611E+02 -0.39845067569E+02  0.58964602447E+02  0.10566000000E+00 0. -1.
          4    1    1    2  501    0  0.90749912120E+01  0.42603685388E+02 -0.27605567588E+02  0.51570309636E+02  0.00000000000E+00 0.  1.
         -4    1    1    2    0  502  0.43916041337E+01  0.14602528751E+02  0.49231308366E+02  0.51538740343E+02  0.00000000000E+00 0. -1.
</event>
<event>
 6    1  0.1144920E-005  0.7795429E+02  0.7818608E-02  0.1207279E+00
         21   -1    0    0  501  502  0.00000000000E+00  0.00000000000E+00  0.26927181071E+03  0.26927181071E+03  0.00000000000E+00 0.  1.
         21   -1    0    0  502  503 -0.00000000000E+00 -0.00000000000E+00 -0.23379554076E+03  0.23379554076E+03  0.00000000000E+00 0.  1.
        -13    1    1    2    0    0  0.75770210592E+02 -0.33236375746E+02 -0.12712347801E+03  0.15167785373E+03  0.10566000000E+00 0.  1.
         13    1    1    2    0    0 -0.11040157534E+03 -0.92850153046E+01  0.54539456909E+02  0.12348798675E+03  0.10566000000E+00 0. -1.
          4    1    1    2  501    0  0.61136079450E+02 -0.44243563752E+02  0.11429835838E+03  0.13696433065E+03  0.00000000000E+00 0.  1.
         -4    1    1    2    0  503 -0.26504714698E+02  0.86764954803E+02 -0.62380673263E+01  0.90937180334E+02  0.00000000000E+00 0. -1.
</event>
<event>
 6    1  0.1144920E-005  0.3121113E+02  0.7818608E-02  0.1395439E+00
         21   -1    0    0  503  502  0.00000000000E+00  0.00000000000E+00  0.10983917558E+03  0.10983917558E+03  0.00000000000E+00 0.  1.
         21   -1    0    0  501  503 -0.00000000000E+00 -0.00000000000E+00 -0.46602880695E+02  0.46602880695E+02  0.00000000000E+00 0.  1.
        -13    1    1    2    0    0 -0.40475454464E+02  0.89699576830E+01  0.74155711522E+02  0.84957655749E+02  0.10566000000E+00 0.  1.
         13    1    1    2    0    0  0.20862297509E+02  0.93441572803E+01  0.35896945502E+01  0.23139701891E+02  0.10566000000E+00 0. -1.
          4    1    1    2  501    0  0.15261213585E+02 -0.63650373238E+01 -0.26258382790E+02  0.31030968514E+02  0.00000000000E+00 0.  1.
         -4    1    1    2    0  502  0.43519433707E+01 -0.11949077639E+02  0.11749271607E+02  0.17313730125E+02  0.00000000000E+00 0. -1.
</event>
<event>
 6    1  0.1144920E-005  0.1853795E+03  0.7818608E-02  0.1160351E+00
         21   -1    0    0  503  502  0.00000000000E+00  0.00000000000E+00  0.25456976140E+03  0.25456976140E+03  0.00000000000E+00 0. -1.
         21   -1    0    0  501  503 -0.00000000000E+00 -0.00000000000E+00 -0.38964593826E+03  0.38964593826E+03  0.00000000000E+00 0. -1.
        -13    1    1    2    0    0 -0.27835048558E+01 -0.17158843179E+02  0.42619344162E+02  0.46028181144E+02  0.10566000000E+00 0.  1.
         13    1    1    2    0    0 -0.15231754960E+03 -0.76677573535E+02 -0.74265821274E+02  0.18599868164E+03  0.10566000000E+00 0. -1.
          4    1    1    2  501    0 -0.14011552933E+02  0.24091666775E+01 -0.19760543699E+03  0.19811621950E+03  0.00000000000E+00 0.  1.
         -4    1    1    2    0  502  0.16911260739E+03  0.91427250036E+02  0.94175737239E+02  0.21407261738E+03  0.00000000000E+00 0. -1.
</event>
<event>
 6    1  0.1144920E-005  0.3356283E+02  0.7818608E-02  0.1378392E+00
         21   -1    0    0  503  502  0.00000000000E+00  0.00000000000E+00  0.12685721521E+03  0.12685721521E+03  0.00000000000E+00 0.  1.
         21   -1    0    0  501  503 -0.00000000000E+00 -0.00000000000E+00 -0.45406945826E+02  0.45406945826E+02  0.00000000000E+00 0. -1.
        -13    1    1    2    0    0  0.54287871514E+01 -0.28105231550E+02  0.89424478188E+02  0.93894218318E+02  0.10566000000E+00 0.  1.
         13    1    1    2    0    0 -0.11519207371E+02  0.41331206279E+02 -0.20825098343E+02  0.47693360502E+02  0.10566000000E+00 0. -1.
          4    1    1    2  501    0 -0.46706537147E+01 -0.12007940562E+02 -0.11959126754E+01  0.12939700529E+02  0.00000000000E+00 0.  1.
         -4    1    1    2    0  502  0.10761073935E+02 -0.12180341668E+01  0.14046802214E+02  0.17736881685E+02  0.00000000000E+00 0. -1.
</event>
<event>
 6    1  0.1144920E-005  0.1039234E+03  0.7818608E-02  0.1158222E+00
         21   -1    0    0  501  502  0.00000000000E+00  0.00000000000E+00  0.88754195835E+02  0.88754195835E+02  0.00000000000E+00 0. -1.
         21   -1    0    0  502  503 -0.00000000000E+00 -0.00000000000E+00 -0.42260484438E+03  0.42260484438E+03  0.00000000000E+00 0. -1.
        -13    1    1    2    0    0  0.92901629923E+02  0.22361382694E+02  0.18866759095E+01  0.95573610313E+02  0.10566000000E+00 0.  1.
         13    1    1    2    0    0 -0.10234600046E+03 -0.46745663531E+02 -0.80356848448E+02  0.13826458377E+03  0.10566000000E+00 0. -1.
          4    1    1    2  501    0  0.65527893302E+01  0.12832225450E+02  0.61882494637E+01  0.15681182654E+02  0.00000000000E+00 0.  1.
         -4    1    1    2    0  503  0.28915812066E+01  0.11552055388E+02 -0.26156872547E+03  0.26183966348E+03  0.00000000000E+00 0. -1.
</event>
<event>
 6    1  0.1144920E-005  0.7847592E+02  0.7818608E-02  0.1206095E+00
         21   -1    0    0  503  502  0.00000000000E+00  0.00000000000E+00  0.37537279703E+03  0.37537279703E+03  0.00000000000E+00 0.  1.
         21   -1    0    0  501  503 -0.00000000000E+00 -0.00000000000E+00 -0.11400286510E+03  0.11400286510E+03  0.00000000000E+00 0. -1.
        -13    1    1    2    0    0 -0.29047315757E+02 -0.11431970339E+03  0.29525582135E+03  0.31794457432E+03  0.10566000000E+00 0.  1.
         13    1    1    2    0    0  0.44956924125E+02  0.43927880210E+02 -0.64150351723E+02  0.89811260300E+02  0.10566000000E+00 0. -1.
          4    1    1    2  501    0 -0.10158339020E+02  0.27260345159E+02  0.86249421360E+00  0.29104332428E+02  0.00000000000E+00 0.  1.
         -4    1    1    2    0  502 -0.57512693490E+01  0.43131478020E+02  0.29401968094E+02  0.52515495076E+02  0.00000000000E+00 0. -1.
</event>
<event>
 6    1  0.1144920E-005  0.5903952E+02  0.7818608E-02  0.1258813E+00
         21   -1    0    0  501  502  0.00000000000E+00  0.00000000000E+00  0.34007749086E+03  0.34007749086E+03  0.00000000000E+00 0.  1.
         21   -1    0    0  502  503 -0.00000000000E+00 -0.00000000000E+00 -0.43938082830E+03  0.43938082830E+03  0.00000000000E+00 0. -1.
        -13    1    1    2    0    0  0.20241656055E+02  0.64168330622E+02 -0.14604560200E+03  0.16079996369E+03  0.10566000000E+00 0.  1.
         13    1    1    2    0    0  0.21826240180E+02 -0.57080854832E+02  0.67972750193E+01  0.61488396145E+02  0.10566000000E+00 0. -1.
          4    1    1    2  501    0  0.15511448963E+02  0.76001933184E+01  0.29488788821E+03  0.29539335571E+03  0.00000000000E+00 0.  1.
         -4    1    1    2    0  503 -0.57579345198E+02 -0.14687669109E+02 -0.25494289867E+03  0.26177660361E+03  0.00000000000E+00 0. -1.
</event>
<event>
 6    1  0.1144920E-005  0.1060408E+03  0.7818608E-02  0.1215098E+00
         21   -1    0    0  501  502  0.00000000000E+00  0.00000000000E+00  0.37821483265E+03  0.37821483265E+03  0.00000000000E+00 0. -1.
         21   -1    0    0  502  503 -0.00000000000E+00 -0.00000000000E+00 -0.55035358010E+02  0.55035358010E+02  0.00000000000E+00 0. -1.
        -13    1    1    2    0    0 -0.25581670641E+02  0.60001359573E+01  0.29941789613E+01  0.26446167510E+02  0.10566000000E+00 0.  1.
         13    1    1    2    0    0  0.48023827312E+02 -0.10488960532E+03  0.25783413494E+03  0.28246516528E+03  0.10566000000E+00 0. -1.
          4    1    1    2  501    0  0.73399232305E+01  0.18536447364E+02  0.21774754971E+02  0.29523114808E+02  0.00000000000E+00 0.  1.
         -4    1    1    2    0  503 -0.29782079902E+02  0.80353021996E+02  0.40576405770E+02  0.94815743063E+02  0.00000000000E+00 0. -1.
</event>
<event>
 6    1  0.1144920E-005  0.2449320E+03  0.7818608E-02  0.1033053E+00
         21   -1    0    0  503  502  0.00000000000E+00  0.00000000000E+00  0.43178322235E+03  0.43178322235E+03  0.00000000000E+00 0. -1.
         21   -1    0    0  501  503 -0.00000000000E+00 -0.00000000000E+00 -0.85061807898E+03  0.85061807898E+03  0.00000000000E+00 0. -1.
        -13    1    1    2    0    0  0.11044515381E+03 -0.22154047238E+03 -0.19197931058E+03  0.31326407353E+03  0.10566000000E+00 0.  1.
         13    1    1    2    0    0 -0.12875030511E+03  0.21164889997E+03 -0.26186037739E+03  0.36047575000E+03  0.10566000000E+00 0. -1.
          4    1    1    2  501    0  0.20066703104E+02 -0.95967234168E+01 -0.28609879929E+03  0.28696217979E+03  0.00000000000E+00 0.  1.
         -4    1    1    2    0  502 -0.17615518044E+01  0.19488295833E+02  0.32110363063E+03  0.32169929802E+03  0.00000000000E+00 0. -1.
</event>
<event>
 6    1  0.1144920E-005  0.6430974E+02  0.7818608E-02  0.1242632E+00
         21   -1    0    0  501  502  0.00000000000E+00  0.00000000000E+00  0.11747973441E+03  0.11747973441E+03  0.00000000000E+00 0.  1.
         21   -1    0    0  502  503 -0.00000000000E+00 -0.00000000000E+00 -0.13098040052E+03  0.13098040052E+03  0.00000000000E+00 0. -1.
        -13    1    1    2    0    0 -0.18096135526E+01 -0.47964434002E+02 -0.26440602389E+02  0.54799436576E+02  0.10566000000E+00 0.  1.
         13    1    1    2    0    0 -0.23035057184E+00  0.10752166522E+03 -0.53640824673E+01  0.10765568307E+03  0.10566000000E+00 0. -1.
          4    1    1    2  501    0  0.11504050914E+02 -0.65137217792E+02  0.17890877066E+01  0.66169488165E+02  0.00000000000E+00 0.  1.
         -4    1    1    2    0  503 -0.94640867896E+01  0.55799865746E+01  0.16514931033E+02  0.19835527116E+02  0.00000000000E+00 0. -1.
</event>
<event>
 6    1  0.1144920E-005  0.1077677E+03  0.7818608E-02  0.1152306E+00
         21   -1    0    0  503  502  0.00000000000E+00  0.00000000000E+00  0.87600960856E+03  0.87600960856E+03  0.00000000000E+00 0.  1.
         21   -1    0    0  501  503 -0.00000000000E+00 -0.00000000000E+00 -0.15545942218E+03  0.15545942218E+03  0.00000000000E+00 0. -1.
        -13    1    1    2    0    0  0.13857256612E+03 -0.10188790166E+03  0.59923908140E+03  0.62343483094E+03  0.10566000000E+00 0.  1.
         13    1    1    2    0    0 -0.10632783185E+03 -0.25803402477E+02 -0.95178920276E+02  0.14501883131E+03  0.10566000000E+00 0. -1.
          4    1    1    2  501    0  0.48614801650E+01  0.46450387822E+02  0.28047647387E+02  0.54478831138E+02  0.00000000000E+00 0.  1.
         -4    1    1    2    0  502 -0.37106214436E+02  0.81240916311E+02  0.18844237787E+03  0.20853653735E+03  0.00000000000E+00 0. -1.
</event>
<event>
 6    1  0.1144920E-005  0.2123318E+03  0.7818608E-02  0.1051996E+00
         21   -1    0    0  501  502  0.00000000000E+00  0.00000000000E+00  0.43437068276E+03  0.43437068276E+03  0.00000000000E+00 0.  1.
         21   -1    0    0  502  503 -0.00000000000E+00 -0.00000000000E+00 -0.86227052805E+03  0.86227052805E+03  0.00000000000E+00 0.  1.
        -13    1    1    2    0    0  0.21805588044E+03  0.52188947829E+02 -0.73158380827E+03  0.76517117886E+03  0.10566000000E+00 0.  1.
         13    1    1    2    0    0 -0.20135666307E+03 -0.53244890919E+02  0.84152446126E+02  0.22463563725E+03  0.10566000000E+00 0. -1.
          4    1    1    2  501    0 -0.49701918893E+00 -0.10384749148E+02  0.26082095350E+03  0.26102808245E+03  0.00000000000E+00 0.  1.
         -4    1    1    2    0  503 -0.16202198177E+02  0.11440692238E+02 -0.41289436634E+02  0.45806312253E+02  0.00000000000E+00 0. -1.
</event>
<event>
 6    1  0.1144920E-005  0.1221704E+03  0.7818608E-02  0.1132334E+00
         21   -1    0    0  501  502  0.00000000000E+00  0.00000000000E+00  0.11579051538E+03  0.11579051538E+03  0.00000000000E+00 0. -1.
         21   -1    0    0  502  503 -0.00000000000E+00 -0.00000000000E+00 -0.52420016708E+03  0.52420016708E+03  0.00000000000E+00 0.  1.
        -13    1    1    2    0    0 -0.10585714938E+03 -0.20921212256E+02 -0.33782980318E+03  0.35464407549E+03  0.10566000000E+00 0.  1.
         13    1    1    2    0    0  0.11800296977E+03  0.53980128466E+02 -0.56061151655E+02  0.14135564734E+03  0.10566000000E+00 0. -1.
          4    1    1    2  501    0  0.34211434227E+01 -0.21729228034E+02  0.61634212605E+02  0.65441880601E+02  0.00000000000E+00 0.  1.
         -4    1    1    2    0  503 -0.15566963818E+02 -0.11329688176E+02 -0.76152909466E+02  0.78549079032E+02  0.00000000000E+00 0. -1.
</event>
<event>
 6    1  0.1144920E-005  0.1829933E+03  0.7818608E-02  0.1072465E+00
         21   -1    0    0  503  502  0.00000000000E+00  0.00000000000E+00  0.50362998818E+03  0.50362998818E+03  0.00000000000E+00 0.  1.
         21   -1    0    0  501  503 -0.00000000000E+00 -0.00000000000E+00 -0.13650487952E+03  0.13650487952E+03  0.00000000000E+00 0. -1.
        -13    1    1    2    0    0 -0.32935152588E+02 -0.14581252110E+03  0.28131482693E+03  0.31856562684E+03  0.10566000000E+00 0.  1.
         13    1    1    2    0    0  0.44133629349E+02  0.19098349511E+03 -0.12216893190E+02  0.19639688462E+03  0.10566000000E+00 0. -1.
          4    1    1    2  501    0  0.16493324117E+02 -0.73342299686E+01  0.18128868142E+01  0.18141312749E+02  0.00000000000E+00 0.  1.
         -4    1    1    2    0  502 -0.27691800878E+02 -0.37836744036E+02  0.96214288110E+02  0.10703104349E+03  0.00000000000E+00 0. -1.
</event>
<event>
 6    1  0.1144920E-005  0.1557824E+03  0.7818608E-02  0.1095545E+00
         21   -1    0    0  501  502  0.00000000000E+00  0.00000000000E+00  0.32923682297E+03  0.32923682297E+03  0.00000000000E+00 0. -1.
         21   -1    0    0  502  503 -0.00000000000E+00 -0.00000000000E+00 -0.22085932056E+03  0.22085932056E+03  0.00000000000E+00 0.  1.
        -13    1    1    2    0    0  0.17627845515E+03  0.21351008205E+02 -0.61642305970E+02  0.18796208222E+03  0.10566000000E+00 0.  1.
         13    1    1    2    0    0 -0.10653701727E+03 -0.60826708422E+02  0.21677079688E+03  0.24907752618E+03  0.10566000000E+00 0. -1.
          4    1    1    2  501    0 -0.51165540098E+02  0.32899107602E+02  0.15929781369E+01  0.60850647933E+02  0.00000000000E+00 0.  1.
         -4    1    1    2    0  503 -0.18575897787E+02  0.65765926142E+01 -0.48343966626E+02  0.52205887198E+02  0.00000000000E+00 0. -1.
</event>
<event>
 6    1  0.1144920E-005  0.5911455E+02  0.7818608E-02  0.1271227E+00
         21   -1    0    0  503  502  0.00000000000E+00  0.00000000000E+00  0.47786882529E+02  0.47786882529E+02  0.00000000000E+00 0.  1.
         21   -1    0    0  501  503 -0.00000000000E+00 -0.00000000000E+00 -0.10773340530E+04  0.10773340530E+04  0.00000000000E+00 0.  1.
        -13    1    1    2    0    0  0.70788512015E+02 -0.83735962289E+02 -0.12044274039E+03  0.16287783671E+03  0.10566000000E+00 0.  1.
         13    1    1    2    0    0 -0.33631962437E+02  0.13374658342E+02 -0.18096528975E+02  0.40465861020E+02  0.10566000000E+00 0. -1.
          4    1    1    2  501    0 -0.12759349537E+02  0.55974870647E+02 -0.89160156771E+03  0.89344800783E+03  0.00000000000E+00 0.  1.
         -4    1    1    2    0  502 -0.24397200041E+02  0.14386433300E+02  0.59366656983E+00  0.28329230010E+02  0.00000000000E+00 0. -1.
</event>
<event>
 6    1  0.1144920E-005  0.2080119E+02  0.7818608E-02  0.1504183E+00
         21   -1    0    0  501  502  0.00000000000E+00  0.00000000000E+00  0.11897470790E+03  0.11897470790E+03  0.00000000000E+00 0. -1.
         21   -1    0    0  502  503 -0.00000000000E+00 -0.00000000000E+00 -0.73306790336E+02  0.73306790336E+02  0.00000000000E+00 0.  1.
        -13    1    1    2    0    0 -0.21618464464E+02 -0.82977709866E+01 -0.25780235171E+02  0.34653177324E+02  0.10566000000E+00 0.  1.
         13    1    1    2    0    0  0.28496831227E+02 -0.72253318245E+00  0.80929987171E+02  0.85803644630E+02  0.10566000000E+00 0. -1.
          4    1    1    2  501    0 -0.13063788552E+02 -0.11340599127E+02  0.25538410161E+02  0.30846104348E+02  0.00000000000E+00 0.  1.
         -4    1    1    2    0  503  0.61854217893E+01  0.20360903296E+02 -0.35020244600E+02  0.40978571932E+02  0.00000000000E+00 0. -1.
</event>
<event>
 6    1  0.1144920E-005  0.4785980E+02  0.7818608E-02  0.1342519E+00
         21   -1    0    0  501  502  0.00000000000E+00  0.00000000000E+00  0.20508617353E+02  0.20508617353E+02  0.00000000000E+00 0.  1.
         21   -1    0    0  502  503 -0.00000000000E+00 -0.00000000000E+00 -0.86773807156E+03  0.86773807156E+03  0.00000000000E+00 0. -1.
        -13    1    1    2    0    0  0.57171931649E+02 -0.28216445453E+02 -0.27335493281E+03  0.28069151754E+03  0.10566000000E+00 0.  1.
         13    1    1    2    0    0 -0.19966885905E+02 -0.64975573221E+01 -0.15879510067E+02  0.26326123678E+02  0.10566000000E+00 0. -1.
          4    1    1    2  501    0 -0.24162539977E+02  0.39788643834E+02 -0.35489252589E+02  0.58535899801E+02  0.00000000000E+00 0.  1.
         -4    1    1    2    0  503 -0.13042505766E+02 -0.50746410584E+01 -0.52250575875E+03  0.52269314790E+03  0.00000000000E+00 0. -1.
</event>
<event>
 6    1  0.1144920E-005  0.1043327E+03  0.7818608E-02  0.1157579E+00
         21   -1    0    0  501  502  0.00000000000E+00  0.00000000000E+00  0.24927891473E+03  0.24927891473E+03  0.00000000000E+00 0. -1.
         21   -1    0    0  502  503 -0.00000000000E+00 -0.00000000000E+00 -0.20169080398E+03  0.20169080398E+03  0.00000000000E+00 0.  1.
        -13    1    1    2    0    0 -0.41265655775E+02  0.73761546709E+02 -0.12242212070E+03  0.14876426627E+03  0.10566000000E+00 0.  1.
         13    1    1    2    0    0  0.90879790868E+02 -0.11594518043E+03  0.10929486254E+03  0.18343336500E+03  0.10566000000E+00 0. -1.
          4    1    1    2  501    0 -0.34225617803E+02  0.30221608975E+02  0.79515271972E+02  0.91691968240E+02  0.00000000000E+00 0.  1.
         -4    1    1    2    0  503 -0.15388517290E+02  0.11962024745E+02 -0.18799903067E+02  0.27080119197E+02  0.00000000000E+00 0. -1.
</event>
<event>
 6    1  0.1144920E-005  0.1638958E+03  0.7818608E-02  0.1090202E+00
         21   -1    0    0  503  502  0.00000000000E+00  0.00000000000E+00  0.66571481510E+03  0.66571481510E+03  0.00000000000E+00 0. -1.
         21   -1    0    0  501  503 -0.00000000000E+00 -0.00000000000E+00 -0.24018733847E+03  0.24018733847E+03  0.00000000000E+00 0. -1.
        -13    1    1    2    0    0 -0.17080803471E+03 -0.66552976078E+02  0.20457349278E+03  0.27469075059E+03  0.10566000000E+00 0.  1.
         13    1    1    2    0    0  0.31250387850E+02  0.15310608447E+03  0.23969405956E+02  0.15809049126E+03  0.10566000000E+00 0. -1.
          4    1    1    2  501    0  0.15046231705E+03 -0.82866312994E+02 -0.84478935143E+02  0.19142211252E+03  0.00000000000E+00 0.  1.
         -4    1    1    2    0  502 -0.10904670184E+02 -0.36867953969E+01  0.28146351303E+03  0.28169879918E+03  0.00000000000E+00 0. -1.
</event>
<event>
 6    1  0.1144920E-005  0.1228629E+03  0.7818608E-02  0.1131451E+00
         21   -1    0    0  503  502  0.00000000000E+00  0.00000000000E+00  0.33656450754E+03  0.33656450754E+03  0.00000000000E+00 0.  1.
         21   -1    0    0  501  503 -0.00000000000E+00 -0.00000000000E+00 -0.11456007633E+03  0.11456007633E+03  0.00000000000E+00 0. -1.
        -13    1    1    2    0    0  0.12682565765E+03  0.32699376108E+02  0.84783795571E+02  0.15602019033E+03  0.10566000000E+00 0.  1.
         13    1    1    2    0    0 -0.11089608314E+03 -0.53070068029E+01 -0.34514580843E+02  0.11626423797E+03  0.10566000000E+00 0. -1.
          4    1    1    2  501    0 -0.29323314721E+01 -0.16064426888E+02  0.18657103131E+02  0.24794190375E+02  0.00000000000E+00 0.  1.
         -4    1    1    2    0  502 -0.12997243038E+02 -0.11327942417E+02  0.15307811334E+03  0.15404596519E+03  0.00000000000E+00 0. -1.
</event>
<event>
 6    1  0.1144920E-005  0.3247514E+03  0.7818608E-02  0.9975821E-01
         21   -1    0    0  501  502  0.00000000000E+00  0.00000000000E+00  0.20746536276E+04  0.20746536276E+04  0.00000000000E+00 0. -1.
         21   -1    0    0  502  503 -0.00000000000E+00 -0.00000000000E+00 -0.19870511923E+03  0.19870511923E+03  0.00000000000E+00 0.  1.
        -13    1    1    2    0    0  0.33134506874E+03  0.36322677174E+02  0.45147852107E+03  0.56119671917E+03  0.10566000000E+00 0.  1.
         13    1    1    2    0    0 -0.31935813770E+03 -0.16360177116E+02  0.65025907925E+03  0.72463380878E+03  0.10566000000E+00 0. -1.
          4    1    1    2  501    0  0.34562059909E+01 -0.18969592379E+02  0.88020210698E+03  0.88041327791E+03  0.00000000000E+00 0.  1.
         -4    1    1    2    0  503 -0.15443137032E+02 -0.99290767927E+00 -0.10599119888E+03  0.10711494101E+03  0.00000000000E+00 0. -1.
</event>
<event>
 6    1  0.1144920E-005  0.3105648E+02  0.7818608E-02  0.1396620E+00
         21   -1    0    0  501  502  0.00000000000E+00  0.00000000000E+00  0.12929212347E+02  0.12929212347E+02  0.00000000000E+00 0. -1.
         21   -1    0    0  502  503 -0.00000000000E+00 -0.00000000000E+00 -0.20783447830E+03  0.20783447830E+03  0.00000000000E+00 0.  1.
        -13    1    1    2    0    0 -0.16483604935E+02 -0.22851208439E+02 -0.39231790943E+02  0.48301465230E+02  0.10566000000E+00 0.  1.
         13    1    1    2    0    0  0.22589592140E+02  0.22786389010E+02 -0.88016881928E+02  0.93682932627E+02  0.10566000000E+00 0. -1.
          4    1    1    2  501    0  0.57568641223E+01 -0.17281143648E+02 -0.22319393115E+02  0.28808587597E+02  0.00000000000E+00 0.  1.
         -4    1    1    2    0  503 -0.11862851327E+02  0.17345963076E+02 -0.45337199971E+02  0.49970705197E+02  0.00000000000E+00 0. -1.
</event>
<event>
 6    1  0.1144920E-005  0.1667752E+03  0.7818608E-02  0.1085651E+00
         21   -1    0    0  501  502  0.00000000000E+00  0.00000000000E+00  0.24625787125E+03  0.24625787125E+03  0.00000000000E+00 0. -1.
         21   -1    0    0  502  503 -0.00000000000E+00 -0.00000000000E+00 -0.32225913231E+03  0.32225913231E+03  0.00000000000E+00 0. -1.
        -13    1    1    2    0    0  0.80509818825E+02 -0.13372725875E+03 -0.36268772784E+02  0.16025057161E+03  0.10566000000E+00 0.  1.
         13    1    1    2    0    0  0.30497953308E+02  0.21107006764E+03 -0.11266460759E+03  0.24119291776E+03  0.10566000000E+00 0. -1.
          4    1    1    2  501    0 -0.38920784102E+02 -0.65230467858E+02  0.47935920557E+02  0.89820342082E+02  0.00000000000E+00 0.  1.
         -4    1    1    2    0  503 -0.72086988032E+02 -0.12112341036E+02  0.24996198754E+02  0.77253172110E+02  0.00000000000E+00 0. -1.
</event>
<event>
 6    1  0.1398728E-005  0.1239993E+03  0.7818608E-02  0.1130015E+00
         21   -1    0    0  503  502  0.00000000000E+00  0.00000000000E+00  0.25232294227E+03  0.25232294227E+03  0.00000000000E+00 0.  1.
         21   -1    0    0  501  503 -0.00000000000E+00 -0.00000000000E+00 -0.50204420515E+03  0.50204420515E+03  0.00000000000E+00 0.  1.
        -13    1    1    2    0    0 -0.12707325493E+03  0.81627924484E+02  0.16807159039E+03  0.22596194554E+03  0.10566000000E+00 0.  1.
         13    1    1    2    0    0  0.82913998501E+02 -0.78131558134E+02 -0.16738209797E+02  0.11514968673E+03  0.10566000000E+00 0. -1.
          4    1    1    2  501    0  0.13722652233E+02  0.47666111910E+01 -0.36526058381E+03  0.36554934803E+03  0.00000000000E+00 0.  1.
         -4    1    1    2    0  502  0.30436604199E+02 -0.82629775408E+01 -0.35794059665E+02  0.47706167110E+02  0.00000000000E+00 0. -1.
</event>
<event>
 6    1  0.1144920E-005  0.1887907E+03  0.7818608E-02  0.1068104E+00
         21   -1    0    0  501  502  0.00000000000E+00  0.00000000000E+00  0.11496888361E+03  0.11496888361E+03  0.00000000000E+00 0. -1.
         21   -1    0    0  502  503 -0.00000000000E+00 -0.00000000000E+00 -0.10129519747E+04  0.10129519747E+04  0.00000000000E+00 0.  1.
        -13    1    1    2    0    0  0.12269754759E+03  0.47102396597E+02 -0.55738149313E+03  0.57266697477E+03  0.10566000000E+00 0.  1.
         13    1    1    2    0    0 -0.19140389642E+03 -0.99520193406E+02 -0.14186468937E+03  0.25819628525E+03  0.10566000000E+00 0. -1.
          4    1    1    2  501    0  0.38846173337E+02 -0.49112173853E+02  0.96310181349E+01  0.63354457726E+02  0.00000000000E+00 0.  1.
         -4    1    1    2    0  503  0.29860175499E+02  0.10152997066E+03 -0.20836792670E+03  0.23370314054E+03  0.00000000000E+00 0. -1.
</event>
<event>
 6    1  0.1144920E-005  0.1183648E+03  0.7818608E-02  0.1137306E+00
         21   -1    0    0  503  502  0.00000000000E+00  0.00000000000E+00  0.32220691565E+03  0.32220691565E+03  0.00000000000E+00 0. -1.
         21   -1    0    0  501  503 -0.00000000000E+00 -0.00000000000E+00 -0.53888288340E+03  0.53888288340E+03  0.00000000000E+00 0.  1.
        -13    1    1    2    0    0 -0.19920122962E+02  0.10292202045E+03  0.15629994220E+02  0.10599085562E+03  0.10566000000E+00 0.  1.
         13    1    1    2    0    0  0.63308343029E+02 -0.14798392836E+03 -0.34340150139E+03  0.37925162053E+03  0.10566000000E+00 0. -1.
          4    1    1    2  501    0 -0.24983281117E+02  0.39130261737E+02 -0.12790285253E+03  0.13606792937E+03  0.00000000000E+00 0.  1.
         -4    1    1    2    0  502 -0.18404938950E+02  0.59316461768E+01  0.23899839195E+03  0.23977939352E+03  0.00000000000E+00 0. -1.
</event>
<event>
 6    1  0.1144920E-005  0.8320218E+02  0.7818608E-02  0.1195804E+00
         21   -1    0    0  501  502  0.00000000000E+00  0.00000000000E+00  0.86991207116E+03  0.86991207116E+03  0.00000000000E+00 0.  1.
         21   -1    0    0  502  503 -0.00000000000E+00 -0.00000000000E+00 -0.67086563067E+02  0.67086563067E+02  0.00000000000E+00 0.  1.
        -13    1    1    2    0    0 -0.37273367746E+02  0.89060877056E+02  0.10646445682E+02  0.97131363291E+02  0.10566000000E+00 0.  1.
         13    1    1    2    0    0  0.22892274407E+02 -0.66152547067E+02  0.45598469397E+02  0.83543086406E+02  0.10566000000E+00 0. -1.
          4    1    1    2  501    0  0.33888678518E+01 -0.18818357077E+02  0.74408817132E+03  0.74433381066E+03  0.00000000000E+00 0.  1.
         -4    1    1    2    0  503  0.10992225487E+02 -0.40899729125E+01  0.24924216862E+01  0.11990373866E+02  0.00000000000E+00 0. -1.
</event>
<event>
 6    1  0.1144920E-005  0.4109206E+03  0.7818608E-02  0.9698026E-01
         21   -1    0    0  501  502  0.00000000000E+00  0.00000000000E+00  0.47374087548E+03  0.47374087548E+03  0.00000000000E+00 0. -1.
         21   -1    0    0  502  503 -0.00000000000E+00 -0.00000000000E+00 -0.59383537580E+03  0.59383537580E+03  0.00000000000E+00 0.  1.
        -13    1    1    2    0    0  0.39591270360E+03 -0.16999789811E+03 -0.19236086663E+03  0.47185683042E+03  0.10566000000E+00 0.  1.
         13    1    1    2    0    0 -0.35758581562E+03  0.16058977558E+03 -0.58172066823E+02  0.39628360056E+03  0.10566000000E+00 0. -1.
          4    1    1    2  501    0 -0.22332272501E+02 -0.29223485126E+01  0.16112953765E+03  0.16269603074E+03  0.00000000000E+00 0.  1.
         -4    1    1    2    0  503 -0.15994615480E+02  0.12330471043E+02 -0.30691104518E+02  0.36739789562E+02  0.00000000000E+00 0. -1.
</event>
<event>
 6    1  0.1144920E-005  0.4600632E+02  0.7818608E-02  0.1308962E+00
         21   -1    0    0  501  502  0.00000000000E+00  0.00000000000E+00  0.57380837218E+02  0.57380837218E+02  0.00000000000E+00 0. -1.
         21   -1    0    0  502  503 -0.00000000000E+00 -0.00000000000E+00 -0.35233235415E+03  0.35233235415E+03  0.00000000000E+00 0. -1.
        -13    1    1    2    0    0 -0.20269699173E+02 -0.45687968944E+02 -0.17394066954E+03  0.18097960906E+03  0.10566000000E+00 0.  1.
         13    1    1    2    0    0  0.35869662012E+02  0.15757420806E+02  0.38809570046E+02  0.55146376622E+02  0.10566000000E+00 0. -1.
          4    1    1    2  501    0 -0.79259270033E+01  0.21508927445E+02 -0.13053954689E+02  0.26379158662E+02  0.00000000000E+00 0.  1.
         -4    1    1    2    0  503 -0.76740358350E+01  0.84216206930E+01 -0.14676646276E+03  0.14720804703E+03  0.00000000000E+00 0. -1.
</event>
<event>
 6    1  0.1144920E-005  0.9452834E+02  0.7818608E-02  0.1187938E+00
         21   -1    0    0  501  502  0.00000000000E+00  0.00000000000E+00  0.95698579008E+02  0.95698579008E+02  0.00000000000E+00 0.  1.
         21   -1    0    0  502  503 -0.00000000000E+00 -0.00000000000E+00 -0.82908558915E+03  0.82908558915E+03  0.00000000000E+00 0.  1.
        -13    1    1    2    0    0  0.26240913806E+02 -0.65017022124E+02 -0.23083096089E+03  0.24124415514E+03  0.10566000000E+00 0.  1.
         13    1    1    2    0    0 -0.55174337211E+02 -0.32072590706E+02 -0.29355235802E+03  0.30040948158E+03  0.10566000000E+00 0. -1.
          4    1    1    2  501    0  0.41023595515E+02  0.91145088148E+02  0.58150606869E+02  0.11563673967E+03  0.00000000000E+00 0.  1.
         -4    1    1    2    0  503 -0.12090172110E+02  0.59445246823E+01 -0.26715429811E+03  0.26749379176E+03  0.00000000000E+00 0. -1.
</event>
<event>
 6    1  0.1144920E-005  0.8378729E+02  0.7818608E-02  0.1209187E+00
         21   -1    0    0  503  502  0.00000000000E+00  0.00000000000E+00  0.93513759633E+02  0.93513759633E+02  0.00000000000E+00 0. -1.
         21   -1    0    0  501  503 -0.00000000000E+00 -0.00000000000E+00 -0.27547270243E+03  0.27547270243E+03  0.00000000000E+00 0.  1.
        -13    1    1    2    0    0 -0.59014771681E+02  0.76574889353E+00  0.22323789924E+02  0.63100652996E+02  0.10566000000E+00 0.  1.
         13    1    1    2    0    0  0.79119719804E+02  0.66007245493E+02 -0.33512186137E+02  0.10835111584E+03  0.10566000000E+00 0. -1.
          4    1    1    2  501    0 -0.10251649003E+02  0.29659216133E+01 -0.88896759577E+02  0.89535059399E+02  0.00000000000E+00 0.  1.
         -4    1    1    2    0  502 -0.98532991204E+01 -0.69738916000E+02 -0.81873787003E+02  0.10799963383E+03  0.00000000000E+00 0. -1.
</event>
<event>
 6    1  0.1144920E-005  0.1406360E+03  0.7818608E-02  0.1110732E+00
         21   -1    0    0  503  502  0.00000000000E+00  0.00000000000E+00  0.34368153919E+03  0.34368153919E+03  0.00000000000E+00 0. -1.
         21   -1    0    0  501  503 -0.00000000000E+00 -0.00000000000E+00 -0.50228854656E+03  0.50228854656E+03  0.00000000000E+00 0.  1.
        -13    1    1    2    0    0  0.15758358725E+03  0.14491678999E+03 -0.12490180963E+02  0.21445157676E+03  0.10566000000E+00 0.  1.
         13    1    1    2    0    0 -0.26131996552E+02 -0.10137877468E+03 -0.18845527512E+02  0.10637528975E+03  0.10566000000E+00 0. -1.
          4    1    1    2  501    0 -0.25000570493E+02 -0.25085789283E+02 -0.31045742925E+03  0.31247102382E+03  0.00000000000E+00 0.  1.
         -4    1    1    2    0  502 -0.10645102020E+03 -0.18452226030E+02  0.18318613036E+03  0.21267219542E+03  0.00000000000E+00 0. -1.
</event>
<event>
 6    1  0.1144920E-005  0.1630147E+03  0.7818608E-02  0.1088941E+00
         21   -1    0    0  503  502  0.00000000000E+00  0.00000000000E+00  0.16997509160E+03  0.16997509160E+03  0.00000000000E+00 0.  1.
         21   -1    0    0  501  503 -0.00000000000E+00 -0.00000000000E+00 -0.21125348176E+03  0.21125348176E+03  0.00000000000E+00 0. -1.
        -13    1    1    2    0    0  0.15588695891E+03 -0.78971789993E+00 -0.26195133116E+01  0.15591100227E+03  0.10566000000E+00 0.  1.
         13    1    1    2    0    0 -0.17320531122E+03 -0.77663476904E+00 -0.28220857658E+02  0.17549105666E+03  0.10566000000E+00 0. -1.
          4    1    1    2  501    0  0.22469413509E+02 -0.17808345780E+02 -0.63877428624E+01  0.29373712427E+02  0.00000000000E+00 0.  1.
         -4    1    1    2    0  502 -0.51510611983E+01  0.19374698449E+02 -0.40502763343E+01  0.20452802004E+02  0.00000000000E+00 0. -1.
</event>
<event>
 6    1  0.1144920E-005  0.3431991E+02  0.7818608E-02  0.1373241E+00
         21   -1    0    0  503  502  0.00000000000E+00  0.00000000000E+00  0.59440506756E+02  0.59440506756E+02  0.00000000000E+00 0.  1.
         21   -1    0    0  501  503 -0.00000000000E+00 -0.00000000000E+00 -0.29806169129E+03  0.29806169129E+03  0.00000000000E+00 0. -1.
        -13    1    1    2    0    0 -0.33979165912E+02  0.27495742823E+02  0.33259099785E+02  0.54925207983E+02  0.10566000000E+00 0.  1.
         13    1    1    2    0    0  0.13478812401E+02 -0.40416464790E+02 -0.14539722060E+03  0.15151083107E+03  0.10566000000E+00 0. -1.
          4    1    1    2  501    0 -0.51469331204E+01  0.86770079898E+01 -0.12459380524E+03  0.12500159076E+03  0.00000000000E+00 0.  1.
         -4    1    1    2    0  502  0.25647286632E+02  0.42437139774E+01 -0.18892584875E+01  0.26064568240E+02  0.00000000000E+00 0. -1.
</event>
<event>
 6    1  0.1144920E-005  0.2031481E+03  0.7818608E-02  0.1057999E+00
         21   -1    0    0  503  502  0.00000000000E+00  0.00000000000E+00  0.23003934868E+03  0.23003934868E+03  0.00000000000E+00 0.  1.
         21   -1    0    0  501  503 -0.00000000000E+00 -0.00000000000E+00 -0.28450916976E+03  0.28450916976E+03  0.00000000000E+00 0. -1.
        -13    1    1    2    0    0  0.20234560560E+03 -0.15592457862E+02  0.71108121025E+02  0.21504242579E+03  0.10566000000E+00 0.  1.
         13    1    1    2    0    0 -0.19034902680E+03 -0.10323803586E+02 -0.66111429249E+02  0.20176735406E+03  0.10566000000E+00 0. -1.
          4    1    1    2  501    0 -0.33907963183E+02  0.99703937948E+01 -0.61104557177E+02  0.70589840823E+02  0.00000000000E+00 0.  1.
         -4    1    1    2    0  502  0.21911384381E+02  0.15945867653E+02  0.16380443282E+01  0.27148897766E+02  0.00000000000E+00 0. -1.
</event>
<event>
 6    1  0.1144920E-005  0.5048936E+02  0.7818608E-02  0.1299776E+00
         21   -1    0    0  503  502  0.00000000000E+00  0.00000000000E+00  0.15402318707E+03  0.15402318707E+03  0.00000000000E+00 0. -1.
         21   -1    0    0  501  503 -0.00000000000E+00 -0.00000000000E+00 -0.96272105005E+02  0.96272105005E+02  0.00000000000E+00 0.  1.
        -13    1    1    2    0    0 -0.40667660288E+02 -0.10452115513E+02  0.60840839793E+02  0.73923773326E+02  0.10566000000E+00 0.  1.
         13    1    1    2    0    0  0.26684548905E+02  0.49951021065E+02  0.27108040236E+02  0.62785560960E+02  0.10566000000E+00 0. -1.
          4    1    1    2  501    0  0.28421420139E+00  0.10860358705E+02 -0.54815696545E+02  0.55881917975E+02  0.00000000000E+00 0.  1.
         -4    1    1    2    0  502  0.13698897182E+02 -0.50359264256E+02  0.24617898586E+02  0.57704039817E+02  0.00000000000E+00 0. -1.
</event>
<event>
 6    1  0.1144920E-005  0.6842803E+02  0.7818608E-02  0.1230913E+00
         21   -1    0    0  503  502  0.00000000000E+00  0.00000000000E+00  0.97125350854E+02  0.97125350854E+02  0.00000000000E+00 0.  1.
         21   -1    0    0  501  503 -0.00000000000E+00 -0.00000000000E+00 -0.48815344553E+03  0.48815344553E+03  0.00000000000E+00 0. -1.
        -13    1    1    2    0    0  0.68136439866E+02  0.22463866761E+02  0.73656860875E+02  0.10282287715E+03  0.10566000000E+00 0.  1.
         13    1    1    2    0    0 -0.52871412275E+02 -0.36189357701E+02 -0.22769750443E+03  0.23654010344E+03  0.10566000000E+00 0. -1.
          4    1    1    2  501    0 -0.87851446150E+01  0.58419001742E+01 -0.23534289866E+03  0.23557925739E+03  0.00000000000E+00 0.  1.
         -4    1    1    2    0  502 -0.64798829751E+01  0.78835907660E+01 -0.16445524553E+01  0.10336558398E+02  0.00000000000E+00 0. -1.
</event>
<event>
 6    1  0.1144920E-005  0.6312577E+02  0.7818608E-02  0.1246008E+00
         21   -1    0    0  503  502  0.00000000000E+00  0.00000000000E+00  0.49749272487E+02  0.49749272487E+02  0.00000000000E+00 0.  1.
         21   -1    0    0  501  503 -0.00000000000E+00 -0.00000000000E+00 -0.25738113117E+03  0.25738113117E+03  0.00000000000E+00 0.  1.
        -13    1    1    2    0    0  0.53515841561E+02 -0.40826131302E+02 -0.38067823228E+02  0.77329739586E+02  0.10566000000E+00 0.  1.
         13    1    1    2    0    0 -0.34822526126E+02  0.44678705834E+02 -0.79610942804E+02  0.97707258988E+02  0.10566000000E+00 0. -1.
          4    1    1    2  501    0 -0.95914828769E+01  0.98517842816E+01 -0.10730497397E+03  0.10818230741E+03  0.00000000000E+00 0.  1.
         -4    1    1    2    0  502 -0.91018325582E+01 -0.13704358813E+02  0.17351881323E+02  0.23911097672E+02  0.00000000000E+00 0. -1.
</event>
<event>
 6    1  0.1144920E-005  0.1846151E+03  0.7818608E-02  0.1071227E+00
         21   -1    0    0  503  502  0.00000000000E+00  0.00000000000E+00  0.99464527854E+03  0.99464527854E+03  0.00000000000E+00 0. -1.
         21   -1    0    0  501  503 -0.00000000000E+00 -0.00000000000E+00 -0.15109991394E+04  0.15109991394E+04  0.00000000000E+00 0. -1.
        -13    1    1    2    0    0 -0.50193848163E+02 -0.16599444189E+03  0.24637027702E+02  0.17515870355E+03  0.10566000000E+00 0.  1.
         13    1    1    2    0    0 -0.45874336070E+02  0.20193957318E+03 -0.98661428773E+03  0.10081129946E+04  0.10566000000E+00 0. -1.
          4    1    1    2  501    0  0.10291396625E+03 -0.23812255483E+02 -0.43195512118E+03  0.44468363437E+03  0.00000000000E+00 0.  1.
         -4    1    1    2    0  502 -0.68457820171E+01 -0.12132875812E+02  0.87757852032E+03  0.87768908546E+03  0.00000000000E+00 0. -1.
</event>
<event>
 6    1  0.1144920E-005  0.1214217E+03  0.7818608E-02  0.1155788E+00
         21   -1    0    0  503  502  0.00000000000E+00  0.00000000000E+00  0.47259747728E+02  0.47259747728E+02  0.00000000000E+00 0. -1.
         21   -1    0    0  501  503 -0.00000000000E+00 -0.00000000000E+00 -0.86906878612E+03  0.86906878612E+03  0.00000000000E+00 0. -1.
        -13    1    1    2    0    0  0.21766489328E+02  0.66259447395E+00 -0.12756551120E+02  0.25238063508E+02  0.10566000000E+00 0.  1.
         13    1    1    2    0    0 -0.88173194060E+02 -0.70878630685E+02 -0.11135627786E+03  0.15874043033E+03  0.10566000000E+00 0. -1.
          4    1    1    2  501    0 -0.69049350322E+02  0.38961757630E+01 -0.27464137284E+03  0.28321524790E+03  0.00000000000E+00 0.  1.
         -4    1    1    2    0  502  0.13545605505E+03  0.66319860448E+02 -0.42305483657E+03  0.44913479211E+03  0.00000000000E+00 0. -1.
</event>
<event>
 6    1  0.1144920E-005  0.1605673E+02  0.7818608E-02  0.1601876E+00
         21   -1    0    0  501  502  0.00000000000E+00  0.00000000000E+00  0.40418450285E+02  0.40418450285E+02  0.00000000000E+00 0.  1.
         21   -1    0    0  502  503 -0.00000000000E+00 -0.00000000000E+00 -0.60984140187E+02  0.60984140187E+02  0.00000000000E+00 0.  1.
        -13    1    1    2    0    0 -0.18316486359E+02 -0.67611983152E+01 -0.42600989478E+02  0.46862169644E+02  0.10566000000E+00 0.  1.
         13    1    1    2    0    0 -0.54178885812E+01  0.90097470446E+01  0.10110382646E+02  0.14586296986E+02  0.10566000000E+00 0. -1.
          4    1    1    2  501    0  0.15117812357E+02  0.47550283097E+01  0.20509308469E+02  0.25918917388E+02  0.00000000000E+00 0.  1.
         -4    1    1    2    0  503  0.86165625830E+01 -0.70035770391E+01 -0.85843915395E+01  0.14035206453E+02  0.00000000000E+00 0. -1.
</event>
<event>
 6    1  0.1144920E-005  0.2275506E+02  0.7818608E-02  0.1474789E+00
         21   -1    0    0  501  502  0.00000000000E+00  0.00000000000E+00  0.34582146088E+02  0.34582146088E+02  0.00000000000E+00 0. -1.
         21   -1    0    0  502  503 -0.00000000000E+00 -0.00000000000E+00 -0.17785610386E+03  0.17785610386E+03  0.00000000000E+00 0. -1.
        -13    1    1    2    0    0 -0.13232948251E+02  0.49264627646E+01 -0.62282761755E+02  0.63863405254E+02  0.10566000000E+00 0.  1.
         13    1    1    2    0    0  0.30086607694E+02 -0.26482115684E+01  0.13152425341E+02  0.32942593150E+02  0.10566000000E+00 0. -1.
          4    1    1    2  501    0 -0.10183038037E+02 -0.11797239805E+02  0.45669674997E+01  0.16239652793E+02  0.00000000000E+00 0.  1.
         -4    1    1    2    0  503 -0.66706214057E+01  0.95189886090E+01 -0.98710588858E+02  0.99392598752E+02  0.00000000000E+00 0. -1.
</event>
<event>
 6    1  0.1144920E-005  0.2433277E+03  0.7818608E-02  0.1033909E+00
         21   -1    0    0  503  502  0.00000000000E+00  0.00000000000E+00  0.39041161668E+03  0.39041161668E+03  0.00000000000E+00 0.  1.
         21   -1    0    0  501  503 -0.00000000000E+00 -0.00000000000E+00 -0.43992831151E+03  0.43992831151E+03  0.00000000000E+00 0.  1.
        -13    1    1    2    0    0  0.25077187212E+03 -0.50803470794E+02  0.19802059720E+03  0.32354241232E+03  0.10566000000E+00 0.  1.
         13    1    1    2    0    0 -0.22467056371E+03  0.72584814139E+02 -0.41632277087E+02  0.23974710655E+03  0.10566000000E+00 0. -1.
          4    1    1    2  501    0 -0.86094992420E+01 -0.13244862465E+02 -0.23308521009E+03  0.23361991572E+03  0.00000000000E+00 0.  1.
         -4    1    1    2    0  502 -0.17491809168E+02 -0.85364808801E+01  0.27180195153E+02  0.33430493600E+02  0.00000000000E+00 0. -1.
</event>
<event>
 6    1  0.1144920E-005  0.1041065E+03  0.7818608E-02  0.1157934E+00
         21   -1    0    0  501  502  0.00000000000E+00  0.00000000000E+00  0.12485143128E+03  0.12485143128E+03  0.00000000000E+00 0. -1.
         21   -1    0    0  502  503 -0.00000000000E+00 -0.00000000000E+00 -0.52195587993E+03  0.52195587993E+03  0.00000000000E+00 0. -1.
        -13    1    1    2    0    0 -0.11635666124E+02  0.89479119660E+02 -0.37065189496E+00  0.90233309416E+02  0.10566000000E+00 0.  1.
         13    1    1    2    0    0 -0.39932200946E+02 -0.12689260097E+03 -0.66319883711E+02  0.14864269572E+03  0.10566000000E+00 0. -1.
          4    1    1    2  501    0  0.45773689889E+01  0.99048130333E+01  0.35936533491E+02  0.37556518308E+02  0.00000000000E+00 0.  1.
         -4    1    1    2    0  503  0.46990498081E+02  0.27508668274E+02 -0.36635044653E+03  0.37037478777E+03  0.00000000000E+00 0. -1.
</event>
<event>
 6    1  0.1144920E-005  0.1242137E+03  0.7818608E-02  0.1129745E+00
         21   -1    0    0  503  502  0.00000000000E+00  0.00000000000E+00  0.95226912478E+03  0.95226912478E+03  0.00000000000E+00 0.  1.
         21   -1    0    0  501  503 -0.00000000000E+00 -0.00000000000E+00 -0.66232617351E+02  0.66232617351E+02  0.00000000000E+00 0. -1.
        -13    1    1    2    0    0  0.39084717272E+02 -0.12591082619E+03  0.40306536276E+03  0.42407882415E+03  0.10566000000E+00 0.  1.
         13    1    1    2    0    0 -0.53245440805E+02  0.11804432963E+03  0.29151528743E+02  0.13273795055E+03  0.10566000000E+00 0. -1.
          4    1    1    2  501    0  0.22337271993E+02 -0.11748705170E+01  0.28683552878E+02  0.36374170046E+02  0.00000000000E+00 0.  1.
         -4    1    1    2    0  502 -0.81765484599E+01  0.90413670784E+01  0.42513606305E+03  0.42531079738E+03  0.00000000000E+00 0. -1.
</event>
<event>
 6    1  0.1144920E-005  0.1807966E+03  0.7818608E-02  0.1080763E+00
         21   -1    0    0  501  502  0.00000000000E+00  0.00000000000E+00  0.46472470496E+03  0.46472470496E+03  0.00000000000E+00 0. -1.
         21   -1    0    0  502  503 -0.00000000000E+00 -0.00000000000E+00 -0.60704633753E+03  0.60704633753E+03  0.00000000000E+00 0.  1.
        -13    1    1    2    0    0 -0.17905352363E+03  0.12425267938E+03 -0.21517433215E+03  0.30626605597E+03  0.10566000000E+00 0.  1.
         13    1    1    2    0    0 -0.18628541569E+02 -0.15067105092E+03  0.24377208586E+03  0.28718222291E+03  0.10566000000E+00 0. -1.
          4    1    1    2  501    0  0.17982240055E+03  0.12150363568E+01  0.99923692754E+02  0.20572388395E+03  0.00000000000E+00 0.  1.
         -4    1    1    2    0  503  0.17859664646E+02  0.25203335186E+02 -0.27084307904E+03  0.27259887966E+03  0.00000000000E+00 0. -1.
</event>
<event>
 6    1  0.1144920E-005  0.2188247E+03  0.7818608E-02  0.1047945E+00
         21   -1    0    0  501  502  0.00000000000E+00  0.00000000000E+00  0.14585243109E+04  0.14585243109E+04  0.00000000000E+00 0. -1.
         21   -1    0    0  502  503 -0.00000000000E+00 -0.00000000000E+00 -0.12308613151E+03  0.12308613151E+03  0.00000000000E+00 0.  1.
        -13    1    1    2    0    0 -0.15178804894E+03  0.14757523278E+03  0.28952672561E+02  0.21367341796E+03  0.10566000000E+00 0.  1.
         13    1    1    2    0    0  0.11227068209E+03 -0.15880517969E+03  0.78934706524E+03  0.81295300708E+03  0.10566000000E+00 0. -1.
          4    1    1    2  501    0  0.89128876923E+02  0.42658093629E+02  0.46827301591E+03  0.47858467075E+03  0.00000000000E+00 0.  1.
         -4    1    1    2    0  503 -0.49611510073E+02 -0.31428146721E+02  0.48865425708E+02  0.76399346645E+02  0.00000000000E+00 0. -1.
</event>
<event>
 6    1  0.1144920E-005  0.1728575E+03  0.7818608E-02  0.1080524E+00
         21   -1    0    0  501  502  0.00000000000E+00  0.00000000000E+00  0.91375305733E+03  0.91375305733E+03  0.00000000000E+00 0. -1.
         21   -1    0    0  502  503 -0.00000000000E+00 -0.00000000000E+00 -0.53825524643E+02  0.53825524643E+02  0.00000000000E+00 0.  1.
        -13    1    1    2    0    0  0.14392999779E+03  0.11247163912E+03  0.18498801596E+03  0.25997363536E+03  0.10566000000E+00 0.  1.
         13    1    1    2    0    0 -0.10301799255E+03 -0.11193908565E+03  0.45183432926E+03  0.47675710581E+03  0.10566000000E+00 0. -1.
          4    1    1    2  501    0 -0.34092770078E+02 -0.12212235740E+02  0.20540001855E+03  0.20856803038E+03  0.00000000000E+00 0.  1.
         -4    1    1    2    0  503 -0.68192351633E+01  0.11679682261E+02  0.17705168911E+02  0.22279810414E+02  0.00000000000E+00 0. -1.
</event>
<event>
 6    1  0.1144920E-005  0.3242667E+02  0.7818608E-02  0.1386421E+00
         21   -1    0    0  503  502  0.00000000000E+00  0.00000000000E+00  0.91791120572E+02  0.91791120572E+02  0.00000000000E+00 0. -1.
         21   -1    0    0  501  503 -0.00000000000E+00 -0.00000000000E+00 -0.33315437136E+03  0.33315437136E+03  0.00000000000E+00 0.  1.
        -13    1    1    2    0    0 -0.25144669555E+02  0.20725379402E+02  0.37535570596E+01  0.32800855370E+02  0.10566000000E+00 0.  1.
         13    1    1    2    0    0  0.23750537573E+02 -0.21026241021E+02 -0.49516330858E+01  0.32104838900E+02  0.10566000000E+00 0. -1.
          4    1    1    2  501    0 -0.72091936504E+01 -0.18071644539E+02 -0.29805952060E+03  0.29869388113E+03  0.00000000000E+00 0.  1.
         -4    1    1    2    0  502  0.86033256321E+01  0.18372506158E+02  0.57894345837E+02  0.61345916525E+02  0.00000000000E+00 0. -1.
</event>
<event>
 6    1  0.1144920E-005  0.6997771E+02  0.7818608E-02  0.1231042E+00
         21   -1    0    0  501  502  0.00000000000E+00  0.00000000000E+00  0.16733459401E+03  0.16733459401E+03  0.00000000000E+00 0.  1.
         21   -1    0    0  502  503 -0.00000000000E+00 -0.00000000000E+00 -0.17825199038E+03  0.17825199038E+03  0.00000000000E+00 0. -1.
        -13    1    1    2    0    0 -0.42801290157E+02 -0.79353321335E+02  0.18395408650E+02  0.92017945366E+02  0.10566000000E+00 0.  1.
         13    1    1    2    0    0  0.41627937789E+02  0.15550114778E+02  0.53298715802E+02  0.69393483443E+02  0.10566000000E+00 0. -1.
          4    1    1    2  501    0 -0.63509914726E+02  0.20770498402E+02  0.50875137637E+01  0.67013473785E+02  0.00000000000E+00 0.  1.
         -4    1    1    2    0  503  0.64683267094E+02  0.43032708155E+02 -0.87699034588E+02  0.11716168179E+03  0.00000000000E+00 0. -1.
</event>
<event>
 6    1  0.1144920E-005  0.1669936E+03  0.7818608E-02  0.1103221E+00
         21   -1    0    0  503  502  0.00000000000E+00  0.00000000000E+00  0.14130910477E+03  0.14130910477E+03  0.00000000000E+00 0. -1.
         21   -1    0    0  501  503 -0.00000000000E+00 -0.00000000000E+00 -0.63154993771E+03  0.63154993771E+03  0.00000000000E+00 0. -1.
        -13    1    1    2    0    0 -0.19708142394E+02  0.45060408783E+02  0.13723986550E+02  0.51060848868E+02  0.10566000000E+00 0.  1.
         13    1    1    2    0    0  0.12374932525E+03  0.13811870122E+03 -0.38161029663E+03  0.42428422170E+03  0.10566000000E+00 0. -1.
          4    1    1    2  501    0 -0.45441777426E+02 -0.98846932176E+02  0.30844979549E+02  0.11307998894E+03  0.00000000000E+00 0.  1.
         -4    1    1    2    0  502 -0.58599405433E+02 -0.84332177831E+02 -0.15319950240E+03  0.18443398296E+03  0.00000000000E+00 0. -1.
</event>
<event>
 6    1  0.1144920E-005  0.6503770E+02  0.7818608E-02  0.1270491E+00
         21   -1    0    0  501  502  0.00000000000E+00  0.00000000000E+00  0.19935268693E+03  0.19935268693E+03  0.00000000000E+00 0. -1.
         21   -1    0    0  502  503 -0.00000000000E+00 -0.00000000000E+00 -0.14973425606E+03  0.14973425606E+03  0.00000000000E+00 0. -1.
        -13    1    1    2    0    0  0.24882041662E+02  0.24092072690E+02 -0.12024002343E+02  0.36662402542E+02  0.10566000000E+00 0.  1.
         13    1    1    2    0    0  0.19546234596E+02  0.57546426850E+02 -0.83551118922E+02  0.10331721622E+03  0.10566000000E+00 0. -1.
          4    1    1    2  501    0 -0.75410405895E+01  0.89145441918E+01  0.10122874327E+03  0.10189992569E+03  0.00000000000E+00 0.  1.
         -4    1    1    2    0  503 -0.36887235668E+02 -0.90553043732E+02  0.43964808865E+02  0.10720739855E+03  0.00000000000E+00 0. -1.
</event>
<event>
 6    1  0.1144920E-005  0.2500569E+03  0.7818608E-02  0.1030363E+00
         21   -1    0    0  501  502  0.00000000000E+00  0.00000000000E+00  0.12990252617E+04  0.12990252617E+04  0.00000000000E+00 0.  1.
         21   -1    0    0  502  503 -0.00000000000E+00 -0.00000000000E+00 -0.96533250552E+02  0.96533250552E+02  0.00000000000E+00 0.  1.
        -13    1    1    2    0    0 -0.17776754621E+03 -0.15315305382E+03  0.20879763939E+03  0.31409174417E+03  0.10566000000E+00 0.  1.
         13    1    1    2    0    0  0.23953262254E+03  0.11273173116E+03  0.43734269313E+03  0.51122691915E+03  0.10566000000E+00 0. -1.
          4    1    1    2  501    0 -0.39005459253E+02  0.61933555406E+02  0.50360961968E+03  0.50890061915E+03  0.00000000000E+00 0.  1.
         -4    1    1    2    0  503 -0.22759617077E+02 -0.21512232746E+02  0.52742058958E+02  0.61339229783E+02  0.00000000000E+00 0. -1.
</event>
<event>
 6    1  0.1144920E-005  0.1202257E+03  0.7818608E-02  0.1175994E+00
         21   -1    0    0  501  502  0.00000000000E+00  0.00000000000E+00  0.19938347333E+03  0.19938347333E+03  0.00000000000E+00 0. -1.
         21   -1    0    0  502  503 -0.00000000000E+00 -0.00000000000E+00 -0.32436698239E+03  0.32436698239E+03  0.00000000000E+00 0. -1.
        -13    1    1    2    0    0  0.48677548575E+02  0.10371255962E+02 -0.98017702074E+00  0.49779901532E+02  0.10566000000E+00 0.  1.
         13    1    1    2    0    0 -0.11607109895E+03  0.71467152301E+02  0.22389112932E+02  0.13813521423E+03  0.10566000000E+00 0. -1.
          4    1    1    2  501    0 -0.35535108621E+02 -0.25538005448E+02  0.74109689749E+02  0.86064974186E+02  0.00000000000E+00 0.  1.
         -4    1    1    2    0  503  0.10292865900E+03 -0.56300402815E+02 -0.22050213472E+03  0.24977036577E+03  0.00000000000E+00 0. -1.
</event>
<event>
 6    1  0.1144920E-005  0.2468651E+02  0.7818608E-02  0.1453482E+00
         21   -1    0    0  501  502  0.00000000000E+00  0.00000000000E+00  0.43972414843E+02  0.43972414843E+02  0.00000000000E+00 0. -1.
         21   -1    0    0  502  503 -0.00000000000E+00 -0.00000000000E+00 -0.23380026400E+03  0.23380026400E+03  0.00000000000E+00 0.  1.
        -13    1    1    2    0    0 -0.12219614135E+02 -0.36038298615E+02 -0.19378255415E+03  0.19748358766E+03  0.10566000000E+00 0.  1.
         13    1    1    2    0    0 -0.17020786412E+02  0.19246253383E+02  0.27122378952E+02  0.37359872101E+02  0.10566000000E+00 0. -1.
          4    1    1    2  501    0  0.14212939720E+02  0.50726291417E+01 -0.33957429181E+01  0.15468364227E+02  0.00000000000E+00 0.  1.
         -4    1    1    2    0  503  0.15027460827E+02  0.11719416090E+02 -0.19771931038E+02  0.27460854855E+02  0.00000000000E+00 0. -1.
</event>
<event>
 6    1  0.1144920E-005  0.3909062E+02  0.7818608E-02  0.1343928E+00
         21   -1    0    0  501  502  0.00000000000E+00  0.00000000000E+00  0.40996403432E+02  0.40996403432E+02  0.00000000000E+00 0. -1.
         21   -1    0    0  502  503 -0.00000000000E+00 -0.00000000000E+00 -0.14173853854E+03  0.14173853854E+03  0.00000000000E+00 0.  1.
        -13    1    1    2    0    0  0.28232548176E+02  0.16089221588E+01 -0.87046829443E+02  0.91525007987E+02  0.10566000000E+00 0.  1.
         13    1    1    2    0    0 -0.43001119856E+02 -0.70863860503E+01 -0.29807289850E+02  0.52799610494E+02  0.10566000000E+00 0. -1.
          4    1    1    2  501    0 -0.32921444935E+01  0.10487181497E+02  0.16308218249E+02  0.19666651305E+02  0.00000000000E+00 0.  1.
         -4    1    1    2    0  503  0.18060716174E+02 -0.50097176052E+01 -0.19623406397E+00  0.18743672186E+02  0.00000000000E+00 0. -1.
</event>
<event>
 6    1  0.1144920E-005  0.9490408E+02  0.7818608E-02  0.1173274E+00
         21   -1    0    0  503  502  0.00000000000E+00  0.00000000000E+00  0.19073693899E+03  0.19073693899E+03  0.00000000000E+00 0. -1.
         21   -1    0    0  501  503 -0.00000000000E+00 -0.00000000000E+00 -0.14284919775E+03  0.14284919775E+03  0.00000000000E+00 0. -1.
        -13    1    1    2    0    0  0.68694993060E+01 -0.10109788533E+03 -0.57980529406E+02  0.11674641491E+03  0.10566000000E+00 0.  1.
         13    1    1    2    0    0 -0.34942865056E+02  0.86226912948E+02 -0.35294912354E+01  0.93105063274E+02  0.10566000000E+00 0. -1.
          4    1    1    2  501    0 -0.10207172801E+02 -0.26108792009E+01  0.60550574415E+01  0.12151822391E+02  0.00000000000E+00 0.  1.
         -4    1    1    2    0  502  0.38280538552E+02  0.17481851587E+02  0.10334270443E+03  0.11158283616E+03  0.00000000000E+00 0. -1.
</event>
<event>
 6    1  0.1144920E-005  0.1323915E+03  0.7818608E-02  0.1119904E+00
         21   -1    0    0  501  502  0.00000000000E+00  0.00000000000E+00  0.31368120398E+03  0.31368120398E+03  0.00000000000E+00 0. -1.
         21   -1    0    0  502  503 -0.00000000000E+00 -0.00000000000E+00 -0.14245501619E+03  0.14245501619E+03  0.00000000000E+00 0.  1.
        -13    1    1    2    0    0  0.11575559054E+03  0.27951528384E+02  0.64674617922E+01  0.11925805594E+03  0.10566000000E+00 0.  1.
         13    1    1    2    0    0 -0.16428712894E+03 -0.50669057485E+02  0.18863160666E+03  0.25522442735E+03  0.10566000000E+00 0. -1.
          4    1    1    2  501    0  0.40884579401E+02  0.39829228181E+02 -0.91216557300E+01  0.57802429478E+02  0.00000000000E+00 0.  1.
         -4    1    1    2    0  503  0.76469589996E+01 -0.17111699081E+02 -0.14751224940E+02  0.23851307398E+02  0.00000000000E+00 0. -1.
</event>
<event>
 6    1  0.1144920E-005  0.3961987E+02  0.7818608E-02  0.1346229E+00
         21   -1    0    0  501  502  0.00000000000E+00  0.00000000000E+00  0.50722364382E+02  0.50722364382E+02  0.00000000000E+00 0.  1.
         21   -1    0    0  502  503 -0.00000000000E+00 -0.00000000000E+00 -0.24837373393E+03  0.24837373393E+03  0.00000000000E+00 0.  1.
        -13    1    1    2    0    0 -0.37350131511E+02  0.28287300239E+02 -0.11631221771E+03  0.12539436523E+03  0.10566000000E+00 0.  1.
         13    1    1    2    0    0 -0.19703821636E+02 -0.25129979122E+02 -0.99580700882E+01  0.33450422444E+02  0.10566000000E+00 0. -1.
          4    1    1    2  501    0  0.17765756095E+02 -0.16218867394E+02  0.25401738972E+02  0.34984597925E+02  0.00000000000E+00 0.  1.
         -4    1    1    2    0  503  0.39288197053E+02  0.13061546278E+02 -0.96782820729E+02  0.10526671272E+03  0.00000000000E+00 0. -1.
</event>
<event>
 6    1  0.1144920E-005  0.1238216E+03  0.7818608E-02  0.1134842E+00
         21   -1    0    0  501  502  0.00000000000E+00  0.00000000000E+00  0.63145838614E+03  0.63145838614E+03  0.00000000000E+00 0. -1.
         21   -1    0    0  502  503 -0.00000000000E+00 -0.00000000000E+00 -0.20664490926E+03  0.20664490926E+03  0.00000000000E+00 0.  1.
        -13    1    1    2    0    0 -0.86717047699E+02 -0.47267530269E+02 -0.68894192394E+01  0.99002732492E+02  0.10566000000E+00 0.  1.
         13    1    1    2    0    0  0.53998746490E+02  0.17630186211E+03  0.49375198795E+03  0.52705715817E+03  0.10566000000E+00 0. -1.
          4    1    1    2  501    0  0.68857695835E+02 -0.11320940439E+03  0.68127726871E+01  0.13268068959E+03  0.00000000000E+00 0.  1.
         -4    1    1    2    0  503 -0.36139394626E+02 -0.15824927456E+02 -0.68861864516E+02  0.79362715160E+02  0.00000000000E+00 0. -1.
</event>
<event>
 6    1  0.1144920E-005  0.4375167E+02  0.7818608E-02  0.1319556E+00
         21   -1    0    0  503  502  0.00000000000E+00  0.00000000000E+00  0.82363759496E+02  0.82363759496E+02  0.00000000000E+00 0. -1.
         21   -1    0    0  501  503 -0.00000000000E+00 -0.00000000000E+00 -0.18846120175E+03  0.18846120175E+03  0.00000000000E+00 0. -1.
        -13    1    1    2    0    0 -0.34462550087E+02 -0.73351731283E+01  0.31643626004E+02  0.47358234279E+02  0.10566000000E+00 0.  1.
         13    1    1    2    0    0  0.38637295031E+02  0.30944117769E+02 -0.12239954677E+03  0.13203044802E+03  0.10566000000E+00 0. -1.
          4    1    1    2  501    0  0.66229712128E+01 -0.24840182271E+02 -0.49398368745E+02  0.55687496242E+02  0.00000000000E+00 0.  1.
         -4    1    1    2    0  502 -0.10797716157E+02  0.12312376309E+01  0.34056847252E+02  0.35748782707E+02  0.00000000000E+00 0. -1.
</event>
<event>
 6    1  0.1144920E-005  0.9513304E+02  0.7818608E-02  0.1177620E+00
         21   -1    0    0  503  502  0.00000000000E+00  0.00000000000E+00  0.12914664731E+03  0.12914664731E+03  0.00000000000E+00 0.  1.
         21   -1    0    0  501  503 -0.00000000000E+00 -0.00000000000E+00 -0.62800091850E+03  0.62800091850E+03  0.00000000000E+00 0.  1.
        -13    1    1    2    0    0 -0.83651469591E+02 -0.12494484403E+03  0.28754992658E+02  0.15308704446E+03  0.10566000000E+00 0.  1.
         13    1    1    2    0    0 -0.28315863587E+02  0.85829988064E+02 -0.85389481423E+02  0.12433804600E+03  0.10566000000E+00 0. -1.
          4    1    1    2  501    0  0.56962629159E+02 -0.25694347554E+02 -0.34485997156E+03  0.35047587734E+03  0.00000000000E+00 0.  1.
         -4    1    1    2    0  502  0.55004704019E+02  0.64809203515E+02 -0.97359810873E+02  0.12924659801E+03  0.00000000000E+00 0. -1.
</event>
<event>
 6    1  0.1144920E-005  0.4756450E+03  0.7818608E-02  0.9533012E-01
         21   -1    0    0  503  502  0.00000000000E+00  0.00000000000E+00  0.13687499436E+04  0.13687499436E+04  0.00000000000E+00 0.  1.
         21   -1    0    0  501  503 -0.00000000000E+00 -0.00000000000E+00 -0.25362500531E+03  0.25362500531E+03  0.00000000000E+00 0. -1.
        -13    1    1    2    0    0 -0.44276164860E+03 -0.18301898922E+03  0.24070356181E+03  0.53616419474E+03  0.10566000000E+00 0.  1.
         13    1    1    2    0    0  0.44515102526E+03  0.16774542891E+03  0.89060387367E+03  0.10096896727E+04  0.10566000000E+00 0. -1.
          4    1    1    2  501    0  0.94154382324E+01 -0.75663000091E+01 -0.39810551135E+02  0.41602636390E+02  0.00000000000E+00 0.  1.
         -4    1    1    2    0  502 -0.11804814890E+02  0.22839860315E+02  0.23628053962E+02  0.34918445094E+02  0.00000000000E+00 0. -1.
</event>
<event>
 6    1  0.1144920E-005  0.5049782E+02  0.7818608E-02  0.1289775E+00
         21   -1    0    0  503  502  0.00000000000E+00  0.00000000000E+00  0.15000073658E+03  0.15000073658E+03  0.00000000000E+00 0.  1.
         21   -1    0    0  501  503 -0.00000000000E+00 -0.00000000000E+00 -0.22198010047E+03  0.22198010047E+03  0.00000000000E+00 0.  1.
        -13    1    1    2    0    0  0.22802070502E+02  0.54271214488E+02  0.89498809613E+02  0.10712304713E+03  0.10566000000E+00 0.  1.
         13    1    1    2    0    0  0.29636423942E+01 -0.46073014733E+02 -0.13107164954E+03  0.13896508316E+03  0.10566000000E+00 0. -1.
          4    1    1    2  501    0 -0.13730019433E+02 -0.32686456286E+01 -0.76607079702E+02  0.77896355103E+02  0.00000000000E+00 0.  1.
         -4    1    1    2    0  502 -0.12035693463E+02 -0.49295541263E+01  0.46200555736E+02  0.47996351646E+02  0.00000000000E+00 0. -1.
</event>
<event>
 6    1  0.1144920E-005  0.1174262E+03  0.7818608E-02  0.1138563E+00
         21   -1    0    0  501  502  0.00000000000E+00  0.00000000000E+00  0.54651054835E+02  0.54651054835E+02  0.00000000000E+00 0. -1.
         21   -1    0    0  502  503 -0.00000000000E+00 -0.00000000000E+00 -0.13936287503E+04  0.13936287503E+04  0.00000000000E+00 0. -1.
        -13    1    1    2    0    0  0.10916306561E+03  0.81510739537E+00 -0.39126128378E+03  0.40620517309E+03  0.10566000000E+00 0.  1.
         13    1    1    2    0    0 -0.12095912781E+03 -0.58022016484E+02 -0.10724069801E+03  0.17175052684E+03  0.10566000000E+00 0. -1.
          4    1    1    2  501    0  0.10558805130E+01  0.59083060567E+02 -0.43753980801E+02  0.73527775470E+02  0.00000000000E+00 0.  1.
         -4    1    1    2    0  503  0.10740181677E+02 -0.18761514785E+01 -0.79672173290E+03  0.79679632976E+03  0.00000000000E+00 0. -1.
</event>
<event>
 6    1  0.1144920E-005  0.5318393E+03  0.7818608E-02  0.9410790E-01
         21   -1    0    0  501  502  0.00000000000E+00  0.00000000000E+00  0.14216395409E+04  0.14216395409E+04  0.00000000000E+00 0.  1.
         21   -1    0    0  502  503 -0.00000000000E+00 -0.00000000000E+00 -0.52012220392E+03  0.52012220392E+03  0.00000000000E+00 0.  1.
        -13    1    1    2    0    0 -0.23403807436E+03  0.44233742939E+03  0.17792320027E+03  0.53112418327E+03  0.10566000000E+00 0.  1.
         13    1    1    2    0    0  0.20612252903E+03 -0.55568112341E+03  0.14419445064E+03  0.60996726031E+03  0.10566000000E+00 0. -1.
          4    1    1    2  501    0 -0.25366805833E+01 -0.52038705813E+02  0.62441659099E+03  0.62658641923E+03  0.00000000000E+00 0.  1.
         -4    1    1    2    0  503  0.30452225911E+02  0.16538239983E+03 -0.45016904963E+02  0.17408388199E+03  0.00000000000E+00 0. -1.
</event>
<event>
 6    1  0.1144920E-005  0.1044521E+03  0.7818608E-02  0.1157392E+00
         21   -1    0    0  503  502  0.00000000000E+00  0.00000000000E+00  0.13699322177E+03  0.13699322177E+03  0.00000000000E+00 0.  1.
         21   -1    0    0  501  503 -0.00000000000E+00 -0.00000000000E+00 -0.56925223897E+03  0.56925223897E+03  0.00000000000E+00 0. -1.
        -13    1    1    2    0    0  0.19885306113E+02 -0.91247545887E+02  0.59314753069E+02  0.11063358950E+03  0.10566000000E+00 0.  1.
         13    1    1    2    0    0 -0.79014877225E+01  0.97956558550E+02 -0.29035478965E+03  0.30653521153E+03  0.10566000000E+00 0. -1.
          4    1    1    2  501    0 -0.15167880456E+02  0.61017412660E+01 -0.24387622071E+03  0.24442362176E+03  0.00000000000E+00 0.  1.
         -4    1    1    2    0  502  0.31840620656E+01 -0.12810753928E+02  0.42657240087E+02  0.44653037963E+02  0.00000000000E+00 0. -1.
</event>
<event>
 6    1  0.1437461E-005  0.1650652E+03  0.7818608E-02  0.1087135E+00
         21   -1    0    0  503  502  0.00000000000E+00  0.00000000000E+00  0.39119832875E+03  0.39119832875E+03  0.00000000000E+00 0.  1.
         21   -1    0    0  501  503 -0.00000000000E+00 -0.00000000000E+00 -0.44699756942E+03  0.44699756942E+03  0.00000000000E+00 0. -1.
        -13    1    1    2    0    0 -0.75870526157E+02 -0.34657929777E+02  0.26626064709E+03  0.27902016449E+03  0.10566000000E+00 0.  1.
         13    1    1    2    0    0  0.20378685857E+03  0.41628406021E+02 -0.35683642343E+03  0.41303057049E+03  0.10566000000E+00 0. -1.
          4    1    1    2  501    0 -0.96618359560E+02  0.18843481356E+02  0.37836667080E+02  0.10545993348E+03  0.00000000000E+00 0.  1.
         -4    1    1    2    0  502 -0.31297972853E+02 -0.25813957599E+02 -0.30601314183E+01  0.40685229703E+02  0.00000000000E+00 0. -1.
</event>
<event>
 6    1  0.1144920E-005  0.8636733E+02  0.7818608E-02  0.1211574E+00
         21   -1    0    0  501  502  0.00000000000E+00  0.00000000000E+00  0.70855278182E+02  0.70855278182E+02  0.00000000000E+00 0. -1.
         21   -1    0    0  502  503 -0.00000000000E+00 -0.00000000000E+00 -0.33471859343E+03  0.33471859343E+03  0.00000000000E+00 0.  1.
        -13    1    1    2    0    0 -0.35870255591E+02 -0.83221612514E+01  0.12704704474E+02  0.38953232008E+02  0.10566000000E+00 0.  1.
         13    1    1    2    0    0 -0.42089846092E+01  0.99338866997E+02 -0.42345791503E+02  0.10806989992E+03  0.10566000000E+00 0. -1.
          4    1    1    2  501    0  0.21985327476E+02 -0.65717955997E+02 -0.10623812094E+03  0.12684140769E+03  0.00000000000E+00 0.  1.
         -4    1    1    2    0  503  0.18093912724E+02 -0.25298749748E+02 -0.12798410728E+03  0.13170933199E+03  0.00000000000E+00 0. -1.
</event>
<event>
 6    1  0.1144920E-005  0.1148564E+03  0.7818608E-02  0.1142074E+00
         21   -1    0    0  501  502  0.00000000000E+00  0.00000000000E+00  0.26339805793E+03  0.26339805793E+03  0.00000000000E+00 0.  1.
         21   -1    0    0  502  503 -0.00000000000E+00 -0.00000000000E+00 -0.39647994390E+03  0.39647994390E+03  0.00000000000E+00 0.  1.
        -13    1    1    2    0    0 -0.77700105117E+02  0.65133561529E+02 -0.20556669812E+03  0.22921030892E+03  0.10566000000E+00 0.  1.
         13    1    1    2    0    0  0.76684347702E+02 -0.12791247329E+03 -0.11337340736E+03  0.18733827870E+03  0.10566000000E+00 0. -1.
          4    1    1    2  501    0 -0.58584685896E+01  0.49593567829E+02  0.20951677203E+03  0.21538598234E+03  0.00000000000E+00 0.  1.
         -4    1    1    2    0  503  0.68742260042E+01  0.13185343928E+02 -0.23658552530E+02  0.27943431884E+02  0.00000000000E+00 0. -1.
</event>
<event>
 6    1  0.1144920E-005  0.3159827E+02  0.7818608E-02  0.1392516E+00
         21   -1    0    0  501  502  0.00000000000E+00  0.00000000000E+00  0.66766082854E+02  0.66766082854E+02  0.00000000000E+00 0. -1.
         21   -1    0    0  502  503 -0.00000000000E+00 -0.00000000000E+00 -0.15882653062E+03  0.15882653062E+03  0.00000000000E+00 0.  1.
        -13    1    1    2    0    0 -0.30206034628E+02 -0.17186960759E+02 -0.12994417271E+03  0.13451132046E+03  0.10566000000E+00 0.  1.
         13    1    1    2    0    0  0.34562975800E+02 -0.50683101496E+01  0.72873815833E+01  0.35684788892E+02  0.10566000000E+00 0. -1.
          4    1    1    2  501    0 -0.81874540303E+01 -0.91450713108E+01  0.16992701846E+02  0.20962314967E+02  0.00000000000E+00 0.  1.
         -4    1    1    2    0  503  0.38305128583E+01  0.31400342219E+02  0.13603641511E+02  0.34434189153E+02  0.00000000000E+00 0. -1.
</event>
<event>
 6    1  0.1144920E-005  0.8185930E+02  0.7818608E-02  0.1198650E+00
         21   -1    0    0  501  502  0.00000000000E+00  0.00000000000E+00  0.40221828035E+02  0.40221828035E+02  0.00000000000E+00 0. -1.
         21   -1    0    0  502  503 -0.00000000000E+00 -0.00000000000E+00 -0.30164587614E+03  0.30164587614E+03  0.00000000000E+00 0.  1.
        -13    1    1    2    0    0 -0.25767172719E+02  0.90313526853E+02 -0.17135325596E+03  0.19540324924E+03  0.10566000000E+00 0.  1.
         13    1    1    2    0    0  0.24094317209E+02 -0.66654294561E+02 -0.51889037420E+02  0.87839708980E+02  0.10566000000E+00 0. -1.
          4    1    1    2  501    0  0.21532498610E+01 -0.12300236734E+02  0.53850458463E+01  0.13598934791E+02  0.00000000000E+00 0.  1.
         -4    1    1    2    0  503 -0.48039435098E+00 -0.11358995557E+02 -0.43566800571E+02  0.45025811162E+02  0.00000000000E+00 0. -1.
</event>
<event>
 6    1  0.1144920E-005  0.2695344E+03  0.7818608E-02  0.1020739E+00
         21   -1    0    0  503  502  0.00000000000E+00  0.00000000000E+00  0.25266733877E+03  0.25266733877E+03  0.00000000000E+00 0.  1.
         21   -1    0    0  501  503 -0.00000000000E+00 -0.00000000000E+00 -0.10378896140E+04  0.10378896140E+04  0.00000000000E+00 0. -1.
        -13    1    1    2    0    0 -0.32434862972E+01  0.19482078091E+03  0.88940597314E+02  0.21418706285E+03  0.10566000000E+00 0.  1.
         13    1    1    2    0    0  0.17858547963E+03 -0.27579127605E+03 -0.23248652001E+03  0.40249670139E+03  0.10566000000E+00 0. -1.
          4    1    1    2  501    0 -0.13239365608E+03  0.74939138905E+02 -0.57128217751E+03  0.59119140813E+03  0.00000000000E+00 0.  1.
         -4    1    1    2    0  502 -0.42948337255E+02  0.60313562340E+01 -0.70394174976E+02  0.82681780348E+02  0.00000000000E+00 0. -1.
</event>
<event>
 6    1  0.1144920E-005  0.1310796E+03  0.7818608E-02  0.1121430E+00
         21   -1    0    0  503  502  0.00000000000E+00  0.00000000000E+00  0.40706547426E+03  0.40706547426E+03  0.00000000000E+00 0. -1.
         21   -1    0    0  501  503 -0.00000000000E+00 -0.00000000000E+00 -0.13835193627E+03  0.13835193627E+03  0.00000000000E+00 0. -1.
        -13    1    1    2    0    0  0.83657313402E+02  0.82468945182E+02  0.82900909592E+02  0.14377845798E+03  0.10566000000E+00 0.  1.
         13    1    1    2    0    0 -0.12686640202E+03 -0.89586358574E+02  0.63574211096E+02  0.16781683790E+03  0.10566000000E+00 0. -1.
          4    1    1    2  501    0  0.34668680031E+02  0.16986922941E+02 -0.48834661299E+02  0.62251884070E+02  0.00000000000E+00 0.  1.
         -4    1    1    2    0  502  0.85404085855E+01 -0.98695095483E+01  0.17107307860E+03  0.17157023057E+03  0.00000000000E+00 0. -1.
</event>
<event>
 6    1  0.1144920E-005  0.2700715E+03  0.7818608E-02  0.1083717E+00
         21   -1    0    0  501  502  0.00000000000E+00  0.00000000000E+00  0.53151669778E+03  0.53151669778E+03  0.00000000000E+00 0.  1.
         21   -1    0    0  502  503 -0.00000000000E+00 -0.00000000000E+00 -0.46666505398E+03  0.46666505398E+03  0.00000000000E+00 0.  1.
        -13    1    1    2    0    0 -0.15912988569E+03 -0.19959154329E+03 -0.27119677755E+03  0.37243362898E+03  0.10566000000E+00 0.  1.
         13    1    1    2    0    0  0.95465487723E+01 -0.23581406528E+02 -0.34125997734E+01  0.25668586415E+02  0.10566000000E+00 0. -1.
          4    1    1    2  501    0  0.18408384463E+03  0.20020374961E+03  0.42526142580E+03  0.50479271338E+03  0.00000000000E+00 0.  1.
         -4    1    1    2    0  503 -0.34500507719E+02  0.22969200213E+02 -0.85800404676E+02  0.95286822982E+02  0.00000000000E+00 0. -1.
</event>
<event>
 6    1  0.1144920E-005  0.3845971E+02  0.7818608E-02  0.1347523E+00
         21   -1    0    0  503  502  0.00000000000E+00  0.00000000000E+00  0.14581124069E+03  0.14581124069E+03  0.00000000000E+00 0. -1.
         21   -1    0    0  501  503 -0.00000000000E+00 -0.00000000000E+00 -0.60481703470E+02  0.60481703470E+02  0.00000000000E+00 0. -1.
        -13    1    1    2    0    0  0.29560484999E+02  0.61137980725E+01  0.12721601622E+02  0.32757458878E+02  0.10566000000E+00 0.  1.
         13    1    1    2    0    0 -0.36612415443E+02 -0.67093540428E+00 -0.34687130077E+02  0.50439342540E+02  0.10566000000E+00 0. -1.
          4    1    1    2  501    0 -0.14809522443E+02  0.14114070133E+00  0.14592721868E+01  0.14881913553E+02  0.00000000000E+00 0.  1.
         -4    1    1    2    0  502  0.21861452886E+02 -0.55840033695E+01  0.10583579349E+03  0.10821422919E+03  0.00000000000E+00 0. -1.
</event>
<event>
 6    1  0.1144920E-005  0.4595930E+02  0.7818608E-02  0.1319081E+00
         21   -1    0    0  503  502  0.00000000000E+00  0.00000000000E+00  0.97404058873E+02  0.97404058873E+02  0.00000000000E+00 0. -1.
         21   -1    0    0  501  503 -0.00000000000E+00 -0.00000000000E+00 -0.17904971693E+03  0.17904971693E+03  0.00000000000E+00 0.  1.
        -13    1    1    2    0    0 -0.29820019508E+02  0.34166869041E+02  0.37402747107E+01  0.45503948427E+02  0.10566000000E+00 0.  1.
         13    1    1    2    0    0 -0.29250242575E+02 -0.25471574940E+02 -0.53215206639E+02  0.65850187565E+02  0.10566000000E+00 0. -1.
          4    1    1    2  501    0  0.48696748419E+02 -0.34469997969E+01 -0.92000629536E+02  0.10415071267E+03  0.00000000000E+00 0.  1.
         -4    1    1    2    0  502  0.10373513664E+02 -0.52482943043E+01  0.59829903404E+02  0.60948927146E+02  0.00000000000E+00 0. -1.
</event>
<event>
 6    1  0.1144920E-005  0.2216058E+02  0.7818608E-02  0.1481847E+00
         21   -1    0    0  501  502  0.00000000000E+00  0.00000000000E+00  0.85973642374E+02  0.85973642374E+02  0.00000000000E+00 0.  1.
         21   -1    0    0  502  503 -0.00000000000E+00 -0.00000000000E+00 -0.27861834860E+02  0.27861834860E+02  0.00000000000E+00 0.  1.
        -13    1    1    2    0    0  0.24468166077E+02 -0.36438568353E+01  0.17547812160E+01  0.24800388403E+02  0.10566000000E+00 0.  1.
         13    1    1    2    0    0 -0.94124141940E+01 -0.25674218451E+02  0.42646864755E+02  0.50660885025E+02  0.10566000000E+00 0. -1.
          4    1    1    2  501    0 -0.13880417267E+02  0.11615556784E+02  0.70353430452E+01  0.19418630093E+02  0.00000000000E+00 0.  1.
         -4    1    1    2    0  503 -0.11753346158E+01  0.17702518503E+02  0.66748184979E+01  0.18955573713E+02  0.00000000000E+00 0. -1.
</event>
<event>
 6    1  0.1144920E-005  0.1755730E+03  0.7818608E-02  0.1105512E+00
         21   -1    0    0  501  502  0.00000000000E+00  0.00000000000E+00  0.85635051199E+03  0.85635051199E+03  0.00000000000E+00 0. -1.
         21   -1    0    0  502  503 -0.00000000000E+00 -0.00000000000E+00 -0.11263322805E+04  0.11263322805E+04  0.00000000000E+00 0. -1.
        -13    1    1    2    0    0 -0.51717717620E+02  0.66632699199E+02 -0.12523371450E+02  0.85273002263E+02  0.10566000000E+00 0.  1.
         13    1    1    2    0    0 -0.12701683966E+02  0.11523626953E+03  0.43248380639E+03  0.44775326301E+03  0.10566000000E+00 0. -1.
          4    1    1    2  501    0  0.91971482601E+01 -0.14123046619E+02  0.37237693416E+03  0.37275813751E+03  0.00000000000E+00 0.  1.
         -4    1    1    2    0  503  0.55222253326E+02 -0.16774592211E+03 -0.10623191376E+04  0.10768983897E+04  0.00000000000E+00 0. -1.
</event>
<event>
 6    1  0.1144920E-005  0.5175358E+02  0.7818608E-02  0.1297845E+00
         21   -1    0    0  503  502  0.00000000000E+00  0.00000000000E+00  0.50785355315E+03  0.50785355315E+03  0.00000000000E+00 0.  1.
         21   -1    0    0  501  503 -0.00000000000E+00 -0.00000000000E+00 -0.87376911939E+02  0.87376911939E+02  0.00000000000E+00 0.  1.
        -13    1    1    2    0    0  0.62568930433E+02 -0.59736137665E+01  0.23711368728E+03  0.24530280670E+03  0.10566000000E+00 0.  1.
         13    1    1    2    0    0 -0.25853052100E+02  0.41119545299E+01  0.58075988654E+02  0.63703375854E+02  0.10566000000E+00 0. -1.
          4    1    1    2  501    0 -0.35613162399E+02 -0.38174961121E+02 -0.69745962636E+02  0.87121319415E+02  0.00000000000E+00 0.  1.
         -4    1    1    2    0  502 -0.11027159347E+01  0.40036620357E+02  0.19503292791E+03  0.19910296312E+03  0.00000000000E+00 0. -1.
</event>
<event>
 6    1  0.1144920E-005  0.7949708E+02  0.7818608E-02  0.1211013E+00
         21   -1    0    0  503  502  0.00000000000E+00  0.00000000000E+00  0.44733352472E+03  0.44733352472E+03  0.00000000000E+00 0.  1.
         21   -1    0    0  501  503 -0.00000000000E+00 -0.00000000000E+00 -0.24609347295E+03  0.24609347295E+03  0.00000000000E+00 0. -1.
        -13    1    1    2    0    0  0.38301712536E+02 -0.10250440410E+03  0.22927345948E+03  0.25404823248E+03  0.10566000000E+00 0.  1.
         13    1    1    2    0    0 -0.29285183930E+02 -0.39498256215E+02 -0.72305195725E+02  0.87440189471E+02  0.10566000000E+00 0. -1.
          4    1    1    2  501    0 -0.20750910508E+02  0.75429742816E+02 -0.13739277642E+03  0.15810446357E+03  0.00000000000E+00 0.  1.
         -4    1    1    2    0  502  0.11734381902E+02  0.66572917496E+02  0.18166456444E+03  0.19383411215E+03  0.00000000000E+00 0. -1.
</event>
<event>
 6    1  0.1144920E-005  0.1546018E+02  0.7818608E-02  0.1604062E+00
         21   -1    0    0  503  502  0.00000000000E+00  0.00000000000E+00  0.26564087326E+03  0.26564087326E+03  0.00000000000E+00 0.  1.
         21   -1    0    0  501  503 -0.00000000000E+00 -0.00000000000E+00 -0.16796435014E+02  0.16796435014E+02  0.00000000000E+00 0.  1.
        -13    1    1    2    0    0  0.13015639378E+02 -0.20918392777E+02  0.64092081419E+02  0.68664343654E+02  0.10566000000E+00 0.  1.
         13    1    1    2    0    0 -0.11768322078E+02  0.12941373393E+02  0.18151605885E+02  0.25208421412E+02  0.10566000000E+00 0. -1.
          4    1    1    2  501    0  0.77294056812E+01 -0.79616831221E+01 -0.75720040072E+01  0.13433813867E+02  0.00000000000E+00 0.  1.
         -4    1    1    2    0  502 -0.89767229814E+01  0.15938702506E+02  0.17417275495E+03  0.17513072934E+03  0.00000000000E+00 0. -1.
</event>
<event>
 6    1  0.1144920E-005  0.6341903E+02  0.7818608E-02  0.1245131E+00
         21   -1    0    0  501  502  0.00000000000E+00  0.00000000000E+00  0.22143769584E+02  0.22143769584E+02  0.00000000000E+00 0. -1.
         21   -1    0    0  502  503 -0.00000000000E+00 -0.00000000000E+00 -0.54434180419E+03  0.54434180419E+03  0.00000000000E+00 0.  1.
        -13    1    1    2    0    0  0.15512196039E+02 -0.62046716076E+02 -0.26844108693E+03  0.27595479977E+03  0.10566000000E+00 0.  1.
         13    1    1    2    0    0 -0.15702380729E+02  0.54184907547E+02 -0.94221275088E+02  0.10981907307E+03  0.10566000000E+00 0. -1.
          4    1    1    2  501    0 -0.32352490063E+02  0.71769305864E+01 -0.22972054695E+02  0.40322540133E+02  0.00000000000E+00 0.  1.
         -4    1    1    2    0  503  0.32542674753E+02  0.68487794255E+00 -0.13656361789E+03  0.14038916080E+03  0.00000000000E+00 0. -1.
</event>
<event>
 6    1  0.1144920E-005  0.4107382E+02  0.7818608E-02  0.1338266E+00
         21   -1    0    0  501  502  0.00000000000E+00  0.00000000000E+00  0.19413392406E+04  0.19413392406E+04  0.00000000000E+00 0.  1.
         21   -1    0    0  502  503 -0.00000000000E+00 -0.00000000000E+00 -0.51269890224E+02  0.51269890224E+02  0.00000000000E+00 0. -1.
        -13    1    1    2    0    0 -0.47229934110E+01  0.41889991777E+02 -0.18384045894E+02  0.45989807407E+02  0.10566000000E+00 0.  1.
         13    1    1    2    0    0  0.14202606734E+02 -0.48459402772E+01  0.15113396713E+01  0.15082854068E+02  0.10566000000E+00 0. -1.
          4    1    1    2  501    0  0.37346381964E+02 -0.10509265908E+01  0.18470298996E+04  0.18474077261E+04  0.00000000000E+00 0.  1.
         -4    1    1    2    0  503 -0.46825995287E+02 -0.35993124909E+02  0.59912157054E+02  0.84128743234E+02  0.00000000000E+00 0. -1.
</event>
<event>
 6    1  0.1144920E-005  0.6154882E+02  0.7818608E-02  0.1288589E+00
         21   -1    0    0  501  502  0.00000000000E+00  0.00000000000E+00  0.41114138961E+03  0.41114138961E+03  0.00000000000E+00 0.  1.
         21   -1    0    0  502  503 -0.00000000000E+00 -0.00000000000E+00 -0.27717866612E+03  0.27717866612E+03  0.00000000000E+00 0.  1.
        -13    1    1    2    0    0 -0.29035235151E+01  0.49248959869E+02 -0.17075219312E+03  0.17773635846E+03  0.10566000000E+00 0.  1.
         13    1    1    2    0    0 -0.15553552600E+01 -0.12746859837E+03  0.12562786477E+03  0.17897774798E+03  0.10566000000E+00 0. -1.
          4    1    1    2  501    0 -0.89280167583E+01  0.90455928132E+02  0.24601211152E+03  0.26226693164E+03  0.00000000000E+00 0.  1.
         -4    1    1    2    0  503  0.13386895533E+02 -0.12236289631E+02 -0.66925059679E+02  0.69339017653E+02  0.00000000000E+00 0. -1.
</event>
<event>
 6    1  0.1144920E-005  0.8314613E+02  0.7818608E-02  0.1267650E+00
         21   -1    0    0  501  502  0.00000000000E+00  0.00000000000E+00  0.10532558751E+03  0.10532558751E+03  0.00000000000E+00 0.  1.
         21   -1    0    0  502  503 -0.00000000000E+00 -0.00000000000E+00 -0.64914501799E+03  0.64914501799E+03  0.00000000000E+00 0. -1.
        -13    1    1    2    0    0 -0.22866332115E+01  0.82720849573E+02 -0.25664036330E+03  0.26965209972E+03  0.10566000000E+00 0.  1.
         13    1    1    2    0    0  0.86114193997E+01  0.55034357531E+01  0.27265547491E+02  0.29118131691E+02  0.10566000000E+00 0. -1.
          4    1    1    2  501    0 -0.22169141534E+02 -0.80497099591E+02  0.45660712457E+02  0.95163830004E+02  0.00000000000E+00 0.  1.
         -4    1    1    2    0  503  0.15844355346E+02 -0.77271857355E+01 -0.36010532713E+03  0.36053654409E+03  0.00000000000E+00 0. -1.
</event>
<event>
 6    1  0.1144920E-005  0.5540917E+02  0.7818608E-02  0.1321859E+00
         21   -1    0    0  501  502  0.00000000000E+00  0.00000000000E+00  0.73434550724E+02  0.73434550724E+02  0.00000000000E+00 0. -1.
         21   -1    0    0  502  503 -0.00000000000E+00 -0.00000000000E+00 -0.19268349152E+03  0.19268349152E+03  0.00000000000E+00 0.  1.
        -13    1    1    2    0    0 -0.41297201752E+02  0.48397632924E+02 -0.13312587518E+03  0.14754761791E+03  0.10566000000E+00 0.  1.
         13    1    1    2    0    0  0.17201023075E+02 -0.11601443285E+02  0.32865335652E+02  0.38866568316E+02  0.10566000000E+00 0. -1.
          4    1    1    2  501    0  0.24602908920E+02 -0.48280710835E+02  0.36533660495E+01  0.54310931216E+02  0.00000000000E+00 0.  1.
         -4    1    1    2    0  503 -0.50673024249E+00  0.11484521196E+02 -0.22641767316E+02  0.25392924799E+02  0.00000000000E+00 0. -1.
</event>
<event>
 6    1  0.1144920E-005  0.1738066E+03  0.7818608E-02  0.1079745E+00
         21   -1    0    0  503  502  0.00000000000E+00  0.00000000000E+00  0.94249254311E+02  0.94249254311E+02  0.00000000000E+00 0.  1.
         21   -1    0    0  501  503 -0.00000000000E+00 -0.00000000000E+00 -0.81099412487E+03  0.81099412487E+03  0.00000000000E+00 0. -1.
        -13    1    1    2    0    0 -0.23434040393E+03 -0.49057425333E+02 -0.28044616819E+03  0.36874397664E+03  0.10566000000E+00 0.  1.
         13    1    1    2    0    0  0.14626570139E+03 -0.38202917559E+02 -0.21708514215E+03  0.26453560898E+03  0.10566000000E+00 0. -1.
          4    1    1    2  501    0 -0.17542511315E+02 -0.24853952658E+00 -0.56455894636E+02  0.59119112935E+02  0.00000000000E+00 0.  1.
         -4    1    1    2    0  502  0.10561721385E+03  0.87508882418E+02 -0.16275766558E+03  0.21284468062E+03  0.00000000000E+00 0. -1.
</event>
<event>
 6    1  0.1144920E-005  0.1637455E+03  0.7818608E-02  0.1088294E+00
         21   -1    0    0  503  502  0.00000000000E+00  0.00000000000E+00  0.33954451364E+03  0.33954451364E+03  0.00000000000E+00 0. -1.
         21   -1    0    0  501  503 -0.00000000000E+00 -0.00000000000E+00 -0.72112311804E+03  0.72112311804E+03  0.00000000000E+00 0. -1.
        -13    1    1    2    0    0  0.70652076937E+02 -0.82101127957E+02  0.13293846605E+03  0.17147873952E+03  0.10566000000E+00 0.  1.
         13    1    1    2    0    0 -0.39770077781E+02  0.14093868980E+03 -0.42303543483E+03  0.44766545952E+03  0.10566000000E+00 0. -1.
          4    1    1    2  501    0 -0.35260273563E+01  0.27128396592E+02 -0.25409432661E+03  0.25556273122E+03  0.00000000000E+00 0.  1.
         -4    1    1    2    0  502 -0.27355971800E+02 -0.85965958437E+02  0.16261269099E+03  0.18596070143E+03  0.00000000000E+00 0. -1.
</event>
<event>
 6    1  0.1144920E-005  0.9425862E+02  0.7818608E-02  0.1174421E+00
         21   -1    0    0  501  502  0.00000000000E+00  0.00000000000E+00  0.41103179202E+03  0.41103179202E+03  0.00000000000E+00 0. -1.
         21   -1    0    0  502  503 -0.00000000000E+00 -0.00000000000E+00 -0.59950307681E+02  0.59950307681E+02  0.00000000000E+00 0.  1.
        -13    1    1    2    0    0  0.96009884363E+02  0.44783838963E+02  0.78344960989E+02  0.13176279522E+03  0.10566000000E+00 0.  1.
         13    1    1    2    0    0 -0.61961838023E+02 -0.59824417656E+02  0.57279930457E+02  0.10343709159E+03  0.10566000000E+00 0. -1.
          4    1    1    2  501    0  0.62979134910E+01 -0.30869455815E+02  0.10400468050E+03  0.10867180215E+03  0.00000000000E+00 0.  1.
         -4    1    1    2    0  503 -0.40345959831E+02  0.45910034508E+02  0.11145191239E+03  0.12711041074E+03  0.00000000000E+00 0. -1.
</event>
<event>
 6    1  0.1144920E-005  0.5258860E+02  0.7818608E-02  0.1281594E+00
         21   -1    0    0  501  502  0.00000000000E+00  0.00000000000E+00  0.23640852249E+03  0.23640852249E+03  0.00000000000E+00 0.  1.
         21   -1    0    0  502  503 -0.00000000000E+00 -0.00000000000E+00 -0.17572350243E+03  0.17572350243E+03  0.00000000000E+00 0. -1.
        -13    1    1    2    0    0 -0.46659411798E+02  0.25938010295E+01 -0.31159978169E+02  0.56167463150E+02  0.10566000000E+00 0.  1.
         13    1    1    2    0    0  0.52481229077E+02  0.19122800632E+02  0.31789846451E+02  0.64269482734E+02  0.10566000000E+00 0. -1.
          4    1    1    2  501    0  0.22616218456E+01 -0.10667456623E+02  0.17530054456E+03  0.17563937624E+03  0.00000000000E+00 0.  1.
         -4    1    1    2    0  503 -0.80834391245E+01 -0.11049145038E+02 -0.11524539278E+03  0.11605570279E+03  0.00000000000E+00 0. -1.
</event>
<event>
 6    1  0.1144920E-005  0.1001630E+03  0.7818608E-02  0.1191937E+00
         21   -1    0    0  501  502  0.00000000000E+00  0.00000000000E+00  0.16070861038E+03  0.16070861038E+03  0.00000000000E+00 0.  1.
         21   -1    0    0  502  503 -0.00000000000E+00 -0.00000000000E+00 -0.34711539476E+03  0.34711539476E+03  0.00000000000E+00 0.  1.
        -13    1    1    2    0    0  0.10000325996E+03  0.30124756989E+02 -0.28456299513E+03  0.30312416985E+03  0.10566000000E+00 0.  1.
         13    1    1    2    0    0 -0.54869538003E+02  0.11789326388E+01 -0.36481164622E+00  0.54883516053E+02  0.10566000000E+00 0. -1.
          4    1    1    2  501    0 -0.60722869278E+02  0.82254909158E+01  0.85848882662E+02  0.10547490796E+03  0.00000000000E+00 0.  1.
         -4    1    1    2    0  503  0.15589147323E+02 -0.39529180543E+02  0.12672139737E+02  0.44341411279E+02  0.00000000000E+00 0. -1.
</event>
<event>
 6    1  0.1144920E-005  0.6226413E+02  0.7818608E-02  0.1270586E+00
         21   -1    0    0  501  502  0.00000000000E+00  0.00000000000E+00  0.12410782548E+03  0.12410782548E+03  0.00000000000E+00 0. -1.
         21   -1    0    0  502  503 -0.00000000000E+00 -0.00000000000E+00 -0.84305168542E+02  0.84305168542E+02  0.00000000000E+00 0. -1.
        -13    1    1    2    0    0 -0.18763023609E+02  0.32696926975E+02  0.10358405397E+02  0.39095368203E+02  0.10566000000E+00 0.  1.
         13    1    1    2    0    0  0.48540736993E+02 -0.85248691258E+02  0.39618703383E+02  0.10579789852E+03  0.10566000000E+00 0. -1.
          4    1    1    2  501    0  0.67517429199E+00  0.10494014980E+02  0.42243031218E+00  0.10524193940E+02  0.00000000000E+00 0.  1.
         -4    1    1    2    0  503 -0.30452887676E+02  0.42057749303E+02 -0.10596882160E+02  0.52995533357E+02  0.00000000000E+00 0. -1.
</event>
<event>
 6    1  0.1144920E-005  0.5184081E+02  0.7818608E-02  0.1317412E+00
         21   -1    0    0  501  502  0.00000000000E+00  0.00000000000E+00  0.60814776936E+02  0.60814776936E+02  0.00000000000E+00 0.  1.
         21   -1    0    0  502  503 -0.00000000000E+00 -0.00000000000E+00 -0.10539290430E+03  0.10539290430E+03  0.00000000000E+00 0. -1.
        -13    1    1    2    0    0 -0.30281916145E+01  0.46502793838E+02  0.78599411738E+01  0.47259598162E+02  0.10566000000E+00 0.  1.
         13    1    1    2    0    0 -0.85017057347E+01 -0.10356679903E+02 -0.63711650786E+01  0.14837207538E+02  0.10566000000E+00 0. -1.
          4    1    1    2  501    0  0.14354415784E+02 -0.63385257712E+02 -0.25296154771E+02  0.69739770532E+02  0.00000000000E+00 0.  1.
         -4    1    1    2    0  503 -0.28245184347E+01  0.27239143777E+02 -0.20770748687E+02  0.34371105003E+02  0.00000000000E+00 0. -1.
</event>
<event>
 6    1  0.1144920E-005  0.4078013E+02  0.7818608E-02  0.1351904E+00
         21   -1    0    0  503  502  0.00000000000E+00  0.00000000000E+00  0.30465986653E+03  0.30465986653E+03  0.00000000000E+00 0. -1.
         21   -1    0    0  501  503 -0.00000000000E+00 -0.00000000000E+00 -0.76315400948E+02  0.76315400948E+02  0.00000000000E+00 0. -1.
        -13    1    1    2    0    0 -0.31509350991E+02  0.67403668799E+01  0.59507740557E+02  0.67671663905E+02  0.10566000000E+00 0.  1.
         13    1    1    2    0    0  0.37391019305E+02 -0.55371473587E+02 -0.17177588301E+02  0.68986731447E+02  0.10566000000E+00 0. -1.
          4    1    1    2  501    0 -0.27705195926E+02  0.29854939190E+02 -0.13367702426E+02  0.42867128939E+02  0.00000000000E+00 0.  1.
         -4    1    1    2    0  502  0.21823527612E+02  0.18776167518E+02  0.19938201575E+03  0.20144974318E+03  0.00000000000E+00 0. -1.
</event>
<event>
 6    1  0.1144920E-005  0.1812070E+03  0.7818608E-02  0.1073844E+00
         21   -1    0    0  503  502  0.00000000000E+00  0.00000000000E+00  0.42925494736E+03  0.42925494736E+03  0.00000000000E+00 0.  1.
         21   -1    0    0  501  503 -0.00000000000E+00 -0.00000000000E+00 -0.94974459685E+03  0.94974459685E+03  0.00000000000E+00 0.  1.
        -13    1    1    2    0    0 -0.10078444698E+03 -0.14012457604E+03  0.23305217601E+03  0.29000987823E+03  0.10566000000E+00 0.  1.
         13    1    1    2    0    0  0.79292976101E+02  0.16486566934E+03  0.72641067369E+02  0.19683699047E+03  0.10566000000E+00 0. -1.
          4    1    1    2  501    0  0.17978968008E+02 -0.59112046574E+00 -0.85454625962E+03  0.85473557463E+03  0.00000000000E+00 0.  1.
         -4    1    1    2    0  502  0.35125028693E+01 -0.24149972830E+02  0.28363366757E+02  0.37417100875E+02  0.00000000000E+00 0. -1.
</event>
<event>
 6    1  0.1144920E-005  0.1578714E+03  0.7818608E-02  0.1095719E+00
         21   -1    0    0  501  502  0.00000000000E+00  0.00000000000E+00  0.81331987259E+03  0.81331987259E+03  0.00000000000E+00 0. -1.
         21   -1    0    0  502  503 -0.00000000000E+00 -0.00000000000E+00 -0.16272090297E+03  0.16272090297E+03  0.00000000000E+00 0.  1.
        -13    1    1    2    0    0 -0.63012545410E+02 -0.25441858027E+02 -0.41888221955E+02  0.79827960776E+02  0.10566000000E+00 0.  1.
         13    1    1    2    0    0  0.32982509583E+01 -0.15014956026E+03  0.42471173421E+03  0.45048400332E+03  0.10566000000E+00 0. -1.
          4    1    1    2  501    0  0.13322752795E+03  0.16489480874E+03  0.29784726611E+03  0.36558564808E+03  0.00000000000E+00 0.  1.
         -4    1    1    2    0  503 -0.73513233495E+02  0.10696609543E+02 -0.30071808752E+02  0.80143163378E+02  0.00000000000E+00 0. -1.
</event>
<event>
 6    1  0.1144920E-005  0.4786883E+02  0.7818608E-02  0.1321706E+00
         21   -1    0    0  503  502  0.00000000000E+00  0.00000000000E+00  0.78356290797E+03  0.78356290797E+03  0.00000000000E+00 0.  1.
         21   -1    0    0  501  503 -0.00000000000E+00 -0.00000000000E+00 -0.25329787487E+02  0.25329787487E+02  0.00000000000E+00 0. -1.
        -13    1    1    2    0    0  0.36725804970E+01 -0.68665318252E+02  0.12310932852E+03  0.14101181408E+03  0.10566000000E+00 0.  1.
         13    1    1    2    0    0  0.21905740306E+02  0.27191778537E+02  0.33652814906E+02  0.48495127523E+02  0.10566000000E+00 0. -1.
          4    1    1    2  501    0  0.24118451451E+01  0.40377320334E+02  0.38904206734E+02  0.56122030398E+02  0.00000000000E+00 0.  1.
         -4    1    1    2    0  502 -0.27990165949E+02  0.10962193815E+01  0.56256677033E+03  0.56326372346E+03  0.00000000000E+00 0. -1.
</event>
<event>
 6    1  0.1144920E-005  0.1774186E+03  0.7818608E-02  0.1086307E+00
         21   -1    0    0  501  502  0.00000000000E+00  0.00000000000E+00  0.86834537043E+02  0.86834537043E+02  0.00000000000E+00 0. -1.
         21   -1    0    0  502  503 -0.00000000000E+00 -0.00000000000E+00 -0.16900066146E+04  0.16900066146E+04  0.00000000000E+00 0.  1.
        -13    1    1    2    0    0 -0.75697547999E+02  0.15698640953E+03 -0.52439634601E+03  0.55259966560E+03  0.10566000000E+00 0.  1.
         13    1    1    2    0    0 -0.15085619377E+03 -0.13062544985E+03 -0.13190157299E+03  0.23920417109E+03  0.10566000000E+00 0. -1.
          4    1    1    2  501    0  0.21114604230E+03  0.26021818375E+02 -0.67491569224E+03  0.70765173486E+03  0.00000000000E+00 0.  1.
         -4    1    1    2    0  503  0.15407699464E+02 -0.52382778060E+02 -0.27195846628E+03  0.27738558005E+03  0.00000000000E+00 0. -1.
</event>
<event>
 6    1  0.1144920E-005  0.2650623E+02  0.7818608E-02  0.1435373E+00
         21   -1    0    0  503  502  0.00000000000E+00  0.00000000000E+00  0.32202657459E+02  0.32202657459E+02  0.00000000000E+00 0. -1.
         21   -1    0    0  501  503 -0.00000000000E+00 -0.00000000000E+00 -0.18082837286E+03  0.18082837286E+03  0.00000000000E+00 0.  1.
        -13    1    1    2    0    0 -0.17544376431E+02 -0.25169866260E+02 -0.26510494807E+02  0.40548055574E+02  0.10566000000E+00 0.  1.
         13    1    1    2    0    0  0.10383200833E+02  0.21016595502E+02 -0.13580797836E+02  0.27091647789E+02  0.10566000000E+00 0. -1.
          4    1    1    2  501    0  0.15834349943E+02 -0.27033484110E+01 -0.12474192180E+03  0.12577194356E+03  0.00000000000E+00 0.  1.
         -4    1    1    2    0  502 -0.86731743447E+01  0.68566191694E+01  0.16207499045E+02  0.19619383399E+02  0.00000000000E+00 0. -1.
</event>
<event>
 6    1  0.1144920E-005  0.3586672E+03  0.7818608E-02  0.9856656E-01
         21   -1    0    0  501  502  0.00000000000E+00  0.00000000000E+00  0.35762479528E+03  0.35762479528E+03  0.00000000000E+00 0. -1.
         21   -1    0    0  502  503 -0.00000000000E+00 -0.00000000000E+00 -0.86907886236E+03  0.86907886236E+03  0.00000000000E+00 0.  1.
        -13    1    1    2    0    0 -0.24716243789E+03  0.38552850029E+03 -0.17174559763E+03  0.48909922992E+03  0.10566000000E+00 0.  1.
         13    1    1    2    0    0  0.10168806795E+03 -0.28493575780E+03 -0.16672478897E+03  0.34543597910E+03  0.10566000000E+00 0. -1.
          4    1    1    2  501    0  0.80551857754E+02 -0.12550126319E+03  0.51024533582E+02  0.15761558260E+03  0.00000000000E+00 0.  1.
         -4    1    1    2    0  503  0.64922512189E+02  0.24908520704E+02 -0.22400821406E+03  0.23455286602E+03  0.00000000000E+00 0. -1.
</event>
<event>
 6    1  0.1144920E-005  0.8326034E+02  0.7818608E-02  0.1238150E+00
         21   -1    0    0  503  502  0.00000000000E+00  0.00000000000E+00  0.31316687711E+03  0.31316687711E+03  0.00000000000E+00 0.  1.
         21   -1    0    0  501  503 -0.00000000000E+00 -0.00000000000E+00 -0.25808471818E+03  0.25808471818E+03  0.00000000000E+00 0. -1.
        -13    1    1    2    0    0 -0.30974756681E+02  0.83809718062E+01  0.35574282584E+02  0.47908422905E+02  0.10566000000E+00 0.  1.
         13    1    1    2    0    0 -0.93953629992E+02  0.95228849685E+02 -0.20086391415E+03  0.24133408705E+03  0.10566000000E+00 0. -1.
          4    1    1    2  501    0  0.11489169906E+03 -0.10386180806E+03  0.16725145455E+03  0.22794829838E+03  0.00000000000E+00 0.  1.
         -4    1    1    2    0  502  0.10036687618E+02  0.25198656553E+00  0.53120335943E+02  0.54060786956E+02  0.00000000000E+00 0. -1.
</event>
<event>
 6    1  0.1144920E-005  0.9553909E+02  0.7818608E-02  0.1200351E+00
         21   -1    0    0  501  502  0.00000000000E+00  0.00000000000E+00  0.45054318879E+03  0.45054318879E+03  0.00000000000E+00 0.  1.
         21   -1    0    0  502  503 -0.00000000000E+00 -0.00000000000E+00 -0.11970530542E+03  0.11970530542E+03  0.00000000000E+00 0.  1.
        -13    1    1    2    0    0  0.15334284336E+03  0.83477883108E+01 -0.14094485885E+02  0.15421536524E+03  0.10566000000E+00 0.  1.
         13    1    1    2    0    0 -0.37364034809E+02 -0.30122548911E+02  0.33280107216E+02  0.58403901842E+02  0.10566000000E+00 0. -1.
          4    1    1    2  501    0 -0.90743076935E+02  0.93275700002E+01  0.31622699080E+03  0.32912128355E+03  0.00000000000E+00 0.  1.
         -4    1    1    2    0  503 -0.25235731615E+02  0.12447190599E+02 -0.45747287654E+01  0.28507943582E+02  0.00000000000E+00 0. -1.
</event>
<event>
 6    1  0.1144920E-005  0.4684714E+02  0.7818608E-02  0.1319759E+00
         21   -1    0    0  501  502  0.00000000000E+00  0.00000000000E+00  0.28233840336E+03  0.28233840336E+03  0.00000000000E+00 0. -1.
         21   -1    0    0  502  503 -0.00000000000E+00 -0.00000000000E+00 -0.71270526496E+02  0.71270526496E+02  0.00000000000E+00 0.  1.
        -13    1    1    2    0    0  0.17104971498E+02 -0.83866284976E+02 -0.18148706740E+02  0.87495831477E+02  0.10566000000E+00 0.  1.
         13    1    1    2    0    0 -0.22334580366E+02  0.25070482661E+02  0.55519536236E+02  0.64882914923E+02  0.10566000000E+00 0. -1.
          4    1    1    2  501    0  0.96614257556E+01  0.14561353904E+02 -0.41083631197E+01  0.17951457396E+02  0.00000000000E+00 0.  1.
         -4    1    1    2    0  503 -0.44318168875E+01  0.44234448411E+02  0.17780541048E+03  0.18327872606E+03  0.00000000000E+00 0. -1.
</event>
<event>
 6    1  0.1144920E-005  0.1498939E+03  0.7818608E-02  0.1104122E+00
         21   -1    0    0  503  502  0.00000000000E+00  0.00000000000E+00  0.10446661569E+04  0.10446661569E+04  0.00000000000E+00 0.  1.
         21   -1    0    0  501  503 -0.00000000000E+00 -0.00000000000E+00 -0.13389145804E+03  0.13389145804E+03  0.00000000000E+00 0. -1.
        -13    1    1    2    0    0 -0.10625729892E+03  0.10706097683E+03  0.30261174320E+03  0.33812208538E+03  0.10566000000E+00 0.  1.
         13    1    1    2    0    0  0.56470041811E+02 -0.12718689971E+03  0.81214437854E+02  0.16112470065E+03  0.10566000000E+00 0. -1.
          4    1    1    2  501    0  0.24881272639E+02 -0.13634777710E+03  0.10378018092E+02  0.13898739982E+03  0.00000000000E+00 0.  1.
         -4    1    1    2    0  502  0.24905984471E+02  0.15647369998E+03  0.51657049971E+03  0.54032342909E+03  0.00000000000E+00 0. -1.
</event>
<event>
 6    1  0.1144920E-005  0.1732895E+03  0.7818608E-02  0.1080169E+00
         21   -1    0    0  501  502  0.00000000000E+00  0.00000000000E+00  0.12062401975E+04  0.12062401975E+04  0.00000000000E+00 0.  1.
         21   -1    0    0  502  503 -0.00000000000E+00 -0.00000000000E+00 -0.10300901998E+03  0.10300901998E+03  0.00000000000E+00 0. -1.
        -13    1    1    2    0    0  0.12417083803E+03 -0.12114556644E+03  0.31233796661E+03  0.35728092846E+03  0.10566000000E+00 0.  1.
         13    1    1    2    0    0 -0.10555041934E+03  0.13780245948E+03  0.35106194349E+03  0.39163108685E+03  0.10566000000E+00 0. -1.
          4    1    1    2  501    0 -0.33047449422E+02 -0.13511587382E+02  0.49853148534E+03  0.49980830203E+03  0.00000000000E+00 0.  1.
         -4    1    1    2    0  503  0.14427030725E+02 -0.31453056591E+01 -0.58700217938E+02  0.60528900115E+02  0.00000000000E+00 0. -1.
</event>
<event>
 6    1  0.1144920E-005  0.2365843E+03  0.7818608E-02  0.1041975E+00
         21   -1    0    0  503  502  0.00000000000E+00  0.00000000000E+00  0.33684455471E+03  0.33684455471E+03  0.00000000000E+00 0.  1.
         21   -1    0    0  501  503 -0.00000000000E+00 -0.00000000000E+00 -0.83902507088E+03  0.83902507088E+03  0.00000000000E+00 0. -1.
        -13    1    1    2    0    0 -0.44658312914E+02  0.24692329195E+03  0.73677530252E+02  0.26152221062E+03  0.10566000000E+00 0.  1.
         13    1    1    2    0    0  0.21365695135E+03 -0.64044619849E+02 -0.19797804714E+03  0.29823870390E+03  0.10566000000E+00 0. -1.
          4    1    1    2  501    0  0.22062472706E+02  0.14139932422E+02 -0.33772549705E+03  0.33874061130E+03  0.00000000000E+00 0.  1.
         -4    1    1    2    0  502 -0.19106111114E+03 -0.19701860452E+03 -0.40154502232E+02  0.27736809977E+03  0.00000000000E+00 0. -1.
</event>
<event>
 6    1  0.1144920E-005  0.1243253E+03  0.7818608E-02  0.1129606E+00
         21   -1    0    0  503  502  0.00000000000E+00  0.00000000000E+00  0.64203051065E+03  0.64203051065E+03  0.00000000000E+00 0.  1.
         21   -1    0    0  501  503 -0.00000000000E+00 -0.00000000000E+00 -0.88883500006E+02  0.88883500006E+02  0.00000000000E+00 0.  1.
        -13    1    1    2    0    0  0.13160520888E+03  0.20459596102E+02  0.47072895688E+03  0.48920781687E+03  0.10566000000E+00 0.  1.
         13    1    1    2    0    0 -0.11197233609E+03 -0.60124879225E+02  0.10981541775E+03  0.16796500317E+03  0.10566000000E+00 0. -1.
          4    1    1    2  501    0 -0.31968793124E+02  0.39227379749E+02 -0.32760211309E+02  0.60282854119E+02  0.00000000000E+00 0.  1.
         -4    1    1    2    0  502  0.12335920332E+02  0.43790337462E+00  0.53628473174E+01  0.13458336493E+02  0.00000000000E+00 0. -1.
</event>
<event>
 6    1  0.1144920E-005  0.4203080E+02  0.7818608E-02  0.1335781E+00
         21   -1    0    0  501  502  0.00000000000E+00  0.00000000000E+00  0.87004024289E+02  0.87004024289E+02  0.00000000000E+00 0. -1.
         21   -1    0    0  502  503 -0.00000000000E+00 -0.00000000000E+00 -0.89718066308E+02  0.89718066308E+02  0.00000000000E+00 0.  1.
        -13    1    1    2    0    0 -0.49767204599E+02  0.36355896086E+02 -0.31465945437E+02  0.69200019654E+02  0.10566000000E+00 0.  1.
         13    1    1    2    0    0  0.56808843390E+01 -0.39769679129E+02  0.27909456203E+02  0.48916753106E+02  0.10566000000E+00 0. -1.
          4    1    1    2  501    0  0.37853072578E+01  0.15314132746E+02  0.45573384139E+01  0.16420126255E+02  0.00000000000E+00 0.  1.
         -4    1    1    2    0  503  0.40301013003E+02 -0.11900349704E+02 -0.37148911994E+01  0.42185191581E+02  0.00000000000E+00 0. -1.
</event>
<event>
 6    1  0.1144920E-005  0.9223589E+02  0.7818608E-02  0.1178082E+00
         21   -1    0    0  503  502  0.00000000000E+00  0.00000000000E+00  0.12746936026E+04  0.12746936026E+04  0.00000000000E+00 0. -1.
         21   -1    0    0  501  503 -0.00000000000E+00 -0.00000000000E+00 -0.80615798110E+02  0.80615798110E+02  0.00000000000E+00 0.  1.
        -13    1    1    2    0    0  0.51749368287E+02  0.75960112292E+02  0.94919318321E+02  0.13212730199E+03  0.10566000000E+00 0.  1.
         13    1    1    2    0    0 -0.70181345993E+02 -0.55414750772E+02  0.16848560014E+03  0.19074492011E+03  0.10566000000E+00 0. -1.
          4    1    1    2  501    0  0.24290263300E+02  0.15706618984E+01 -0.47829700077E+02  0.53667160158E+02  0.00000000000E+00 0.  1.
         -4    1    1    2    0  502 -0.58582855939E+01 -0.22116023419E+02  0.97850258615E+03  0.97877001849E+03  0.00000000000E+00 0. -1.
</event>
<event>
 6    1  0.1144920E-005  0.2166881E+03  0.7818608E-02  0.1080897E+00
         21   -1    0    0  503  502  0.00000000000E+00  0.00000000000E+00  0.84300508506E+03  0.84300508506E+03  0.00000000000E+00 0.  1.
         21   -1    0    0  501  503 -0.00000000000E+00 -0.00000000000E+00 -0.23137383670E+03  0.23137383670E+03  0.00000000000E+00 0.  1.
        -13    1    1    2    0    0  0.77615046455E+02 -0.26597439012E+03  0.46398006013E+03  0.54041093530E+03  0.10566000000E+00 0.  1.
         13    1    1    2    0    0 -0.41201877390E+02  0.53335993013E+02  0.45066060060E+02  0.81075790373E+02  0.10566000000E+00 0. -1.
          4    1    1    2  501    0  0.28641596817E+02  0.43062835118E+01 -0.13044147379E+03  0.13361834915E+03  0.00000000000E+00 0.  1.
         -4    1    1    2    0  502 -0.65054765882E+02  0.20833211359E+03  0.23302660196E+03  0.31927384694E+03  0.00000000000E+00 0. -1.
</event>
<event>
 6    1  0.1144920E-005  0.2452123E+03  0.7818608E-02  0.1032904E+00
         21   -1    0    0  501  502  0.00000000000E+00  0.00000000000E+00  0.23313404082E+03  0.23313404082E+03  0.00000000000E+00 0.  1.
         21   -1    0    0  502  503 -0.00000000000E+00 -0.00000000000E+00 -0.15419886828E+04  0.15419886828E+04  0.00000000000E+00 0. -1.
        -13    1    1    2    0    0 -0.10363108032E+03 -0.19114583818E+03 -0.32346840459E+03  0.38975370709E+03  0.10566000000E+00 0.  1.
         13    1    1    2    0    0  0.13180264928E+03  0.20959718549E+03  0.51845185303E+02  0.25296413367E+03  0.10566000000E+00 0. -1.
          4    1    1    2  501    0  0.99329744526E+01  0.32554344793E+01  0.46563885610E+02  0.47722712394E+02  0.00000000000E+00 0.  1.
         -4    1    1    2    0  503 -0.38104543412E+02 -0.21706781790E+02 -0.10837953083E+04  0.10846821705E+04  0.00000000000E+00 0. -1.
</event>
<event>
 6    1  0.1144920E-005  0.1820021E+03  0.7818608E-02  0.1113157E+00
         21   -1    0    0  503  502  0.00000000000E+00  0.00000000000E+00  0.56858894328E+03  0.56858894328E+03  0.00000000000E+00 0.  1.
         21   -1    0    0  501  503 -0.00000000000E+00 -0.00000000000E+00 -0.15106485325E+03  0.15106485325E+03  0.00000000000E+00 0. -1.
        -13    1    1    2    0    0  0.11460970044E+03 -0.11629363577E+03  0.37521786954E+03  0.40920417146E+03  0.10566000000E+00 0.  1.
         13    1    1    2    0    0 -0.11112100735E+01  0.13648065865E+02 -0.40033740220E+02  0.42310944326E+02  0.10566000000E+00 0. -1.
          4    1    1    2  501    0 -0.17094778689E+03  0.82590742421E+02  0.40036000160E+02  0.19402901300E+03  0.00000000000E+00 0.  1.
         -4    1    1    2    0  502  0.57449296522E+02  0.20054827484E+02  0.42303960549E+02  0.74109667752E+02  0.00000000000E+00 0. -1.
</event>
<event>
 6    1  0.1144920E-005  0.8975733E+02  0.7818608E-02  0.1182714E+00
         21   -1    0    0  501  502  0.00000000000E+00  0.00000000000E+00  0.80985338336E+02  0.80985338336E+02  0.00000000000E+00 0. -1.
         21   -1    0    0  502  503 -0.00000000000E+00 -0.00000000000E+00 -0.16842813658E+03  0.16842813658E+03  0.00000000000E+00 0.  1.
        -13    1    1    2    0    0  0.10457691553E+03 -0.86373835283E+01 -0.65124824409E+02  0.12349975536E+03  0.10566000000E+00 0.  1.
         13    1    1    2    0    0 -0.83859332458E+02 -0.10345413303E+02 -0.10868624738E+02  0.85191275283E+02  0.10566000000E+00 0. -1.
          4    1    1    2  501    0 -0.25773087620E+02  0.80136188860E+01 -0.83646544635E+01  0.28256637758E+02  0.00000000000E+00 0.  1.
         -4    1    1    2    0  503  0.50555045487E+01  0.10969177945E+02 -0.30846946313E+01  0.12465806513E+02  0.00000000000E+00 0. -1.
</event>
<event>
 6    1  0.1144920E-005  0.3934696E+02  0.7818608E-02  0.1342489E+00
         21   -1    0    0  503  502  0.00000000000E+00  0.00000000000E+00  0.23018652793E+02  0.23018652793E+02  0.00000000000E+00 0.  1.
         21   -1    0    0  501  503 -0.00000000000E+00 -0.00000000000E+00 -0.34077791947E+03  0.34077791947E+03  0.00000000000E+00 0. -1.
        -13    1    1    2    0    0  0.18433598547E+02  0.20207595864E+02  0.52979864744E+01  0.27860802406E+02  0.10566000000E+00 0.  1.
         13    1    1    2    0    0 -0.49898110386E+02 -0.10894353782E+02 -0.17169950700E+03  0.17913469857E+03  0.10566000000E+00 0. -1.
          4    1    1    2  501    0  0.12064524207E+02  0.68768459448E+01 -0.77662518633E+02  0.78894299889E+02  0.00000000000E+00 0.  1.
         -4    1    1    2    0  502  0.19399987631E+02 -0.16190088026E+02 -0.73695227521E+02  0.77906771399E+02  0.00000000000E+00 0. -1.
</event>
<event>
 6    1  0.2173263E-005  0.3969983E+02  0.7818608E-02  0.1340529E+00
         21   -1    0    0  503  502  0.00000000000E+00  0.00000000000E+00  0.20095505798E+03  0.20095505798E+03  0.00000000000E+00 0. -1.
         21   -1    0    0  501  503 -0.00000000000E+00 -0.00000000000E+00 -0.67420725041E+03  0.67420725041E+03  0.00000000000E+00 0.  1.
        -13    1    1    2    0    0 -0.45982152167E+02 -0.32516072165E+02  0.16706269328E+02  0.58743202720E+02  0.10566000000E+00 0.  1.
         13    1    1    2    0    0  0.47290292061E+01  0.45987568984E+02 -0.21399205537E+03  0.21892882666E+03  0.10566000000E+00 0. -1.
          4    1    1    2  501    0  0.70718923110E+01 -0.90636362983E+01 -0.43480437467E+03  0.43495632585E+03  0.00000000000E+00 0.  1.
         -4    1    1    2    0  502  0.34181230650E+02 -0.44078605207E+01  0.15883796828E+03  0.16253395316E+03  0.00000000000E+00 0. -1.
</event>
<event>
 6    1  0.1144920E-005  0.1123097E+03  0.7818608E-02  0.1145654E+00
         21   -1    0    0  503  502  0.00000000000E+00  0.00000000000E+00  0.48260896415E+03  0.48260896415E+03  0.00000000000E+00 0. -1.
         21   -1    0    0  501  503 -0.00000000000E+00 -0.00000000000E+00 -0.10668899250E+03  0.10668899250E+03  0.00000000000E+00 0. -1.
        -13    1    1    2    0    0  0.95074264406E+02  0.56217453340E+02  0.93479499222E+02  0.14469950156E+03  0.10566000000E+00 0.  1.
         13    1    1    2    0    0 -0.66959511311E+02 -0.82307672212E+02 -0.26935956510E+02  0.10947002319E+03  0.10566000000E+00 0. -1.
          4    1    1    2  501    0 -0.36812756307E+02  0.15972773862E+02  0.18919170965E+02  0.44364891094E+02  0.00000000000E+00 0.  1.
         -4    1    1    2    0  502  0.86980032131E+01  0.10117445010E+02  0.29045725797E+03  0.29076354080E+03  0.00000000000E+00 0. -1.
</event>
<event>
 6    1  0.1144920E-005  0.1135564E+03  0.7818608E-02  0.1159763E+00
         21   -1    0    0  501  502  0.00000000000E+00  0.00000000000E+00  0.14865813921E+03  0.14865813921E+03  0.00000000000E+00 0. -1.
         21   -1    0    0  502  503 -0.00000000000E+00 -0.00000000000E+00 -0.50527908224E+03  0.50527908224E+03  0.00000000000E+00 0.  1.
        -13    1    1    2    0    0 -0.13979898552E+03  0.16751221890E+02 -0.36553339459E+03  0.39171294785E+03  0.10566000000E+00 0.  1.
         13    1    1    2    0    0 -0.37042075294E+02  0.41765917787E+02  0.21377119748E+02  0.59778755787E+02  0.10566000000E+00 0. -1.
          4    1    1    2  501    0  0.22211364542E+02 -0.13851162519E+02  0.26071627691E+02  0.36944948077E+02  0.00000000000E+00 0.  1.
         -4    1    1    2    0  503  0.15462969627E+03 -0.44665977158E+02 -0.38536295876E+02  0.16550056974E+03  0.00000000000E+00 0. -1.
</event>
<event>
 6    1  0.1144920E-005  0.4491041E+02  0.7818608E-02  0.1314023E+00
         21   -1    0    0  503  502  0.00000000000E+00  0.00000000000E+00  0.32451754568E+02  0.32451754568E+02  0.00000000000E+00 0.  1.
         21   -1    0    0  501  503 -0.00000000000E+00 -0.00000000000E+00 -0.36222271459E+03  0.36222271459E+03  0.00000000000E+00 0. -1.
        -13    1    1    2    0    0 -0.36347375477E+02 -0.44460347244E+02 -0.28482619769E+02  0.64102456849E+02  0.10566000000E+00 0.  1.
         13    1    1    2    0    0  0.22910161216E+02  0.41838042873E+02 -0.58540038682E+02  0.75513208191E+02  0.10566000000E+00 0. -1.
          4    1    1    2  501    0 -0.25402269541E+02 -0.15209731245E+02 -0.15059250334E+03  0.15347544847E+03  0.00000000000E+00 0.  1.
         -4    1    1    2    0  502  0.38839483802E+02  0.17832035616E+02 -0.92155798232E+02  0.10158335564E+03  0.00000000000E+00 0. -1.
</event>
<event>
 6    1  0.1144920E-005  0.1289086E+03  0.7818608E-02  0.1123998E+00
         21   -1    0    0  501  502  0.00000000000E+00  0.00000000000E+00  0.25396811971E+03  0.25396811971E+03  0.00000000000E+00 0.  1.
         21   -1    0    0  502  503 -0.00000000000E+00 -0.00000000000E+00 -0.41008792424E+03  0.41008792424E+03  0.00000000000E+00 0.  1.
        -13    1    1    2    0    0  0.10645545292E+03 -0.10549376131E+03 -0.30523676422E+03  0.34004586532E+03  0.10566000000E+00 0.  1.
         13    1    1    2    0    0 -0.98933362420E+02  0.60269139764E+02 -0.14385750426E+02  0.11673534335E+03  0.10566000000E+00 0. -1.
          4    1    1    2  501    0  0.46097417625E+01  0.28002518672E+02  0.17892826124E+03  0.18116487916E+03  0.00000000000E+00 0.  1.
         -4    1    1    2    0  503 -0.12131832259E+02  0.17222102874E+02 -0.15425551124E+02  0.26109956125E+02  0.00000000000E+00 0. -1.
</event>
<event>
 6    1  0.1144920E-005  0.4110441E+03  0.7818608E-02  0.9991770E-01
         21   -1    0    0  503  502  0.00000000000E+00  0.00000000000E+00  0.37745573620E+03  0.37745573620E+03  0.00000000000E+00 0. -1.
         21   -1    0    0  501  503 -0.00000000000E+00 -0.00000000000E+00 -0.90978223660E+03  0.90978223660E+03  0.00000000000E+00 0.  1.
        -13    1    1    2    0    0  0.37598786587E+03 -0.25802244271E+03 -0.33284148254E+03  0.56455816342E+03  0.10566000000E+00 0.  1.
         13    1    1    2    0    0 -0.13649908642E+03 -0.50982015172E+02 -0.56518279912E+02  0.15628657521E+03  0.10566000000E+00 0. -1.
          4    1    1    2  501    0 -0.20884687634E+03  0.32433698213E+03 -0.24619428523E+03  0.45762771094E+03  0.00000000000E+00 0.  1.
         -4    1    1    2    0  502 -0.30641903106E+02 -0.15332524247E+02  0.10322754728E+03  0.10876552323E+03  0.00000000000E+00 0. -1.
</event>
<event>
 6    1  0.1144920E-005  0.7748775E+02  0.7818608E-02  0.1256554E+00
         21   -1    0    0  503  502  0.00000000000E+00  0.00000000000E+00  0.13237453517E+04  0.13237453517E+04  0.00000000000E+00 0. -1.
         21   -1    0    0  501  503 -0.00000000000E+00 -0.00000000000E+00 -0.58832956397E+03  0.58832956397E+03  0.00000000000E+00 0.  1.
        -13    1    1    2    0    0  0.12339724206E+02 -0.57232373814E+02  0.16028617487E+03  0.17064431553E+03  0.10566000000E+00 0.  1.
         13    1    1    2    0    0  0.27475888664E+02 -0.24923564911E+01 -0.59079736514E+02  0.65204008538E+02  0.10566000000E+00 0. -1.
          4    1    1    2  501    0 -0.25959550690E+02  0.73371711828E+02 -0.51801957527E+03  0.52383354869E+03  0.00000000000E+00 0.  1.
         -4    1    1    2    0  502 -0.13856062180E+02 -0.13646981523E+02  0.11522289246E+04  0.11523930429E+04  0.00000000000E+00 0. -1.
</event>
<event>
 6    1  0.1377897E-005  0.7767484E+02  0.7818608E-02  0.1207918E+00
         21   -1    0    0  503  502  0.00000000000E+00  0.00000000000E+00  0.32857757283E+03  0.32857757283E+03  0.00000000000E+00 0. -1.
         21   -1    0    0  501  503 -0.00000000000E+00 -0.00000000000E+00 -0.84021217480E+03  0.84021217480E+03  0.00000000000E+00 0. -1.
        -13    1    1    2    0    0  0.69051137713E+02 -0.30396329180E+02 -0.99416665197E+02  0.12480256780E+03  0.10566000000E+00 0.  1.
         13    1    1    2    0    0 -0.11270714465E+03 -0.19333940000E+02 -0.61937695204E+03  0.62984483928E+03  0.10566000000E+00 0. -1.
          4    1    1    2  501    0  0.43915665626E+02  0.38713474272E+02 -0.95104001079E+02  0.11167851091E+03  0.00000000000E+00 0.  1.
         -4    1    1    2    0  502 -0.25965869072E+00  0.11016794908E+02  0.30226301634E+03  0.30246382964E+03  0.00000000000E+00 0. -1.
</event>
<event>
 6    1  0.1144920E-005  0.1716663E+03  0.7818608E-02  0.1081878E+00
         21   -1    0    0  503  502  0.00000000000E+00  0.00000000000E+00  0.57386839801E+03  0.57386839801E+03  0.00000000000E+00 0.  1.
         21   -1    0    0  501  503 -0.00000000000E+00 -0.00000000000E+00 -0.34912208499E+03  0.34912208499E+03  0.00000000000E+00 0. -1.
        -13    1    1    2    0    0  0.16817562632E+03  0.37717102448E+02  0.27445619382E+03  0.32408615304E+03  0.10566000000E+00 0.  1.
         13    1    1    2    0    0  0.53827705729E+02 -0.18129064543E+02 -0.98705171833E+02  0.11388066998E+03  0.10566000000E+00 0. -1.
          4    1    1    2  501    0 -0.87164214989E+00  0.10242689445E+02 -0.17121574601E+03  0.17152406283E+03  0.00000000000E+00 0.  1.
         -4    1    1    2    0  502 -0.22113168989E+03 -0.29830727350E+02  0.22021103705E+03  0.31349959714E+03  0.00000000000E+00 0. -1.
</event>
<event>
 6    1  0.1144920E-005  0.1220015E+03  0.7818608E-02  0.1132550E+00
         21   -1    0    0  503  502  0.00000000000E+00  0.00000000000E+00  0.56637903419E+02  0.56637903419E+02  0.00000000000E+00 0. -1.
         21   -1    0    0  501  503 -0.00000000000E+00 -0.00000000000E+00 -0.63693300978E+03  0.63693300978E+03  0.00000000000E+00 0. -1.
        -13    1    1    2    0    0  0.40131538173E+02  0.89957286753E+02 -0.37196898600E+02  0.10529232748E+03  0.10566000000E+00 0.  1.
         13    1    1    2    0    0 -0.72638774592E+02 -0.10258849319E+03 -0.35149247399E+03  0.37329313006E+03  0.10566000000E+00 0. -1.
          4    1    1    2  501    0  0.32481274390E+01 -0.10698079780E+02 -0.17269648222E+03  0.17305800824E+03  0.00000000000E+00 0.  1.
         -4    1    1    2    0  502  0.29259108979E+02  0.23329286218E+02 -0.18909251542E+02  0.41927447425E+02  0.00000000000E+00 0. -1.
</event>
<event>
 6    1  0.1144920E-005  0.1952854E+03  0.7818608E-02  0.1063417E+00
         21   -1    0    0  501  502  0.00000000000E+00  0.00000000000E+00  0.14200245868E+03  0.14200245868E+03  0.00000000000E+00 0. -1.
         21   -1    0    0  502  503 -0.00000000000E+00 -0.00000000000E+00 -0.56230773191E+03  0.56230773191E+03  0.00000000000E+00 0.  1.
        -13    1    1    2    0    0  0.12850154223E+03  0.13293153401E+03 -0.30330531238E+03  0.35521481215E+03  0.10566000000E+00 0.  1.
         13    1    1    2    0    0 -0.14476432258E+03 -0.13204538517E+03 -0.35320693083E+02  0.19909860713E+03  0.10566000000E+00 0. -1.
          4    1    1    2  501    0  0.29523126026E+01 -0.10347185887E+02  0.32716889334E+02  0.34440895069E+02  0.00000000000E+00 0.  1.
         -4    1    1    2    0  503  0.13310467756E+02  0.94610370462E+01 -0.11439615710E+03  0.11555587624E+03  0.00000000000E+00 0. -1.
</event>
<event>
 6    1  0.1144920E-005  0.1189668E+03  0.7818608E-02  0.1136506E+00
         21   -1    0    0  501  502  0.00000000000E+00  0.00000000000E+00  0.70183330106E+03  0.70183330106E+03  0.00000000000E+00 0. -1.
         21   -1    0    0  502  503 -0.00000000000E+00 -0.00000000000E+00 -0.25835652737E+03  0.25835652737E+03  0.00000000000E+00 0. -1.
        -13    1    1    2    0    0 -0.13821250222E+03  0.27964317058E+02  0.11011559663E+03  0.17891381887E+03  0.10566000000E+00 0.  1.
         13    1    1    2    0    0  0.96962564369E+02 -0.39496764595E+02  0.23164450328E+03  0.25420645225E+03  0.10566000000E+00 0. -1.
          4    1    1    2  501    0  0.21336018521E+02  0.35873355680E+02  0.31183236616E+03  0.31461333080E+03  0.00000000000E+00 0.  1.
         -4    1    1    2    0  503  0.19913919328E+02 -0.24340908143E+02 -0.21011569238E+03  0.21245622650E+03  0.00000000000E+00 0. -1.
</event>
<event>
 6    1  0.1144920E-005  0.1399396E+03  0.7818608E-02  0.1111481E+00
         21   -1    0    0  501  502  0.00000000000E+00  0.00000000000E+00  0.17274622700E+03  0.17274622700E+03  0.00000000000E+00 0. -1.
         21   -1    0    0  502  503 -0.00000000000E+00 -0.00000000000E+00 -0.89348100577E+03  0.89348100577E+03  0.00000000000E+00 0.  1.
        -13    1    1    2    0    0  0.12922078301E+03 -0.92533855390E+02 -0.69604580906E+03  0.71396099658E+03  0.10566000000E+00 0.  1.
         13    1    1    2    0    0 -0.11311788848E+03  0.53945292796E+02  0.12221300832E+03  0.17504794165E+03  0.10566000000E+00 0. -1.
          4    1    1    2  501    0 -0.16915464935E+02 -0.13830221517E+01  0.68881619161E+01  0.18316453773E+02  0.00000000000E+00 0.  1.
         -4    1    1    2    0  503  0.81257040299E+00  0.39971584746E+02 -0.15379013995E+03  0.15890184078E+03  0.00000000000E+00 0. -1.
</event>
<event>
 6    1  0.1284048E-005  0.1987903E+03  0.7818608E-02  0.1060968E+00
         21   -1    0    0  503  502  0.00000000000E+00  0.00000000000E+00  0.50552379373E+03  0.50552379373E+03  0.00000000000E+00 0.  1.
         21   -1    0    0  501  503 -0.00000000000E+00 -0.00000000000E+00 -0.53193547744E+03  0.53193547744E+03  0.00000000000E+00 0. -1.
        -13    1    1    2    0    0 -0.54452962207E+02  0.14306652603E+03  0.38649641542E+03  0.41570740463E+03  0.10566000000E+00 0.  1.
         13    1    1    2    0    0  0.72393487381E+02 -0.19987578873E+03 -0.41683597686E+03  0.46791387104E+03  0.10566000000E+00 0. -1.
          4    1    1    2  501    0 -0.66106816185E+02 -0.49427185892E+01 -0.24279423276E+02  0.70597677071E+02  0.00000000000E+00 0.  1.
         -4    1    1    2    0  502  0.48166291010E+02  0.61751981290E+02  0.28207301004E+02  0.83240318433E+02  0.00000000000E+00 0. -1.
</event>
<event>
 6    1  0.1144920E-005  0.4004022E+02  0.7818608E-02  0.1338660E+00
         21   -1    0    0  503  502  0.00000000000E+00  0.00000000000E+00  0.14191939756E+03  0.14191939756E+03  0.00000000000E+00 0. -1.
         21   -1    0    0  501  503 -0.00000000000E+00 -0.00000000000E+00 -0.41866045626E+02  0.41866045626E+02  0.00000000000E+00 0. -1.
        -13    1    1    2    0    0  0.22488637393E+02 -0.27871015649E+02  0.13994647593E+02  0.38449884921E+02  0.10566000000E+00 0.  1.
         13    1    1    2    0    0 -0.12297547539E+02  0.44387716308E+02  0.47417774420E+01  0.46303289860E+02  0.10566000000E+00 0. -1.
          4    1    1    2  501    0 -0.20010436366E+02 -0.88537958467E+00  0.51792785252E+01  0.20688798578E+02  0.00000000000E+00 0.  1.
         -4    1    1    2    0  502  0.98193465122E+01 -0.15631321074E+02  0.76137648379E+02  0.78343469831E+02  0.00000000000E+00 0. -1.
</event>
<event>
 6    1  0.1144920E-005  0.1486620E+03  0.7818608E-02  0.1138083E+00
         21   -1    0    0  501  502  0.00000000000E+00  0.00000000000E+00  0.20059277444E+03  0.20059277444E+03  0.00000000000E+00 0. -1.
         21   -1    0    0  502  503 -0.00000000000E+00 -0.00000000000E+00 -0.72639433050E+03  0.72639433050E+03  0.00000000000E+00 0. -1.
        -13    1    1    2    0    0 -0.15087085414E+02 -0.19863157275E+02 -0.89882862144E+02  0.93279715022E+02  0.10566000000E+00 0.  1.
         13    1    1    2    0    0 -0.78720535734E+02  0.31785001983E+02  0.13163978047E+03  0.15664051858E+03  0.10566000000E+00 0. -1.
          4    1    1    2  501    0 -0.57895808964E+02  0.89214329571E+01  0.25988552780E+02  0.64085267708E+02  0.00000000000E+00 0.  1.
         -4    1    1    2    0  503  0.15170343011E+03 -0.20843277665E+02 -0.59354702716E+03  0.61298160363E+03  0.00000000000E+00 0. -1.
</event>
<event>
 6    1  0.1144920E-005  0.2970922E+02  0.7818608E-02  0.1432961E+00
         21   -1    0    0  503  502  0.00000000000E+00  0.00000000000E+00  0.87025347237E+02  0.87025347237E+02  0.00000000000E+00 0.  1.
         21   -1    0    0  501  503 -0.00000000000E+00 -0.00000000000E+00 -0.18069812423E+03  0.18069812423E+03  0.00000000000E+00 0. -1.
        -13    1    1    2    0    0  0.40417568021E+00 -0.11914474701E+02  0.25592177297E+02  0.28232760549E+02  0.10566000000E+00 0.  1.
         13    1    1    2    0    0  0.43459869631E+02  0.42511717677E+01 -0.14143496977E+03  0.14802261505E+03  0.10566000000E+00 0. -1.
          4    1    1    2  501    0 -0.14957945557E+02  0.12607372284E+02 -0.27523151312E+02  0.33766993193E+02  0.00000000000E+00 0.  1.
         -4    1    1    2    0  502 -0.28906099754E+02 -0.49440693501E+01  0.49693166786E+02  0.57701102676E+02  0.00000000000E+00 0. -1.
</event>
<event>
 6    1  0.1144920E-005  0.3524227E+03  0.7818608E-02  0.1001961E+00
         21   -1    0    0  503  502  0.00000000000E+00  0.00000000000E+00  0.28124255755E+03  0.28124255755E+03  0.00000000000E+00 0. -1.
         21   -1    0    0  501  503 -0.00000000000E+00 -0.00000000000E+00 -0.10769989584E+04  0.10769989584E+04  0.00000000000E+00 0. -1.
        -13    1    1    2    0    0  0.80881646450E+01  0.23572296582E+03 -0.20984847379E+03  0.31570101067E+03  0.10566000000E+00 0.  1.
         13    1    1    2    0    0 -0.18252367174E+03 -0.34427790837E+03 -0.50641526998E+03  0.63898247688E+03  0.10566000000E+00 0. -1.
          4    1    1    2  501    0 -0.54856595142E+02 -0.75288807272E+02 -0.56083597907E+02  0.10873371366E+03  0.00000000000E+00 0.  1.
         -4    1    1    2    0  502  0.22929210224E+03  0.18384374982E+03 -0.23409059154E+02  0.29482431471E+03  0.00000000000E+00 0. -1.
</event>
<event>
 6    1  0.1144920E-005  0.2950936E+03  0.7818608E-02  0.1009352E+00
         21   -1    0    0  501  502  0.00000000000E+00  0.00000000000E+00  0.14604752958E+04  0.14604752958E+04  0.00000000000E+00 0. -1.
         21   -1    0    0  502  503 -0.00000000000E+00 -0.00000000000E+00 -0.45134807746E+03  0.45134807746E+03  0.00000000000E+00 0. -1.
        -13    1    1    2    0    0 -0.47802439545E+01 -0.27880101778E+03 -0.73273452329E+02  0.28830863364E+03  0.10566000000E+00 0.  1.
         13    1    1    2    0    0  0.53904087626E+01  0.27870076189E+03  0.69783274168E+03  0.75144774783E+03  0.10566000000E+00 0. -1.
          4    1    1    2  501    0  0.60949360184E+01  0.22491202797E+02  0.62754039365E+03  0.62797288804E+03  0.00000000000E+00 0.  1.
         -4    1    1    2    0  503 -0.67051008265E+01 -0.22390946900E+02 -0.24297246469E+03  0.24409410374E+03  0.00000000000E+00 0. -1.
</event>
<event>
 6    1  0.1144920E-005  0.5056921E+02  0.7818608E-02  0.1302634E+00
         21   -1    0    0  503  502  0.00000000000E+00  0.00000000000E+00  0.79752620175E+03  0.79752620175E+03  0.00000000000E+00 0. -1.
         21   -1    0    0  501  503 -0.00000000000E+00 -0.00000000000E+00 -0.93278868101E+02  0.93278868101E+02  0.00000000000E+00 0. -1.
        -13    1    1    2    0    0  0.19759259757E+02 -0.74825107073E+02  0.20927769014E+03  0.22312863498E+03  0.10566000000E+00 0.  1.
         13    1    1    2    0    0 -0.35352715022E+02  0.34761554828E+02 -0.66496623469E+02  0.82945718698E+02  0.10566000000E+00 0. -1.
          4    1    1    2  501    0  0.81406531342E+01 -0.10074154267E+02 -0.65106461735E+01  0.14496459266E+02  0.00000000000E+00 0.  1.
         -4    1    1    2    0  502  0.74528021310E+01  0.50137706512E+02  0.56797691315E+03  0.57023425690E+03  0.00000000000E+00 0. -1.
</event>
<event>
 6    1  0.1144920E-005  0.6249001E+02  0.7818608E-02  0.1268807E+00
         21   -1    0    0  501  502  0.00000000000E+00  0.00000000000E+00  0.78043127825E+02  0.78043127825E+02  0.00000000000E+00 0. -1.
         21   -1    0    0  502  503 -0.00000000000E+00 -0.00000000000E+00 -0.33143582768E+03  0.33143582768E+03  0.00000000000E+00 0.  1.
        -13    1    1    2    0    0  0.47772989135E+02  0.12657067856E+02 -0.21586571961E+03  0.22145085216E+03  0.10566000000E+00 0.  1.
         13    1    1    2    0    0  0.22741441251E+02 -0.33862699574E+02  0.55155878595E+01  0.41161735217E+02  0.10566000000E+00 0. -1.
          4    1    1    2  501    0 -0.59851145981E+02  0.24197769875E+02  0.31270611653E+02  0.71732439630E+02  0.00000000000E+00 0.  1.
         -4    1    1    2    0  503 -0.10663284405E+02 -0.29921381572E+01 -0.74313179758E+02  0.75133928493E+02  0.00000000000E+00 0. -1.
</event>
<event>
 6    1  0.1144920E-005  0.3685448E+02  0.7818608E-02  0.1357037E+00
         21   -1    0    0  501  502  0.00000000000E+00  0.00000000000E+00  0.26304156041E+03  0.26304156041E+03  0.00000000000E+00 0.  1.
         21   -1    0    0  502  503 -0.00000000000E+00 -0.00000000000E+00 -0.26920480187E+02  0.26920480187E+02  0.00000000000E+00 0.  1.
        -13    1    1    2    0    0  0.42360062869E+02  0.19591840270E+02  0.30887772803E+02  0.55966783043E+02  0.10566000000E+00 0.  1.
         13    1    1    2    0    0 -0.30112575341E+02 -0.18065226803E+02  0.36052572557E+02  0.50328111082E+02  0.10566000000E+00 0. -1.
          4    1    1    2  501    0  0.11171580878E+02 -0.12690327481E+01  0.15674902144E+03  0.15715174318E+03  0.00000000000E+00 0.  1.
         -4    1    1    2    0  503 -0.23419068406E+02 -0.25758071849E+00  0.12431713421E+02  0.26515403286E+02  0.00000000000E+00 0. -1.
</event>
<event>
 6    1  0.1144920E-005  0.1009912E+03  0.7818608E-02  0.1236871E+00
         21   -1    0    0  503  502  0.00000000000E+00  0.00000000000E+00  0.42622863095E+02  0.42622863095E+02  0.00000000000E+00 0.  1.
         21   -1    0    0  501  503 -0.00000000000E+00 -0.00000000000E+00 -0.76015802562E+03  0.76015802562E+03  0.00000000000E+00 0. -1.
        -13    1    1    2    0    0 -0.68407619418E+02  0.92911482693E+02 -0.56199553234E+02  0.12833762877E+03  0.10566000000E+00 0.  1.
         13    1    1    2    0    0  0.29435003425E+01 -0.13117469186E+02 -0.22581764085E+02  0.26280780532E+02  0.10566000000E+00 0. -1.
          4    1    1    2  501    0  0.14568067553E+02 -0.30294286470E+01 -0.15545852030E+03  0.15616900321E+03  0.00000000000E+00 0.  1.
         -4    1    1    2    0  502  0.50896051522E+02 -0.76764584860E+02 -0.48329532490E+03  0.49199347620E+03  0.00000000000E+00 0. -1.
</event>
<event>
 6    1  0.1144920E-005  0.1355110E+03  0.7818608E-02  0.1116351E+00
         21   -1    0    0  501  502  0.00000000000E+00  0.00000000000E+00  0.30286854151E+03  0.30286854151E+03  0.00000000000E+00 0.  1.
         21   -1    0    0  502  503 -0.00000000000E+00 -0.00000000000E+00 -0.21578578589E+03  0.21578578589E+03  0.00000000000E+00 0.  1.
        -13    1    1    2    0    0  0.60228389547E+02 -0.11967682461E+03  0.10013985698E+02  0.13435137636E+03  0.10566000000E+00 0.  1.
         13    1    1    2    0    0 -0.48345763264E+02  0.14635898700E+03 -0.93551405732E+02  0.18030569203E+03  0.10566000000E+00 0. -1.
          4    1    1    2  501    0  0.18041214335E+02  0.28571606739E+02  0.11573108858E+03  0.12056329039E+03  0.00000000000E+00 0.  1.
         -4    1    1    2    0  503 -0.29923840618E+02 -0.55253769130E+02  0.54889087073E+02  0.83433968623E+02  0.00000000000E+00 0. -1.
</event>
<event>
 6    1  0.1144920E-005  0.3717029E+03  0.7818608E-02  0.9814526E-01
         21   -1    0    0  501  502  0.00000000000E+00  0.00000000000E+00  0.31450183131E+03  0.31450183131E+03  0.00000000000E+00 0. -1.
         21   -1    0    0  502  503 -0.00000000000E+00 -0.00000000000E+00 -0.90360627361E+03  0.90360627361E+03  0.00000000000E+00 0.  1.
        -13    1    1    2    0    0 -0.32656048706E+03  0.13062521105E+03 -0.44542157339E+02  0.35452603912E+03  0.10566000000E+00 0.  1.
         13    1    1    2    0    0  0.35320342955E+03 -0.14754286031E+03 -0.17894967081E+03  0.42254532789E+03  0.10566000000E+00 0. -1.
          4    1    1    2  501    0 -0.40829932790E+02  0.10395638296E+03 -0.68287835903E+02  0.13090928731E+03  0.00000000000E+00 0.  1.
         -4    1    1    2    0  503  0.14186990298E+02 -0.87038733713E+02 -0.29732477824E+03  0.31012745060E+03  0.00000000000E+00 0. -1.
</event>
<event>
 6    1  0.1144920E-005  0.2277085E+03  0.7818608E-02  0.1042639E+00
         21   -1    0    0  503  502  0.00000000000E+00  0.00000000000E+00  0.53084796756E+03  0.53084796756E+03  0.00000000000E+00 0.  1.
         21   -1    0    0  501  503 -0.00000000000E+00 -0.00000000000E+00 -0.15701930449E+03  0.15701930449E+03  0.00000000000E+00 0. -1.
        -13    1    1    2    0    0 -0.48380384448E+02  0.21152841882E+03  0.91237451170E+02  0.23539162523E+03  0.10566000000E+00 0.  1.
         13    1    1    2    0    0  0.36075236409E+02 -0.24201224578E+03  0.14403094007E+03  0.28393004887E+03  0.10566000000E+00 0. -1.
          4    1    1    2  501    0  0.34290611286E+02 -0.38852821364E+01  0.13599469284E+02  0.37092950872E+02  0.00000000000E+00 0.  1.
         -4    1    1    2    0  502 -0.21985463246E+02  0.34369109093E+02  0.12496080255E+03  0.13145264709E+03  0.00000000000E+00 0. -1.
</event>
<event>
 6    1  0.1144920E-005  0.8689489E+02  0.7818608E-02  0.1188273E+00
         21   -1    0    0  503  502  0.00000000000E+00  0.00000000000E+00  0.45498880814E+02  0.45498880814E+02  0.00000000000E+00 0.  1.
         21   -1    0    0  501  503 -0.00000000000E+00 -0.00000000000E+00 -0.29758355368E+03  0.29758355368E+03  0.00000000000E+00 0.  1.
        -13    1    1    2    0    0 -0.78322568676E+02  0.80859377023E+02 -0.11341002421E+03  0.15979520760E+03  0.10566000000E+00 0.  1.
         13    1    1    2    0    0  0.53046451360E+02 -0.39075782504E+02 -0.10007998005E+03  0.11982009995E+03  0.10566000000E+00 0. -1.
          4    1    1    2  501    0  0.23281353908E+02 -0.31409678645E+02 -0.34482882348E+02  0.52131166564E+02  0.00000000000E+00 0.  1.
         -4    1    1    2    0  502  0.19947634077E+01 -0.10373915874E+02 -0.41117862575E+01  0.11335960385E+02  0.00000000000E+00 0. -1.
</event>
<event>
 6    1  0.1144920E-005  0.1605773E+03  0.7818608E-02  0.1091124E+00
         21   -1    0    0  501  502  0.00000000000E+00  0.00000000000E+00  0.48590440562E+03  0.48590440562E+03  0.00000000000E+00 0. -1.
         21   -1    0    0  502  503 -0.00000000000E+00 -0.00000000000E+00 -0.13705173577E+03  0.13705173577E+03  0.00000000000E+00 0.  1.
        -13    1    1    2    0    0 -0.31278929970E+02 -0.15680595038E+03  0.83284459724E+02  0.18028530148E+03  0.10566000000E+00 0.  1.
         13    1    1    2    0    0 -0.11653807837E+02  0.16670789933E+03  0.10714276098E+03  0.19851175615E+03  0.10566000000E+00 0. -1.
          4    1    1    2  501    0  0.37080399466E+02 -0.21286365546E+02  0.19800108083E+03  0.20256478813E+03  0.00000000000E+00 0.  1.
         -4    1    1    2    0  503  0.58523383405E+01  0.11384416598E+02 -0.39575631684E+02  0.41594295625E+02  0.00000000000E+00 0. -1.
</event>
<event>
 6    1  0.1144920E-005  0.2244122E+03  0.7818608E-02  0.1044577E+00
         21   -1    0    0  501  502  0.00000000000E+00  0.00000000000E+00  0.52072183973E+03  0.52072183973E+03  0.00000000000E+00 0. -1.
         21   -1    0    0  502  503 -0.00000000000E+00 -0.00000000000E+00 -0.33261084740E+03  0.33261084740E+03  0.00000000000E+00 0. -1.
        -13    1    1    2    0    0  0.19853699030E+03  0.78890139111E+02  0.74823617733E+02  0.22636071987E+03  0.10566000000E+00 0.  1.
         13    1    1    2    0    0 -0.24224171105E+03 -0.78227596857E+02  0.31375854929E+03  0.40403594134E+03  0.10566000000E+00 0. -1.
          4    1    1    2  501    0 -0.29067648011E+01 -0.17056134270E+02 -0.88497957688E+00  0.17324669887E+02  0.00000000000E+00 0.  1.
         -4    1    1    2    0  503  0.46611485551E+02  0.16393592016E+02 -0.19958619511E+03  0.20561135602E+03  0.00000000000E+00 0. -1.
</event>
<event>
 6    1  0.1144920E-005  0.2475459E+03  0.7818608E-02  0.1060842E+00
         21   -1    0    0  501  502  0.00000000000E+00  0.00000000000E+00  0.20107158838E+03  0.20107158838E+03  0.00000000000E+00 0. -1.
         21   -1    0    0  502  503 -0.00000000000E+00 -0.00000000000E+00 -0.74903350834E+03  0.74903350834E+03  0.00000000000E+00 0. -1.
        -13    1    1    2    0    0 -0.10005081134E+03 -0.47358346264E+01 -0.27316428272E+03  0.29094901529E+03  0.10566000000E+00 0.  1.
         13    1    1    2    0    0  0.32606150615E+03  0.89699171179E+01 -0.23089789375E+03  0.39963785320E+03  0.10566000000E+00 0. -1.
          4    1    1    2  501    0 -0.65255552193E+02 -0.22513478005E+02 -0.66866084215E+02  0.96105239202E+02  0.00000000000E+00 0.  1.
         -4    1    1    2    0  503 -0.16075514262E+03  0.18279395514E+02  0.22966340724E+02  0.16341298903E+03  0.00000000000E+00 0. -1.
</event>
<event>
 6    1  0.1144920E-005  0.1594778E+03  0.7818608E-02  0.1092123E+00
         21   -1    0    0  501  502  0.00000000000E+00  0.00000000000E+00  0.64247608441E+03  0.64247608441E+03  0.00000000000E+00 0. -1.
         21   -1    0    0  502  503 -0.00000000000E+00 -0.00000000000E+00 -0.11210555203E+03  0.11210555203E+03  0.00000000000E+00 0. -1.
        -13    1    1    2    0    0 -0.16408426269E+03  0.22099655669E+02  0.14364121010E+03  0.21919135121E+03  0.10566000000E+00 0.  1.
         13    1    1    2    0    0  0.14476517688E+03 -0.53936324837E+02  0.19375044415E+03  0.24780098738E+03  0.10566000000E+00 0. -1.
          4    1    1    2  501    0  0.14804329057E+02  0.17713190226E+02  0.23855113844E+03  0.23966553970E+03  0.00000000000E+00 0.  1.
         -4    1    1    2    0  503  0.45147567509E+01  0.14123478942E+02 -0.45572260310E+02  0.47923758155E+02  0.00000000000E+00 0. -1.
</event>
<event>
 6    1  0.1144920E-005  0.3577980E+03  0.7818608E-02  0.9966461E-01
         21   -1    0    0  501  502  0.00000000000E+00  0.00000000000E+00  0.76674435707E+03  0.76674435707E+03  0.00000000000E+00 0. -1.
         21   -1    0    0  502  503 -0.00000000000E+00 -0.00000000000E+00 -0.49775327296E+03  0.49775327296E+03  0.00000000000E+00 0. -1.
        -13    1    1    2    0    0  0.19092246463E+03 -0.12351190434E+03  0.25109054690E+02  0.22877293067E+03  0.10566000000E+00 0.  1.
         13    1    1    2    0    0 -0.43632023715E+03 -0.63217404804E+02  0.20548197354E+03  0.48640995285E+03  0.10566000000E+00 0. -1.
          4    1    1    2  501    0  0.50692891060E+02 -0.12595087724E+03  0.10918834335E+03  0.17422826121E+03  0.00000000000E+00 0.  1.
         -4    1    1    2    0  503  0.19470488146E+03  0.31268018639E+03 -0.70788287463E+02  0.37508648531E+03  0.00000000000E+00 0. -1.
</event>
<event>
 6    1  0.1144920E-005  0.1149635E+03  0.7818608E-02  0.1141926E+00
         21   -1    0    0  501  502  0.00000000000E+00  0.00000000000E+00  0.91002702389E+02  0.91002702389E+02  0.00000000000E+00 0.  1.
         21   -1    0    0  502  503 -0.00000000000E+00 -0.00000000000E+00 -0.45729976448E+03  0.45729976448E+03  0.00000000000E+00 0.  1.
        -13    1    1    2    0    0  0.10446756276E+03  0.48493396361E+02 -0.30915081335E+03  0.32990804433E+03  0.10566000000E+00 0.  1.
         13    1    1    2    0    0 -0.11907915854E+03 -0.63032551242E+02 -0.53367270944E+02  0.14491730499E+03  0.10566000000E+00 0. -1.
          4    1    1    2  501    0  0.28141588101E+02  0.40443878356E+01  0.26387785331E+02  0.38789447901E+02  0.00000000000E+00 0.  1.
         -4    1    1    2    0  503 -0.13529992319E+02  0.10494767046E+02 -0.30166763131E+02  0.34687669644E+02  0.00000000000E+00 0. -1.
</event>
<event>
 6    1  0.1144920E-005  0.1717756E+03  0.7818608E-02  0.1081420E+00
         21   -1    0    0  501  502  0.00000000000E+00  0.00000000000E+00  0.45969485915E+03  0.45969485915E+03  0.00000000000E+00 0. -1.
         21   -1    0    0  502  503 -0.00000000000E+00 -0.00000000000E+00 -0.14252020842E+03  0.14252020842E+03  0.00000000000E+00 0.  1.
        -13    1    1    2    0    0  0.11558058310E+03  0.13980798867E+03 -0.36027524750E+02  0.18494090567E+03  0.10566000000E+00 0.  1.
         13    1    1    2    0    0 -0.10472382099E+03 -0.11916926116E+03  0.33465764700E+03  0.37035677846E+03  0.10566000000E+00 0. -1.
          4    1    1    2  501    0 -0.32369836688E+00 -0.18129812005E+02  0.27449697143E+02  0.32898035461E+02  0.00000000000E+00 0.  1.
         -4    1    1    2    0  503 -0.10533063744E+02 -0.25089155038E+01 -0.89051686669E+01  0.14019347982E+02  0.00000000000E+00 0. -1.
</event>
<event>
 6    1  0.1144920E-005  0.6442739E+02  0.7818608E-02  0.1259280E+00
         21   -1    0    0  501  502  0.00000000000E+00  0.00000000000E+00  0.57828905705E+03  0.57828905705E+03  0.00000000000E+00 0. -1.
         21   -1    0    0  502  503 -0.00000000000E+00 -0.00000000000E+00 -0.39142573662E+02  0.39142573662E+02  0.00000000000E+00 0.  1.
        -13    1    1    2    0    0  0.29472621698E+02  0.55858860401E+02  0.11909591836E+03  0.13480614470E+03  0.10566000000E+00 0.  1.
         13    1    1    2    0    0  0.51385828975E+02 -0.41512044501E+02  0.22921115201E+03  0.23854038784E+03  0.10566000000E+00 0. -1.
          4    1    1    2  501    0 -0.58416597404E+02  0.12060673552E+02  0.19961450502E+03  0.20833604900E+03  0.00000000000E+00 0.  1.
         -4    1    1    2    0  503 -0.22441853270E+02 -0.26407489451E+02 -0.87750920034E+01  0.35749049175E+02  0.00000000000E+00 0. -1.
</event>
<event>
 6    1  0.1144920E-005  0.1169865E+03  0.7818608E-02  0.1139157E+00
         21   -1    0    0  503  502  0.00000000000E+00  0.00000000000E+00  0.10984923607E+03  0.10984923607E+03  0.00000000000E+00 0.  1.
         21   -1    0    0  501  503 -0.00000000000E+00 -0.00000000000E+00 -0.25332780128E+03  0.25332780128E+03  0.00000000000E+00 0. -1.
        -13    1    1    2    0    0 -0.11463437790E+03 -0.55421315697E+02 -0.70056037892E+02  0.14532867039E+03  0.10566000000E+00 0.  1.
         13    1    1    2    0    0  0.85036946240E+02  0.68319142265E+02 -0.83504764875E+02  0.13737483156E+03  0.10566000000E+00 0. -1.
          4    1    1    2  501    0  0.15638798989E+02 -0.10844447947E+02 -0.31367065034E+02  0.36688783762E+02  0.00000000000E+00 0.  1.
         -4    1    1    2    0  502  0.13958632668E+02 -0.20533786208E+01  0.41449302595E+02  0.43784751630E+02  0.00000000000E+00 0. -1.
</event>
<event>
 6    1  0.1144920E-005  0.1024702E+03  0.7818608E-02  0.1160532E+00
         21   -1    0    0  501  502  0.00000000000E+00  0.00000000000E+00  0.78386970444E+03  0.78386970444E+03  0.00000000000E+00 0. -1.
         21   -1    0    0  502  503 -0.00000000000E+00 -0.00000000000E+00 -0.31462911358E+02  0.31462911358E+02  0.00000000000E+00 0.  1.
        -13    1    1    2    0    0  0.13038263766E+03  0.21613372925E+02  0.32882059314E+03  0.35438646099E+03  0.10566000000E+00 0.  1.
         13    1    1    2    0    0 -0.76475911892E+02 -0.12187534245E+02  0.29786828459E+03  0.30777041317E+03  0.10566000000E+00 0. -1.
          4    1    1    2  501    0 -0.65760189956E+02 -0.18690976687E+02  0.11773454011E+03  0.13614395736E+03  0.00000000000E+00 0.  1.
         -4    1    1    2    0  503  0.11853464185E+02  0.92651380069E+01  0.79833752378E+01  0.17031784277E+02  0.00000000000E+00 0. -1.
</event>
<event>
 6    1  0.1144920E-005  0.3930125E+02  0.7818608E-02  0.1342745E+00
         21   -1    0    0  501  502  0.00000000000E+00  0.00000000000E+00  0.75185011688E+02  0.75185011688E+02  0.00000000000E+00 0. -1.
         21   -1    0    0  502  503 -0.00000000000E+00 -0.00000000000E+00 -0.15636878821E+03  0.15636878821E+03  0.00000000000E+00 0.  1.
        -13    1    1    2    0    0 -0.40793432481E+02  0.52906485785E+00 -0.60718466504E+02  0.73151400409E+02  0.10566000000E+00 0.  1.
         13    1    1    2    0    0  0.26599233434E+02 -0.35137485501E+02  0.35135911402E+02  0.56362270543E+02  0.10566000000E+00 0. -1.
          4    1    1    2  501    0  0.63911277822E+01  0.12705002963E+02  0.19094599426E+02  0.23808976078E+02  0.00000000000E+00 0.  1.
         -4    1    1    2    0  503  0.78030712645E+01  0.21903417680E+02 -0.74695820851E+02  0.78231152873E+02  0.00000000000E+00 0. -1.
</event>
<event>
 6    1  0.1144920E-005  0.1043895E+03  0.7818608E-02  0.1157491E+00
         21   -1    0    0  501  502  0.00000000000E+00  0.00000000000E+00  0.97115058503E+02  0.97115058503E+02  0.00000000000E+00 0. -1.
         21   -1    0    0  502  503 -0.00000000000E+00 -0.00000000000E+00 -0.48293402424E+03  0.48293402424E+03  0.00000000000E+00 0.  1.
        -13    1    1    2    0    0  0.34399701894E+01 -0.83025879430E+02 -0.21758221468E+03  0.23291020020E+03  0.10566000000E+00 0.  1.
         13    1    1    2    0    0  0.95080302521E+02  0.73433234249E+02  0.16620947262E+02  0.12128054614E+03  0.10566000000E+00 0. -1.
          4    1    1    2  501    0 -0.48068463972E+02 -0.36904719305E+02 -0.97168587168E+02  0.11451755266E+03  0.00000000000E+00 0.  1.
         -4    1    1    2    0  503 -0.50451808738E+02  0.46497364487E+02 -0.87689111153E+02  0.11134078374E+03  0.00000000000E+00 0. -1.
</event>
<event>
 6    1  0.1144920E-005  0.1243869E+03  0.7818608E-02  0.1129529E+00
         21   -1    0    0  503  502  0.00000000000E+00  0.00000000000E+00  0.79067834305E+03  0.79067834305E+03  0.00000000000E+00 0.  1.
         21   -1    0    0  501  503 -0.00000000000E+00 -0.00000000000E+00 -0.13284707442E+04  0.13284707442E+04  0.00000000000E+00 0.  1.
        -13    1    1    2    0    0  0.14701619984E+03  0.13735728875E+02  0.38165256416E+03  0.40922014143E+03  0.10566000000E+00 0.  1.
         13    1    1    2    0    0 -0.54071196296E+02 -0.57968736159E+02 -0.18341177716E+03  0.19980980909E+03  0.10566000000E+00 0. -1.
          4    1    1    2  501    0 -0.69841920458E+02  0.28700414122E+02 -0.11213041531E+04  0.11238436775E+04  0.00000000000E+00 0.  1.
         -4    1    1    2    0  502 -0.23103083089E+02  0.15532593163E+02  0.38527096501E+03  0.38627545920E+03  0.00000000000E+00 0. -1.
</event>
<event>
 6    1  0.1144920E-005  0.7594581E+02  0.7818608E-02  0.1211939E+00
         21   -1    0    0  501  502  0.00000000000E+00  0.00000000000E+00  0.31565842486E+03  0.31565842486E+03  0.00000000000E+00 0. -1.
         21   -1    0    0  502  503 -0.00000000000E+00 -0.00000000000E+00 -0.79323373003E+02  0.79323373003E+02  0.00000000000E+00 0. -1.
        -13    1    1    2    0    0  0.67669185508E+02  0.15053435834E+02  0.26049412829E+02  0.74056111635E+02  0.10566000000E+00 0.  1.
         13    1    1    2    0    0 -0.40587776118E+02 -0.79822507055E+02  0.13489076854E+03  0.16190902014E+03  0.10566000000E+00 0. -1.
          4    1    1    2  501    0 -0.19508457173E+02  0.15572221799E+02  0.10029865072E+03  0.10335808304E+03  0.00000000000E+00 0.  1.
         -4    1    1    2    0  503 -0.75729522172E+01  0.49196849421E+02 -0.24903780223E+02  0.55658583055E+02  0.00000000000E+00 0. -1.
</event>
<event>
 6    1  0.1144920E-005  0.6514107E+02  0.7818608E-02  0.1258492E+00
         21   -1    0    0  501  502  0.00000000000E+00  0.00000000000E+00  0.18330441862E+02  0.18330441862E+02  0.00000000000E+00 0. -1.
         21   -1    0    0  502  503 -0.00000000000E+00 -0.00000000000E+00 -0.10039616962E+04  0.10039616962E+04  0.00000000000E+00 0.  1.
        -13    1    1    2    0    0  0.90718028016E+01 -0.55272336620E+02 -0.27447699957E+03  0.28013383097E+03  0.10566000000E+00 0.  1.
         13    1    1    2    0    0 -0.39239585008E+02  0.30941452155E+02 -0.16219382556E+03  0.16971731411E+03  0.10566000000E+00 0. -1.
          4    1    1    2  501    0  0.21373295122E+02  0.67696330684E+02 -0.10785189809E+03  0.12911871612E+03  0.00000000000E+00 0.  1.
         -4    1    1    2    0  503  0.87944870845E+01 -0.43365446219E+02 -0.44110853116E+03  0.44332227689E+03  0.00000000000E+00 0. -1.
</event>
<event>
 6    1  0.2071362E-005  0.1770033E+03  0.7818608E-02  0.1077158E+00
         21   -1    0    0  501  502  0.00000000000E+00  0.00000000000E+00  0.33928601432E+03  0.33928601432E+03  0.00000000000E+00 0. -1.
         21   -1    0    0  502  503 -0.00000000000E+00 -0.00000000000E+00 -0.10162702145E+04  0.10162702145E+04  0.00000000000E+00 0.  1.
        -13    1    1    2    0    0  0.80189905603E+02  0.23387404127E+03 -0.86254907817E+03  0.89728390800E+03  0.10566000000E+00 0.  1.
         13    1    1    2    0    0  0.12001371162E+03 -0.15790842442E+03  0.10162564424E+03  0.22285902318E+03  0.10566000000E+00 0. -1.
          4    1    1    2  501    0 -0.87794637241E+02 -0.71860948130E+01  0.36548296436E+02  0.95369367510E+02  0.00000000000E+00 0.  1.
         -4    1    1    2    0  503 -0.11240897998E+03 -0.68779522034E+02  0.47390937296E+02  0.14004393014E+03  0.00000000000E+00 0. -1.
</event>
<event>
 6    1  0.1144920E-005  0.3975074E+02  0.7818608E-02  0.1340248E+00
         21   -1    0    0  501  502  0.00000000000E+00  0.00000000000E+00  0.16135202402E+02  0.16135202402E+02  0.00000000000E+00 0. -1.
         21   -1    0    0  502  503 -0.00000000000E+00 -0.00000000000E+00 -0.26113715140E+03  0.26113715140E+03  0.00000000000E+00 0. -1.
        -13    1    1    2    0    0 -0.21416544727E+02 -0.41992554028E+02 -0.11567270442E+03  0.12490888156E+03  0.10566000000E+00 0.  1.
         13    1    1    2    0    0  0.18695418272E+02  0.38511703683E+02 -0.42972206779E+02  0.60657165318E+02  0.10566000000E+00 0. -1.
          4    1    1    2  501    0 -0.50414606810E+01 -0.99804816438E+01 -0.15184833216E+02  0.18857505122E+02  0.00000000000E+00 0.  1.
         -4    1    1    2    0  503  0.77625871357E+01  0.13461331989E+02 -0.71172204587E+02  0.72848801800E+02  0.00000000000E+00 0. -1.
</event>
<event>
 6    1  0.1144920E-005  0.1041945E+03  0.7818608E-02  0.1157796E+00
         21   -1    0    0  503  502  0.00000000000E+00  0.00000000000E+00  0.10571211988E+04  0.10571211988E+04  0.00000000000E+00 0. -1.
         21   -1    0    0  501  503 -0.00000000000E+00 -0.00000000000E+00 -0.56778359910E+02  0.56778359910E+02  0.00000000000E+00 0. -1.
        -13    1    1    2    0    0 -0.11366939937E+03  0.46064678618E+02  0.26420373912E+03  0.29128390601E+03  0.10566000000E+00 0.  1.
         13    1    1    2    0    0  0.26686946867E+02 -0.94529824399E+02  0.68264039384E+02  0.11961634951E+03  0.10566000000E+00 0. -1.
          4    1    1    2  501    0  0.54642402909E+02  0.11687907720E+02  0.30336038465E+02  0.63582030577E+02  0.00000000000E+00 0.  1.
         -4    1    1    2    0  502  0.32340049589E+02  0.36777238061E+02  0.63753902193E+03  0.63941727262E+03  0.00000000000E+00 0. -1.
</event>
<event>
 6    1  0.1144920E-005  0.2031855E+03  0.7818608E-02  0.1057974E+00
         21   -1    0    0  501  502  0.00000000000E+00  0.00000000000E+00  0.12288689451E+03  0.12288689451E+03  0.00000000000E+00 0. -1.
         21   -1    0    0  502  503 -0.00000000000E+00 -0.00000000000E+00 -0.75936217390E+03  0.75936217390E+03  0.00000000000E+00 0.  1.
        -13    1    1    2    0    0  0.14965112740E+03  0.13475838933E+03 -0.37893684831E+03  0.42912519106E+03  0.10566000000E+00 0.  1.
         13    1    1    2    0    0 -0.11063599309E+03 -0.17541553862E+03 -0.11403075343E+03  0.23667268125E+03  0.10566000000E+00 0. -1.
          4    1    1    2  501    0 -0.82210724284E+01  0.88385631442E+01  0.32651931311E+02  0.34811705627E+02  0.00000000000E+00 0.  1.
         -4    1    1    2    0  503 -0.30794061883E+02  0.31818586143E+02 -0.17615960896E+03  0.18163949048E+03  0.00000000000E+00 0. -1.
</event>
<event>
 6    1  0.1144920E-005  0.7122543E+02  0.7818608E-02  0.1223548E+00
         21   -1    0    0  503  502  0.00000000000E+00  0.00000000000E+00  0.52962703069E+03  0.52962703069E+03  0.00000000000E+00 0.  1.
         21   -1    0    0  501  503 -0.00000000000E+00 -0.00000000000E+00 -0.15321583407E+03  0.15321583407E+03  0.00000000000E+00 0.  1.
        -13    1    1    2    0    0  0.60925300291E+02  0.51002358422E+02  0.42804428162E+03  0.43535623456E+03  0.10566000000E+00 0.  1.
         13    1    1    2    0    0  0.23721064096E+01 -0.52070357691E+02 -0.19985579941E+02  0.55824578892E+02  0.10566000000E+00 0. -1.
          4    1    1    2  501    0 -0.50760853280E+02 -0.43895320596E+01 -0.10517916919E+03  0.11686996983E+03  0.00000000000E+00 0.  1.
         -4    1    1    2    0  502 -0.12536553420E+02  0.54575313287E+01  0.73531664139E+02  0.74792081472E+02  0.00000000000E+00 0. -1.
</event>
<event>
 6    1  0.1144920E-005  0.1226825E+03  0.7818608E-02  0.1131680E+00
         21   -1    0    0  503  502  0.00000000000E+00  0.00000000000E+00  0.44834284907E+03  0.44834284907E+03  0.00000000000E+00 0. -1.
         21   -1    0    0  501  503 -0.00000000000E+00 -0.00000000000E+00 -0.72978786662E+02  0.72978786662E+02  0.00000000000E+00 0.  1.
        -13    1    1    2    0    0 -0.29492558736E+02 -0.10834131659E+03  0.30981148795E+03  0.32953121420E+03  0.10566000000E+00 0.  1.
         13    1    1    2    0    0  0.42522336109E+02  0.13331276517E+03  0.39248197715E+02  0.14533022608E+03  0.10566000000E+00 0. -1.
          4    1    1    2  501    0 -0.45937284222E+01 -0.19326182761E+02  0.29722431148E+02  0.35749497818E+02  0.00000000000E+00 0.  1.
         -4    1    1    2    0  502 -0.84360489501E+01 -0.56452658122E+01 -0.34180544020E+01  0.10710697637E+02  0.00000000000E+00 0. -1.
</event>
<event>
 6    1  0.1144920E-005  0.1604246E+03  0.7818608E-02  0.1091262E+00
         21   -1    0    0  501  502  0.00000000000E+00  0.00000000000E+00  0.14351146155E+03  0.14351146155E+03  0.00000000000E+00 0. -1.
         21   -1    0    0  502  503 -0.00000000000E+00 -0.00000000000E+00 -0.88633754482E+03  0.88633754482E+03  0.00000000000E+00 0.  1.
        -13    1    1    2    0    0 -0.16405522976E+02 -0.14455066947E+03 -0.63964824133E+03  0.65598317130E+03  0.10566000000E+00 0.  1.
         13    1    1    2    0    0  0.19207268713E+02  0.15022825048E+03  0.53800370265E+02  0.16072317014E+03  0.10566000000E+00 0. -1.
          4    1    1    2  501    0 -0.19660035510E+02  0.12928177679E+02  0.22119062718E+02  0.32294081654E+02  0.00000000000E+00 0.  1.
         -4    1    1    2    0  503  0.16858289772E+02 -0.18605758686E+02 -0.17909727492E+03  0.18084858328E+03  0.00000000000E+00 0. -1.
</event>
<event>
 6    1  0.1144920E-005  0.8396196E+02  0.7818608E-02  0.1213770E+00
         21   -1    0    0  501  502  0.00000000000E+00  0.00000000000E+00  0.18062554090E+04  0.18062554090E+04  0.00000000000E+00 0. -1.
         21   -1    0    0  502  503 -0.00000000000E+00 -0.00000000000E+00 -0.81830140530E+02  0.81830140530E+02  0.00000000000E+00 0. -1.
        -13    1    1    2    0    0 -0.95588497920E+01  0.44748448794E+02  0.27309115673E+02  0.53287843282E+02  0.10566000000E+00 0.  1.
         13    1    1    2    0    0  0.29793860229E+02 -0.17685988076E+03  0.85149673337E+03  0.87018032018E+03  0.10566000000E+00 0. -1.
          4    1    1    2  501    0 -0.16805483106E+02  0.51271582971E+02  0.87639152036E+03  0.87805085071E+03  0.00000000000E+00 0.  1.
         -4    1    1    2    0  503 -0.34295273307E+01  0.80839848993E+02 -0.30772100948E+02  0.86566535334E+02  0.00000000000E+00 0. -1.
</event>
<event>
 6    1  0.1144920E-005  0.2610696E+02  0.7818608E-02  0.1439199E+00
         21   -1    0    0  503  502  0.00000000000E+00  0.00000000000E+00  0.74281151028E+02  0.74281151028E+02  0.00000000000E+00 0.  1.
         21   -1    0    0  501  503 -0.00000000000E+00 -0.00000000000E+00 -0.32815912045E+03  0.32815912045E+03  0.00000000000E+00 0.  1.
        -13    1    1    2    0    0 -0.25981025228E+02 -0.40296742694E+02  0.24480450136E+02  0.53834419720E+02  0.10566000000E+00 0.  1.
         13    1    1    2    0    0  0.21196404710E+02  0.30239780869E+01 -0.78258342111E+02  0.81134525882E+02  0.10566000000E+00 0. -1.
          4    1    1    2  501    0 -0.49023544805E-01  0.12747376275E+02 -0.22894643051E+03  0.22930103805E+03  0.00000000000E+00 0.  1.
         -4    1    1    2    0  502  0.48336440632E+01  0.24525388332E+02  0.28846353065E+02  0.38170287829E+02  0.00000000000E+00 0. -1.
</event>
<event>
 6    1  0.1144920E-005  0.6882973E+02  0.7818608E-02  0.1229832E+00
         21   -1    0    0  501  502  0.00000000000E+00  0.00000000000E+00  0.60025848590E+02  0.60025848590E+02  0.00000000000E+00 0. -1.
         21   -1    0    0  502  503 -0.00000000000E+00 -0.00000000000E+00 -0.58810616267E+03  0.58810616267E+03  0.00000000000E+00 0. -1.
        -13    1    1    2    0    0 -0.71638281387E+02  0.69382659919E+02 -0.15642950125E+03  0.18551602864E+03  0.10566000000E+00 0.  1.
         13    1    1    2    0    0  0.38882537486E+02 -0.67893302729E+02 -0.14700742518E+02  0.79608261327E+02  0.10566000000E+00 0. -1.
          4    1    1    2  501    0  0.34947932305E+00  0.37801814667E+02 -0.21051128465E+02  0.43269496618E+02  0.00000000000E+00 0.  1.
         -4    1    1    2    0  503  0.32406264577E+02 -0.39291171857E+02 -0.33589894185E+03  0.33973822467E+03  0.00000000000E+00 0. -1.
</event>
<event>
 6    1  0.1144920E-005  0.1210507E+03  0.7818608E-02  0.1154656E+00
         21   -1    0    0  503  502  0.00000000000E+00  0.00000000000E+00  0.96019339785E+03  0.96019339785E+03  0.00000000000E+00 0. -1.
         21   -1    0    0  501  503 -0.00000000000E+00 -0.00000000000E+00 -0.82116523641E+02  0.82116523641E+02  0.00000000000E+00 0. -1.
        -13    1    1    2    0    0  0.36814548916E+02 -0.59411637637E+02  0.12518242288E+03  0.14337260499E+03  0.10566000000E+00 0.  1.
         13    1    1    2    0    0 -0.18031963685E+03  0.12601381393E+03  0.15175002192E+03  0.26725031909E+03  0.10566000000E+00 0. -1.
          4    1    1    2  501    0  0.15312956670E+03 -0.37356508905E+02  0.43412667879E+03  0.46185511385E+03  0.00000000000E+00 0.  1.
         -4    1    1    2    0  502 -0.96244787644E+01 -0.29245667387E+02  0.16701775062E+03  0.16983188356E+03  0.00000000000E+00 0. -1.
</event>
<event>
 6    1  0.1144920E-005  0.8030064E+02  0.7818608E-02  0.1202029E+00
         21   -1    0    0  501  502  0.00000000000E+00  0.00000000000E+00  0.11253778639E+04  0.11253778639E+04  0.00000000000E+00 0.  1.
         21   -1    0    0  502  503 -0.00000000000E+00 -0.00000000000E+00 -0.24357921464E+03  0.24357921464E+03  0.00000000000E+00 0. -1.
        -13    1    1    2    0    0 -0.84381572323E+02 -0.98736881449E+02  0.25043054828E+02  0.13227390999E+03  0.10566000000E+00 0.  1.
         13    1    1    2    0    0  0.46456913859E+02  0.51860245184E+02  0.40040009497E+03  0.40640863314E+03  0.10566000000E+00 0. -1.
          4    1    1    2  501    0  0.14664380149E+02 -0.25333969105E+01  0.63923855108E+03  0.63941175101E+03  0.00000000000E+00 0.  1.
         -4    1    1    2    0  503  0.23260278315E+02  0.49410033176E+02 -0.18288305158E+03  0.19086278443E+03  0.00000000000E+00 0. -1.
</event>
<event>
 6    1  0.1144920E-005  0.2124065E+03  0.7818608E-02  0.1070065E+00
         21   -1    0    0  501  502  0.00000000000E+00  0.00000000000E+00  0.10173980371E+03  0.10173980371E+03  0.00000000000E+00 0.  1.
         21   -1    0    0  502  503 -0.00000000000E+00 -0.00000000000E+00 -0.15481064141E+04  0.15481064141E+04  0.00000000000E+00 0.  1.
        -13    1    1    2    0    0 -0.59086694926E+02 -0.20541629781E+03 -0.74138302849E+03  0.77158013130E+03  0.10566000000E+00 0.  1.
         13    1    1    2    0    0  0.15740692376E+03  0.20945470070E+01 -0.12968122432E+03  0.20395724522E+03  0.10566000000E+00 0. -1.
          4    1    1    2  501    0 -0.51972508658E+02 -0.68692377860E+00  0.98324194481E+01  0.52898865703E+02  0.00000000000E+00 0.  1.
         -4    1    1    2    0  503 -0.46347720171E+02  0.20400867458E+03 -0.58513477702E+03  0.62140997558E+03  0.00000000000E+00 0. -1.
</event>
<event>
 6    1  0.1144920E-005  0.3557899E+02  0.7818608E-02  0.1428835E+00
         21   -1    0    0  503  502  0.00000000000E+00  0.00000000000E+00  0.21162125521E+02  0.21162125521E+02  0.00000000000E+00 0.  1.
         21   -1    0    0  501  503 -0.00000000000E+00 -0.00000000000E+00 -0.45807807995E+03  0.45807807995E+03  0.00000000000E+00 0.  1.
        -13    1    1    2    0    0 -0.11060594550E+02  0.51915355071E+01  0.80209119278E+01  0.14616257555E+02  0.10566000000E+00 0.  1.
         13    1    1    2    0    0  0.37390566284E+02 -0.42615243384E+01 -0.31904996960E+02  0.49337156706E+02  0.10566000000E+00 0. -1.
          4    1    1    2  501    0 -0.10124480638E+01 -0.10561310170E+02 -0.23171048994E+03  0.23195326571E+03  0.00000000000E+00 0.  1.
         -4    1    1    2    0  502 -0.25317523671E+02  0.96312990014E+01 -0.18132137945E+03  0.18333352550E+03  0.00000000000E+00 0. -1.
</event>
<event>
 6    1  0.1144920E-005  0.3828469E+02  0.7818608E-02  0.1355676E+00
         21   -1    0    0  503  502  0.00000000000E+00  0.00000000000E+00  0.32359757401E+02  0.32359757401E+02  0.00000000000E+00 0. -1.
         21   -1    0    0  501  503 -0.00000000000E+00 -0.00000000000E+00 -0.16342735924E+04  0.16342735924E+04  0.00000000000E+00 0.  1.
        -13    1    1    2    0    0 -0.17425542896E+02  0.45692656347E+01 -0.84608303943E+01  0.19902877899E+02  0.10566000000E+00 0.  1.
         13    1    1    2    0    0  0.37307573539E+02  0.21239705206E+02 -0.25600989257E+03  0.25958439163E+03  0.10566000000E+00 0. -1.
          4    1    1    2  501    0  0.18443030870E+02 -0.28185959681E+02 -0.13471246241E+04  0.13475456751E+04  0.00000000000E+00 0.  1.
         -4    1    1    2    0  502 -0.38325061513E+02  0.23769888407E+01  0.96815120182E+01  0.39600405186E+02  0.00000000000E+00 0. -1.
</event>
<event>
 6    1  0.1144920E-005  0.1108824E+03  0.7818608E-02  0.1150769E+00
         21   -1    0    0  503  502  0.00000000000E+00  0.00000000000E+00  0.11101294410E+03  0.11101294410E+03  0.00000000000E+00 0. -1.
         21   -1    0    0  501  503 -0.00000000000E+00 -0.00000000000E+00 -0.13034481725E+04  0.13034481725E+04  0.00000000000E+00 0. -1.
        -13    1    1    2    0    0 -0.19274229577E+03 -0.24706139440E+02 -0.14787842693E+03  0.24418850550E+03  0.10566000000E+00 0.  1.
         13    1    1    2    0    0  0.95788549373E+02 -0.17350090924E+02 -0.32842372806E+03  0.34254726413E+03  0.10566000000E+00 0. -1.
          4    1    1    2  501    0 -0.92603065172E+01  0.82020717780E+01 -0.71613968502E+03  0.71624651882E+03  0.00000000000E+00 0.  1.
         -4    1    1    2    0  502  0.10621405292E+03  0.33854158586E+02  0.66115741416E-02  0.11147882819E+03  0.00000000000E+00 0. -1.
</event>
<event>
 6    1  0.1144920E-005  0.4758066E+02  0.7818608E-02  0.1304094E+00
         21   -1    0    0  503  502  0.00000000000E+00  0.00000000000E+00  0.15735476563E+03  0.15735476563E+03  0.00000000000E+00 0. -1.
         21   -1    0    0  501  503 -0.00000000000E+00 -0.00000000000E+00 -0.73613426380E+02  0.73613426380E+02  0.00000000000E+00 0.  1.
        -13    1    1    2    0    0 -0.82353980566E+01 -0.24990783748E+02 -0.29109524177E+02  0.39239477766E+02  0.10566000000E+00 0.  1.
         13    1    1    2    0    0 -0.12565824184E+02  0.50794482432E+02  0.54813228761E+02  0.75779156727E+02  0.10566000000E+00 0. -1.
          4    1    1    2  501    0  0.50807206896E+02 -0.25370614415E+02  0.76496366219E+01  0.57302332316E+02  0.00000000000E+00 0.  1.
         -4    1    1    2    0  502 -0.30005984655E+02 -0.43308426789E+00  0.50387998041E+02  0.58647225200E+02  0.00000000000E+00 0. -1.
</event>
<event>
 6    1  0.1144920E-005  0.2496338E+02  0.7818608E-02  0.1452854E+00
         21   -1    0    0  501  502  0.00000000000E+00  0.00000000000E+00  0.78115626682E+03  0.78115626682E+03  0.00000000000E+00 0.  1.
         21   -1    0    0  502  503 -0.00000000000E+00 -0.00000000000E+00 -0.10258955580E+03  0.10258955580E+03  0.00000000000E+00 0.  1.
        -13    1    1    2    0    0  0.32811166747E+02 -0.31299603259E+02 -0.40947961120E+02  0.61098154730E+02  0.10566000000E+00 0.  1.
         13    1    1    2    0    0 -0.69583249204E+01  0.15769557245E+02  0.34856489353E+02  0.38885514469E+02  0.10566000000E+00 0. -1.
          4    1    1    2  501    0 -0.23504939293E+02 -0.84634082903E+01  0.73105185395E+03  0.73147858794E+03  0.00000000000E+00 0.  1.
         -4    1    1    2    0  503 -0.23479025335E+01  0.23993454304E+02 -0.46393671165E+02  0.52283565486E+02  0.00000000000E+00 0. -1.
</event>
<event>
 6    1  0.1144920E-005  0.1533835E+03  0.7818608E-02  0.1097822E+00
         21   -1    0    0  503  502  0.00000000000E+00  0.00000000000E+00  0.10676377856E+03  0.10676377856E+03  0.00000000000E+00 0.  1.
         21   -1    0    0  501  503 -0.00000000000E+00 -0.00000000000E+00 -0.80401149949E+03  0.80401149949E+03  0.00000000000E+00 0. -1.
        -13    1    1    2    0    0  0.51161529813E+02 -0.13068046881E+03 -0.27839452197E+02  0.14307317472E+03  0.10566000000E+00 0.  1.
         13    1    1    2    0    0 -0.97158093505E+02  0.11109881466E+03 -0.57468776813E+03  0.59333690577E+03  0.10566000000E+00 0. -1.
          4    1    1    2  501    0 -0.25569487694E+01  0.12750856331E+02 -0.11896030101E+03  0.11966902498E+03  0.00000000000E+00 0.  1.
         -4    1    1    2    0  502  0.48553512461E+02  0.68307978168E+01  0.24239800401E+02  0.54696172577E+02  0.00000000000E+00 0. -1.
</event>
<event>
 6    1  0.1144920E-005  0.1167271E+03  0.7818608E-02  0.1168050E+00
         21   -1    0    0  503  502  0.00000000000E+00  0.00000000000E+00  0.22223435911E+03  0.22223435911E+03  0.00000000000E+00 0. -1.
         21   -1    0    0  501  503 -0.00000000000E+00 -0.00000000000E+00 -0.40653640704E+03  0.40653640704E+03  0.00000000000E+00 0.  1.
        -13    1    1    2    0    0  0.54751661971E+02 -0.16919771356E+02  0.62108778571E+01  0.57642079414E+02  0.10566000000E+00 0.  1.
         13    1    1    2    0    0 -0.89741435757E+02 -0.10378833386E+03 -0.50547257954E+01  0.13729932612E+03  0.10566000000E+00 0. -1.
          4    1    1    2  501    0  0.57551376895E+01  0.11743581200E+02 -0.28383930998E+03  0.28414043569E+03  0.00000000000E+00 0.  1.
         -4    1    1    2    0  502  0.29234636096E+02  0.10896452401E+03  0.98381109988E+02  0.14968892492E+03  0.00000000000E+00 0. -1.
</event>
<event>
 6    1  0.1144920E-005  0.5125962E+02  0.7818608E-02  0.1338941E+00
         21   -1    0    0  503  502  0.00000000000E+00  0.00000000000E+00  0.17076769529E+03  0.17076769529E+03  0.00000000000E+00 0.  1.
         21   -1    0    0  501  503 -0.00000000000E+00 -0.00000000000E+00 -0.37941882157E+03  0.37941882157E+03  0.00000000000E+00 0. -1.
        -13    1    1    2    0    0 -0.29701279199E+02  0.35495100876E+01  0.11361557004E+03  0.11748733518E+03  0.10566000000E+00 0.  1.
         13    1    1    2    0    0 -0.38622071597E+02  0.86063933347E+02 -0.30194778535E+03  0.31634023026E+03  0.10566000000E+00 0. -1.
          4    1    1    2  501    0  0.56191937661E+02 -0.81567314917E+02 -0.12500263966E+02  0.99834950394E+02  0.00000000000E+00 0.  1.
         -4    1    1    2    0  502  0.12131413136E+02 -0.80461285178E+01 -0.78186470052E+01  0.16524001022E+02  0.00000000000E+00 0. -1.
</event>
<event>
 6    1  0.1144920E-005  0.1758837E+03  0.7818608E-02  0.1081159E+00
         21   -1    0    0  503  502  0.00000000000E+00  0.00000000000E+00  0.91637446958E+03  0.91637446958E+03  0.00000000000E+00 0.  1.
         21   -1    0    0  501  503 -0.00000000000E+00 -0.00000000000E+00 -0.30315483980E+03  0.30315483980E+03  0.00000000000E+00 0. -1.
        -13    1    1    2    0    0  0.15671347318E+03  0.45073974288E+02  0.30883019811E+03  0.34923756708E+03  0.10566000000E+00 0.  1.
         13    1    1    2    0    0 -0.23076949128E+03 -0.21750024319E+03 -0.10441134868E+03  0.33386023242E+03  0.10566000000E+00 0. -1.
          4    1    1    2  501    0  0.12389681586E+03  0.12420978091E+03  0.67207851029E+02  0.18787066267E+03  0.00000000000E+00 0.  1.
         -4    1    1    2    0  502 -0.49840797760E+02  0.48216487998E+02  0.34159292933E+03  0.34856084720E+03  0.00000000000E+00 0. -1.
</event>
<event>
 6    1  0.1144920E-005  0.3109840E+02  0.7818608E-02  0.1421069E+00
         21   -1    0    0  503  502  0.00000000000E+00  0.00000000000E+00  0.62141225034E+02  0.62141225034E+02  0.00000000000E+00 0. -1.
         21   -1    0    0  501  503 -0.00000000000E+00 -0.00000000000E+00 -0.21658848261E+03  0.21658848261E+03  0.00000000000E+00 0.  1.
        -13    1    1    2    0    0 -0.11536129422E+02 -0.12195725225E+02  0.25509482267E+01  0.16980473983E+02  0.10566000000E+00 0.  1.
         13    1    1    2    0    0  0.69607431426E+01  0.23549344121E+02 -0.30617300651E+02  0.39248615476E+02  0.10566000000E+00 0. -1.
          4    1    1    2  501    0 -0.15974681311E+01  0.20593749077E+02 -0.16822834806E+03  0.16949168563E+03  0.00000000000E+00 0.  1.
         -4    1    1    2    0  502  0.61728544105E+01 -0.31947367973E+02  0.41847442914E+02  0.53008932553E+02  0.00000000000E+00 0. -1.
</event>
<event>
 6    1  0.1144920E-005  0.2847124E+03  0.7818608E-02  0.1017440E+00
         21   -1    0    0  503  502  0.00000000000E+00  0.00000000000E+00  0.11034667727E+04  0.11034667727E+04  0.00000000000E+00 0.  1.
         21   -1    0    0  501  503 -0.00000000000E+00 -0.00000000000E+00 -0.43813369516E+03  0.43813369516E+03  0.00000000000E+00 0.  1.
        -13    1    1    2    0    0 -0.20207965520E+03  0.40769993921E+03  0.33784337456E+03  0.56673943252E+03  0.10566000000E+00 0.  1.
         13    1    1    2    0    0 -0.72286918550E+02 -0.12385556062E+03  0.46211820639E+03  0.48385829159E+03  0.10566000000E+00 0. -1.
          4    1    1    2  501    0  0.12210883897E+03 -0.10684808313E+03 -0.19120491571E+03  0.25077161166E+03  0.00000000000E+00 0.  1.
         -4    1    1    2    0  502  0.15225773478E+03 -0.17699629546E+03  0.56576412334E+02  0.24023113211E+03  0.00000000000E+00 0. -1.
</event>
<event>
 6    1  0.1144920E-005  0.1093201E+03  0.7818608E-02  0.1149993E+00
         21   -1    0    0  501  502  0.00000000000E+00  0.00000000000E+00  0.75908878519E+02  0.75908878519E+02  0.00000000000E+00 0.  1.
         21   -1    0    0  502  503 -0.00000000000E+00 -0.00000000000E+00 -0.76867847115E+03  0.76867847115E+03  0.00000000000E+00 0.  1.
        -13    1    1    2    0    0  0.11469914357E+03  0.24634859813E+02 -0.46886698882E+03  0.48332083984E+03  0.10566000000E+00 0.  1.
         13    1    1    2    0    0 -0.95596843121E+02  0.10453050310E+02 -0.11601681415E+03  0.15069152267E+03  0.10566000000E+00 0. -1.
          4    1    1    2  501    0 -0.15544370728E+02 -0.48432282528E+02  0.38341107634E+02  0.63697362479E+02  0.00000000000E+00 0.  1.
         -4    1    1    2    0  503 -0.35579297209E+01  0.13344372406E+02 -0.14622689730E+03  0.14687762468E+03  0.00000000000E+00 0. -1.
</event>
<event>
 6    1  0.1144920E-005  0.7869727E+02  0.7818608E-02  0.1205595E+00
         21   -1    0    0  501  502  0.00000000000E+00  0.00000000000E+00  0.24246648459E+03  0.24246648459E+03  0.00000000000E+00 0.  1.
         21   -1    0    0  502  503 -0.00000000000E+00 -0.00000000000E+00 -0.27434463392E+03  0.27434463392E+03  0.00000000000E+00 0. -1.
        -13    1    1    2    0    0 -0.89311019315E+01 -0.54859821217E+02 -0.15036763500E+03  0.16031157596E+03  0.10566000000E+00 0.  1.
         13    1    1    2    0    0 -0.66940647414E+02  0.69336213692E+02  0.96075079369E+02  0.13608450626E+03  0.10566000000E+00 0. -1.
          4    1    1    2  501    0  0.35453834722E+02  0.63610869119E+01  0.11324607683E+03  0.11883649162E+03  0.00000000000E+00 0.  1.
         -4    1    1    2    0  503  0.40417914624E+02 -0.20837479387E+02 -0.90831670516E+02  0.10157854468E+03  0.00000000000E+00 0. -1.
</event>
<event>
 6    1  0.1144920E-005  0.3510771E+02  0.7818608E-02  0.1388780E+00
         21   -1    0    0  501  502  0.00000000000E+00  0.00000000000E+00  0.15286077394E+03  0.15286077394E+03  0.00000000000E+00 0.  1.
         21   -1    0    0  502  503 -0.00000000000E+00 -0.00000000000E+00 -0.14677451729E+03  0.14677451729E+03  0.00000000000E+00 0. -1.
        -13    1    1    2    0    0  0.17131209290E+02  0.54099678746E+02  0.17536619905E+02  0.59395267268E+02  0.10566000000E+00 0.  1.
         13    1    1    2    0    0 -0.17383495296E+02 -0.21401198166E+01  0.36729335562E+02  0.40691783893E+02  0.10566000000E+00 0. -1.
          4    1    1    2  501    0 -0.10435568267E+02 -0.29864476773E+02  0.71073151924E+02  0.77795764553E+02  0.00000000000E+00 0.  1.
         -4    1    1    2    0  503  0.10687854273E+02 -0.22095082156E+02 -0.11925285074E+03  0.12175247552E+03  0.00000000000E+00 0. -1.
</event>
<event>
 6    1  0.1144920E-005  0.4650778E+02  0.7818608E-02  0.1306699E+00
         21   -1    0    0  503  502  0.00000000000E+00  0.00000000000E+00  0.13011525188E+03  0.13011525188E+03  0.00000000000E+00 0.  1.
         21   -1    0    0  501  503 -0.00000000000E+00 -0.00000000000E+00 -0.40299415733E+02  0.40299415733E+02  0.00000000000E+00 0. -1.
        -13    1    1    2    0    0  0.62075042009E+02 -0.18123639255E+02  0.31006258946E+02  0.71715942427E+02  0.10566000000E+00 0.  1.
         13    1    1    2    0    0 -0.32625924609E+02  0.73827690471E+01  0.18275636817E+02  0.38117795063E+02  0.10566000000E+00 0. -1.
          4    1    1    2  501    0 -0.13938049559E+02  0.24983305198E+01 -0.22442636218E+01  0.14336931335E+02  0.00000000000E+00 0.  1.
         -4    1    1    2    0  502 -0.15511067842E+02  0.82425396886E+01  0.42778204010E+02  0.46243998794E+02  0.00000000000E+00 0. -1.
</event>
<event>
 6    1  0.1144920E-005  0.4292906E+02  0.7818608E-02  0.1332000E+00
         21   -1    0    0  503  502  0.00000000000E+00  0.00000000000E+00  0.71988400614E+03  0.71988400614E+03  0.00000000000E+00 0. -1.
         21   -1    0    0  501  503 -0.00000000000E+00 -0.00000000000E+00 -0.11848571660E+03  0.11848571660E+03  0.00000000000E+00 0. -1.
        -13    1    1    2    0    0  0.61519277717E+02 -0.46872895634E+02  0.17150145273E+03  0.18813412590E+03  0.10566000000E+00 0.  1.
         13    1    1    2    0    0 -0.43679205838E+02  0.19341469790E+02 -0.88852080488E+02  0.10087947684E+03  0.10566000000E+00 0. -1.
          4    1    1    2  501    0  0.26088785168E+02  0.11914326992E+02  0.16538596678E+00  0.28681060854E+02  0.00000000000E+00 0.  1.
         -4    1    1    2    0  502 -0.43928857047E+02  0.15617098852E+02  0.51858353133E+03  0.52067505915E+03  0.00000000000E+00 0. -1.
</event>
<event>
 6    1  0.1144920E-005  0.2240452E+03  0.7818608E-02  0.1058268E+00
         21   -1    0    0  503  502  0.00000000000E+00  0.00000000000E+00  0.52833608104E+03  0.52833608104E+03  0.00000000000E+00 0. -1.
         21   -1    0    0  501  503 -0.00000000000E+00 -0.00000000000E+00 -0.79030596016E+03  0.79030596016E+03  0.00000000000E+00 0. -1.
        -13    1    1    2    0    0  0.25772421668E+03  0.15381993385E+03 -0.27884564953E+03  0.40967944949E+03  0.10566000000E+00 0.  1.
         13    1    1    2    0    0 -0.12803323126E+03 -0.84928204692E+02 -0.27455216322E+03  0.31461756110E+03  0.10566000000E+00 0. -1.
          4    1    1    2  501    0 -0.14748486241E+03 -0.82676224363E+02 -0.10385200820E+03  0.19842475229E+03  0.00000000000E+00 0.  1.
         -4    1    1    2    0  502  0.17793876994E+02  0.13784495204E+02  0.39527994183E+03  0.39592027831E+03  0.00000000000E+00 0. -1.
</event>
<event>
 6    1  0.1144920E-005  0.4038273E+02  0.7818608E-02  0.1336800E+00
         21   -1    0    0  503  502  0.00000000000E+00  0.00000000000E+00  0.85467341511E+02  0.85467341511E+02  0.00000000000E+00 0.  1.
         21   -1    0    0  501  503 -0.00000000000E+00 -0.00000000000E+00 -0.96017714786E+02  0.96017714786E+02  0.00000000000E+00 0.  1.
        -13    1    1    2    0    0  0.37189413320E+01 -0.20752980331E+02  0.43275751955E+02  0.48138535380E+02  0.10566000000E+00 0.  1.
         13    1    1    2    0    0 -0.53356899164E+01  0.55715554965E+02  0.12487287398E+02  0.57346631658E+02  0.10566000000E+00 0. -1.
          4    1    1    2  501    0  0.56931068277E+01 -0.24971993607E+02 -0.52988473981E+02  0.58853974419E+02  0.00000000000E+00 0.  1.
         -4    1    1    2    0  502 -0.40763582433E+01 -0.99905810264E+01 -0.13324938646E+02  0.17145914840E+02  0.00000000000E+00 0. -1.
</event>
<event>
 6    1  0.1144920E-005  0.3898374E+03  0.7818608E-02  0.9758863E-01
         21   -1    0    0  503  502  0.00000000000E+00  0.00000000000E+00  0.46687010878E+03  0.46687010878E+03  0.00000000000E+00 0. -1.
         21   -1    0    0  501  503 -0.00000000000E+00 -0.00000000000E+00 -0.82552192686E+03  0.82552192686E+03  0.00000000000E+00 0. -1.
        -13    1    1    2    0    0 -0.30404680429E+03 -0.17575794935E+03 -0.30160457310E+03  0.46292617731E+03  0.10566000000E+00 0.  1.
         13    1    1    2    0    0  0.50652349544E+03  0.69260540025E+00 -0.55457448707E+02  0.50955085214E+03  0.10566000000E+00 0. -1.
          4    1    1    2  501    0 -0.42562441984E+02  0.89391605004E+02 -0.74999852266E+02  0.12420707851E+03  0.00000000000E+00 0.  1.
         -4    1    1    2    0  502 -0.15991424916E+03  0.85673738946E+02  0.73410055997E+02  0.19570792767E+03  0.00000000000E+00 0. -1.
</event>
<event>
 6    1  0.1144920E-005  0.8002010E+02  0.7818608E-02  0.1202647E+00
         21   -1    0    0  503  502  0.00000000000E+00  0.00000000000E+00  0.52352368198E+03  0.52352368198E+03  0.00000000000E+00 0.  1.
         21   -1    0    0  501  503 -0.00000000000E+00 -0.00000000000E+00 -0.96444652698E+02  0.96444652698E+02  0.00000000000E+00 0.  1.
        -13    1    1    2    0    0  0.10641009392E+03  0.86740519953E+01  0.26430566425E+03  0.28505410466E+03  0.10566000000E+00 0.  1.
         13    1    1    2    0    0 -0.54843906166E+02 -0.46742374980E+02  0.18067281801E+03  0.19451319234E+03  0.10566000000E+00 0. -1.
          4    1    1    2  501    0 -0.79717783209E+02 -0.85436144431E+01 -0.28185863468E+02  0.84984476270E+02  0.00000000000E+00 0.  1.
         -4    1    1    2    0  502  0.28151595454E+02  0.46611937428E+02  0.10286410491E+02  0.55416561407E+02  0.00000000000E+00 0. -1.
</event>
<event>
 6    1  0.1144920E-005  0.3123981E+03  0.7818608E-02  0.1002315E+00
         21   -1    0    0  503  502  0.00000000000E+00  0.00000000000E+00  0.24821018719E+03  0.24821018719E+03  0.00000000000E+00 0. -1.
         21   -1    0    0  501  503 -0.00000000000E+00 -0.00000000000E+00 -0.95951468346E+03  0.95951468346E+03  0.00000000000E+00 0.  1.
        -13    1    1    2    0    0 -0.24163982356E+03  0.60646361673E+02 -0.61678925321E+03  0.66520431414E+03  0.10566000000E+00 0.  1.
         13    1    1    2    0    0  0.31621109161E+03 -0.21776449652E+01 -0.28188233282E+02  0.31747249370E+03  0.10566000000E+00 0. -1.
          4    1    1    2  501    0 -0.99231999630E+02  0.43101357743E+02 -0.17161513886E+02  0.10954101674E+03  0.00000000000E+00 0.  1.
         -4    1    1    2    0  502  0.24660731577E+02 -0.10157007445E+03 -0.49165495886E+02  0.11550704607E+03  0.00000000000E+00 0. -1.
</event>
<event>
 6    1  0.1634004E-005  0.2074633E+03  0.7818608E-02  0.1055137E+00
         21   -1    0    0  501  502  0.00000000000E+00  0.00000000000E+00  0.68456169167E+03  0.68456169167E+03  0.00000000000E+00 0. -1.
         21   -1    0    0  502  503 -0.00000000000E+00 -0.00000000000E+00 -0.39059722046E+03  0.39059722046E+03  0.00000000000E+00 0. -1.
        -13    1    1    2    0    0  0.20826016811E+03 -0.47237192845E+02 -0.62456427437E+02  0.22249599210E+03  0.10566000000E+00 0.  1.
         13    1    1    2    0    0 -0.20476901144E+03  0.43592471163E+02  0.51844064966E+03  0.55911659783E+03  0.10566000000E+00 0. -1.
          4    1    1    2  501    0  0.91806123095E+01  0.22198748595E+02  0.62991230947E+02  0.67416342661E+02  0.00000000000E+00 0.  1.
         -4    1    1    2    0  503 -0.12671768976E+02 -0.18554026912E+02 -0.22501098196E+03  0.22612997954E+03  0.00000000000E+00 0. -1.
</event>
<event>
 6    1  0.1144920E-005  0.4359520E+02  0.7818608E-02  0.1342815E+00
         21   -1    0    0  501  502  0.00000000000E+00  0.00000000000E+00  0.36545164261E+03  0.36545164261E+03  0.00000000000E+00 0. -1.
         21   -1    0    0  502  503 -0.00000000000E+00 -0.00000000000E+00 -0.65048168377E+02  0.65048168377E+02  0.00000000000E+00 0. -1.
        -13    1    1    2    0    0  0.20557722068E+02  0.42611746346E+02  0.18152205986E+03  0.18758638075E+03  0.10566000000E+00 0.  1.
         13    1    1    2    0    0 -0.26017195273E+02 -0.21480564214E+02  0.99131880307E+02  0.10471604436E+03  0.10566000000E+00 0. -1.
          4    1    1    2  501    0 -0.52631869434E+01 -0.38496930176E+02  0.72158507398E+02  0.81954651849E+02  0.00000000000E+00 0.  1.
         -4    1    1    2    0  503  0.10722660149E+02  0.17365748044E+02 -0.52408973330E+02  0.56242734031E+02  0.00000000000E+00 0. -1.
</event>
<event>
 6    1  0.1144920E-005  0.1141015E+03  0.7818608E-02  0.1143124E+00
         21   -1    0    0  503  502  0.00000000000E+00  0.00000000000E+00  0.26230501274E+03  0.26230501274E+03  0.00000000000E+00 0.  1.
         21   -1    0    0  501  503 -0.00000000000E+00 -0.00000000000E+00 -0.15238476351E+03  0.15238476351E+03  0.00000000000E+00 0. -1.
        -13    1    1    2    0    0 -0.82155279151E+02  0.66067848987E+02  0.17332480980E+03  0.20286929639E+03  0.10566000000E+00 0.  1.
         13    1    1    2    0    0  0.72151854394E+02 -0.70824023283E+02 -0.69942406807E+02  0.12293853668E+03  0.10566000000E+00 0. -1.
          4    1    1    2  501    0  0.17272825120E+02 -0.76666276920E+01 -0.37803048154E+02  0.42263437124E+02  0.00000000000E+00 0.  1.
         -4    1    1    2    0  502 -0.72694003628E+01  0.12422801988E+02  0.44340894395E+02  0.46618506053E+02  0.00000000000E+00 0. -1.
</event>
<event>
 6    1  0.1144920E-005  0.7868687E+02  0.7818608E-02  0.1205619E+00
         21   -1    0    0  501  502  0.00000000000E+00  0.00000000000E+00  0.20372121287E+03  0.20372121287E+03  0.00000000000E+00 0.  1.
         21   -1    0    0  502  503 -0.00000000000E+00 -0.00000000000E+00 -0.20641883562E+03  0.20641883562E+03  0.00000000000E+00 0. -1.
        -13    1    1    2    0    0  0.56976537654E+02 -0.46363051344E+02  0.11058405751E+02  0.74284304363E+02  0.10566000000E+00 0.  1.
         13    1    1    2    0    0 -0.14506035972E+02  0.88952734630E+02  0.61891061174E+02  0.10933219423E+03  0.10566000000E+00 0. -1.
          4    1    1    2  501    0 -0.29030271743E+02  0.41482769510E+01  0.68436046864E+02  0.74454398053E+02  0.00000000000E+00 0.  1.
         -4    1    1    2    0  503 -0.13440229938E+02 -0.46737960237E+02 -0.14408313653E+03  0.15206915184E+03  0.00000000000E+00 0. -1.
</event>
<event>
 6    1  0.1144920E-005  0.3751689E+03  0.7818608E-02  0.9866941E-01
         21   -1    0    0  501  502  0.00000000000E+00  0.00000000000E+00  0.10124704617E+04  0.10124704617E+04  0.00000000000E+00 0.  1.
         21   -1    0    0  502  503 -0.00000000000E+00 -0.00000000000E+00 -0.13741043046E+04  0.13741043046E+04  0.00000000000E+00 0. -1.
        -13    1    1    2    0    0 -0.12789471803E+03 -0.35972455418E+03 -0.43435189426E+02  0.38424658830E+03  0.10566000000E+00 0.  1.
         13    1    1    2    0    0  0.94859405138E+02  0.48607200277E+03 -0.14496992103E+03  0.51602382483E+03  0.10566000000E+00 0. -1.
          4    1    1    2  501    0 -0.45936781008E+02  0.22149266422E+03  0.59649737939E+03  0.63794851812E+03  0.00000000000E+00 0.  1.
         -4    1    1    2    0  503  0.78972093904E+02 -0.34784011282E+03 -0.76972611182E+03  0.84835583508E+03  0.00000000000E+00 0. -1.
</event>
<event>
 6    1  0.1144920E-005  0.6450861E+02  0.7818608E-02  0.1241917E+00
         21   -1    0    0  503  502  0.00000000000E+00  0.00000000000E+00  0.42613581012E+03  0.42613581012E+03  0.00000000000E+00 0.  1.
         21   -1    0    0  501  503 -0.00000000000E+00 -0.00000000000E+00 -0.35582890445E+02  0.35582890445E+02  0.00000000000E+00 0. -1.
        -13    1    1    2    0    0  0.45099411316E+01  0.74535851837E+02  0.16107446752E+03  0.17754134175E+03  0.10566000000E+00 0.  1.
         13    1    1    2    0    0 -0.14270374139E+02 -0.60149060832E+02  0.12845152342E+03  0.14255300112E+03  0.10566000000E+00 0. -1.
          4    1    1    2  501    0  0.10515261283E+02  0.14651305608E+02 -0.14098389348E+02  0.22890960182E+02  0.00000000000E+00 0.  1.
         -4    1    1    2    0  502 -0.75482827581E+00 -0.29038096614E+02  0.11512531808E+03  0.11873339751E+03  0.00000000000E+00 0. -1.
</event>
<event>
 6    1  0.1144920E-005  0.4612326E+03  0.7818608E-02  0.9567247E-01
         21   -1    0    0  501  502  0.00000000000E+00  0.00000000000E+00  0.16620480033E+04  0.16620480033E+04  0.00000000000E+00 0. -1.
         21   -1    0    0  502  503 -0.00000000000E+00 -0.00000000000E+00 -0.15483506230E+04  0.15483506230E+04  0.00000000000E+00 0.  1.
        -13    1    1    2    0    0  0.25489548535E+03 -0.29474475858E+03 -0.20677928869E+03  0.44113928249E+03  0.10566000000E+00 0.  1.
         13    1    1    2    0    0 -0.39641096524E+03  0.33182553039E+03 -0.72866556677E+03  0.89342227157E+03  0.10566000000E+00 0. -1.
          4    1    1    2  501    0  0.13964225606E+03 -0.24317625930E+02  0.14589534907E+04  0.14658228388E+04  0.00000000000E+00 0.  1.
         -4    1    1    2    0  503  0.18732238318E+01 -0.12763145875E+02 -0.40981125503E+03  0.41001423343E+03  0.00000000000E+00 0. -1.
</event>
<event>
 6    1  0.1144920E-005  0.2799237E+02  0.7818608E-02  0.1434732E+00
         21   -1    0    0  501  502  0.00000000000E+00  0.00000000000E+00  0.28150571781E+03  0.28150571781E+03  0.00000000000E+00 0.  1.
         21   -1    0    0  502  503 -0.00000000000E+00 -0.00000000000E+00 -0.52853692538E+02  0.52853692538E+02  0.00000000000E+00 0.  1.
        -13    1    1    2    0    0  0.31415984587E+02 -0.46140162796E+02 -0.57509348563E+01  0.56115622835E+02  0.10566000000E+00 0.  1.
         13    1    1    2    0    0 -0.13419624967E+02  0.17626843893E+02  0.62073439447E+02  0.65908383448E+02  0.10566000000E+00 0. -1.
          4    1    1    2  501    0 -0.25275601802E+02  0.10501348132E+02  0.18636776239E+03  0.18836686868E+03  0.00000000000E+00 0.  1.
         -4    1    1    2    0  503  0.72792421817E+01  0.18011970770E+02 -0.14038241713E+02  0.23968535378E+02  0.00000000000E+00 0. -1.
</event>
<event>
 6    1  0.1144920E-005  0.2905522E+02  0.7818608E-02  0.1412659E+00
         21   -1    0    0  503  502  0.00000000000E+00  0.00000000000E+00  0.39604557284E+02  0.39604557284E+02  0.00000000000E+00 0. -1.
         21   -1    0    0  501  503 -0.00000000000E+00 -0.00000000000E+00 -0.10533874230E+03  0.10533874230E+03  0.00000000000E+00 0.  1.
        -13    1    1    2    0    0  0.14737300354E+02 -0.24424540551E+02  0.36835779093E+01  0.28763277162E+02  0.10566000000E+00 0.  1.
         13    1    1    2    0    0 -0.19498677588E+02  0.16115408503E+02 -0.20797867399E+02  0.32748546094E+02  0.10566000000E+00 0. -1.
          4    1    1    2  501    0  0.37295774259E+01  0.21231567158E+02 -0.61493087179E+02  0.65162020860E+02  0.00000000000E+00 0.  1.
         -4    1    1    2    0  502  0.10317998078E+01 -0.12922435110E+02  0.12873191648E+02  0.18269455471E+02  0.00000000000E+00 0. -1.
</event>
<event>
 6    1  0.1144920E-005  0.5663026E+02  0.7818608E-02  0.1266921E+00
         21   -1    0    0  503  502  0.00000000000E+00  0.00000000000E+00  0.11002166593E+03  0.11002166593E+03  0.00000000000E+00 0.  1.
         21   -1    0    0  501  503 -0.00000000000E+00 -0.00000000000E+00 -0.33726336818E+03  0.33726336818E+03  0.00000000000E+00 0. -1.
        -13    1    1    2    0    0  0.29148537598E+02  0.22251531691E+02  0.84869939981E+02  0.92453695346E+02  0.10566000000E+00 0.  1.
         13    1    1    2    0    0 -0.63835054048E+02 -0.47732144331E+02 -0.21994978246E+03  0.23394698052E+03  0.10566000000E+00 0. -1.
          4    1    1    2  501    0  0.18257153121E+02  0.14009235196E+02 -0.97474490605E+02  0.10015417430E+03  0.00000000000E+00 0.  1.
         -4    1    1    2    0  502  0.16429363328E+02  0.11471377444E+02  0.53126308275E+01  0.20730183939E+02  0.00000000000E+00 0. -1.
</event>
<event>
 6    1  0.1144920E-005  0.8116564E+02  0.7818608E-02  0.1200144E+00
         21   -1    0    0  501  502  0.00000000000E+00  0.00000000000E+00  0.57370449976E+02  0.57370449976E+02  0.00000000000E+00 0. -1.
         21   -1    0    0  502  503 -0.00000000000E+00 -0.00000000000E+00 -0.22304712415E+03  0.22304712415E+03  0.00000000000E+00 0.  1.
        -13    1    1    2    0    0 -0.99410824061E+02  0.23564371820E+02 -0.59303430426E+02  0.11813001136E+03  0.10566000000E+00 0.  1.
         13    1    1    2    0    0  0.67292903794E+02  0.82511222067E+01 -0.40022754377E+02  0.78728952430E+02  0.10566000000E+00 0. -1.
          4    1    1    2  501    0  0.27094995511E+02 -0.13604739922E+02 -0.30330491339E+02  0.42885503786E+02  0.00000000000E+00 0.  1.
         -4    1    1    2    0  503  0.50229247559E+01 -0.18210754104E+02 -0.36019998029E+02  0.40673106547E+02  0.00000000000E+00 0. -1.
</event>
<event>
 6    1  0.1144920E-005  0.2415196E+03  0.7818608E-02  0.1034883E+00
         21   -1    0    0  501  502  0.00000000000E+00  0.00000000000E+00  0.11102652010E+04  0.11102652010E+04  0.00000000000E+00 0.  1.
         21   -1    0    0  502  503 -0.00000000000E+00 -0.00000000000E+00 -0.23011268520E+03  0.23011268520E+03  0.00000000000E+00 0.  1.
        -13    1    1    2    0    0 -0.22686277849E+02 -0.25063075721E+03  0.16948345326E+03  0.30340582683E+03  0.10566000000E+00 0.  1.
         13    1    1    2    0    0 -0.13790156041E+03  0.21410489159E+03  0.28526135709E+03  0.38240266471E+03  0.10566000000E+00 0. -1.
          4    1    1    2  501    0  0.11055551437E+03  0.42565808322E+02  0.52754118212E+03  0.54067926595E+03  0.00000000000E+00 0.  1.
         -4    1    1    2    0  503  0.50032323891E+02 -0.60399427005E+01 -0.10213347671E+03  0.11389012866E+03  0.00000000000E+00 0. -1.
</event>
<event>
 6    1  0.1144920E-005  0.9725714E+02  0.7818608E-02  0.1215964E+00
         21   -1    0    0  501  502  0.00000000000E+00  0.00000000000E+00  0.37806289814E+03  0.37806289814E+03  0.00000000000E+00 0.  1.
         21   -1    0    0  502  503 -0.00000000000E+00 -0.00000000000E+00 -0.14857166859E+03  0.14857166859E+03  0.00000000000E+00 0.  1.
        -13    1    1    2    0    0  0.16688569673E+02 -0.28440048905E+02 -0.67981507036E+02  0.75556873959E+02  0.10566000000E+00 0.  1.
         13    1    1    2    0    0  0.26451600234E+02 -0.59500817189E+02  0.19525911792E+03  0.20583043676E+03  0.10566000000E+00 0. -1.
          4    1    1    2  501    0  0.10655272494E+02 -0.30389352037E+00  0.13607518216E+03  0.13649205978E+03  0.00000000000E+00 0.  1.
         -4    1    1    2    0  503 -0.53795442402E+02  0.88244759615E+02 -0.33861563500E+02  0.10875519622E+03  0.00000000000E+00 0. -1.
</event>
<event>
 6    1  0.1144920E-005  0.3182521E+03  0.7818608E-02  0.1000043E+00
         21   -1    0    0  503  502  0.00000000000E+00  0.00000000000E+00  0.15435875531E+04  0.15435875531E+04  0.00000000000E+00 0. -1.
         21   -1    0    0  501  503 -0.00000000000E+00 -0.00000000000E+00 -0.34576156360E+03  0.34576156360E+03  0.00000000000E+00 0. -1.
        -13    1    1    2    0    0 -0.28355416927E+03 -0.11424136814E+03 -0.13858746551E+02  0.30601655695E+03  0.10566000000E+00 0.  1.
         13    1    1    2    0    0  0.35509891617E+03  0.14635242280E+03  0.36591519484E+03  0.53047922947E+03  0.10566000000E+00 0. -1.
          4    1    1    2  501    0  0.17950522698E+02 -0.84166022084E+01 -0.10031225920E+03  0.10225267627E+03  0.00000000000E+00 0.  1.
         -4    1    1    2    0  502 -0.89495269595E+02 -0.23694452453E+02  0.94608180042E+03  0.95060065403E+03  0.00000000000E+00 0. -1.
</event>
<event>
 6    1  0.1144920E-005  0.6376886E+02  0.7818608E-02  0.1244091E+00
         21   -1    0    0  503  502  0.00000000000E+00  0.00000000000E+00  0.20590497955E+03  0.20590497955E+03  0.00000000000E+00 0. -1.
         21   -1    0    0  501  503 -0.00000000000E+00 -0.00000000000E+00 -0.76919670486E+02  0.76919670486E+02  0.00000000000E+00 0. -1.
        -13    1    1    2    0    0  0.24989067377E+02 -0.51726243807E+02  0.64449194850E+02  0.86335205261E+02  0.10566000000E+00 0.  1.
         13    1    1    2    0    0 -0.37931220915E+02  0.38949390848E+02 -0.86154163262E+01  0.55046063711E+02  0.10566000000E+00 0. -1.
          4    1    1    2  501    0 -0.11747712534E+02  0.33770128506E+02 -0.21277865512E+02  0.41607425898E+02  0.00000000000E+00 0.  1.
         -4    1    1    2    0  502  0.24689866072E+02 -0.20993275547E+02  0.94429396056E+02  0.99835955169E+02  0.00000000000E+00 0. -1.
</event>
<event>
 6    1  0.1144920E-005  0.1272167E+03  0.7818608E-02  0.1126038E+00
         21   -1    0    0  503  502  0.00000000000E+00  0.00000000000E+00  0.14638609594E+03  0.14638609594E+03  0.00000000000E+00 0.  1.
         21   -1    0    0  501  503 -0.00000000000E+00 -0.00000000000E+00 -0.29519558495E+03  0.29519558495E+03  0.00000000000E+00 0. -1.
        -13    1    1    2    0    0  0.13915542139E+03  0.21174997011E+02 -0.32506218992E+01  0.14079484901E+03  0.10566000000E+00 0.  1.
         13    1    1    2    0    0 -0.11534340653E+03  0.38214704435E+02  0.53442751905E+01  0.12162663156E+03  0.10566000000E+00 0. -1.
          4    1    1    2  501    0 -0.13212177278E+02  0.71773685684E+01 -0.79724409147E+02  0.81129881436E+02  0.00000000000E+00 0.  1.
         -4    1    1    2    0  502 -0.10599837589E+02 -0.66567070015E+02 -0.71178733154E+02  0.98030318885E+02  0.00000000000E+00 0. -1.
</event>
<event>
 6    1  0.1144920E-005  0.1125882E+03  0.7818608E-02  0.1145258E+00
         21   -1    0    0  503  502  0.00000000000E+00  0.00000000000E+00  0.51554815490E+03  0.51554815490E+03  0.00000000000E+00 0.  1.
         21   -1    0    0  501  503 -0.00000000000E+00 -0.00000000000E+00 -0.11165301966E+03  0.11165301966E+03  0.00000000000E+00 0. -1.
        -13    1    1    2    0    0  0.12294050443E+03  0.23085150690E+01  0.27440148651E+03  0.30069234083E+03  0.10566000000E+00 0.  1.
         13    1    1    2    0    0 -0.11039722952E+03 -0.37567880850E+02 -0.57737126579E+02  0.13012486660E+03  0.10566000000E+00 0. -1.
          4    1    1    2  501    0  0.59046755082E+01  0.24881950555E+02  0.15929713735E+03  0.16133677394E+03  0.00000000000E+00 0.  1.
         -4    1    1    2    0  502 -0.18447950422E+02  0.10377415226E+02  0.27933637956E+02  0.35047193197E+02  0.00000000000E+00 0. -1.
</event>
<event>
 6    1  0.1144920E-005  0.4084021E+03  0.7818608E-02  0.9705089E-01
         21   -1    0    0  503  502  0.00000000000E+00  0.00000000000E+00  0.37449734389E+03  0.37449734389E+03  0.00000000000E+00 0.  1.
         21   -1    0    0  501  503 -0.00000000000E+00 -0.00000000000E+00 -0.54996960233E+03  0.54996960233E+03  0.00000000000E+00 0. -1.
        -13    1    1    2    0    0  0.37289297016E+03  0.16954551388E+03  0.41993364399E+02  0.41177457703E+03  0.10566000000E+00 0.  1.
         13    1    1    2    0    0 -0.38168911932E+03 -0.16183013410E+03 -0.18042865769E+03  0.45213945613E+03  0.10566000000E+00 0. -1.
          4    1    1    2  501    0  0.23179004235E+02 -0.12033136993E+02 -0.37299464887E+02  0.45533643650E+02  0.00000000000E+00 0.  1.
         -4    1    1    2    0  502 -0.14382855071E+02  0.43177572049E+01  0.26249973613E+00  0.15019269402E+02  0.00000000000E+00 0. -1.
</event>
<event>
 6    1  0.1144920E-005  0.3726159E+02  0.7818608E-02  0.1383232E+00
         21   -1    0    0  503  502  0.00000000000E+00  0.00000000000E+00  0.22151407781E+03  0.22151407781E+03  0.00000000000E+00 0. -1.
         21   -1    0    0  501  503 -0.00000000000E+00 -0.00000000000E+00 -0.15888859031E+03  0.15888859031E+03  0.00000000000E+00 0.  1.
        -13    1    1    2    0    0  0.40979069271E+01  0.24465835983E+02  0.18405970631E+02  0.30889494823E+02  0.10566000000E+00 0.  1.
         13    1    1    2    0    0 -0.41051631852E+02 -0.33861884955E+02  0.74585539616E+02  0.91623564732E+02  0.10566000000E+00 0. -1.
          4    1    1    2  501    0  0.15940473717E+02 -0.15976304909E+02 -0.14082529775E+03  0.14262224759E+03  0.00000000000E+00 0.  1.
         -4    1    1    2    0  502  0.21013251208E+02  0.25372353881E+02  0.11045927501E+03  0.11526736097E+03  0.00000000000E+00 0. -1.
</event>
<event>
 6    1  0.1144920E-005  0.1218907E+03  0.7818608E-02  0.1132693E+00
         21   -1    0    0  501  502  0.00000000000E+00  0.00000000000E+00  0.14933208176E+03  0.14933208176E+03  0.00000000000E+00 0. -1.
         21   -1    0    0  502  503 -0.00000000000E+00 -0.00000000000E+00 -0.34844054798E+03  0.34844054798E+03  0.00000000000E+00 0.  1.
        -13    1    1    2    0    0 -0.24844641400E+02  0.13332002031E+03 -0.12595522703E+03  0.18508434402E+03  0.10566000000E+00 0.  1.
         13    1    1    2    0    0  0.46746395400E+02 -0.11217003683E+03 -0.49867111930E+02  0.13135479687E+03  0.10566000000E+00 0. -1.
          4    1    1    2  501    0  0.17010235362E+02  0.22796804083E+02  0.67486488514E+02  0.73235705195E+02  0.00000000000E+00 0.  1.
         -4    1    1    2    0  503 -0.38911989361E+02 -0.43946787569E+02 -0.90772615776E+02  0.10809778364E+03  0.00000000000E+00 0. -1.
</event>
<event>
 6    1  0.1144920E-005  0.1382315E+03  0.7818608E-02  0.1173189E+00
         21   -1    0    0  503  502  0.00000000000E+00  0.00000000000E+00  0.25372781911E+03  0.25372781911E+03  0.00000000000E+00 0.  1.
         21   -1    0    0  501  503 -0.00000000000E+00 -0.00000000000E+00 -0.12247471801E+03  0.12247471801E+03  0.00000000000E+00 0.  1.
        -13    1    1    2    0    0 -0.60950215737E+02  0.11960554006E+03  0.55086762927E+01  0.13435315660E+03  0.10566000000E+00 0.  1.
         13    1    1    2    0    0 -0.25403989717E+02  0.39758672605E+01  0.25941914121E+02  0.36526213687E+02  0.10566000000E+00 0. -1.
          4    1    1    2  501    0  0.10430522611E+03 -0.98584112288E+02  0.99334766153E+02  0.17454455923E+03  0.00000000000E+00 0.  1.
         -4    1    1    2    0  502 -0.17951020653E+02 -0.24997295028E+02  0.46774453675E+00  0.30778607606E+02  0.00000000000E+00 0. -1.
</event>
<event>
 6    1  0.1144920E-005  0.1943654E+03  0.7818608E-02  0.1064069E+00
         21   -1    0    0  503  502  0.00000000000E+00  0.00000000000E+00  0.75731914595E+02  0.75731914595E+02  0.00000000000E+00 0.  1.
         21   -1    0    0  501  503 -0.00000000000E+00 -0.00000000000E+00 -0.11126267366E+04  0.11126267366E+04  0.00000000000E+00 0.  1.
        -13    1    1    2    0    0 -0.12358828144E+03 -0.22545485955E+03 -0.45483586819E+03  0.52247453063E+03  0.10566000000E+00 0.  1.
         13    1    1    2    0    0  0.11236366025E+03  0.11459991348E+03 -0.20199670508E+03  0.25799498511E+03  0.10566000000E+00 0. -1.
          4    1    1    2  501    0 -0.67597452679E+01  0.10499360565E+03 -0.37323312904E+03  0.38777869978E+03  0.00000000000E+00 0.  1.
         -4    1    1    2    0  502  0.17984366461E+02  0.58613404229E+01 -0.68291197335E+01  0.20110435721E+02  0.00000000000E+00 0. -1.
</event>
<event>
 6    1  0.1144920E-005  0.1015103E+03  0.7818608E-02  0.1162081E+00
         21   -1    0    0  503  502  0.00000000000E+00  0.00000000000E+00  0.11641117218E+03  0.11641117218E+03  0.00000000000E+00 0.  1.
         21   -1    0    0  501  503 -0.00000000000E+00 -0.00000000000E+00 -0.19733614675E+03  0.19733614675E+03  0.00000000000E+00 0. -1.
        -13    1    1    2    0    0  0.12382453962E+02 -0.85609974327E+02  0.68431000853E+02  0.11029599228E+03  0.10566000000E+00 0.  1.
         13    1    1    2    0    0 -0.20064612092E+01  0.10677687483E+03 -0.10956013771E+03  0.15299922165E+03  0.10566000000E+00 0. -1.
          4    1    1    2  501    0 -0.11004129269E+02 -0.26866659839E+01 -0.87358907608E+01  0.14304713295E+02  0.00000000000E+00 0.  1.
         -4    1    1    2    0  502  0.62813651586E+00 -0.18480234519E+02 -0.31059946946E+02  0.36147391713E+02  0.00000000000E+00 0. -1.
</event>
<event>
 6    1  0.1144920E-005  0.9525609E+02  0.7818608E-02  0.1174599E+00
         21   -1    0    0  503  502  0.00000000000E+00  0.00000000000E+00  0.45665061180E+03  0.45665061180E+03  0.00000000000E+00 0. -1.
         21   -1    0    0  501  503 -0.00000000000E+00 -0.00000000000E+00 -0.38871439351E+03  0.38871439351E+03  0.00000000000E+00 0. -1.
        -13    1    1    2    0    0 -0.36031409500E+02  0.30167590064E+02  0.14307557573E+03  0.15059540995E+03  0.10566000000E+00 0.  1.
         13    1    1    2    0    0 -0.85007044809E+02 -0.32677063142E+02 -0.28319110787E+03  0.29747470962E+03  0.10566000000E+00 0. -1.
          4    1    1    2  501    0  0.10532532308E+03  0.33363484642E+02 -0.60877910916E+02  0.12614541540E+03  0.00000000000E+00 0.  1.
         -4    1    1    2    0  502  0.15713131226E+02 -0.30854011564E+02  0.26892966133E+03  0.27114947034E+03  0.00000000000E+00 0. -1.
</event>
<event>
 6    1  0.1144920E-005  0.1864979E+03  0.7818608E-02  0.1069808E+00
         21   -1    0    0  501  502  0.00000000000E+00  0.00000000000E+00  0.61749133137E+03  0.61749133137E+03  0.00000000000E+00 0.  1.
         21   -1    0    0  502  503 -0.00000000000E+00 -0.00000000000E+00 -0.89738876581E+03  0.89738876581E+03  0.00000000000E+00 0.  1.
        -13    1    1    2    0    0 -0.13131515782E+03 -0.51317347944E+02 -0.40610009080E+03  0.42987723339E+03  0.10566000000E+00 0.  1.
         13    1    1    2    0    0  0.21804484093E+03 -0.26533568728E+02 -0.17134214927E+03  0.27857804329E+03  0.10566000000E+00 0. -1.
          4    1    1    2  501    0 -0.50570220403E+01  0.18075452740E+02  0.54175107737E+03  0.54207612500E+03  0.00000000000E+00 0.  1.
         -4    1    1    2    0  503 -0.81672661070E+02  0.59775463931E+02 -0.24420627174E+03  0.26434869550E+03  0.00000000000E+00 0. -1.
</event>
<event>
 6    1  0.1144920E-005  0.7872692E+02  0.7818608E-02  0.1205528E+00
         21   -1    0    0  503  502  0.00000000000E+00  0.00000000000E+00  0.84690965348E+02  0.84690965348E+02  0.00000000000E+00 0.  1.
         21   -1    0    0  501  503 -0.00000000000E+00 -0.00000000000E+00 -0.21964056265E+03  0.21964056265E+03  0.00000000000E+00 0. -1.
        -13    1    1    2    0    0 -0.92547958344E+02  0.14709249175E+02  0.13672595717E+02  0.94701835476E+02  0.10566000000E+00 0.  1.
         13    1    1    2    0    0  0.66766624045E+02 -0.24672643423E+01 -0.11092405642E+03  0.12949141646E+03  0.10566000000E+00 0. -1.
          4    1    1    2  501    0  0.93297766567E+01 -0.20168673676E+02 -0.52255568559E+02  0.56784369114E+02  0.00000000000E+00 0.  1.
         -4    1    1    2    0  502  0.16451557642E+02  0.79266888442E+01  0.14557431954E+02  0.23353906954E+02  0.00000000000E+00 0. -1.
</event>
<event>
 6    1  0.1144920E-005  0.7138111E+02  0.7818608E-02  0.1226606E+00
         21   -1    0    0  501  502  0.00000000000E+00  0.00000000000E+00  0.11474280535E+03  0.11474280535E+03  0.00000000000E+00 0.  1.
         21   -1    0    0  502  503 -0.00000000000E+00 -0.00000000000E+00 -0.32871123150E+03  0.32871123150E+03  0.00000000000E+00 0.  1.
        -13    1    1    2    0    0  0.25590867174E+02 -0.51744001090E+02  0.14284344014E+02  0.59467535509E+02  0.10566000000E+00 0.  1.
         13    1    1    2    0    0 -0.88350943313E+02  0.26625188169E+02  0.26946458593E+02  0.96129665681E+02  0.10566000000E+00 0. -1.
          4    1    1    2  501    0  0.58345501391E+02  0.62237726035E+02 -0.11768768512E+03  0.14535516263E+03  0.00000000000E+00 0.  1.
         -4    1    1    2    0  503  0.44145747469E+01 -0.37118913113E+02 -0.13751154364E+03  0.14250167302E+03  0.00000000000E+00 0. -1.
</event>
<event>
 6    1  0.1144920E-005  0.1362818E+03  0.7818608E-02  0.1115489E+00
         21   -1    0    0  503  502  0.00000000000E+00  0.00000000000E+00  0.99954396857E+03  0.99954396857E+03  0.00000000000E+00 0. -1.
         21   -1    0    0  501  503 -0.00000000000E+00 -0.00000000000E+00 -0.60293003738E+02  0.60293003738E+02  0.00000000000E+00 0. -1.
        -13    1    1    2    0    0  0.66404569844E+00  0.13926543153E+03  0.32770984354E+03  0.35607450637E+03  0.10566000000E+00 0.  1.
         13    1    1    2    0    0  0.21828657187E+02 -0.12146851389E+03  0.49256593092E+02  0.13288082355E+03  0.10566000000E+00 0. -1.
          4    1    1    2  501    0 -0.59295782996E+01 -0.19907998547E+02  0.21701081997E+02  0.30040393886E+02  0.00000000000E+00 0.  1.
         -4    1    1    2    0  502 -0.16563124586E+02  0.21110809078E+01  0.54058344621E+03  0.54084124850E+03  0.00000000000E+00 0. -1.
</event>
<event>
 6    1  0.1144920E-005  0.2666408E+02  0.7818608E-02  0.1443340E+00
         21   -1    0    0  501  502  0.00000000000E+00  0.00000000000E+00  0.17610321601E+03  0.17610321601E+03  0.00000000000E+00 0.  1.
         21   -1    0    0  502  503 -0.00000000000E+00 -0.00000000000E+00 -0.39264465623E+02  0.39264465623E+02  0.00000000000E+00 0.  1.
        -13    1    1    2    0    0  0.86311473452E+01  0.34727882678E+02 -0.15534865485E+02  0.39011097773E+02  0.10566000000E+00 0.  1.
         13    1    1    2    0    0 -0.23674892170E+02 -0.87763471479E+01  0.13305984763E+02  0.28540938721E+02  0.10566000000E+00 0. -1.
          4    1    1    2  501    0  0.33991218927E+01 -0.26116708974E+02  0.13106580314E+03  0.13368575567E+03  0.00000000000E+00 0.  1.
         -4    1    1    2    0  503  0.11644622932E+02  0.16517344406E+00  0.80018279753E+01  0.14129889470E+02  0.00000000000E+00 0. -1.
</event>
<event>
 6    1  0.1144920E-005  0.1618991E+03  0.7818608E-02  0.1133523E+00
         21   -1    0    0  501  502  0.00000000000E+00  0.00000000000E+00  0.23738203578E+03  0.23738203578E+03  0.00000000000E+00 0.  1.
         21   -1    0    0  502  503 -0.00000000000E+00 -0.00000000000E+00 -0.25248567367E+03  0.25248567367E+03  0.00000000000E+00 0.  1.
        -13    1    1    2    0    0 -0.90020133375E+02  0.18775825978E+03 -0.36376766139E+02  0.21137660421E+03  0.10566000000E+00 0.  1.
         13    1    1    2    0    0  0.87683581430E+01 -0.27660103908E+02  0.31737526035E+02  0.43002874038E+02  0.10566000000E+00 0. -1.
          4    1    1    2  501    0  0.34423457480E+02 -0.14008414485E+03  0.53388325699E+02  0.15381435363E+03  0.00000000000E+00 0.  1.
         -4    1    1    2    0  503  0.46828317753E+02 -0.20014011028E+02 -0.63852723487E+02  0.81673877572E+02  0.00000000000E+00 0. -1.
</event>
<event>
 6    1  0.1144920E-005  0.8277717E+02  0.7818608E-02  0.1200544E+00
         21   -1    0    0  503  502  0.00000000000E+00  0.00000000000E+00  0.14641669875E+03  0.14641669875E+03  0.00000000000E+00 0.  1.
         21   -1    0    0  501  503 -0.00000000000E+00 -0.00000000000E+00 -0.22709292677E+03  0.22709292677E+03  0.00000000000E+00 0.  1.
        -13    1    1    2    0    0  0.49060574894E+02  0.50140629776E+02  0.91613176885E+02  0.11538634281E+03  0.10566000000E+00 0.  1.
         13    1    1    2    0    0  0.42533979590E+02 -0.80338701026E+02 -0.71153116982E+02  0.11543926335E+03  0.10566000000E+00 0. -1.
          4    1    1    2  501    0 -0.63995947757E+02  0.28627244843E+02 -0.86699318273E+02  0.11149785767E+03  0.00000000000E+00 0.  1.
         -4    1    1    2    0  502 -0.27598606727E+02  0.15708264073E+01 -0.14436969651E+02  0.31186161700E+02  0.00000000000E+00 0. -1.
</event>
<event>
 6    1  0.1144920E-005  0.4937428E+02  0.7818608E-02  0.1311707E+00
         21   -1    0    0  503  502  0.00000000000E+00  0.00000000000E+00  0.11683549001E+03  0.11683549001E+03  0.00000000000E+00 0.  1.
         21   -1    0    0  501  503 -0.00000000000E+00 -0.00000000000E+00 -0.15037095367E+03  0.15037095367E+03  0.00000000000E+00 0. -1.
        -13    1    1    2    0    0  0.18319434442E+02 -0.29703470055E+02  0.65968236493E+02  0.74630537996E+02  0.10566000000E+00 0.  1.
         13    1    1    2    0    0 -0.79813137898E+02  0.18991900973E+02 -0.67907032937E+02  0.10649979141E+03  0.10566000000E+00 0. -1.
          4    1    1    2  501    0  0.19244844139E+02 -0.59173296599E+00 -0.37294884462E+02  0.41971687849E+02  0.00000000000E+00 0.  1.
         -4    1    1    2    0  502  0.42248859318E+02  0.11303302048E+02  0.56982172462E+01  0.44104426429E+02  0.00000000000E+00 0. -1.
</event>
<event>
 6    1  0.1144920E-005  0.7010846E+02  0.7818608E-02  0.1231378E+00
         21   -1    0    0  503  502  0.00000000000E+00  0.00000000000E+00  0.25773124582E+03  0.25773124582E+03  0.00000000000E+00 0.  1.
         21   -1    0    0  501  503 -0.00000000000E+00 -0.00000000000E+00 -0.22939147774E+03  0.22939147774E+03  0.00000000000E+00 0. -1.
        -13    1    1    2    0    0 -0.52794486759E+01 -0.67148214107E+02  0.14488907977E+03  0.15977988559E+03  0.10566000000E+00 0.  1.
         13    1    1    2    0    0 -0.93661013168E+01  0.13161804174E+03 -0.17438990507E+03  0.21868443685E+03  0.10566000000E+00 0. -1.
          4    1    1    2  501    0  0.26931593231E+02 -0.72468030297E+02  0.49300149362E+02  0.91692043581E+02  0.00000000000E+00 0.  1.
         -4    1    1    2    0  502 -0.12286043238E+02  0.79982026633E+01  0.85404440156E+01  0.16966357543E+02  0.00000000000E+00 0. -1.
</event>
<event>
 6    1  0.1144920E-005  0.5240100E+02  0.7818608E-02  0.1283880E+00
         21   -1    0    0  503  502  0.00000000000E+00  0.00000000000E+00  0.51983274699E+02  0.51983274699E+02  0.00000000000E+00 0. -1.
         21   -1    0    0  501  503 -0.00000000000E+00 -0.00000000000E+00 -0.44046466920E+03  0.44046466920E+03  0.00000000000E+00 0. -1.
        -13    1    1    2    0    0 -0.61743336461E+02  0.27111542732E+02 -0.12683994675E+02  0.68616107669E+02  0.10566000000E+00 0.  1.
         13    1    1    2    0    0  0.50250270469E+02  0.78989936505E+01 -0.24513839591E+03  0.25036039642E+03  0.10566000000E+00 0. -1.
          4    1    1    2  501    0  0.15294252421E+02 -0.51014217778E+02 -0.14320271840E+03  0.15278541531E+03  0.00000000000E+00 0.  1.
         -4    1    1    2    0  502 -0.38011864281E+01  0.16003681396E+02  0.12543714488E+02  0.20686024500E+02  0.00000000000E+00 0. -1.
</event>
<event>
 6    1  0.1144920E-005  0.2446475E+03  0.7818608E-02  0.1049898E+00
         21   -1    0    0  501  502  0.00000000000E+00  0.00000000000E+00  0.43172529267E+03  0.43172529267E+03  0.00000000000E+00 0.  1.
         21   -1    0    0  502  503 -0.00000000000E+00 -0.00000000000E+00 -0.39482002930E+03  0.39482002930E+03  0.00000000000E+00 0.  1.
        -13    1    1    2    0    0 -0.79365654032E+01 -0.19032169923E+03 -0.87437912751E+02  0.20959660784E+03  0.10566000000E+00 0.  1.
         13    1    1    2    0    0 -0.14312220744E+03 -0.36271598361E+02  0.36858764072E+02  0.15217810211E+03  0.10566000000E+00 0. -1.
          4    1    1    2  501    0  0.14884355165E+03  0.23675575443E+03  0.20503135601E+03  0.34676439706E+03  0.00000000000E+00 0.  1.
         -4    1    1    2    0  503  0.22152211945E+01 -0.10162456833E+02 -0.11754694396E+03  0.11800621496E+03  0.00000000000E+00 0. -1.
</event>
<event>
 6    1  0.1144920E-005  0.1602367E+03  0.7818608E-02  0.1125975E+00
         21   -1    0    0  503  502  0.00000000000E+00  0.00000000000E+00  0.24806991093E+03  0.24806991093E+03  0.00000000000E+00 0.  1.
         21   -1    0    0  501  503 -0.00000000000E+00 -0.00000000000E+00 -0.31912383631E+03  0.31912383631E+03  0.00000000000E+00 0. -1.
        -13    1    1    2    0    0 -0.43712785271E+02  0.74236750945E+02  0.66070962526E+02  0.10856926840E+03  0.10566000000E+00 0.  1.
         13    1    1    2    0    0 -0.10703809501E+02  0.14522201409E+03 -0.10624023976E+03  0.18025261336E+03  0.10566000000E+00 0. -1.
          4    1    1    2  501    0  0.26650925652E+02 -0.38388055536E+02  0.58226205448E+02  0.74660603043E+02  0.00000000000E+00 0.  1.
         -4    1    1    2    0  502  0.27765669120E+02 -0.18107070950E+03 -0.89110853588E+02  0.20371126245E+03  0.00000000000E+00 0. -1.
</event>
<event>
 6    1  0.1144920E-005  0.5844507E+02  0.7818608E-02  0.1291515E+00
         21   -1    0    0  501  502  0.00000000000E+00  0.00000000000E+00  0.21973397019E+03  0.21973397019E+03  0.00000000000E+00 0. -1.
         21   -1    0    0  502  503 -0.00000000000E+00 -0.00000000000E+00 -0.14550998140E+03  0.14550998140E+03  0.00000000000E+00 0. -1.
        -13    1    1    2    0    0 -0.32503254667E+02  0.76357026381E+02  0.13548149876E+03  0.15887764069E+03  0.10566000000E+00 0.  1.
         13    1    1    2    0    0 -0.20527612726E+02 -0.27687206911E+01 -0.10100174996E+01  0.20738370183E+02  0.10566000000E+00 0. -1.
          4    1    1    2  501    0 -0.13870659690E+02 -0.11979358295E+02  0.43773055441E+02  0.47455037752E+02  0.00000000000E+00 0.  1.
         -4    1    1    2    0  503  0.66901527082E+02 -0.61608947394E+02 -0.10402054791E+03  0.13817290296E+03  0.00000000000E+00 0. -1.
</event>
<event>
 6    1  0.1144920E-005  0.2240595E+03  0.7818608E-02  0.1058172E+00
         21   -1    0    0  501  502  0.00000000000E+00  0.00000000000E+00  0.15333744525E+04  0.15333744525E+04  0.00000000000E+00 0.  1.
         21   -1    0    0  502  503 -0.00000000000E+00 -0.00000000000E+00 -0.16633185077E+03  0.16633185077E+03  0.00000000000E+00 0.  1.
        -13    1    1    2    0    0  0.31686601435E+03  0.59613347164E+02  0.26698097712E+03  0.41861279904E+03  0.10566000000E+00 0.  1.
         13    1    1    2    0    0 -0.13170371703E+03  0.10965708443E+03  0.27236736765E+03  0.32179891139E+03  0.10566000000E+00 0. -1.
          4    1    1    2  501    0 -0.20413390760E+03 -0.33155257476E+02  0.79023731462E+03  0.81685062083E+03  0.00000000000E+00 0.  1.
         -4    1    1    2    0  503  0.18971610281E+02 -0.13611517412E+03  0.37456942294E+02  0.14244397196E+03  0.00000000000E+00 0. -1.
</event>
<event>
 6    1  0.1144920E-005  0.2041112E+03  0.7818608E-02  0.1057353E+00
         21   -1    0    0  501  502  0.00000000000E+00  0.00000000000E+00  0.10361211411E+04  0.10361211411E+04  0.00000000000E+00 0. -1.
         21   -1    0    0  502  503 -0.00000000000E+00 -0.00000000000E+00 -0.81853573800E+02  0.81853573800E+02  0.00000000000E+00 0.  1.
        -13    1    1    2    0    0 -0.10671678155E+03  0.14989109333E+03  0.74682035168E+02  0.19857801707E+03  0.10566000000E+00 0.  1.
         13    1    1    2    0    0  0.12877242185E+03 -0.14460511520E+03  0.58295927697E+03  0.61427559429E+03  0.10566000000E+00 0. -1.
          4    1    1    2  501    0  0.66231079721E+01 -0.29275371339E+02  0.18449218661E+03  0.18691784250E+03  0.00000000000E+00 0.  1.
         -4    1    1    2    0  503 -0.28678748267E+02  0.23989393208E+02  0.11213406852E+03  0.11820326101E+03  0.00000000000E+00 0. -1.
</event>
<event>
 6    1  0.1144920E-005  0.6845028E+02  0.7818608E-02  0.1230853E+00
         21   -1    0    0  503  502  0.00000000000E+00  0.00000000000E+00  0.26464040515E+03  0.26464040515E+03  0.00000000000E+00 0.  1.
         21   -1    0    0  501  503 -0.00000000000E+00 -0.00000000000E+00 -0.16393728314E+03  0.16393728314E+03  0.00000000000E+00 0.  1.
        -13    1    1    2    0    0 -0.58740414192E+02 -0.74617423996E+01  0.23163200519E+03  0.23908055306E+03  0.10566000000E+00 0.  1.
         13    1    1    2    0    0  0.50486084771E+02 -0.23940609731E+02 -0.48682071366E+02  0.74107710708E+02  0.10566000000E+00 0. -1.
          4    1    1    2  501    0 -0.13450113478E+02  0.93645142764E+01  0.92406187316E+01  0.18814587818E+02  0.00000000000E+00 0.  1.
         -4    1    1    2    0  502  0.21704442899E+02  0.22037837854E+02 -0.91487430544E+02  0.96574836715E+02  0.00000000000E+00 0. -1.
</event>
<event>
 6    1  0.1144920E-005  0.7653093E+02  0.7818608E-02  0.1210565E+00
         21   -1    0    0  501  502  0.00000000000E+00  0.00000000000E+00  0.42639014229E+02  0.42639014229E+02  0.00000000000E+00 0.  1.
         21   -1    0    0  502  503 -0.00000000000E+00 -0.00000000000E+00 -0.63429516012E+03  0.63429516012E+03  0.00000000000E+00 0.  1.
        -13    1    1    2    0    0  0.55231214701E+02  0.46553988990E+02 -0.21200426673E+03  0.22397227785E+03  0.10566000000E+00 0.  1.
         13    1    1    2    0    0 -0.32834902790E+02 -0.79854462723E+02 -0.24658856042E+03  0.26126766994E+03  0.10566000000E+00 0. -1.
          4    1    1    2  501    0  0.79672471956E+01  0.11226107311E+02  0.25375459214E+02  0.28868952934E+02  0.00000000000E+00 0.  1.
         -4    1    1    2    0  503 -0.30363559107E+02  0.22074366422E+02 -0.15843877795E+03  0.16282527363E+03  0.00000000000E+00 0. -1.
</event>
<event>
 6    1  0.1144920E-005  0.4303858E+03  0.7818608E-02  0.9645183E-01
         21   -1    0    0  503  502  0.00000000000E+00  0.00000000000E+00  0.26359861078E+03  0.26359861078E+03  0.00000000000E+00 0.  1.
         21   -1    0    0  501  503 -0.00000000000E+00 -0.00000000000E+00 -0.10738414423E+04  0.10738414423E+04  0.00000000000E+00 0. -1.
        -13    1    1    2    0    0  0.31967765026E+03 -0.31675894230E+03 -0.46685688576E+03  0.64844844864E+03  0.10566000000E+00 0.  1.
         13    1    1    2    0    0 -0.34417781829E+03  0.23488666231E+03 -0.40303121013E+03  0.57971051589E+03  0.10566000000E+00 0. -1.
          4    1    1    2  501    0  0.23314914104E+02  0.23495598808E+02  0.19405051761E+02  0.38369055460E+02  0.00000000000E+00 0.  1.
         -4    1    1    2    0  502  0.11852539244E+01  0.58376681181E+02  0.40240212582E+02  0.70912033120E+02  0.00000000000E+00 0. -1.
</event>
<event>
 6    1  0.1144920E-005  0.2079934E+03  0.7818608E-02  0.1054790E+00
         21   -1    0    0  503  502  0.00000000000E+00  0.00000000000E+00  0.42390516935E+03  0.42390516935E+03  0.00000000000E+00 0.  1.
         21   -1    0    0  501  503 -0.00000000000E+00 -0.00000000000E+00 -0.49350262058E+03  0.49350262058E+03  0.00000000000E+00 0. -1.
        -13    1    1    2    0    0  0.66935936912E+01  0.16772497479E+03  0.21788066521E+03  0.27504266360E+03  0.10566000000E+00 0.  1.
         13    1    1    2    0    0 -0.33727016613E+02 -0.21971284222E+03 -0.26095042164E+02  0.22381288407E+03  0.10566000000E+00 0. -1.
          4    1    1    2  501    0 -0.14339910368E+02 -0.21191958333E+01 -0.32501668670E+03  0.32533977724E+03  0.00000000000E+00 0.  1.
         -4    1    1    2    0  502  0.41373333290E+02  0.54107063263E+02  0.63633612427E+02  0.93212465008E+02  0.00000000000E+00 0. -1.
</event>
<event>
 6    1  0.1144920E-005  0.5867265E+02  0.7818608E-02  0.1260019E+00
         21   -1    0    0  501  502  0.00000000000E+00  0.00000000000E+00  0.39280512640E+02  0.39280512640E+02  0.00000000000E+00 0. -1.
         21   -1    0    0  502  503 -0.00000000000E+00 -0.00000000000E+00 -0.59094203326E+03  0.59094203326E+03  0.00000000000E+00 0.  1.
        -13    1    1    2    0    0 -0.70671677003E+02 -0.23534765441E+02 -0.41925024981E+03  0.42581586895E+03  0.10566000000E+00 0.  1.
         13    1    1    2    0    0  0.45482511371E+02  0.13006675547E+02  0.74230817285E+01  0.47884713175E+02  0.10566000000E+00 0. -1.
          4    1    1    2  501    0  0.89113575553E+01  0.93534714143E+01  0.25812436511E+01  0.13174313635E+02  0.00000000000E+00 0.  1.
         -4    1    1    2    0  503  0.16277808077E+02  0.11746184802E+01 -0.14241559619E+03  0.14334765015E+03  0.00000000000E+00 0. -1.
</event>
<event>
 6    1  0.1144920E-005  0.1003402E+03  0.7818608E-02  0.1163994E+00
         21   -1    0    0  501  502  0.00000000000E+00  0.00000000000E+00  0.32303858012E+02  0.32303858012E+02  0.00000000000E+00 0. -1.
         21   -1    0    0  502  503 -0.00000000000E+00 -0.00000000000E+00 -0.13154097668E+04  0.13154097668E+04  0.00000000000E+00 0.  1.
        -13    1    1    2    0    0 -0.85506346584E+02  0.59545341139E+02 -0.52257930931E+03  0.53286595748E+03  0.10566000000E+00 0.  1.
         13    1    1    2    0    0  0.37042017978E+02 -0.10227078398E+03 -0.10689589118E+03  0.15250628534E+03  0.10566000000E+00 0. -1.
          4    1    1    2  501    0  0.29924555486E+02  0.28560452553E+02 -0.99985920495E+02  0.10820518827E+03  0.00000000000E+00 0.  1.
         -4    1    1    2    0  503  0.18539773119E+02  0.14164990289E+02 -0.55364478782E+03  0.55413619374E+03  0.00000000000E+00 0. -1.
</event>
<event>
 6    1  0.1144920E-005  0.2784032E+02  0.7818608E-02  0.1423136E+00
         21   -1    0    0  501  502  0.00000000000E+00  0.00000000000E+00  0.19186571960E+03  0.19186571960E+03  0.00000000000E+00 0. -1.
         21   -1    0    0  502  503 -0.00000000000E+00 -0.00000000000E+00 -0.32882724468E+02  0.32882724468E+02  0.00000000000E+00 0.  1.
        -13    1    1    2    0    0 -0.19998292787E+01 -0.24456195844E+02 -0.17959271234E+02  0.30408081485E+02  0.10566000000E+00 0.  1.
         13    1    1    2    0    0 -0.11388642254E+02  0.31188591748E+02  0.12917923986E+03  0.13337809642E+03  0.10566000000E+00 0. -1.
          4    1    1    2  501    0 -0.10280190760E+02 -0.20271795874E+01  0.44573862246E+01  0.11386837625E+02  0.00000000000E+00 0.  1.
         -4    1    1    2    0  503  0.23668662292E+02 -0.47052163162E+01  0.43305640276E+02  0.49575428541E+02  0.00000000000E+00 0. -1.
</event>
<event>
 6    1  0.1144920E-005  0.1335164E+03  0.7818608E-02  0.1118611E+00
         21   -1    0    0  501  502  0.00000000000E+00  0.00000000000E+00  0.14962668646E+03  0.14962668646E+03  0.00000000000E+00 0.  1.
         21   -1    0    0  502  503 -0.00000000000E+00 -0.00000000000E+00 -0.88162908010E+03  0.88162908010E+03  0.00000000000E+00 0.  1.
        -13    1    1    2    0    0  0.14692636059E+03 -0.17991505492E+02 -0.63543759503E+03  0.65245076293E+03  0.10566000000E+00 0.  1.
         13    1    1    2    0    0 -0.10638483798E+03  0.34407208158E+01 -0.38320936970E+02  0.11312858916E+03  0.10566000000E+00 0. -1.
          4    1    1    2  501    0 -0.30612667003E+02  0.10039490291E+02  0.10102345787E+03  0.10603615321E+03  0.00000000000E+00 0.  1.
         -4    1    1    2    0  503 -0.99288556103E+01  0.45112943851E+01 -0.15926731952E+03  0.15964026126E+03  0.00000000000E+00 0. -1.
</event>
<event>
 6    1  0.1144920E-005  0.9188832E+02  0.7818608E-02  0.1228370E+00
         21   -1    0    0  501  502  0.00000000000E+00  0.00000000000E+00  0.84514809451E+02  0.84514809451E+02  0.00000000000E+00 0.  1.
         21   -1    0    0  502  503 -0.00000000000E+00 -0.00000000000E+00 -0.40950109168E+03  0.40950109168E+03  0.00000000000E+00 0.  1.
        -13    1    1    2    0    0  0.73060917161E+02  0.60883055542E+02 -0.33836226143E+03  0.35147357681E+03  0.10566000000E+00 0.  1.
         13    1    1    2    0    0 -0.23463907301E+02 -0.84515982210E+01  0.14469643423E+02  0.28833421634E+02  0.10566000000E+00 0. -1.
          4    1    1    2  501    0 -0.27572597343E+02 -0.72270317966E+02  0.16703535212E+02  0.79134411426E+02  0.00000000000E+00 0.  1.
         -4    1    1    2    0  503 -0.22024412518E+02  0.19838860645E+02 -0.17797199429E+02  0.34574491261E+02  0.00000000000E+00 0. -1.
</event>
<event>
 6    1  0.1144920E-005  0.4711824E+02  0.7818608E-02  0.1303988E+00
         21   -1    0    0  501  502  0.00000000000E+00  0.00000000000E+00  0.90405722193E+02  0.90405722193E+02  0.00000000000E+00 0.  1.
         21   -1    0    0  502  503 -0.00000000000E+00 -0.00000000000E+00 -0.57384456777E+02  0.57384456777E+02  0.00000000000E+00 0. -1.
        -13    1    1    2    0    0  0.10700835361E+02 -0.55279869452E+02  0.29421175781E+01  0.56382967854E+02  0.10566000000E+00 0.  1.
         13    1    1    2    0    0 -0.12471821391E+02  0.37506408999E+02  0.54090557507E+01  0.39894186205E+02  0.10566000000E+00 0. -1.
          4    1    1    2  501    0 -0.44675325395E+01  0.98604412003E+01  0.35266453811E+02  0.36890512494E+02  0.00000000000E+00 0.  1.
         -4    1    1    2    0  503  0.62385185697E+01  0.79130192528E+01 -0.10596361724E+02  0.14622512418E+02  0.00000000000E+00 0. -1.
</event>
<event>
 6    1  0.1144920E-005  0.3615604E+02  0.7818608E-02  0.1361352E+00
         21   -1    0    0  501  502  0.00000000000E+00  0.00000000000E+00  0.27676222990E+03  0.27676222990E+03  0.00000000000E+00 0. -1.
         21   -1    0    0  502  503 -0.00000000000E+00 -0.00000000000E+00 -0.32522887900E+02  0.32522887900E+02  0.00000000000E+00 0.  1.
        -13    1    1    2    0    0  0.39353544032E+02 -0.25566546575E+02  0.13000614205E+02  0.48696784960E+02  0.10566000000E+00 0.  1.
         13    1    1    2    0    0 -0.47313852608E+02  0.11495162877E+01  0.19832374694E+03  0.20389272131E+03  0.10566000000E+00 0. -1.
          4    1    1    2  501    0  0.22186071957E+02  0.15202224978E+02  0.28487552652E+02  0.39177418103E+02  0.00000000000E+00 0.  1.
         -4    1    1    2    0  503 -0.14225763381E+02  0.92148053100E+01  0.44274282044E+01  0.17518193434E+02  0.00000000000E+00 0. -1.
</event>
<event>
 6    1  0.1144920E-005  0.1125245E+03  0.7818608E-02  0.1145348E+00
         21   -1    0    0  501  502  0.00000000000E+00  0.00000000000E+00  0.10827653517E+03  0.10827653517E+03  0.00000000000E+00 0.  1.
         21   -1    0    0  502  503 -0.00000000000E+00 -0.00000000000E+00 -0.80033510404E+03  0.80033510404E+03  0.00000000000E+00 0.  1.
        -13    1    1    2    0    0  0.48798182703E+02  0.11606391538E+03 -0.34546194297E+03  0.36769016889E+03  0.10566000000E+00 0.  1.
         13    1    1    2    0    0 -0.35134241207E+02 -0.95138662237E+02 -0.30756749419E+03  0.32385730593E+03  0.10566000000E+00 0. -1.
          4    1    1    2  501    0 -0.23529270595E+02  0.15386598934E+02  0.83910559819E+02  0.88494949294E+02  0.00000000000E+00 0.  1.
         -4    1    1    2    0  503  0.98653290985E+01 -0.36311852081E+02 -0.12293969152E+03  0.12856921510E+03  0.00000000000E+00 0. -1.
</event>
<event>
 6    1  0.1144920E-005  0.6174229E+02  0.7818608E-02  0.1250219E+00
         21   -1    0    0  503  502  0.00000000000E+00  0.00000000000E+00  0.56389097695E+03  0.56389097695E+03  0.00000000000E+00 0. -1.
         21   -1    0    0  501  503 -0.00000000000E+00 -0.00000000000E+00 -0.32713983606E+02  0.32713983606E+02  0.00000000000E+00 0. -1.
        -13    1    1    2    0    0 -0.60357871724E+02 -0.16030533934E+02  0.17194997620E+03  0.18293948775E+03  0.10566000000E+00 0.  1.
         13    1    1    2    0    0  0.54808069496E+02  0.12630000161E+02  0.97362830775E+01  0.57081063043E+02  0.10566000000E+00 0. -1.
          4    1    1    2  501    0  0.95720210470E+01 -0.14518775787E+02  0.19679151843E+02  0.26261901198E+02  0.00000000000E+00 0.  1.
         -4    1    1    2    0  502 -0.40222188186E+01  0.17919309559E+02  0.32981158222E+03  0.33032250857E+03  0.00000000000E+00 0. -1.
</event>
<event>
 6    1  0.1144920E-005  0.1417442E+03  0.7818608E-02  0.1136665E+00
         21   -1    0    0  503  502  0.00000000000E+00  0.00000000000E+00  0.42316248921E+03  0.42316248921E+03  0.00000000000E+00 0. -1.
         21   -1    0    0  501  503 -0.00000000000E+00 -0.00000000000E+00 -0.17176479151E+03  0.17176479151E+03  0.00000000000E+00 0. -1.
        -13    1    1    2    0    0 -0.57241178352E+02 -0.21234083169E+02 -0.87902981381E+02  0.10702515633E+03  0.10566000000E+00 0.  1.
         13    1    1    2    0    0  0.31178495470E+02 -0.10706554596E+03  0.56132171685E+02  0.12484374864E+03  0.10566000000E+00 0. -1.
          4    1    1    2  501    0  0.45433265090E+01 -0.36360242000E+02  0.22293343826E+01  0.36710747008E+02  0.00000000000E+00 0.  1.
         -4    1    1    2    0  502  0.21519356374E+02  0.16465987113E+03  0.28093917301E+03  0.32634762875E+03  0.00000000000E+00 0. -1.
</event>
<event>
 6    1  0.1144920E-005  0.1025266E+03  0.7818608E-02  0.1160442E+00
         21   -1    0    0  503  502  0.00000000000E+00  0.00000000000E+00  0.63386388800E+03  0.63386388800E+03  0.00000000000E+00 0.  1.
         21   -1    0    0  501  503 -0.00000000000E+00 -0.00000000000E+00 -0.56794446710E+02  0.56794446710E+02  0.00000000000E+00 0. -1.
        -13    1    1    2    0    0 -0.67813006755E+02 -0.66673725630E+02  0.20695832334E+02  0.97325835288E+02  0.10566000000E+00 0.  1.
         13    1    1    2    0    0  0.79584017476E+02  0.50766755133E+02  0.41234696442E+03  0.42301407718E+03  0.10566000000E+00 0. -1.
          4    1    1    2  501    0 -0.22914616661E+02  0.11350860156E+02 -0.21742711986E+00  0.25572816771E+02  0.00000000000E+00 0.  1.
         -4    1    1    2    0  502  0.11143605940E+02  0.45561103409E+01  0.14424407165E+03  0.14474560546E+03  0.00000000000E+00 0. -1.
</event>
<event>
 6    1  0.1144920E-005  0.2960160E+02  0.7818608E-02  0.1408137E+00
         21   -1    0    0  501  502  0.00000000000E+00  0.00000000000E+00  0.16397155435E+02  0.16397155435E+02  0.00000000000E+00 0. -1.
         21   -1    0    0  502  503 -0.00000000000E+00 -0.00000000000E+00 -0.19522939932E+03  0.19522939932E+03  0.00000000000E+00 0. -1.
        -13    1    1    2    0    0  0.26319206054E+02 -0.74985897414E+01 -0.49494401993E+02  0.56556489001E+02  0.10566000000E+00 0.  1.
         13    1    1    2    0    0 -0.25609835636E+02  0.62192368204E+01 -0.67011791865E+01  0.27193005616E+02  0.10566000000E+00 0. -1.
          4    1    1    2  501    0 -0.62803830298E+01  0.11268722808E+02 -0.15654618018E+02  0.20285324499E+02  0.00000000000E+00 0.  1.
         -4    1    1    2    0  503  0.55710126114E+01 -0.99893698872E+01 -0.10698204469E+03  0.10759173564E+03  0.00000000000E+00 0. -1.
</event>
<event>
 6    1  0.1144920E-005  0.1183905E+03  0.7818608E-02  0.1153371E+00
         21   -1    0    0  503  502  0.00000000000E+00  0.00000000000E+00  0.16825992557E+03  0.16825992557E+03  0.00000000000E+00 0. -1.
         21   -1    0    0  501  503 -0.00000000000E+00 -0.00000000000E+00 -0.73242717623E+03  0.73242717623E+03  0.00000000000E+00 0. -1.
        -13    1    1    2    0    0  0.13274731722E+03  0.83093046956E+02 -0.15861181511E+03  0.22289913355E+03  0.10566000000E+00 0.  1.
         13    1    1    2    0    0 -0.43460834474E+02  0.85002233763E+02 -0.43229113871E+03  0.44270742443E+03  0.10566000000E+00 0. -1.
          4    1    1    2  501    0 -0.57652620728E+02 -0.12792947798E+02 -0.30631349877E+02  0.66526414194E+02  0.00000000000E+00 0.  1.
         -4    1    1    2    0  502 -0.31633862023E+02 -0.15530233292E+03  0.57367053034E+02  0.16855412962E+03  0.00000000000E+00 0. -1.
</event>
<event>
 6    1  0.1144920E-005  0.1481949E+03  0.7818608E-02  0.1102905E+00
         21   -1    0    0  501  502  0.00000000000E+00  0.00000000000E+00  0.37144186378E+03  0.37144186378E+03  0.00000000000E+00 0. -1.
         21   -1    0    0  502  503 -0.00000000000E+00 -0.00000000000E+00 -0.18670381469E+03  0.18670381469E+03  0.00000000000E+00 0.  1.
        -13    1    1    2    0    0  0.68476759365E+02  0.15067390161E+03 -0.41038963145E+02  0.17051656477E+03  0.10566000000E+00 0.  1.
         13    1    1    2    0    0 -0.48183590162E+02 -0.97085218374E+02  0.28347543767E+03  0.30348893376E+03  0.10566000000E+00 0. -1.
          4    1    1    2  501    0 -0.79618802620E+01 -0.42251461821E+02 -0.49258017393E+02  0.65382947630E+02  0.00000000000E+00 0.  1.
         -4    1    1    2    0  503 -0.12331288941E+02 -0.11337221415E+02 -0.84404080421E+01  0.18757232320E+02  0.00000000000E+00 0. -1.
</event>
<event>
 6    1  0.1144920E-005  0.1767080E+03  0.7818608E-02  0.1077394E+00
         21   -1    0    0  501  502  0.00000000000E+00  0.00000000000E+00  0.77217256254E+03  0.77217256254E+03  0.00000000000E+00 0.  1.
         21   -1    0    0  502  503 -0.00000000000E+00 -0.00000000000E+00 -0.36309364343E+03  0.36309364343E+03  0.00000000000E+00 0. -1.
        -13    1    1    2    0    0 -0.27499820675E+03  0.63197286578E+02  0.38662277000E+03  0.47863878676E+03  0.10566000000E+00 0.  1.
         13    1    1    2    0    0  0.11449191683E+03  0.27253959126E+02  0.11566107291E+03  0.16501112768E+03  0.10566000000E+00 0. -1.
          4    1    1    2  501    0  0.82929252025E+02 -0.92991821970E+01  0.17882113208E+03  0.19733406424E+03  0.00000000000E+00 0.  1.
         -4    1    1    2    0  503  0.77577037897E+02 -0.81152063507E+02 -0.27202605587E+03  0.29428222728E+03  0.00000000000E+00 0. -1.
</event>
<event>
 6    1  0.1144920E-005  0.1514780E+03  0.7818608E-02  0.1099663E+00
         21   -1    0    0  503  502  0.00000000000E+00  0.00000000000E+00  0.21858041684E+03  0.21858041684E+03  0.00000000000E+00 0. -1.
         21   -1    0    0  501  503 -0.00000000000E+00 -0.00000000000E+00 -0.37354092880E+03  0.37354092880E+03  0.00000000000E+00 0. -1.
        -13    1    1    2    0    0 -0.58067872705E+02  0.14629789058E+03 -0.54106808894E+02  0.16644070584E+03  0.10566000000E+00 0.  1.
         13    1    1    2    0    0  0.79057515928E+02 -0.11696776874E+03 -0.23810089409E+03  0.27680967592E+03  0.10566000000E+00 0. -1.
          4    1    1    2  501    0 -0.12447459655E+02 -0.83007315027E+01  0.67483470849E+01  0.16412848129E+02  0.00000000000E+00 0.  1.
         -4    1    1    2    0  502 -0.85421835684E+01 -0.21029390330E+02  0.13049884394E+03  0.13245811575E+03  0.00000000000E+00 0. -1.
</event>
<event>
 6    1  0.1144920E-005  0.8487868E+02  0.7818608E-02  0.1233504E+00
         21   -1    0    0  503  502  0.00000000000E+00  0.00000000000E+00  0.24451527785E+03  0.24451527785E+03  0.00000000000E+00 0.  1.
         21   -1    0    0  501  503 -0.00000000000E+00 -0.00000000000E+00 -0.25544376520E+03  0.25544376520E+03  0.00000000000E+00 0.  1.
        -13    1    1    2    0    0  0.10799788765E+03  0.29431889807E+02  0.90100478062E+02  0.14369372702E+03  0.10566000000E+00 0.  1.
         13    1    1    2    0    0 -0.40771934191E+02 -0.54836760948E+01 -0.11698604125E+03  0.12400873491E+03  0.10566000000E+00 0. -1.
          4    1    1    2  501    0  0.18729351268E+02 -0.14593607290E+02 -0.91387090977E+02  0.94421196614E+02  0.00000000000E+00 0.  1.
         -4    1    1    2    0  502 -0.85955304727E+02 -0.93546064221E+01  0.10734416681E+03  0.13783538450E+03  0.00000000000E+00 0. -1.
</event>
<event>
 6    1  0.1144920E-005  0.1894086E+02  0.7818608E-02  0.1525141E+00
         21   -1    0    0  501  502  0.00000000000E+00  0.00000000000E+00  0.64306980177E+02  0.64306980177E+02  0.00000000000E+00 0. -1.
         21   -1    0    0  502  503 -0.00000000000E+00 -0.00000000000E+00 -0.35776438723E+02  0.35776438723E+02  0.00000000000E+00 0.  1.
        -13    1    1    2    0    0 -0.23670852946E+01 -0.21026468322E+02 -0.80908369293E+01  0.22653659067E+02  0.10566000000E+00 0.  1.
         13    1    1    2    0    0  0.91340412036E+00  0.22078261935E+02  0.46959995482E+02  0.51899289946E+02  0.10566000000E+00 0. -1.
          4    1    1    2  501    0 -0.94278147131E+01 -0.62205949615E+01 -0.51544488466E+01  0.12415628653E+02  0.00000000000E+00 0.  1.
         -4    1    1    2    0  503  0.10881495887E+02  0.51688013484E+01 -0.51841682527E+01  0.13114841234E+02  0.00000000000E+00 0. -1.
</event>
<event>
 6    1  0.1144920E-005  0.2110143E+03  0.7818608E-02  0.1052837E+00
         21   -1    0    0  503  502  0.00000000000E+00  0.00000000000E+00  0.10300082541E+03  0.10300082541E+03  0.00000000000E+00 0.  1.
         21   -1    0    0  501  503 -0.00000000000E+00 -0.00000000000E+00 -0.12440169663E+04  0.12440169663E+04  0.00000000000E+00 0.  1.
        -13    1    1    2    0    0  0.15454587429E+02 -0.26005516624E+03 -0.39489182523E+03  0.47308254941E+03  0.10566000000E+00 0.  1.
         13    1    1    2    0    0 -0.10060444742E+03  0.17328753165E+03 -0.16740087037E+03  0.26109937960E+03  0.10566000000E+00 0. -1.
          4    1    1    2  501    0  0.72823325822E+02  0.94961266535E+02 -0.58473892095E+03  0.59685884814E+03  0.00000000000E+00 0.  1.
         -4    1    1    2    0  502  0.12326534170E+02 -0.81936319450E+01  0.60154756024E+01  0.15977014609E+02  0.00000000000E+00 0. -1.
</event>
<event>
 6    1  0.1144920E-005  0.2058695E+02  0.7818608E-02  0.1515260E+00
         21   -1    0    0  501  502  0.00000000000E+00  0.00000000000E+00  0.10857472160E+03  0.10857472160E+03  0.00000000000E+00 0. -1.
         21   -1    0    0  502  503 -0.00000000000E+00 -0.00000000000E+00 -0.17887377946E+03  0.17887377946E+03  0.00000000000E+00 0.  1.
        -13    1    1    2    0    0  0.16391479882E+02  0.18698016237E+02 -0.14227355587E+03  0.14443016405E+03  0.10566000000E+00 0.  1.
         13    1    1    2    0    0 -0.26565058752E+02 -0.24965046952E+02  0.60567126909E+02  0.70691894457E+02  0.10566000000E+00 0. -1.
          4    1    1    2  501    0  0.13123103520E+02  0.16075291622E+02  0.38293885519E+02  0.43555166339E+02  0.00000000000E+00 0.  1.
         -4    1    1    2    0  503 -0.29495246497E+01 -0.98082609072E+01 -0.26886514417E+02  0.28771276217E+02  0.00000000000E+00 0. -1.
</event>
<event>
 6    1  0.1144920E-005  0.3365223E+03  0.7818608E-02  0.9932774E-01
         21   -1    0    0  503  502  0.00000000000E+00  0.00000000000E+00  0.19953445397E+03  0.19953445397E+03  0.00000000000E+00 0.  1.
         21   -1    0    0  501  503 -0.00000000000E+00 -0.00000000000E+00 -0.12035517309E+04  0.12035517309E+04  0.00000000000E+00 0. -1.
        -13    1    1    2    0    0  0.11912880757E+03 -0.32260673028E+03 -0.34133846372E+03  0.48453971271E+03  0.10566000000E+00 0.  1.
         13    1    1    2    0    0 -0.12351983396E+03  0.30072398400E+03 -0.49399500168E+03  0.59137393989E+03  0.10566000000E+00 0. -1.
          4    1    1    2  501    0  0.24202084743E+02  0.36380555869E+02 -0.24403866486E+03  0.24791965573E+03  0.00000000000E+00 0.  1.
         -4    1    1    2    0  502 -0.19811058355E+02 -0.14497809592E+02  0.75354853335E+02  0.79252876523E+02  0.00000000000E+00 0. -1.
</event>
<event>
 6    1  0.1144920E-005  0.5391358E+02  0.7818608E-02  0.1276626E+00
         21   -1    0    0  503  502  0.00000000000E+00  0.00000000000E+00  0.55412181668E+02  0.55412181668E+02  0.00000000000E+00 0.  1.
         21   -1    0    0  501  503 -0.00000000000E+00 -0.00000000000E+00 -0.18440623909E+03  0.18440623909E+03  0.00000000000E+00 0.  1.
        -13    1    1    2    0    0  0.32983520779E+02 -0.11776167726E+02  0.15365894065E+02  0.38245426311E+02  0.10566000000E+00 0.  1.
         13    1    1    2    0    0 -0.69264281122E+02 -0.26228197975E+01 -0.78801238658E+02  0.10494792138E+03  0.10566000000E+00 0. -1.
          4    1    1    2  501    0  0.10369730436E+02  0.12769914550E+02 -0.68545395038E+02  0.70491653463E+02  0.00000000000E+00 0.  1.
         -4    1    1    2    0  502  0.25911029907E+02  0.16290729731E+01  0.29866822138E+01  0.26133419605E+02  0.00000000000E+00 0. -1.
</event>
<event>
 6    1  0.1144920E-005  0.7719298E+02  0.7818608E-02  0.1243958E+00
         21   -1    0    0  501  502  0.00000000000E+00  0.00000000000E+00  0.51614372536E+03  0.51614372536E+03  0.00000000000E+00 0. -1.
         21   -1    0    0  502  503 -0.00000000000E+00 -0.00000000000E+00 -0.53717109966E+02  0.53717109966E+02  0.00000000000E+00 0. -1.
        -13    1    1    2    0    0 -0.32614968422E+02  0.18734329975E+00  0.77362814529E+01  0.33520627641E+02  0.10566000000E+00 0.  1.
         13    1    1    2    0    0  0.39167485916E+02 -0.74668025646E+02  0.36974343712E+03  0.37923558175E+03  0.10566000000E+00 0. -1.
          4    1    1    2  501    0 -0.36049895312E+02  0.35790414930E+00  0.65852131468E+02  0.75074804471E+02  0.00000000000E+00 0.  1.
         -4    1    1    2    0  503  0.29497377818E+02  0.74122778197E+02  0.19094765354E+02  0.82029821466E+02  0.00000000000E+00 0. -1.
</event>
<event>
 6    1  0.1144920E-005  0.2495246E+03  0.7818608E-02  0.1030639E+00
         21   -1    0    0  503  502  0.00000000000E+00  0.00000000000E+00  0.33913652912E+03  0.33913652912E+03  0.00000000000E+00 0.  1.
         21   -1    0    0  501  503 -0.00000000000E+00 -0.00000000000E+00 -0.27452655703E+03  0.27452655703E+03  0.00000000000E+00 0. -1.
        -13    1    1    2    0    0 -0.20646872255E+03 -0.12756393187E+03  0.99965645281E+02  0.26247863058E+03  0.10566000000E+00 0.  1.
         13    1    1    2    0    0  0.21149139059E+03  0.15945166437E+03 -0.19195216667E+01  0.26487192620E+03  0.10566000000E+00 0. -1.
          4    1    1    2  501    0 -0.20133119581E+01 -0.47013674409E+02 -0.46459209811E+02  0.66127128946E+02  0.00000000000E+00 0.  1.
         -4    1    1    2    0  502 -0.30093560801E+01  0.15125941915E+02  0.13023058286E+02  0.20185400416E+02  0.00000000000E+00 0. -1.
</event>
<event>
 6    1  0.1144920E-005  0.7991332E+02  0.7818608E-02  0.1232749E+00
         21   -1    0    0  503  502  0.00000000000E+00  0.00000000000E+00  0.94399840957E+02  0.94399840957E+02  0.00000000000E+00 0.  1.
         21   -1    0    0  501  503 -0.00000000000E+00 -0.00000000000E+00 -0.66456500297E+03  0.66456500297E+03  0.00000000000E+00 0.  1.
        -13    1    1    2    0    0  0.57909540635E+02  0.92428001238E+02  0.28393886529E+02  0.11270614121E+03  0.10566000000E+00 0.  1.
         13    1    1    2    0    0 -0.26059918243E+02 -0.15467683207E+02 -0.82728720935E+02  0.88104602571E+02  0.10566000000E+00 0. -1.
          4    1    1    2  501    0 -0.21136607080E+02  0.12376675649E+01 -0.46230183985E+03  0.46278642926E+03  0.00000000000E+00 0.  1.
         -4    1    1    2    0  502 -0.10713015312E+02 -0.78197985596E+02 -0.53528487752E+02  0.95367670882E+02  0.00000000000E+00 0. -1.
</event>
<event>
 6    1  0.1144920E-005  0.1383754E+03  0.7818608E-02  0.1113178E+00
         21   -1    0    0  503  502  0.00000000000E+00  0.00000000000E+00  0.11814191001E+04  0.11814191001E+04  0.00000000000E+00 0. -1.
         21   -1    0    0  501  503 -0.00000000000E+00 -0.00000000000E+00 -0.52648773116E+03  0.52648773116E+03  0.00000000000E+00 0. -1.
        -13    1    1    2    0    0  0.43001379535E+02  0.17971520267E+03 -0.15809560675E+03  0.24318903090E+03  0.10566000000E+00 0.  1.
         13    1    1    2    0    0  0.21882054873E+01 -0.11198796955E+03 -0.28067879878E+03  0.30220306553E+03  0.10566000000E+00 0. -1.
          4    1    1    2  501    0 -0.19977848736E+02 -0.17619060738E+02 -0.28440846836E+02  0.38967005404E+02  0.00000000000E+00 0.  1.
         -4    1    1    2    0  502 -0.25211736286E+02 -0.50108172381E+02  0.11221466213E+04  0.11235477294E+04  0.00000000000E+00 0. -1.
</event>
<event>
 6    1  0.1144920E-005  0.9795661E+02  0.7818608E-02  0.1167981E+00
         21   -1    0    0  501  502  0.00000000000E+00  0.00000000000E+00  0.17197771981E+03  0.17197771981E+03  0.00000000000E+00 0. -1.
         21   -1    0    0  502  503 -0.00000000000E+00 -0.00000000000E+00 -0.21282841078E+03  0.21282841078E+03  0.00000000000E+00 0. -1.
        -13    1    1    2    0    0  0.64464445188E+02  0.75286197653E+02 -0.11297459386E+03  0.15028954146E+03  0.10566000000E+00 0.  1.
         13    1    1    2    0    0  0.52852523379E+01 -0.99321110959E+02  0.28130551793E+02  0.10336322403E+03  0.10566000000E+00 0. -1.
          4    1    1    2  501    0 -0.81838035973E+01 -0.85607327832E+01  0.58761315952E+02  0.59942914840E+02  0.00000000000E+00 0.  1.
         -4    1    1    2    0  503 -0.61565893929E+02  0.32595646089E+02 -0.14767964856E+02  0.71210450253E+02  0.00000000000E+00 0. -1.
</event>
<event>
 6    1  0.1144920E-005  0.2453344E+02  0.7818608E-02  0.1470531E+00
         21   -1    0    0  503  502  0.00000000000E+00  0.00000000000E+00  0.48271048921E+02  0.48271048921E+02  0.00000000000E+00 0.  1.
         21   -1    0    0  501  503 -0.00000000000E+00 -0.00000000000E+00 -0.61821228598E+02  0.61821228598E+02  0.00000000000E+00 0.  1.
        -13    1    1    2    0    0 -0.21269091706E+02  0.33468197969E+02  0.10565202821E+02  0.41038143378E+02  0.10566000000E+00 0.  1.
         13    1    1    2    0    0  0.88269502028E+01 -0.51683898991E+01 -0.16843101031E+02  0.19706052888E+02  0.10566000000E+00 0. -1.
          4    1    1    2  501    0  0.19588161330E+02 -0.10302685586E+02 -0.16781570813E+02  0.27775214014E+02  0.00000000000E+00 0.  1.
         -4    1    1    2    0  502 -0.71460198268E+01 -0.17997122484E+02  0.95092893461E+01  0.21572867239E+02  0.00000000000E+00 0. -1.
</event>
<event>
 6    1  0.1144920E-005  0.6077774E+02  0.7818608E-02  0.1253229E+00
         21   -1    0    0  503  502  0.00000000000E+00  0.00000000000E+00  0.26413470245E+03  0.26413470245E+03  0.00000000000E+00 0.  1.
         21   -1    0    0  501  503 -0.00000000000E+00 -0.00000000000E+00 -0.80237385386E+02  0.80237385386E+02  0.00000000000E+00 0.  1.
        -13    1    1    2    0    0  0.63119683489E+02  0.41763024709E+02  0.85834548829E+02  0.11443699408E+03  0.10566000000E+00 0.  1.
         13    1    1    2    0    0 -0.31395170487E+02 -0.41788443300E+02  0.72507221072E+02  0.89382543011E+02  0.10566000000E+00 0. -1.
          4    1    1    2  501    0 -0.91337397961E+01  0.23477141621E+02 -0.51262551701E+02  0.57117865754E+02  0.00000000000E+00 0.  1.
         -4    1    1    2    0  502 -0.22590773206E+02 -0.23451723029E+02  0.76818098864E+02  0.83434684994E+02  0.00000000000E+00 0. -1.
</event>
<event>
 6    1  0.1144920E-005  0.2323805E+03  0.7818608E-02  0.1039951E+00
         21   -1    0    0  501  502  0.00000000000E+00  0.00000000000E+00  0.13485870983E+04  0.13485870983E+04  0.00000000000E+00 0. -1.
         21   -1    0    0  502  503 -0.00000000000E+00 -0.00000000000E+00 -0.16059961918E+03  0.16059961918E+03  0.00000000000E+00 0. -1.
        -13    1    1    2    0    0  0.96897755477E+02 -0.25063615865E+03  0.36341456581E+03  0.45197103541E+03  0.10566000000E+00 0.  1.
         13    1    1    2    0    0 -0.19597815044E+03  0.15526935576E+03  0.70980527617E+03  0.75255534649E+03  0.10566000000E+00 0. -1.
          4    1    1    2  501    0  0.81854624665E+02  0.40238575457E+01  0.17545434263E+03  0.19365070967E+03  0.00000000000E+00 0.  1.
         -4    1    1    2    0  503  0.17225770298E+02  0.91342945339E+02 -0.60686705483E+02  0.11100962592E+03  0.00000000000E+00 0. -1.
</event>
<event>
 6    1  0.1144920E-005  0.8124437E+02  0.7818608E-02  0.1199973E+00
         21   -1    0    0  501  502  0.00000000000E+00  0.00000000000E+00  0.96476647932E+03  0.96476647932E+03  0.00000000000E+00 0. -1.
         21   -1    0    0  502  503 -0.00000000000E+00 -0.00000000000E+00 -0.25197775462E+02  0.25197775462E+02  0.00000000000E+00 0.  1.
        -13    1    1    2    0    0  0.57459392768E+02  0.63922989613E+02  0.93562190976E+02  0.12704969564E+03  0.10566000000E+00 0.  1.
         13    1    1    2    0    0  0.45909680758E+00 -0.89789690800E+02  0.42520993446E+03  0.43458704406E+03  0.10566000000E+00 0. -1.
          4    1    1    2  501    0  0.13652200391E+01  0.10191066736E+02  0.16356216726E+03  0.16388503356E+03  0.00000000000E+00 0.  1.
         -4    1    1    2    0  503 -0.59283709615E+02  0.15675634450E+02  0.25723441117E+03  0.26444248151E+03  0.00000000000E+00 0. -1.
</event>
<event>
 6    1  0.1144920E-005  0.1212238E+02  0.7818608E-02  0.1674778E+00
         21   -1    0    0  503  502  0.00000000000E+00  0.00000000000E+00  0.59083534398E+02  0.59083534398E+02  0.00000000000E+00 0. -1.
         21   -1    0    0  501  503 -0.00000000000E+00 -0.00000000000E+00 -0.28530737431E+02  0.28530737431E+02  0.00000000000E+00 0. -1.
        -13    1    1    2    0    0  0.52934087585E+01  0.98010845273E+01 -0.33893838223E+01  0.11643904883E+02  0.10566000000E+00 0.  1.
         13    1    1    2    0    0  0.73748547425E+01 -0.84434515089E+01 -0.49796445889E+01  0.12267370546E+02  0.10566000000E+00 0. -1.
          4    1    1    2  501    0 -0.98744789210E+01  0.88545946956E+01 -0.80753205856E+01  0.15528038632E+02  0.00000000000E+00 0.  1.
         -4    1    1    2    0  502 -0.27937845800E+01 -0.10212227714E+02  0.46997145964E+02  0.48174957767E+02  0.00000000000E+00 0. -1.
</event>
<event>
 6    1  0.1144920E-005  0.1855000E+03  0.7818608E-02  0.1070558E+00
         21   -1    0    0  503  502  0.00000000000E+00  0.00000000000E+00  0.22986098000E+03  0.22986098000E+03  0.00000000000E+00 0.  1.
         21   -1    0    0  501  503 -0.00000000000E+00 -0.00000000000E+00 -0.28421244211E+03  0.28421244211E+03  0.00000000000E+00 0. -1.
        -13    1    1    2    0    0  0.15848341021E+03 -0.12045628239E+03  0.33094093276E+02  0.20179677265E+03  0.10566000000E+00 0.  1.
         13    1    1    2    0    0 -0.16235317174E+03  0.67336719895E+02  0.29254786586E+02  0.17818148030E+03  0.10566000000E+00 0. -1.
          4    1    1    2  501    0 -0.89586757043E+01  0.10829193897E+02 -0.62998107632E+02  0.64546811509E+02  0.00000000000E+00 0.  1.
         -4    1    1    2    0  502  0.12828437237E+02  0.42290368600E+02 -0.53702234346E+02  0.69548357652E+02  0.00000000000E+00 0. -1.
</event>
<event>
 6    1  0.1144920E-005  0.2423215E+02  0.7818608E-02  0.1458287E+00
         21   -1    0    0  501  502  0.00000000000E+00  0.00000000000E+00  0.19631315903E+03  0.19631315903E+03  0.00000000000E+00 0.  1.
         21   -1    0    0  502  503 -0.00000000000E+00 -0.00000000000E+00 -0.14215198385E+03  0.14215198385E+03  0.00000000000E+00 0.  1.
        -13    1    1    2    0    0  0.25769584650E+02  0.73534645720E+01 -0.11310096902E+03  0.11623246230E+03  0.10566000000E+00 0.  1.
         13    1    1    2    0    0 -0.27799243585E+02 -0.19156873737E+02  0.19177008480E+02  0.38827214342E+02  0.10566000000E+00 0. -1.
          4    1    1    2  501    0  0.20815602953E+02 -0.27408292863E+01  0.15672509378E+03  0.15812512922E+03  0.00000000000E+00 0.  1.
         -4    1    1    2    0  503 -0.18785944018E+02  0.14544238451E+02 -0.86399580623E+01  0.25280337025E+02  0.00000000000E+00 0. -1.
</event>
<event>
 6    1  0.1144920E-005  0.2589228E+02  0.7818608E-02  0.1460355E+00
         21   -1    0    0  503  502  0.00000000000E+00  0.00000000000E+00  0.38183789234E+02  0.38183789234E+02  0.00000000000E+00 0.  1.
         21   -1    0    0  501  503 -0.00000000000E+00 -0.00000000000E+00 -0.90946621847E+02  0.90946621847E+02  0.00000000000E+00 0. -1.
        -13    1    1    2    0    0 -0.15572072914E+02 -0.28985107398E+02  0.87828076268E+01  0.34055466222E+02  0.10566000000E+00 0.  1.
         13    1    1    2    0    0  0.99014917929E+01 -0.52914384232E+01 -0.11412806627E+01  0.11285058524E+02  0.10566000000E+00 0. -1.
          4    1    1    2  501    0  0.12335290672E+02  0.16226598837E+02  0.12762730018E-01  0.20382886662E+02  0.00000000000E+00 0.  1.
         -4    1    1    2    0  502 -0.66647095517E+01  0.18049946985E+02 -0.60417122307E+02  0.63406999672E+02  0.00000000000E+00 0. -1.
</event>
<event>
 6    1  0.1144920E-005  0.1017302E+03  0.7818608E-02  0.1161724E+00
         21   -1    0    0  501  502  0.00000000000E+00  0.00000000000E+00  0.49755128028E+02  0.49755128028E+02  0.00000000000E+00 0.  1.
         21   -1    0    0  502  503 -0.00000000000E+00 -0.00000000000E+00 -0.12292808963E+04  0.12292808963E+04  0.00000000000E+00 0. -1.
        -13    1    1    2    0    0  0.92258285922E+02 -0.20526224160E+02 -0.54783061273E+03  0.55592383346E+03  0.10566000000E+00 0.  1.
         13    1    1    2    0    0 -0.10007151160E+03  0.14394197098E+02 -0.22000163288E+03  0.24212027998E+03  0.10566000000E+00 0. -1.
          4    1    1    2  501    0 -0.83248227314E+01 -0.75932023802E+01  0.33474543800E+02  0.35320029424E+02  0.00000000000E+00 0.  1.
         -4    1    1    2    0  503  0.16138048411E+02  0.13725229442E+02 -0.44516806646E+03  0.44567188146E+03  0.00000000000E+00 0. -1.
</event>
<event>
 6    1  0.1144920E-005  0.2657056E+03  0.7818608E-02  0.1022561E+00
         21   -1    0    0  501  502  0.00000000000E+00  0.00000000000E+00  0.77224597186E+03  0.77224597186E+03  0.00000000000E+00 0. -1.
         21   -1    0    0  502  503 -0.00000000000E+00 -0.00000000000E+00 -0.20484219926E+03  0.20484219926E+03  0.00000000000E+00 0.  1.
        -13    1    1    2    0    0  0.13680243119E+03 -0.21493857559E+03 -0.57422142890E+02  0.26117199336E+03  0.10566000000E+00 0.  1.
         13    1    1    2    0    0 -0.16374016493E+03  0.19423815398E+03  0.48547965667E+03  0.54793230447E+03  0.10566000000E+00 0. -1.
          4    1    1    2  501    0 -0.35515960346E+01  0.21110894202E+02  0.13558044307E+03  0.13726011887E+03  0.00000000000E+00 0.  1.
         -4    1    1    2    0  503  0.30489329777E+02 -0.41047259449E+00  0.37658157433E+01  0.30723754429E+02  0.00000000000E+00 0. -1.
</event>
<event>
 6    1  0.1144920E-005  0.6286140E+02  0.7818608E-02  0.1264758E+00
         21   -1    0    0  503  502  0.00000000000E+00  0.00000000000E+00  0.57191853478E+03  0.57191853478E+03  0.00000000000E+00 0. -1.
         21   -1    0    0  501  503 -0.00000000000E+00 -0.00000000000E+00 -0.13935622410E+03  0.13935622410E+03  0.00000000000E+00 0. -1.
        -13    1    1    2    0    0 -0.42729100599E+02 -0.35986661807E+01  0.89903302171E+02  0.99605930253E+02  0.10566000000E+00 0.  1.
         13    1    1    2    0    0  0.33134255401E+01 -0.48020211774E+02 -0.10155504301E+03  0.11238486310E+03  0.10566000000E+00 0. -1.
          4    1    1    2  501    0 -0.10270038741E+02  0.11963283545E+02 -0.22933649534E+02  0.27830668872E+02  0.00000000000E+00 0.  1.
         -4    1    1    2    0  502  0.49685713800E+02  0.39655594410E+02  0.46714770106E+03  0.47145329666E+03  0.00000000000E+00 0. -1.
</event>
<event>
 6    1  0.1144920E-005  0.1730095E+03  0.7818608E-02  0.1080399E+00
         21   -1    0    0  501  502  0.00000000000E+00  0.00000000000E+00  0.15494829917E+04  0.15494829917E+04  0.00000000000E+00 0.  1.
         21   -1    0    0  502  503 -0.00000000000E+00 -0.00000000000E+00 -0.91127246649E+02  0.91127246649E+02  0.00000000000E+00 0.  1.
        -13    1    1    2    0    0 -0.63419593315E+02 -0.18846397380E+03  0.43941827927E+02  0.20364579456E+03  0.10566000000E+00 0.  1.
         13    1    1    2    0    0  0.17021538371E+02  0.16216316612E+03  0.91926136609E+03  0.93361024821E+03  0.10566000000E+00 0. -1.
          4    1    1    2  501    0  0.44347329265E+02 -0.91295867853E+00  0.43552525894E+03  0.43777822043E+03  0.00000000000E+00 0.  1.
         -4    1    1    2    0  503  0.20507256784E+01  0.27213766352E+02  0.59627292113E+02  0.65575975171E+02  0.00000000000E+00 0. -1.
</event>
<event>
 6    1  0.1144920E-005  0.7576718E+02  0.7818608E-02  0.1212361E+00
         21   -1    0    0  503  502  0.00000000000E+00  0.00000000000E+00  0.67803533472E+02  0.67803533472E+02  0.00000000000E+00 0.  1.
         21   -1    0    0  501  503 -0.00000000000E+00 -0.00000000000E+00 -0.24715115013E+03  0.24715115013E+03  0.00000000000E+00 0. -1.
        -13    1    1    2    0    0 -0.10037126844E+03 -0.28246099469E+02 -0.10784302456E+02  0.10482626583E+03  0.10566000000E+00 0.  1.
         13    1    1    2    0    0  0.60189042515E+02  0.87956050458E+01 -0.39264466162E+02  0.72400227721E+02  0.10566000000E+00 0. -1.
          4    1    1    2  501    0  0.11979490071E+02  0.14480114497E+02 -0.49677050115E+02  0.53113004117E+02  0.00000000000E+00 0.  1.
         -4    1    1    2    0  502  0.28202735855E+02  0.49703799258E+01 -0.79621797925E+02  0.84615185937E+02  0.00000000000E+00 0. -1.
</event>
<event>
 6    1  0.1144920E-005  0.2210029E+03  0.7818608E-02  0.1046619E+00
         21   -1    0    0  501  502  0.00000000000E+00  0.00000000000E+00  0.47276172787E+03  0.47276172787E+03  0.00000000000E+00 0. -1.
         21   -1    0    0  502  503 -0.00000000000E+00 -0.00000000000E+00 -0.37918122874E+03  0.37918122874E+03  0.00000000000E+00 0.  1.
        -13    1    1    2    0    0 -0.15926533597E+03 -0.15966911671E+03 -0.28456851850E+02  0.22730921154E+03  0.10566000000E+00 0.  1.
         13    1    1    2    0    0  0.10911578988E+03  0.15333320420E+03  0.31876203466E+03  0.37017100510E+03  0.10566000000E+00 0. -1.
          4    1    1    2  501    0  0.49494100305E+02  0.19687069375E+02  0.38858386413E+01  0.53407362858E+02  0.00000000000E+00 0.  1.
         -4    1    1    2    0  503  0.65544578383E+00 -0.13351156865E+02 -0.20061052232E+03  0.20105537711E+03  0.00000000000E+00 0. -1.
</event>
<event>
 6    1  0.1144920E-005  0.7446905E+02  0.7818608E-02  0.1227020E+00
         21   -1    0    0  503  502  0.00000000000E+00  0.00000000000E+00  0.81965979317E+02  0.81965979317E+02  0.00000000000E+00 0. -1.
         21   -1    0    0  501  503 -0.00000000000E+00 -0.00000000000E+00 -0.27062965722E+03  0.27062965722E+03  0.00000000000E+00 0.  1.
        -13    1    1    2    0    0  0.29340767589E+02  0.29487937519E+02 -0.44609817019E+02  0.60995623124E+02  0.10566000000E+00 0.  1.
         13    1    1    2    0    0 -0.50054014757E+02 -0.10324563353E+03 -0.83780530447E+02  0.14207129788E+03  0.10566000000E+00 0. -1.
          4    1    1    2  501    0  0.42462302286E+01  0.94381589594E+02 -0.12972595611E+02  0.95363531617E+02  0.00000000000E+00 0.  1.
         -4    1    1    2    0  502  0.16467016940E+02 -0.20623893587E+02 -0.47300734824E+02  0.54165183914E+02  0.00000000000E+00 0. -1.
</event>
<event>
 6    1  0.1505914E-005  0.2470945E+03  0.7818608E-02  0.1031909E+00
         21   -1    0    0  503  502  0.00000000000E+00  0.00000000000E+00  0.32852361481E+03  0.32852361481E+03  0.00000000000E+00 0.  1.
         21   -1    0    0  501  503 -0.00000000000E+00 -0.00000000000E+00 -0.59598366031E+03  0.59598366031E+03  0.00000000000E+00 0.  1.
        -13    1    1    2    0    0 -0.22712044469E+03 -0.74327840379E+02  0.20264010147E+03  0.31332306991E+03  0.10566000000E+00 0.  1.
         13    1    1    2    0    0  0.23826904276E+03  0.92489257503E+02 -0.25198074073E+03  0.35891601295E+03  0.10566000000E+00 0. -1.
          4    1    1    2  501    0 -0.55046004055E+01 -0.94685876349E+01 -0.23348069033E+03  0.23373743289E+03  0.00000000000E+00 0.  1.
         -4    1    1    2    0  502 -0.56439976632E+01 -0.86928294896E+01  0.15361284076E+02  0.18530759364E+02  0.00000000000E+00 0. -1.
</event>
<event>
 6    1  0.1144920E-005  0.2167346E+03  0.7818608E-02  0.1049232E+00
         21   -1    0    0  503  502  0.00000000000E+00  0.00000000000E+00  0.90575567460E+03  0.90575567460E+03  0.00000000000E+00 0.  1.
         21   -1    0    0  501  503 -0.00000000000E+00 -0.00000000000E+00 -0.15401533618E+03  0.15401533618E+03  0.00000000000E+00 0. -1.
        -13    1    1    2    0    0  0.18608186808E+03  0.13999237986E+03  0.25399710748E+03  0.34458506906E+03  0.10566000000E+00 0.  1.
         13    1    1    2    0    0 -0.15483026214E+03 -0.99818940090E+02  0.53702880196E+03  0.56774657742E+03  0.10566000000E+00 0. -1.
          4    1    1    2  501    0 -0.24789481563E+01  0.11695099067E+02 -0.76492471367E+02  0.77421048185E+02  0.00000000000E+00 0.  1.
         -4    1    1    2    0  502 -0.28772657783E+02 -0.51868538841E+02  0.37206900337E+02  0.70018316104E+02  0.00000000000E+00 0. -1.
</event>
