<event>
 6    1  0.5391662E-005  0.1110307E+04  0.7818608E-02  0.8918843E-01
          4   -1    0    0  502    0 -0.00000000000E+00  0.00000000000E+00  0.20942107264E+04  0.20942107264E+04  0.00000000000E+00 0.  1.
         21   -1    0    0  501  502  0.00000000000E+00 -0.00000000000E+00 -0.75543089777E+03  0.75543089777E+03  0.00000000000E+00 0.  1.
    9000010    2    1    2  501    0  0.20730703016E+03 -0.34116269270E+03 -0.31036265571E+03  0.11528684713E+04  0.10360562467E+04 0.  0.
        -13    1    3    3    0    0  0.11833671198E+03 -0.60626901426E+03 -0.51671852633E+03  0.80533455264E+03  0.10566000000E+00 0.  1.
          4    1    3    3  501    0  0.88970318178E+02  0.26510632156E+03  0.20635587062E+03  0.34753391862E+03  0.00000000000E+00 0.  1.
         13    1    1    2    0    0 -0.20730703016E+03  0.34116269270E+03  0.16491424844E+04  0.16967731529E+04  0.10566000000E+00 0. -1.
<mgrwt>
<rscale>  1 0.85977022E+03</rscale>
<asrwt>0</asrwt>
<pdfrwt beam="2">  1       21 0.11622014E+00 0.11103066E+04</pdfrwt>
<pdfrwt beam="1">  1        4 0.32218626E+00 0.11103066E+04</pdfrwt>
<totfact> 0.29797352E+00</totfact>
</mgrwt>
</event>
<event>
 6    1  0.5391662E-005  0.1068091E+04  0.7818608E-02  0.8960915E-01
          4   -1    0    0  502    0 -0.00000000000E+00  0.00000000000E+00  0.18551365214E+04  0.18551365214E+04  0.00000000000E+00 0.  1.
         21   -1    0    0  501  502  0.00000000000E+00 -0.00000000000E+00 -0.28173579452E+03  0.28173579452E+03  0.00000000000E+00 0.  1.
    9000010    2    1    2  501    0  0.37232163879E+03  0.61417289266E+02  0.11387873476E+04  0.15612993086E+04  0.99921139998E+03 0.  0.
        -13    1    3    3    0    0  0.19650943365E+03  0.49302577598E+03  0.88151513940E+03  0.10289603129E+04  0.10566000000E+00 0.  1.
          4    1    3    3  501    0  0.17581220514E+03 -0.43160848671E+03  0.25727220823E+03  0.53233899576E+03  0.00000000000E+00 0.  1.
         13    1    1    2    0    0 -0.37232163879E+03 -0.61417289266E+02  0.43461337925E+03  0.57557300729E+03  0.10566000000E+00 0. -1.
<mgrwt>
<rscale>  1 0.82346150E+03</rscale>
<asrwt>0</asrwt>
<pdfrwt beam="2">  1       21 0.43343970E-01 0.10680912E+04</pdfrwt>
<pdfrwt beam="1">  1        4 0.28540561E+00 0.10680912E+04</pdfrwt>
<totfact> 0.40677012E+01</totfact>
</mgrwt>
</event>
<event>
 6    1  0.5391662E-005  0.1195813E+04  0.7818608E-02  0.8761969E-01
          4   -1    0    0  502    0 -0.00000000000E+00  0.00000000000E+00  0.23713467248E+04  0.23713467248E+04  0.00000000000E+00 0.  1.
         21   -1    0    0  501  502  0.00000000000E+00 -0.00000000000E+00 -0.35135143965E+03  0.35135143965E+03  0.00000000000E+00 0. -1.
    9000010    2    1    2  501    0 -0.55273069469E+03 -0.27449428375E+03  0.11763851140E+04  0.16774534732E+04  0.10242606531E+04 0.  0.
        -13    1    3    3    0    0 -0.24485276199E+01  0.30896126531E+03  0.64553728930E+03  0.71566854185E+03  0.10566000000E+00 0.  1.
          4    1    3    3  501    0 -0.55028216707E+03 -0.58345554906E+03  0.53084782473E+03  0.96178493133E+03  0.00000000000E+00 0.  1.
         13    1    1    2    0    0  0.55273069469E+03  0.27449428375E+03  0.84361017114E+03  0.10452446913E+04  0.10566000000E+00 0. -1.
<mgrwt>
<rscale>  1 0.10135445E+04</rscale>
<asrwt>0</asrwt>
<pdfrwt beam="2">  1       21 0.54054069E-01 0.11958128E+04</pdfrwt>
<pdfrwt beam="1">  1        4 0.36482256E+00 0.11958128E+04</pdfrwt>
<totfact> 0.14274366E+01</totfact>
</mgrwt>
</event>
<event>
 6    1  0.5391662E-005  0.1034133E+04  0.7818608E-02  0.9059240E-01
          4   -1    0    0  502    0 -0.00000000000E+00  0.00000000000E+00  0.11773012695E+04  0.11773012695E+04  0.00000000000E+00 0.  1.
         21   -1    0    0  501  502  0.00000000000E+00 -0.00000000000E+00 -0.50842287012E+03  0.50842287012E+03  0.00000000000E+00 0.  1.
    9000010    2    1    2  501    0 -0.27954341595E+03 -0.16538713353E+00  0.84078560553E+02  0.10375456060E+04  0.99563403492E+03 0.  0.
        -13    1    3    3    0    0 -0.63021785026E+03 -0.63491830375E+02 -0.92027274908E+02  0.64005842062E+03  0.10566000000E+00 0.  1.
          4    1    3    3  501    0  0.35067443431E+03  0.63326443241E+02  0.17610583546E+03  0.39748718542E+03  0.00000000000E+00 0.  1.
         13    1    1    2    0    0  0.27954341595E+03  0.16538713353E+00  0.58479983886E+03  0.64817853362E+03  0.10566000000E+00 0. -1.
<mgrwt>
<rscale>  1 0.74566668E+03</rscale>
<asrwt>0</asrwt>
<pdfrwt beam="2">  1       21 0.78218904E-01 0.10341333E+04</pdfrwt>
<pdfrwt beam="1">  1        4 0.18112327E+00 0.10341333E+04</pdfrwt>
<totfact> 0.19584836E+01</totfact>
</mgrwt>
</event>
<event>
 6    1  0.5391662E-005  0.1059808E+04  0.7818608E-02  0.9534467E-01
          4   -1    0    0  502    0 -0.00000000000E+00  0.00000000000E+00  0.28215363050E+03  0.28215363050E+03  0.00000000000E+00 0.  1.
         21   -1    0    0  501  502  0.00000000000E+00 -0.00000000000E+00 -0.12038510819E+04  0.12038510819E+04  0.00000000000E+00 0.  1.
    9000010    2    1    2  501    0  0.14095515580E+02  0.40383761040E+02 -0.95896919995E+03  0.14292708943E+04  0.10589446780E+04 0.  0.
        -13    1    3    3    0    0 -0.43728941739E+03 -0.26820431383E+03 -0.45837138922E+03  0.68793890001E+03  0.10566000000E+00 0.  1.
          4    1    3    3  501    0  0.45138493297E+03  0.30858807487E+03 -0.50059781073E+03  0.74133199430E+03  0.00000000000E+00 0.  1.
         13    1    1    2    0    0 -0.14095515580E+02 -0.40383761040E+02  0.37271748533E+02  0.56733818115E+02  0.10566000000E+00 0. -1.
<mgrwt>
<rscale>  1 0.47502151E+03</rscale>
<asrwt>0</asrwt>
<pdfrwt beam="2">  1       21 0.18520786E+00 0.10598082E+04</pdfrwt>
<pdfrwt beam="1">  1        4 0.43408251E-01 0.10598082E+04</pdfrwt>
<totfact> 0.24275358E+01</totfact>
</mgrwt>
</event>
<event>
 6    1  0.5391662E-005  0.1077332E+04  0.7818608E-02  0.8929698E-01
          4   -1    0    0  502    0 -0.00000000000E+00  0.00000000000E+00  0.21818713556E+04  0.21818713556E+04  0.00000000000E+00 0.  1.
         21   -1    0    0  501  502  0.00000000000E+00 -0.00000000000E+00 -0.25676624377E+03  0.25676624377E+03  0.00000000000E+00 0. -1.
    9000010    2    1    2  501    0  0.19509448455E+03 -0.36956577291E+03  0.14388230136E+04  0.17974582105E+04  0.99297715775E+03 0.  0.
        -13    1    3    3    0    0  0.27036943909E+03 -0.28515517101E+03  0.41022750409E+02  0.39508984088E+03  0.10566000000E+00 0.  1.
          4    1    3    3  501    0 -0.75274954548E+02 -0.84410601899E+02  0.13978002632E+04  0.14023683697E+04  0.00000000000E+00 0.  1.
         13    1    1    2    0    0 -0.19509448455E+03  0.36956577291E+03  0.48628209822E+03  0.64117938879E+03  0.10566000000E+00 0. -1.
<mgrwt>
<rscale>  1 0.85021827E+03</rscale>
<asrwt>0</asrwt>
<pdfrwt beam="2">  1       21 0.39502500E-01 0.10773321E+04</pdfrwt>
<pdfrwt beam="1">  1        4 0.33567250E+00 0.10773321E+04</pdfrwt>
<totfact> 0.36049316E+01</totfact>
</mgrwt>
</event>
<event>
 6    1  0.5391662E-005  0.1248370E+04  0.7818608E-02  0.8688147E-01
         21   -1    0    0  501  502  0.00000000000E+00  0.00000000000E+00  0.50654315684E+03  0.50654315684E+03  0.00000000000E+00 0. -1.
          4   -1    0    0  502    0 -0.00000000000E+00 -0.00000000000E+00 -0.21082099410E+04  0.21082099410E+04  0.00000000000E+00 0.  1.
    9000010    2    1    2  501    0  0.51730895718E+03 -0.53657819061E+03 -0.13230750803E+04  0.18190533678E+04  0.10014503357E+04 0.  0.
        -13    1    3    3    0    0  0.28230431478E+02 -0.40123614420E+03 -0.24536020345E+00  0.40222813432E+03  0.10566000000E+00 0.  1.
          4    1    3    3  501    0  0.48907852571E+03 -0.13534204641E+03 -0.13228297201E+04  0.14168252335E+04  0.00000000000E+00 0.  1.
         13    1    1    2    0    0 -0.51730895718E+03  0.53657819061E+03 -0.27859170389E+03  0.79569973008E+03  0.10566000000E+00 0. -1.
<mgrwt>
<rscale>  1 0.10973507E+04</rscale>
<asrwt>0</asrwt>
<pdfrwt beam="1">  1       21 0.77929718E-01 0.12483699E+04</pdfrwt>
<pdfrwt beam="2">  1        4 0.32433998E+00 0.12483699E+04</pdfrwt>
<totfact> 0.81372083E+00</totfact>
</mgrwt>
</event>
<event>
 6    1  0.5391662E-005  0.9518644E+03  0.7818608E-02  0.9037509E-01
          4   -1    0    0  502    0 -0.00000000000E+00  0.00000000000E+00  0.14924525118E+04  0.14924525118E+04  0.00000000000E+00 0.  1.
         21   -1    0    0  501  502  0.00000000000E+00 -0.00000000000E+00 -0.33661779046E+03  0.33661779046E+03  0.00000000000E+00 0.  1.
    9000010    2    1    2  501    0  0.91941886707E+02 -0.38008027979E+03  0.52549239726E+03  0.10872847630E+04  0.86783153122E+03 0.  0.
        -13    1    3    3    0    0  0.20384600649E+03  0.13740158841E+03 -0.10210812410E+03  0.26619254503E+03  0.10566000000E+00 0.  1.
          4    1    3    3  501    0 -0.11190411979E+03 -0.51748186820E+03  0.62760052135E+03  0.82109221793E+03  0.00000000000E+00 0.  1.
         13    1    1    2    0    0 -0.91941886707E+02  0.38008027979E+03  0.63034232408E+03  0.74178553929E+03  0.10566000000E+00 0. -1.
<mgrwt>
<rscale>  1 0.76205681E+03</rscale>
<asrwt>0</asrwt>
<pdfrwt beam="2">  1       21 0.51787354E-01 0.95186443E+03</pdfrwt>
<pdfrwt beam="1">  1        4 0.22960807E+00 0.95186443E+03</pdfrwt>
<totfact> 0.37829244E+01</totfact>
</mgrwt>
</event>
<event>
 6    1  0.5391662E-005  0.1026051E+04  0.7818608E-02  0.9075174E-01
          4   -1    0    0  502    0 -0.00000000000E+00  0.00000000000E+00  0.29021627171E+03  0.29021627171E+03  0.00000000000E+00 0.  1.
         21   -1    0    0  501  502  0.00000000000E+00 -0.00000000000E+00 -0.16346167262E+04  0.16346167262E+04  0.00000000000E+00 0.  1.
    9000010    2    1    2  501    0 -0.96483613098E+02 -0.25065955379E+03 -0.12942151917E+04  0.16515970719E+04  0.99027300568E+03 0.  0.
        -13    1    3    3    0    0  0.22036989509E+02  0.17932576218E+03  0.86727615908E+02  0.20041219627E+03  0.10566000000E+00 0.  1.
          4    1    3    3  501    0 -0.11852060261E+03 -0.42998531597E+03 -0.13809428076E+04  0.14511848756E+04  0.00000000000E+00 0.  1.
         13    1    1    2    0    0  0.96483613098E+02  0.25065955379E+03 -0.50185262717E+02  0.27323592600E+03  0.10566000000E+00 0. -1.
<mgrwt>
<rscale>  1 0.73391894E+03</rscale>
<asrwt>0</asrwt>
<pdfrwt beam="2">  1       21 0.25147950E+00 0.10260506E+04</pdfrwt>
<pdfrwt beam="1">  1        4 0.44648656E-01 0.10260506E+04</pdfrwt>
<totfact> 0.72129961E+00</totfact>
</mgrwt>
</event>
<event>
 6    1  0.5391662E-005  0.9895729E+03  0.7818608E-02  0.9280644E-01
          4   -1    0    0  502    0 -0.00000000000E+00  0.00000000000E+00  0.12497439376E+04  0.12497439376E+04  0.00000000000E+00 0.  1.
         21   -1    0    0  501  502  0.00000000000E+00 -0.00000000000E+00 -0.28605167638E+03  0.28605167638E+03  0.00000000000E+00 0.  1.
    9000010    2    1    2  501    0 -0.46804401857E+02 -0.12614461135E+03  0.62263346791E+03  0.11691565180E+04  0.98038329919E+03 0.  0.
        -13    1    3    3    0    0 -0.37430712109E+03  0.22850351311E+03  0.51156449547E+03  0.67380851923E+03  0.10566000000E+00 0.  1.
          4    1    3    3  501    0  0.32750271923E+03 -0.35464812447E+03  0.11106897244E+03  0.49534799882E+03  0.00000000000E+00 0.  1.
         13    1    1    2    0    0  0.46804401857E+02  0.12614461135E+03  0.34105879329E+03  0.36663909591E+03  0.10566000000E+00 0. -1.
<mgrwt>
<rscale>  1 0.60090393E+03</rscale>
<asrwt>0</asrwt>
<pdfrwt beam="2">  1       21 0.44007951E-01 0.98957290E+03</pdfrwt>
<pdfrwt beam="1">  1        4 0.19226829E+00 0.98957290E+03</pdfrwt>
<totfact> 0.67671242E+01</totfact>
</mgrwt>
</event>
<event>
 6    1  0.5391662E-005  0.9862812E+03  0.7818608E-02  0.9393991E-01
         21   -1    0    0  501  502  0.00000000000E+00  0.00000000000E+00  0.62018041704E+03  0.62018041704E+03  0.00000000000E+00 0.  1.
          4   -1    0    0  502    0 -0.00000000000E+00 -0.00000000000E+00 -0.66901028632E+03  0.66901028632E+03  0.00000000000E+00 0.  1.
    9000010    2    1    2  501    0 -0.62552755989E+02  0.62958246599E+02  0.21619674481E+03  0.10096988333E+04  0.98228005852E+03 0.  0.
        -13    1    3    3    0    0 -0.21928592743E+03 -0.30648208291E+03 -0.20410501564E+03  0.42857491024E+03  0.10566000000E+00 0.  1.
          4    1    3    3  501    0  0.15673317144E+03  0.36944032951E+03  0.42030176045E+03  0.58112392305E+03  0.00000000000E+00 0.  1.
         13    1    1    2    0    0  0.62552755989E+02 -0.62958246599E+02 -0.26502661409E+03  0.27949187007E+03  0.10566000000E+00 0. -1.
<mgrwt>
<rscale>  1 0.54018550E+03</rscale>
<asrwt>0</asrwt>
<pdfrwt beam="1">  1       21 0.95412372E-01 0.98628125E+03</pdfrwt>
<pdfrwt beam="2">  1        4 0.10292466E+00 0.98628125E+03</pdfrwt>
<totfact> 0.28955118E+01</totfact>
</mgrwt>
</event>
<event>
 6    1  0.5391662E-005  0.8024240E+03  0.7818608E-02  0.9253636E-01
          4   -1    0    0  502    0 -0.00000000000E+00  0.00000000000E+00  0.56466617334E+03  0.56466617334E+03  0.00000000000E+00 0.  1.
         21   -1    0    0  501  502  0.00000000000E+00 -0.00000000000E+00 -0.53211917413E+03  0.53211917413E+03  0.00000000000E+00 0.  1.
    9000010    2    1    2  501    0  0.26730242601E+03 -0.82556147375E+02 -0.53180790052E+02  0.80418430606E+03  0.75207585871E+03 0.  0.
        -13    1    3    3    0    0  0.46934712916E+03 -0.25730548815E+03 -0.31602293995E+02  0.53618239251E+03  0.10566000000E+00 0.  1.
          4    1    3    3  501    0 -0.20204470315E+03  0.17474934077E+03 -0.21578496057E+02  0.26800191355E+03  0.00000000000E+00 0.  1.
         13    1    1    2    0    0 -0.26730242601E+03  0.82556147375E+02  0.85727789268E+02  0.29260104142E+03  0.10566000000E+00 0. -1.
<mgrwt>
<rscale>  1 0.61659449E+03</rscale>
<asrwt>0</asrwt>
<pdfrwt beam="2">  1       21 0.81864489E-01 0.80242395E+03</pdfrwt>
<pdfrwt beam="1">  1        4 0.86871719E-01 0.80242395E+03</pdfrwt>
<totfact> 0.60230921E+01</totfact>
</mgrwt>
</event>
<event>
 6    1  0.5391662E-005  0.1093397E+04  0.7818608E-02  0.8913652E-01
          4   -1    0    0  502    0 -0.00000000000E+00  0.00000000000E+00  0.12413779240E+04  0.12413779240E+04  0.00000000000E+00 0.  1.
         21   -1    0    0  501  502  0.00000000000E+00 -0.00000000000E+00 -0.46560890358E+03  0.46560890358E+03  0.00000000000E+00 0.  1.
    9000010    2    1    2  501    0  0.22426572169E+02 -0.42647511572E+03  0.55103874691E+03  0.12244024490E+04  0.10065454192E+04 0.  0.
        -13    1    3    3    0    0 -0.23218651004E+03  0.24075551439E+03  0.34634643544E+03  0.48148692366E+03  0.10566000000E+00 0.  1.
          4    1    3    3  501    0  0.25461308221E+03 -0.66723063010E+03  0.20469231147E+03  0.74291552531E+03  0.00000000000E+00 0.  1.
         13    1    1    2    0    0 -0.22426572169E+02  0.42647511572E+03  0.22473027350E+03  0.48258437859E+03  0.10566000000E+00 0. -1.
<mgrwt>
<rscale>  1 0.86438423E+03</rscale>
<asrwt>0</asrwt>
<pdfrwt beam="2">  1       21 0.71632139E-01 0.10933973E+04</pdfrwt>
<pdfrwt beam="1">  1        4 0.19098122E+00 0.10933973E+04</pdfrwt>
<totfact> 0.22414792E+01</totfact>
</mgrwt>
</event>
<event>
 6    1  0.5391662E-005  0.9744633E+03  0.7818608E-02  0.9737582E-01
         21   -1    0    0  501  502  0.00000000000E+00  0.00000000000E+00  0.10728452099E+03  0.10728452099E+03  0.00000000000E+00 0.  1.
          4   -1    0    0  502    0 -0.00000000000E+00 -0.00000000000E+00 -0.23389455342E+04  0.23389455342E+04  0.00000000000E+00 0.  1.
    9000010    2    1    2  501    0  0.25069935678E+02 -0.96429944213E+01 -0.21576296672E+04  0.23674763863E+04  0.97409299845E+03 0.  0.
        -13    1    3    3    0    0 -0.15522136323E+03  0.24645726188E+03 -0.13550741608E+03  0.32124309255E+03  0.10566000000E+00 0.  1.
          4    1    3    3  501    0  0.18029129891E+03 -0.25610025630E+03 -0.20221222511E+04  0.20462332937E+04  0.00000000000E+00 0.  1.
         13    1    1    2    0    0 -0.25069935678E+02  0.96429944213E+01 -0.74031346026E+02  0.78753668960E+02  0.10566000000E+00 0. -1.
<mgrwt>
<rscale>  1 0.39705773E+03</rscale>
<asrwt>0</asrwt>
<pdfrwt beam="1">  1       21 0.16505311E-01 0.97446327E+03</pdfrwt>
<pdfrwt beam="2">  1        4 0.35983777E+00 0.97446327E+03</pdfrwt>
<totfact> 0.17640269E+02</totfact>
</mgrwt>
</event>
<event>
 6    1  0.5391662E-005  0.1012668E+04  0.7818608E-02  0.9211439E-01
          4   -1    0    0  502    0 -0.00000000000E+00  0.00000000000E+00  0.20403032035E+04  0.20403032035E+04  0.00000000000E+00 0.  1.
         21   -1    0    0  501  502  0.00000000000E+00 -0.00000000000E+00 -0.16998334074E+03  0.16998334074E+03  0.00000000000E+00 0.  1.
    9000010    2    1    2  501    0 -0.12313170972E+03 -0.10789557253E+03  0.15705113346E+04  0.18686902368E+04  0.99934702510E+03 0.  0.
        -13    1    3    3    0    0  0.30326790954E+03 -0.36350052676E+03  0.10342321936E+04  0.11374270523E+04  0.10566000000E+00 0.  1.
          4    1    3    3  501    0 -0.42639961927E+03  0.25560495423E+03  0.53627914100E+03  0.73126318450E+03  0.00000000000E+00 0.  1.
         13    1    1    2    0    0  0.12313170972E+03  0.10789557253E+03  0.29980852817E+03  0.34159630742E+03  0.10566000000E+00 0. -1.
<mgrwt>
<rscale>  1 0.64213027E+03</rscale>
<asrwt>0</asrwt>
<pdfrwt beam="2">  1       21 0.26151285E-01 0.10126684E+04</pdfrwt>
<pdfrwt beam="1">  1        4 0.31389278E+00 0.10126684E+04</pdfrwt>
<totfact> 0.98367151E+01</totfact>
</mgrwt>
</event>
<event>
 6    1  0.5391662E-005  0.9977526E+03  0.7818608E-02  0.9093471E-01
          4   -1    0    0  502    0 -0.00000000000E+00  0.00000000000E+00  0.30338216736E+04  0.30338216736E+04  0.00000000000E+00 0.  1.
         21   -1    0    0  501  502  0.00000000000E+00 -0.00000000000E+00 -0.13803481751E+03  0.13803481751E+03  0.00000000000E+00 0.  1.
    9000010    2    1    2  501    0 -0.33457216667E+02 -0.26955241134E+03  0.19884338857E+04  0.22247201166E+04  0.96006895155E+03 0.  0.
        -13    1    3    3    0    0 -0.95040863650E+02  0.35237309451E+03  0.60297118979E+03  0.70482184301E+03  0.10566000000E+00 0.  1.
          4    1    3    3  501    0  0.61583646983E+02 -0.62192550585E+03  0.13854626959E+04  0.15198982736E+04  0.00000000000E+00 0.  1.
         13    1    1    2    0    0  0.33457216667E+02  0.26955241134E+03  0.90735297047E+03  0.94713637454E+03  0.10566000000E+00 0. -1.
<mgrwt>
<rscale>  1 0.72070567E+03</rscale>
<asrwt>0</asrwt>
<pdfrwt beam="2">  1       21 0.21236128E-01 0.99775261E+03</pdfrwt>
<pdfrwt beam="1">  1        4 0.46674174E+00 0.99775261E+03</pdfrwt>
<totfact> 0.38717177E+01</totfact>
</mgrwt>
</event>
<event>
 6    1  0.5391662E-005  0.1253353E+04  0.7818608E-02  0.8679153E-01
         21   -1    0    0  501  502  0.00000000000E+00  0.00000000000E+00  0.44469314975E+03  0.44469314975E+03  0.00000000000E+00 0. -1.
          4   -1    0    0  502    0 -0.00000000000E+00 -0.00000000000E+00 -0.22921599326E+04  0.22921599326E+04  0.00000000000E+00 0.  1.
    9000010    2    1    2  501    0 -0.72006108198E+03 -0.26082455890E+03 -0.11410687548E+04  0.16949722842E+04  0.99215710891E+03 0.  0.
        -13    1    3    3    0    0 -0.24787793136E+03 -0.14554881248E+03  0.14367670913E+03  0.32135795241E+03  0.10566000000E+00 0.  1.
          4    1    3    3  501    0 -0.47218315062E+03 -0.11527574643E+03 -0.12847454639E+04  0.13736143318E+04  0.00000000000E+00 0.  1.
         13    1    1    2    0    0  0.72006108198E+03  0.26082455890E+03 -0.70639802803E+03  0.10418807981E+04  0.10566000000E+00 0. -1.
<mgrwt>
<rscale>  1 0.11081285E+04</rscale>
<asrwt>0</asrwt>
<pdfrwt beam="1">  1       21 0.68414331E-01 0.12533528E+04</pdfrwt>
<pdfrwt beam="2">  1        4 0.35263999E+00 0.12533528E+04</pdfrwt>
<totfact> 0.90936312E+00</totfact>
</mgrwt>
</event>
<event>
 6    1  0.5391662E-005  0.1043999E+04  0.7818608E-02  0.8927682E-01
          4   -1    0    0  502    0 -0.00000000000E+00  0.00000000000E+00  0.74316864847E+03  0.74316864847E+03  0.00000000000E+00 0.  1.
         21   -1    0    0  501  502  0.00000000000E+00 -0.00000000000E+00 -0.81870697415E+03  0.81870697415E+03  0.00000000000E+00 0.  1.
    9000010    2    1    2  501    0 -0.16433047620E+03 -0.43290344572E+03 -0.23867619547E+03  0.10709337987E+04  0.93569384750E+03 0.  0.
        -13    1    3    3    0    0 -0.20261599146E+03  0.22020366290E+03  0.12283544520E+03  0.32346785144E+03  0.10566000000E+00 0.  1.
          4    1    3    3  501    0  0.38285515261E+02 -0.65310710862E+03 -0.36151164067E+03  0.74746594729E+03  0.00000000000E+00 0.  1.
         13    1    1    2    0    0  0.16433047620E+03  0.43290344572E+03  0.16313786980E+03  0.49094182389E+03  0.10566000000E+00 0. -1.
<mgrwt>
<rscale>  1 0.85198219E+03</rscale>
<asrwt>0</asrwt>
<pdfrwt beam="2">  1       21 0.12595492E+00 0.10439985E+04</pdfrwt>
<pdfrwt beam="1">  1        4 0.11433364E+00 0.10439985E+04</pdfrwt>
<totfact> 0.11243252E+01</totfact>
</mgrwt>
</event>
<event>
 6    1  0.5391662E-005  0.1031007E+04  0.7818608E-02  0.9075014E-01
          4   -1    0    0  502    0 -0.00000000000E+00  0.00000000000E+00  0.92928471107E+03  0.92928471107E+03  0.00000000000E+00 0.  1.
         21   -1    0    0  501  502  0.00000000000E+00 -0.00000000000E+00 -0.45968737614E+03  0.45968737614E+03  0.00000000000E+00 0.  1.
    9000010    2    1    2  501    0  0.90269089270E+02  0.24904717733E+03  0.29748143358E+03  0.10730656142E+04  0.99639430152E+03 0.  0.
        -13    1    3    3    0    0  0.50711128966E+03 -0.50137726532E+02  0.21628342910E+03  0.55358304218E+03  0.10566000000E+00 0.  1.
          4    1    3    3  501    0 -0.41684220039E+03  0.29918490386E+03  0.81198004485E+02  0.51948257205E+03  0.00000000000E+00 0.  1.
         13    1    1    2    0    0 -0.90269089270E+02 -0.24904717733E+03  0.17211590135E+03  0.31590647298E+03  0.10566000000E+00 0. -1.
<mgrwt>
<rscale>  1 0.73403599E+03</rscale>
<asrwt>0</asrwt>
<pdfrwt beam="2">  1       21 0.70721135E-01 0.10310066E+04</pdfrwt>
<pdfrwt beam="1">  1        4 0.14296688E+00 0.10310066E+04</pdfrwt>
<totfact> 0.34902483E+01</totfact>
</mgrwt>
</event>
<event>
 6    1  0.5391662E-005  0.9976160E+03  0.7818608E-02  0.9489997E-01
          4   -1    0    0  502    0 -0.00000000000E+00  0.00000000000E+00  0.75776077647E+03  0.75776077647E+03  0.00000000000E+00 0.  1.
         21   -1    0    0  501  502  0.00000000000E+00 -0.00000000000E+00 -0.62882056270E+03  0.62882056270E+03  0.00000000000E+00 0.  1.
    9000010    2    1    2  501    0  0.53417472826E+02 -0.27866410186E+02 -0.22903651006E+03  0.10235698942E+04  0.99579497996E+03 0.  0.
        -13    1    3    3    0    0  0.39246077460E+03 -0.15977991429E+03 -0.43354128956E+03  0.60622862150E+03  0.10566000000E+00 0.  1.
          4    1    3    3  501    0 -0.33904330178E+03  0.13191350411E+03  0.20450477949E+03  0.41734127268E+03  0.00000000000E+00 0.  1.
         13    1    1    2    0    0 -0.53417472826E+02  0.27866410186E+02  0.35797672384E+03  0.36301144499E+03  0.10566000000E+00 0. -1.
<mgrwt>
<rscale>  1 0.49455032E+03</rscale>
<asrwt>0</asrwt>
<pdfrwt beam="2">  1       21 0.96741626E-01 0.99761596E+03</pdfrwt>
<pdfrwt beam="1">  1        4 0.11657858E+00 0.99761596E+03</pdfrwt>
<totfact> 0.22327549E+01</totfact>
</mgrwt>
</event>
<event>
 6    1  0.5391662E-005  0.1018061E+04  0.7818608E-02  0.9209955E-01
          4   -1    0    0  502    0 -0.00000000000E+00  0.00000000000E+00  0.88951519449E+03  0.88951519449E+03  0.00000000000E+00 0.  1.
         21   -1    0    0  501  502  0.00000000000E+00 -0.00000000000E+00 -0.47383374781E+03  0.47383374781E+03  0.00000000000E+00 0.  1.
    9000010    2    1    2  501    0  0.10737345981E+03  0.12137745006E+03  0.11860514087E+03  0.10249469803E+04  0.10050808862E+04 0.  0.
        -13    1    3    3    0    0  0.43055979238E+03 -0.26147349986E+03  0.14203080669E+03  0.52337642969E+03  0.10566000000E+00 0.  1.
          4    1    3    3  501    0 -0.32318633257E+03  0.38285094992E+03 -0.23425665818E+02  0.50157055061E+03  0.00000000000E+00 0.  1.
         13    1    1    2    0    0 -0.10737345981E+03 -0.12137745006E+03  0.29707630580E+03  0.33840196201E+03  0.10566000000E+00 0. -1.
<mgrwt>
<rscale>  1 0.64305120E+03</rscale>
<asrwt>0</asrwt>
<pdfrwt beam="2">  1       21 0.72897500E-01 0.10180615E+04</pdfrwt>
<pdfrwt beam="1">  1        4 0.13684849E+00 0.10180615E+04</pdfrwt>
<totfact> 0.34731335E+01</totfact>
</mgrwt>
</event>
<event>
 6    1  0.5391662E-005  0.1019088E+04  0.7818608E-02  0.9155982E-01
          4   -1    0    0  502    0 -0.00000000000E+00  0.00000000000E+00  0.45888887016E+03  0.45888887016E+03  0.00000000000E+00 0.  1.
         21   -1    0    0  501  502  0.00000000000E+00 -0.00000000000E+00 -0.83080771443E+03  0.83080771443E+03  0.00000000000E+00 0.  1.
    9000010    2    1    2  501    0 -0.15983656474E+03  0.11903943227E+03 -0.38638491873E+03  0.10898781862E+04  0.99941134748E+03 0.  0.
        -13    1    3    3    0    0  0.32735559250E+03  0.13740816735E+03  0.13151563248E+03  0.37860145423E+03  0.10566000000E+00 0.  1.
          4    1    3    3  501    0 -0.48719215724E+03 -0.18368735072E+02 -0.51790055120E+03  0.71127673197E+03  0.00000000000E+00 0.  1.
         13    1    1    2    0    0  0.15983656474E+03 -0.11903943227E+03  0.14466074460E+02  0.19981839840E+03  0.10566000000E+00 0. -1.
<mgrwt>
<rscale>  1 0.67769220E+03</rscale>
<asrwt>0</asrwt>
<pdfrwt beam="2">  1       21 0.12781657E+00 0.10190884E+04</pdfrwt>
<pdfrwt beam="1">  1        4 0.70598288E-01 0.10190884E+04</pdfrwt>
<totfact> 0.27913056E+01</totfact>
</mgrwt>
</event>
<event>
 6    1  0.5391662E-005  0.1114041E+04  0.7818608E-02  0.8886619E-01
          4   -1    0    0  502    0 -0.00000000000E+00  0.00000000000E+00  0.11355651440E+04  0.11355651440E+04  0.00000000000E+00 0.  1.
         21   -1    0    0  501  502  0.00000000000E+00 -0.00000000000E+00 -0.55244249919E+03  0.55244249919E+03  0.00000000000E+00 0.  1.
    9000010    2    1    2  501    0  0.74195022063E+02 -0.44543126656E+03  0.29530945870E+03  0.11525168816E+04  0.10184171892E+04 0.  0.
        -13    1    3    3    0    0  0.45599064749E+03 -0.31570661531E+03 -0.12662423504E+03  0.56888649625E+03  0.10566000000E+00 0.  1.
          4    1    3    3  501    0 -0.38179562543E+03 -0.12972465125E+03  0.42193369374E+03  0.58363038531E+03  0.00000000000E+00 0.  1.
         13    1    1    2    0    0 -0.74195022063E+02  0.44543126656E+03  0.28781318612E+03  0.53549076164E+03  0.10566000000E+00 0. -1.
<mgrwt>
<rscale>  1 0.88890789E+03</rscale>
<asrwt>0</asrwt>
<pdfrwt beam="2">  1       21 0.84991154E-01 0.11140411E+04</pdfrwt>
<pdfrwt beam="1">  1        4 0.17470233E+00 0.11140411E+04</pdfrwt>
<totfact> 0.16670645E+01</totfact>
</mgrwt>
</event>
<event>
 6    1  0.5391662E-005  0.1008707E+04  0.7818608E-02  0.9134824E-01
         21   -1    0    0  501  502  0.00000000000E+00  0.00000000000E+00  0.36416966232E+03  0.36416966232E+03  0.00000000000E+00 0.  1.
          4   -1    0    0  502    0 -0.00000000000E+00 -0.00000000000E+00 -0.12722364834E+04  0.12722364834E+04  0.00000000000E+00 0.  1.
    9000010    2    1    2  501    0 -0.21410591944E+03 -0.63356630192E+02 -0.40677889064E+03  0.10876393394E+04  0.98368432916E+03 0.  0.
        -13    1    3    3    0    0  0.11895755403E+03  0.10412522763E+03 -0.63241268199E+03  0.65187328078E+03  0.10566000000E+00 0.  1.
          4    1    3    3  501    0 -0.33306347347E+03 -0.16748185782E+03  0.22563379135E+03  0.43576605863E+03  0.00000000000E+00 0.  1.
         13    1    1    2    0    0  0.21410591944E+03  0.63356630192E+02 -0.50128793040E+03  0.54876680626E+03  0.10566000000E+00 0. -1.
<mgrwt>
<rscale>  1 0.69189134E+03</rscale>
<asrwt>0</asrwt>
<pdfrwt beam="1">  1       21 0.56026103E-01 0.10087072E+04</pdfrwt>
<pdfrwt beam="2">  1        4 0.19572869E+00 0.10087072E+04</pdfrwt>
<totfact> 0.38688689E+01</totfact>
</mgrwt>
</event>
<event>
 6    1  0.5391662E-005  0.1001572E+04  0.7818608E-02  0.9375755E-01
         21   -1    0    0  501  502  0.00000000000E+00  0.00000000000E+00  0.38224235301E+03  0.38224235301E+03  0.00000000000E+00 0.  1.
          4   -1    0    0  502    0 -0.00000000000E+00 -0.00000000000E+00 -0.12067363321E+04  0.12067363321E+04  0.00000000000E+00 0.  1.
    9000010    2    1    2  501    0  0.61917590682E+02 -0.66273588426E+02 -0.28418255068E+03  0.10411078724E+04  0.99745671753E+03 0.  0.
        -13    1    3    3    0    0 -0.24940934607E+03 -0.22613371185E+03  0.23814337146E+03  0.41237574381E+03  0.10566000000E+00 0.  1.
          4    1    3    3  501    0  0.31132693675E+03  0.15986012342E+03 -0.52232592215E+03  0.62873212862E+03  0.00000000000E+00 0.  1.
         13    1    1    2    0    0 -0.61917590682E+02  0.66273588426E+02 -0.54031142841E+03  0.54787081269E+03  0.10566000000E+00 0. -1.
<mgrwt>
<rscale>  1 0.54942706E+03</rscale>
<asrwt>0</asrwt>
<pdfrwt beam="1">  1       21 0.58806516E-01 0.10015717E+04</pdfrwt>
<pdfrwt beam="2">  1        4 0.18565174E+00 0.10015717E+04</pdfrwt>
<totfact> 0.37157497E+01</totfact>
</mgrwt>
</event>
<event>
 6    1  0.5391662E-005  0.1072809E+04  0.7818608E-02  0.8991368E-01
          4   -1    0    0  502    0 -0.00000000000E+00  0.00000000000E+00  0.12888194259E+04  0.12888194259E+04  0.00000000000E+00 0.  1.
         21   -1    0    0  501  502  0.00000000000E+00 -0.00000000000E+00 -0.38321454789E+03  0.38321454789E+03  0.00000000000E+00 0.  1.
    9000010    2    1    2  501    0  0.19071358677E+03 -0.26808646777E+03  0.74350704193E+03  0.13052673641E+04  0.10211161266E+04 0.  0.
        -13    1    3    3    0    0  0.46376866882E+03 -0.11812733470E+03  0.85048337119E+03  0.97588801674E+03  0.10566000000E+00 0.  1.
          4    1    3    3  501    0 -0.27305508206E+03 -0.14995913308E+03 -0.10697632926E+03  0.32937934734E+03  0.00000000000E+00 0.  1.
         13    1    1    2    0    0 -0.19071358677E+03  0.26808646777E+03  0.16209783611E+03  0.36676660973E+03  0.10566000000E+00 0. -1.
<mgrwt>
<rscale>  1 0.79834664E+03</rscale>
<asrwt>0</asrwt>
<pdfrwt beam="2">  1       21 0.58956085E-01 0.10728095E+04</pdfrwt>
<pdfrwt beam="1">  1        4 0.19827991E+00 0.10728095E+04</pdfrwt>
<totfact> 0.33705498E+01</totfact>
</mgrwt>
</event>
<event>
 6    1  0.5391662E-005  0.1091672E+04  0.7818608E-02  0.8904009E-01
          4   -1    0    0  502    0 -0.00000000000E+00  0.00000000000E+00  0.13146446477E+04  0.13146446477E+04  0.00000000000E+00 0.  1.
         21   -1    0    0  501  502  0.00000000000E+00 -0.00000000000E+00 -0.57777754258E+03  0.57777754258E+03  0.00000000000E+00 0.  1.
    9000010    2    1    2  501    0 -0.40242075183E+03  0.19351636801E+03  0.75307507015E+02  0.10942667172E+04  0.99617136156E+03 0.  0.
        -13    1    3    3    0    0 -0.70860510054E+03  0.27200333702E+03  0.13950068551E+03  0.77173017065E+03  0.10566000000E+00 0.  1.
          4    1    3    3  501    0  0.30618434872E+03 -0.78486969013E+02 -0.64193178497E+02  0.32253654656E+03  0.00000000000E+00 0.  1.
         13    1    1    2    0    0  0.40242075183E+03 -0.19351636801E+03  0.66155959810E+03  0.79815547307E+03  0.10566000000E+00 0. -1.
<mgrwt>
<rscale>  1 0.87303656E+03</rscale>
<asrwt>0</asrwt>
<pdfrwt beam="2">  1       21 0.88888853E-01 0.10916723E+04</pdfrwt>
<pdfrwt beam="1">  1        4 0.20225302E+00 0.10916723E+04</pdfrwt>
<totfact> 0.12240183E+01</totfact>
</mgrwt>
</event>
<event>
 6    1  0.5391662E-005  0.9655271E+03  0.7818608E-02  0.9169455E-01
          4   -1    0    0  502    0 -0.00000000000E+00  0.00000000000E+00  0.20759438027E+04  0.20759438027E+04  0.00000000000E+00 0.  1.
         21   -1    0    0  501  502  0.00000000000E+00 -0.00000000000E+00 -0.17497960825E+03  0.17497960825E+03  0.00000000000E+00 0.  1.
    9000010    2    1    2  501    0  0.14314998809E+02 -0.22186145553E+03  0.13773236667E+04  0.16820413159E+04  0.93958239702E+03 0.  0.
        -13    1    3    3    0    0 -0.34844271178E+03 -0.35273866376E+03  0.11013832773E+04  0.12078418866E+04  0.10566000000E+00 0.  1.
          4    1    3    3  501    0  0.36275771059E+03  0.13087720823E+03  0.27594038939E+03  0.47419942927E+03  0.00000000000E+00 0.  1.
         13    1    1    2    0    0 -0.14314998809E+02  0.22186145553E+03  0.52364052776E+03  0.56888209510E+03  0.10566000000E+00 0. -1.
<mgrwt>
<rscale>  1 0.66883555E+03</rscale>
<asrwt>0</asrwt>
<pdfrwt beam="2">  1       21 0.26919941E-01 0.96552706E+03</pdfrwt>
<pdfrwt beam="1">  1        4 0.31937595E+00 0.96552706E+03</pdfrwt>
<totfact> 0.90064063E+01</totfact>
</mgrwt>
</event>
<event>
 6    1  0.5391662E-005  0.1069862E+04  0.7818608E-02  0.8962058E-01
          4   -1    0    0  502    0 -0.00000000000E+00  0.00000000000E+00  0.24292377072E+04  0.24292377072E+04  0.00000000000E+00 0.  1.
         21   -1    0    0  501  502  0.00000000000E+00 -0.00000000000E+00 -0.22024207306E+03  0.22024207306E+03  0.00000000000E+00 0.  1.
    9000010    2    1    2  501    0 -0.27171299527E+03  0.25661165994E+03  0.14344810352E+04  0.17895086349E+04  0.10024608811E+04 0.  0.
        -13    1    3    3    0    0 -0.40782855436E+03  0.14191824546E+03  0.15284185627E+04  0.15882469052E+04  0.10566000000E+00 0.  1.
          4    1    3    3  501    0  0.13611555909E+03  0.11469341449E+03 -0.93937527440E+02  0.20126172963E+03  0.00000000000E+00 0.  1.
         13    1    1    2    0    0  0.27171299527E+03 -0.25661165994E+03  0.77451459893E+03  0.85997114541E+03  0.10566000000E+00 0. -1.
<mgrwt>
<rscale>  1 0.82250154E+03</rscale>
<asrwt>0</asrwt>
<pdfrwt beam="2">  1       21 0.33883398E-01 0.10698623E+04</pdfrwt>
<pdfrwt beam="1">  1        4 0.37372886E+00 0.10698623E+04</pdfrwt>
<totfact> 0.36982118E+01</totfact>
</mgrwt>
</event>
<event>
 6    1  0.5391662E-005  0.1027653E+04  0.7818608E-02  0.9123088E-01
         21   -1    0    0  501  502  0.00000000000E+00  0.00000000000E+00  0.71779346972E+03  0.71779346972E+03  0.00000000000E+00 0.  1.
          4   -1    0    0  502    0 -0.00000000000E+00 -0.00000000000E+00 -0.62985103063E+03  0.62985103063E+03  0.00000000000E+00 0.  1.
    9000010    2    1    2  501    0 -0.20206581765E+03  0.89841944095E+02  0.26850751810E+03  0.10621520688E+04  0.10035778795E+04 0.  0.
        -13    1    3    3    0    0 -0.54607840842E+03 -0.17719933859E+03  0.53852843079E+02  0.57662932080E+03  0.10566000000E+00 0.  1.
          4    1    3    3  501    0  0.34401259077E+03  0.26704128269E+03  0.21465467502E+03  0.48552274795E+03  0.00000000000E+00 0.  1.
         13    1    1    2    0    0  0.20206581765E+03 -0.89841944095E+02 -0.18056507901E+03  0.28549243160E+03  0.10566000000E+00 0. -1.
<mgrwt>
<rscale>  1 0.69992403E+03</rscale>
<asrwt>0</asrwt>
<pdfrwt beam="1">  1       21 0.11042976E+00 0.10276530E+04</pdfrwt>
<pdfrwt beam="2">  1        4 0.96900159E-01 0.10276530E+04</pdfrwt>
<totfact> 0.22018101E+01</totfact>
</mgrwt>
</event>
<event>
 6    1  0.5391662E-005  0.9614347E+03  0.7818608E-02  0.9391709E-01
         21   -1    0    0  501  502  0.00000000000E+00  0.00000000000E+00  0.26818978772E+03  0.26818978772E+03  0.00000000000E+00 0.  1.
          4   -1    0    0  502    0 -0.00000000000E+00 -0.00000000000E+00 -0.13085629639E+04  0.13085629639E+04  0.00000000000E+00 0.  1.
    9000010    2    1    2  501    0 -0.74711499192E+02  0.61275692462E+02 -0.61675338210E+03  0.11422527405E+04  0.95656681426E+03 0.  0.
        -13    1    3    3    0    0 -0.41805351651E+02  0.28554991002E+02  0.25969142401E+03  0.26458027478E+03  0.10566000000E+00 0.  1.
          4    1    3    3  501    0 -0.32906147541E+02  0.32720701460E+02 -0.87644480610E+03  0.87767246567E+03  0.00000000000E+00 0.  1.
         13    1    1    2    0    0  0.74711499192E+02 -0.61275692462E+02 -0.42361979413E+03  0.43450001121E+03  0.10566000000E+00 0. -1.
<mgrwt>
<rscale>  1 0.54133114E+03</rscale>
<asrwt>0</asrwt>
<pdfrwt beam="1">  1       21 0.41259968E-01 0.96143465E+03</pdfrwt>
<pdfrwt beam="2">  1        4 0.20131738E+00 0.96143465E+03</pdfrwt>
<totfact> 0.73441957E+01</totfact>
</mgrwt>
</event>
<event>
 6    1  0.5391662E-005  0.1666636E+04  0.7818608E-02  0.8366888E-01
         21   -1    0    0  501  502  0.00000000000E+00  0.00000000000E+00  0.72753575783E+03  0.72753575783E+03  0.00000000000E+00 0. -1.
          4   -1    0    0  502    0 -0.00000000000E+00 -0.00000000000E+00 -0.31038448328E+04  0.31038448328E+04  0.00000000000E+00 0.  1.
    9000010    2    1    2  501    0 -0.11570550708E+04 -0.66321993954E+03 -0.12082405130E+04  0.20585237714E+04  0.99951881182E+03 0.  0.
        -13    1    3    3    0    0 -0.19431734811E+03  0.26428590505E+03 -0.20113529366E+03  0.38478784922E+03  0.10566000000E+00 0.  1.
          4    1    3    3  501    0 -0.96273772264E+03 -0.92750584460E+03 -0.10071052194E+04  0.16737359222E+04  0.00000000000E+00 0.  1.
         13    1    1    2    0    0  0.11570550708E+04  0.66321993954E+03 -0.11680685620E+04  0.17728568193E+04  0.10566000000E+00 0. -1.
<mgrwt>
<rscale>  1 0.15763094E+04</rscale>
<asrwt>0</asrwt>
<pdfrwt beam="1">  1       21 0.11192858E+00 0.16666358E+04</pdfrwt>
<pdfrwt beam="2">  1        4 0.47751460E+00 0.16666358E+04</pdfrwt>
<totfact> 0.73646452E-01</totfact>
</mgrwt>
</event>
<event>
 6    1  0.5391662E-005  0.1019282E+04  0.7818608E-02  0.9158353E-01
         21   -1    0    0  501  502  0.00000000000E+00  0.00000000000E+00  0.86518431362E+03  0.86518431362E+03  0.00000000000E+00 0.  1.
          4   -1    0    0  502    0 -0.00000000000E+00 -0.00000000000E+00 -0.43467963742E+03  0.43467963742E+03  0.00000000000E+00 0.  1.
    9000010    2    1    2  501    0  0.30098631378E+02 -0.19503358679E+03  0.29723687026E+03  0.10617372057E+04  0.99999605465E+03 0.  0.
        -13    1    3    3    0    0 -0.35168295785E+03 -0.45032659073E+02 -0.20791314978E+03  0.41101913853E+03  0.10566000000E+00 0.  1.
          4    1    3    3  501    0  0.38178158923E+03 -0.15000092771E+03  0.50515002003E+03  0.65071806716E+03  0.00000000000E+00 0.  1.
         13    1    1    2    0    0 -0.30098631378E+02  0.19503358679E+03  0.13326780595E+03  0.23812674535E+03  0.10566000000E+00 0. -1.
<mgrwt>
<rscale>  1 0.67612345E+03</rscale>
<asrwt>0</asrwt>
<pdfrwt beam="1">  1       21 0.13310528E+00 0.10192822E+04</pdfrwt>
<pdfrwt beam="2">  1        4 0.66873790E-01 0.10192822E+04</pdfrwt>
<totfact> 0.27834303E+01</totfact>
</mgrwt>
</event>
<event>
 6    1  0.5391662E-005  0.1037712E+04  0.7818608E-02  0.9071163E-01
         21   -1    0    0  501  502  0.00000000000E+00  0.00000000000E+00  0.32782152557E+03  0.32782152557E+03  0.00000000000E+00 0.  1.
          4   -1    0    0  502    0 -0.00000000000E+00 -0.00000000000E+00 -0.15119748413E+04  0.15119748413E+04  0.00000000000E+00 0.  1.
    9000010    2    1    2  501    0 -0.21634349300E+03 -0.15097471989E+03 -0.59963778244E+03  0.11985036936E+04  0.10036173376E+04 0.  0.
        -13    1    3    3    0    0 -0.19558853867E+02 -0.48578125201E+03 -0.24915037051E+01  0.48618123403E+03  0.10566000000E+00 0.  1.
          4    1    3    3  501    0 -0.19678463914E+03  0.33480653212E+03 -0.59714627874E+03  0.71232245954E+03  0.00000000000E+00 0.  1.
         13    1    1    2    0    0  0.21634349300E+03  0.15097471989E+03 -0.58451553325E+03  0.64129267327E+03  0.10566000000E+00 0. -1.
<mgrwt>
<rscale>  1 0.73685502E+03</rscale>
<asrwt>0</asrwt>
<pdfrwt beam="1">  1       21 0.50434080E-01 0.10377117E+04</pdfrwt>
<pdfrwt beam="2">  1        4 0.23261152E+00 0.10377117E+04</pdfrwt>
<totfact> 0.39129721E+01</totfact>
</mgrwt>
</event>
<event>
 6    1  0.5391662E-005  0.1009569E+04  0.7818608E-02  0.9219943E-01
          4   -1    0    0  502    0 -0.00000000000E+00  0.00000000000E+00  0.23862287481E+04  0.23862287481E+04  0.00000000000E+00 0.  1.
         21   -1    0    0  501  502  0.00000000000E+00 -0.00000000000E+00 -0.14435430470E+03  0.14435430470E+03  0.00000000000E+00 0.  1.
    9000010    2    1    2  501    0  0.14822076585E+03  0.59965514243E+02  0.20044797653E+04  0.22443637266E+04  0.99682704092E+03 0.  0.
        -13    1    3    3    0    0 -0.39862834477E+03  0.12638125796E+03  0.11878034701E+04  0.12592671973E+04  0.10566000000E+00 0.  1.
          4    1    3    3  501    0  0.54684911062E+03 -0.66415743715E+02  0.81667629518E+03  0.98509652923E+03  0.00000000000E+00 0.  1.
         13    1    1    2    0    0 -0.14822076585E+03 -0.59965514243E+02  0.23739467815E+03  0.28621932622E+03  0.10566000000E+00 0. -1.
<mgrwt>
<rscale>  1 0.63688106E+03</rscale>
<asrwt>0</asrwt>
<pdfrwt beam="2">  1       21 0.22208356E-01 0.10095689E+04</pdfrwt>
<pdfrwt beam="1">  1        4 0.36711209E+00 0.10095689E+04</pdfrwt>
<totfact> 0.92874756E+01</totfact>
</mgrwt>
</event>
<event>
 6    1  0.5391662E-005  0.1008683E+04  0.7818608E-02  0.9172183E-01
         21   -1    0    0  501  502  0.00000000000E+00  0.00000000000E+00  0.42872871792E+03  0.42872871792E+03  0.00000000000E+00 0.  1.
          4   -1    0    0  502    0 -0.00000000000E+00 -0.00000000000E+00 -0.96686238251E+03  0.96686238251E+03  0.00000000000E+00 0.  1.
    9000010    2    1    2  501    0 -0.19291928190E+03  0.17770109829E+01 -0.23406900797E+03  0.10354850971E+04  0.99006064393E+03 0.  0.
        -13    1    3    3    0    0  0.17348245968E+03 -0.29048835403E+03 -0.41291404822E+03  0.53383299826E+03  0.10566000000E+00 0.  1.
          4    1    3    3  501    0 -0.36640174158E+03  0.29226536501E+03  0.17884504025E+03  0.50165209881E+03  0.00000000000E+00 0.  1.
         13    1    1    2    0    0  0.19291928190E+03 -0.17770109829E+01 -0.30406465661E+03  0.36010600337E+03  0.10566000000E+00 0. -1.
<mgrwt>
<rscale>  1 0.66705940E+03</rscale>
<asrwt>0</asrwt>
<pdfrwt beam="1">  1       21 0.65958264E-01 0.10086828E+04</pdfrwt>
<pdfrwt beam="2">  1        4 0.14874806E+00 0.10086828E+04</pdfrwt>
<totfact> 0.38870726E+01</totfact>
</mgrwt>
</event>
<event>
 6    1  0.5391662E-005  0.1027833E+04  0.7818608E-02  0.9102821E-01
          4   -1    0    0  502    0 -0.00000000000E+00  0.00000000000E+00  0.15674165867E+04  0.15674165867E+04  0.00000000000E+00 0.  1.
         21   -1    0    0  501  502  0.00000000000E+00 -0.00000000000E+00 -0.49390974720E+03  0.49390974720E+03  0.00000000000E+00 0.  1.
    9000010    2    1    2  501    0 -0.82485081567E+02 -0.22477581579E+03  0.70621839829E+02  0.10302558757E+04  0.99955578590E+03 0.  0.
        -13    1    3    3    0    0  0.40701145904E+03  0.11123267597E+03  0.10740641833E+03  0.43539313942E+03  0.10566000000E+00 0.  1.
          4    1    3    3  501    0 -0.48949654061E+03 -0.33600849176E+03 -0.36784578502E+02  0.59486273628E+03  0.00000000000E+00 0.  1.
         13    1    1    2    0    0  0.82485081567E+02  0.22477581579E+03  0.10028849997E+04  0.10310704582E+04  0.10566000000E+00 0. -1.
<mgrwt>
<rscale>  1 0.71406474E+03</rscale>
<asrwt>0</asrwt>
<pdfrwt beam="2">  1       21 0.75986116E-01 0.10278325E+04</pdfrwt>
<pdfrwt beam="1">  1        4 0.24114101E+00 0.10278325E+04</pdfrwt>
<totfact> 0.14497068E+01</totfact>
</mgrwt>
</event>
<event>
 6    1  0.5391662E-005  0.1010321E+04  0.7818608E-02  0.9209437E-01
         21   -1    0    0  501  502  0.00000000000E+00  0.00000000000E+00  0.50876007812E+03  0.50876007812E+03  0.00000000000E+00 0.  1.
          4   -1    0    0  502    0 -0.00000000000E+00 -0.00000000000E+00 -0.10501421916E+04  0.10501421916E+04  0.00000000000E+00 0.  1.
    9000010    2    1    2  501    0  0.65530638628E+01  0.16601071052E+03 -0.18745979219E+02  0.10104945394E+04  0.99656675833E+03 0.  0.
        -13    1    3    3    0    0 -0.20420090335E+03 -0.29795452841E+03 -0.26160285990E+03  0.44599436925E+03  0.10566000000E+00 0.  1.
          4    1    3    3  501    0  0.21075396721E+03  0.46396523893E+03  0.24285688069E+03  0.56450017018E+03  0.00000000000E+00 0.  1.
         13    1    1    2    0    0 -0.65530638628E+01 -0.16601071052E+03 -0.52263613428E+03  0.54840773032E+03  0.10566000000E+00 0. -1.
<mgrwt>
<rscale>  1 0.64337324E+03</rscale>
<asrwt>0</asrwt>
<pdfrwt beam="1">  1       21 0.78270782E-01 0.10103206E+04</pdfrwt>
<pdfrwt beam="2">  1        4 0.16156034E+00 0.10103206E+04</pdfrwt>
<totfact> 0.22949830E+01</totfact>
</mgrwt>
</event>
<event>
 6    1  0.5391662E-005  0.1051888E+04  0.7818608E-02  0.9008522E-01
         21   -1    0    0  501  502  0.00000000000E+00  0.00000000000E+00  0.16105909176E+03  0.16105909176E+03  0.00000000000E+00 0.  1.
          4   -1    0    0  502    0 -0.00000000000E+00 -0.00000000000E+00 -0.31872079811E+04  0.31872079811E+04  0.00000000000E+00 0.  1.
    9000010    2    1    2  501    0 -0.21862167319E+03  0.24131519060E+03 -0.18527740181E+04  0.21305491019E+04  0.10002197040E+04 0.  0.
        -13    1    3    3    0    0 -0.15898265046E+03 -0.32939614176E+03 -0.29322242794E+03  0.46878215065E+03  0.10566000000E+00 0.  1.
          4    1    3    3  501    0 -0.59639022729E+02  0.57071133236E+03 -0.15595515902E+04  0.16617669513E+04  0.00000000000E+00 0.  1.
         13    1    1    2    0    0  0.21862167319E+03 -0.24131519060E+03 -0.11733748712E+04  0.12177179710E+04  0.10566000000E+00 0. -1.
<mgrwt>
<rscale>  1 0.78461186E+03</rscale>
<asrwt>0</asrwt>
<pdfrwt beam="1">  1       21 0.24778320E-01 0.10518878E+04</pdfrwt>
<pdfrwt beam="2">  1        4 0.49033973E+00 0.10518878E+04</pdfrwt>
<totfact> 0.21986496E+01</totfact>
</mgrwt>
</event>
<event>
 6    1  0.5391662E-005  0.1155374E+04  0.7818608E-02  0.8800757E-01
          4   -1    0    0  502    0 -0.00000000000E+00  0.00000000000E+00  0.16248203176E+04  0.16248203176E+04  0.00000000000E+00 0.  1.
         21   -1    0    0  501  502  0.00000000000E+00 -0.00000000000E+00 -0.48250495480E+03  0.48250495480E+03  0.00000000000E+00 0.  1.
    9000010    2    1    2  501    0  0.57998402802E+03  0.16575574408E+02  0.55509077454E+03  0.12818018320E+04  0.99911658283E+03 0.  0.
        -13    1    3    3    0    0  0.85140259693E+03  0.10912446905E+03  0.33963676546E+03  0.92311845145E+03  0.10566000000E+00 0.  1.
          4    1    3    3  501    0 -0.27141856890E+03 -0.92548894641E+02  0.21545400908E+03  0.35868338054E+03  0.00000000000E+00 0.  1.
         13    1    1    2    0    0 -0.57998402802E+03 -0.16575574408E+02  0.58722458825E+03  0.82552344039E+03  0.10566000000E+00 0. -1.
<mgrwt>
<rscale>  1 0.97261376E+03</rscale>
<asrwt>0</asrwt>
<pdfrwt beam="2">  1       21 0.74231532E-01 0.11553745E+04</pdfrwt>
<pdfrwt beam="1">  1        4 0.24997235E+00 0.11553745E+04</pdfrwt>
<totfact> 0.14419547E+01</totfact>
</mgrwt>
</event>
<event>
 6    1  0.5391662E-005  0.1172846E+04  0.7818608E-02  0.8778325E-01
         21   -1    0    0  501  502  0.00000000000E+00  0.00000000000E+00  0.30409327526E+03  0.30409327526E+03  0.00000000000E+00 0. -1.
          4   -1    0    0  502    0 -0.00000000000E+00 -0.00000000000E+00 -0.28057924675E+04  0.28057924675E+04  0.00000000000E+00 0.  1.
    9000010    2    1    2  501    0  0.53307271450E+03 -0.29667166234E+03 -0.12306990032E+04  0.17000552261E+04  0.10016921388E+04 0.  0.
        -13    1    3    3    0    0  0.65441852478E+03 -0.42399309160E+02 -0.12562879828E+04  0.14171523609E+04  0.10566000000E+00 0.  1.
          4    1    3    3  501    0 -0.12134581029E+03 -0.25427235318E+03  0.25588979584E+02  0.28290286520E+03  0.00000000000E+00 0.  1.
         13    1    1    2    0    0 -0.53307271450E+03  0.29667166234E+03 -0.12710001890E+04  0.14098305167E+04  0.10566000000E+00 0. -1.
<mgrwt>
<rscale>  1 0.99603583E+03</rscale>
<asrwt>0</asrwt>
<pdfrwt beam="1">  1       21 0.46783581E-01 0.11728460E+04</pdfrwt>
<pdfrwt beam="2">  1        4 0.43166038E+00 0.11728460E+04</pdfrwt>
<totfact> 0.10722254E+01</totfact>
</mgrwt>
</event>
<event>
 6    1  0.5391662E-005  0.9981341E+03  0.7818608E-02  0.9486713E-01
         21   -1    0    0  501  502  0.00000000000E+00  0.00000000000E+00  0.95126925996E+02  0.95126925996E+02  0.00000000000E+00 0.  1.
          4   -1    0    0  502    0 -0.00000000000E+00 -0.00000000000E+00 -0.30226274865E+04  0.30226274865E+04  0.00000000000E+00 0.  1.
    9000010    2    1    2  501    0  0.60006077517E+02 -0.10273344790E+02 -0.26074418717E+04  0.27919571651E+04  0.99627577840E+03 0.  0.
        -13    1    3    3    0    0  0.33938329839E+03  0.33456625029E+03 -0.80327454394E+03  0.93400514087E+03  0.10566000000E+00 0.  1.
          4    1    3    3  501    0 -0.27937722087E+03 -0.34483959508E+03 -0.18041673277E+04  0.18579520242E+04  0.00000000000E+00 0.  1.
         13    1    1    2    0    0 -0.60006077517E+02  0.10273344790E+02 -0.32005868885E+03  0.32579724741E+03  0.10566000000E+00 0. -1.
<mgrwt>
<rscale>  1 0.49603119E+03</rscale>
<asrwt>0</asrwt>
<pdfrwt beam="1">  1       21 0.14634911E-01 0.99813411E+03</pdfrwt>
<pdfrwt beam="2">  1        4 0.46501962E+00 0.99813411E+03</pdfrwt>
<totfact> 0.80842328E+01</totfact>
</mgrwt>
</event>
<event>
 6    1  0.5391662E-005  0.1070230E+04  0.7818608E-02  0.8972122E-01
          4   -1    0    0  502    0 -0.00000000000E+00  0.00000000000E+00  0.27782048824E+04  0.27782048824E+04  0.00000000000E+00 0.  1.
         21   -1    0    0  501  502  0.00000000000E+00 -0.00000000000E+00 -0.30162844289E+03  0.30162844289E+03  0.00000000000E+00 0.  1.
    9000010    2    1    2  501    0  0.32542658735E+03 -0.15001917176E+03  0.72667470165E+03  0.12936182433E+04  0.10084561576E+04 0.  0.
        -13    1    3    3    0    0  0.49861538011E+02 -0.29889340511E+03  0.89015006076E+03  0.94031408712E+03  0.10566000000E+00 0.  1.
          4    1    3    3  501    0  0.27556504934E+03  0.14887423335E+03 -0.16347535911E+03  0.35330415623E+03  0.00000000000E+00 0.  1.
         13    1    1    2    0    0 -0.32542658735E+03  0.15001917176E+03  0.17499017379E+04  0.17862150819E+04  0.10566000000E+00 0. -1.
<mgrwt>
<rscale>  1 0.81410780E+03</rscale>
<asrwt>0</asrwt>
<pdfrwt beam="2">  1       21 0.46404378E-01 0.10702299E+04</pdfrwt>
<pdfrwt beam="1">  1        4 0.42741612E+00 0.10702299E+04</pdfrwt>
<totfact> 0.11558795E+01</totfact>
</mgrwt>
</event>
<event>
 6    1  0.5391662E-005  0.1024381E+04  0.7818608E-02  0.9126976E-01
          4   -1    0    0  502    0 -0.00000000000E+00  0.00000000000E+00  0.25126140353E+04  0.25126140353E+04  0.00000000000E+00 0.  1.
         21   -1    0    0  501  502  0.00000000000E+00 -0.00000000000E+00 -0.16853442344E+03  0.16853442344E+03  0.00000000000E+00 0.  1.
    9000010    2    1    2  501    0 -0.21986288112E+03 -0.20430306894E+01  0.15556435402E+04  0.18626282631E+04  0.10005065526E+04 0.  0.
        -13    1    3    3    0    0 -0.51318947223E+02  0.26521853621E+03  0.15209588244E+04  0.15447622027E+04  0.10566000000E+00 0.  1.
          4    1    3    3  501    0 -0.16854393389E+03 -0.26726156690E+03  0.34684715787E+02  0.31786606032E+03  0.00000000000E+00 0.  1.
         13    1    1    2    0    0  0.21986288112E+03  0.20430306894E+01  0.78843607165E+03  0.81852019567E+03  0.10566000000E+00 0. -1.
<mgrwt>
<rscale>  1 0.69725066E+03</rscale>
<asrwt>0</asrwt>
<pdfrwt beam="2">  1       21 0.25928375E-01 0.10243814E+04</pdfrwt>
<pdfrwt beam="1">  1        4 0.38655598E+00 0.10243814E+04</pdfrwt>
<totfact> 0.57612079E+01</totfact>
</mgrwt>
</event>
<event>
 6    1  0.5391662E-005  0.9931067E+03  0.7818608E-02  0.9487046E-01
          4   -1    0    0  502    0 -0.00000000000E+00  0.00000000000E+00  0.34662910759E+03  0.34662910759E+03  0.00000000000E+00 0.  1.
         21   -1    0    0  501  502  0.00000000000E+00 -0.00000000000E+00 -0.13023472361E+04  0.13023472361E+04  0.00000000000E+00 0.  1.
    9000010    2    1    2  501    0 -0.22177747295E+02  0.57612240130E+02 -0.11060426914E+04  0.14864693959E+04  0.99118606068E+03 0.  0.
        -13    1    3    3    0    0  0.17221174977E+03 -0.34257804204E+03 -0.11525445375E+03  0.40037507655E+03  0.10566000000E+00 0.  1.
          4    1    3    3  501    0 -0.19438949706E+03  0.40019028217E+03 -0.99078823770E+03  0.10860943193E+04  0.00000000000E+00 0.  1.
         13    1    1    2    0    0  0.22177747295E+02 -0.57612240130E+02  0.15032456296E+03  0.16250694779E+03  0.10566000000E+00 0. -1.
<mgrwt>
<rscale>  1 0.49588077E+03</rscale>
<asrwt>0</asrwt>
<pdfrwt beam="2">  1       21 0.20036111E+00 0.99310666E+03</pdfrwt>
<pdfrwt beam="1">  1        4 0.53327556E-01 0.99310666E+03</pdfrwt>
<totfact> 0.12047084E+01</totfact>
</mgrwt>
</event>
<event>
 6    1  0.5391662E-005  0.1066056E+04  0.7818608E-02  0.8946393E-01
          4   -1    0    0  502    0 -0.00000000000E+00  0.00000000000E+00  0.50855688327E+03  0.50855688327E+03  0.00000000000E+00 0.  1.
         21   -1    0    0  501  502  0.00000000000E+00 -0.00000000000E+00 -0.11449909569E+04  0.11449909569E+04  0.00000000000E+00 0.  1.
    9000010    2    1    2  501    0  0.95726437423E+02  0.39119831085E+03 -0.65355460568E+03  0.12504438920E+04  0.98705452499E+03 0.  0.
        -13    1    3    3    0    0 -0.34954965437E+03  0.30035990604E+03 -0.79570141589E+01  0.46093856344E+03  0.10566000000E+00 0.  1.
          4    1    3    3  501    0  0.44527609180E+03  0.90838404809E+02 -0.64559759153E+03  0.78950532861E+03  0.00000000000E+00 0.  1.
         13    1    1    2    0    0 -0.95726437423E+02 -0.39119831085E+03  0.17120532032E+02  0.40310394815E+03  0.10566000000E+00 0. -1.
<mgrwt>
<rscale>  1 0.83577888E+03</rscale>
<asrwt>0</asrwt>
<pdfrwt beam="2">  1       21 0.17615245E+00 0.10660564E+04</pdfrwt>
<pdfrwt beam="1">  1        4 0.78239521E-01 0.10660564E+04</pdfrwt>
<totfact> 0.83451528E+00</totfact>
</mgrwt>
</event>
<event>
 6    1  0.5391662E-005  0.1032074E+04  0.7818608E-02  0.9002548E-01
          4   -1    0    0  502    0 -0.00000000000E+00  0.00000000000E+00  0.67059308823E+03  0.67059308823E+03  0.00000000000E+00 0.  1.
         21   -1    0    0  501  502  0.00000000000E+00 -0.00000000000E+00 -0.82898371306E+03  0.82898371306E+03  0.00000000000E+00 0.  1.
    9000010    2    1    2  501    0 -0.33050670571E+03  0.12444991589E+03 -0.35983354687E+03  0.10930036516E+04  0.96977024949E+03 0.  0.
        -13    1    3    3    0    0 -0.60272076951E+03  0.21215422983E+03 -0.46287985823E+03  0.78901173473E+03  0.10566000000E+00 0.  1.
          4    1    3    3  501    0  0.27221406380E+03 -0.87704313938E+02  0.10304631136E+03  0.30399191683E+03  0.00000000000E+00 0.  1.
         13    1    1    2    0    0  0.33050670571E+03 -0.12444991589E+03  0.20144292203E+03  0.40657314973E+03  0.10566000000E+00 0. -1.
<mgrwt>
<rscale>  1 0.78936202E+03</rscale>
<asrwt>0</asrwt>
<pdfrwt beam="2">  1       21 0.12753596E+00 0.10320740E+04</pdfrwt>
<pdfrwt beam="1">  1        4 0.10316817E+00 0.10320740E+04</pdfrwt>
<totfact> 0.13078027E+01</totfact>
</mgrwt>
</event>
<event>
 6    1  0.5391662E-005  0.9834479E+03  0.7818608E-02  0.9245339E-01
         21   -1    0    0  501  502  0.00000000000E+00  0.00000000000E+00  0.33546968462E+03  0.33546968462E+03  0.00000000000E+00 0. -1.
          4   -1    0    0  502    0 -0.00000000000E+00 -0.00000000000E+00 -0.12361906192E+04  0.12361906192E+04  0.00000000000E+00 0.  1.
    9000010    2    1    2  501    0  0.14133723488E+03 -0.68069504016E+02 -0.98641569785E+03  0.13929055138E+04  0.97085538058E+03 0.  0.
        -13    1    3    3    0    0  0.85509012321E+02  0.42239860637E+03 -0.22684440451E+03  0.48702234946E+03  0.10566000000E+00 0.  1.
          4    1    3    3  501    0  0.55828222560E+02 -0.49046811038E+03 -0.75957129334E+03  0.90588316433E+03  0.00000000000E+00 0.  1.
         13    1    1    2    0    0 -0.14133723488E+03  0.68069504016E+02  0.85694763288E+02  0.17875479003E+03  0.10566000000E+00 0. -1.
<mgrwt>
<rscale>  1 0.62151532E+03</rscale>
<asrwt>0</asrwt>
<pdfrwt beam="1">  1       21 0.51610720E-01 0.98344794E+03</pdfrwt>
<pdfrwt beam="2">  1        4 0.19018317E+00 0.98344794E+03</pdfrwt>
<totfact> 0.48398717E+01</totfact>
</mgrwt>
</event>
<event>
 6    1  0.5391662E-005  0.1132673E+04  0.7818608E-02  0.8852164E-01
         21   -1    0    0  501  502  0.00000000000E+00  0.00000000000E+00  0.33508860821E+03  0.33508860821E+03  0.00000000000E+00 0.  1.
          4   -1    0    0  502    0 -0.00000000000E+00 -0.00000000000E+00 -0.23451310022E+04  0.23451310022E+04  0.00000000000E+00 0.  1.
    9000010    2    1    2  501    0  0.13526803637E+03  0.47720426383E+03 -0.84238574995E+03  0.14115812062E+04  0.10182958307E+04 0.  0.
        -13    1    3    3    0    0  0.27861734749E+03  0.61541360464E+03 -0.15116688736E+03  0.69225210010E+03  0.10566000000E+00 0.  1.
          4    1    3    3  501    0 -0.14334931112E+03 -0.13820934081E+03 -0.69121886259E+03  0.71932910610E+03  0.00000000000E+00 0.  1.
         13    1    1    2    0    0 -0.13526803637E+03 -0.47720426383E+03 -0.11676566440E+04  0.12686384042E+04  0.10566000000E+00 0. -1.
<mgrwt>
<rscale>  1 0.92140373E+03</rscale>
<asrwt>0</asrwt>
<pdfrwt beam="1">  1       21 0.51552095E-01 0.11326728E+04</pdfrwt>
<pdfrwt beam="2">  1        4 0.36078937E+00 0.11326728E+04</pdfrwt>
<totfact> 0.16558181E+01</totfact>
</mgrwt>
</event>
<event>
 6    1  0.5391662E-005  0.1013011E+04  0.7818608E-02  0.9192490E-01
          4   -1    0    0  502    0 -0.00000000000E+00  0.00000000000E+00  0.17537316359E+04  0.17537316359E+04  0.00000000000E+00 0.  1.
         21   -1    0    0  501  502  0.00000000000E+00 -0.00000000000E+00 -0.21200305617E+03  0.21200305617E+03  0.00000000000E+00 0.  1.
    9000010    2    1    2  501    0 -0.17152354419E+03  0.39449441246E+02  0.11278823174E+04  0.15160177537E+04  0.99760449232E+03 0.  0.
        -13    1    3    3    0    0  0.15084135644E+03  0.43317227300E+03  0.31299137820E+03  0.55529716990E+03  0.10566000000E+00 0.  1.
          4    1    3    3  501    0 -0.32236490063E+03 -0.39372283176E+03  0.81489093919E+03  0.96072058382E+03  0.00000000000E+00 0.  1.
         13    1    1    2    0    0  0.17152354419E+03 -0.39449441246E+02  0.41384626237E+03  0.44971693839E+03  0.10566000000E+00 0. -1.
<mgrwt>
<rscale>  1 0.65401820E+03</rscale>
<asrwt>0</asrwt>
<pdfrwt beam="2">  1       21 0.32615856E-01 0.10130110E+04</pdfrwt>
<pdfrwt beam="1">  1        4 0.26980486E+00 0.10130110E+04</pdfrwt>
<totfact> 0.81752378E+01</totfact>
</mgrwt>
</event>
<event>
 6    1  0.5391662E-005  0.1064424E+04  0.7818608E-02  0.8975356E-01
         21   -1    0    0  501  502  0.00000000000E+00  0.00000000000E+00  0.49071458498E+03  0.49071458498E+03  0.00000000000E+00 0.  1.
          4   -1    0    0  502    0 -0.00000000000E+00 -0.00000000000E+00 -0.11577354024E+04  0.11577354024E+04  0.00000000000E+00 0.  1.
    9000010    2    1    2  501    0 -0.24988803240E+03 -0.25841196780E+03 -0.24161506936E+03  0.10915022021E+04  0.10018874396E+04 0.  0.
        -13    1    3    3    0    0 -0.58348863310E+03 -0.19856872012E+03 -0.38147551788E+03  0.72485315994E+03  0.10566000000E+00 0.  1.
          4    1    3    3  501    0  0.33360060071E+03 -0.59843247674E+02  0.13986044852E+03  0.36664904220E+03  0.00000000000E+00 0.  1.
         13    1    1    2    0    0  0.24988803240E+03  0.25841196780E+03 -0.42540574802E+03  0.55694778521E+03  0.10566000000E+00 0. -1.
<mgrwt>
<rscale>  1 0.81143297E+03</rscale>
<asrwt>0</asrwt>
<pdfrwt beam="1">  1       21 0.75494552E-01 0.10644244E+04</pdfrwt>
<pdfrwt beam="2">  1        4 0.17811314E+00 0.10644244E+04</pdfrwt>
<totfact> 0.21781603E+01</totfact>
</mgrwt>
</event>
<event>
 6    1  0.5391662E-005  0.1020727E+04  0.7818608E-02  0.9116114E-01
         21   -1    0    0  501  502  0.00000000000E+00  0.00000000000E+00  0.36120338646E+03  0.36120338646E+03  0.00000000000E+00 0.  1.
          4   -1    0    0  502    0 -0.00000000000E+00 -0.00000000000E+00 -0.12713820969E+04  0.12713820969E+04  0.00000000000E+00 0.  1.
    9000010    2    1    2  501    0 -0.21613835220E+03 -0.84202262472E+02 -0.44647900569E+03  0.11141038196E+04  0.99402113160E+03 0.  0.
        -13    1    3    3    0    0 -0.12585955155E+03  0.44575690890E+03 -0.97982265902E+02  0.47343466724E+03  0.10566000000E+00 0.  1.
          4    1    3    3  501    0 -0.90278800650E+02 -0.52995917137E+03 -0.34849673978E+03  0.64066915238E+03  0.00000000000E+00 0.  1.
         13    1    1    2    0    0  0.21613835220E+03  0.84202262472E+02 -0.46369970475E+03  0.51848166375E+03  0.10566000000E+00 0. -1.
<mgrwt>
<rscale>  1 0.70475131E+03</rscale>
<asrwt>0</asrwt>
<pdfrwt beam="1">  1       21 0.55569751E-01 0.10207271E+04</pdfrwt>
<pdfrwt beam="2">  1        4 0.19559725E+00 0.10207271E+04</pdfrwt>
<totfact> 0.39408565E+01</totfact>
</mgrwt>
</event>
<event>
 6    1  0.5391662E-005  0.1004434E+04  0.7818608E-02  0.9458139E-01
          4   -1    0    0  502    0 -0.00000000000E+00  0.00000000000E+00  0.79666036200E+03  0.79666036200E+03  0.00000000000E+00 0.  1.
         21   -1    0    0  501  502  0.00000000000E+00 -0.00000000000E+00 -0.38666016636E+03  0.38666016636E+03  0.00000000000E+00 0.  1.
    9000010    2    1    2  501    0 -0.50357178483E+02 -0.43150598907E+02  0.28874137300E+03  0.10451122332E+04  0.10022425754E+04 0.  0.
        -13    1    3    3    0    0 -0.30953200734E+03 -0.35408392916E+03  0.40854255864E+03  0.62297072631E+03  0.10566000000E+00 0.  1.
          4    1    3    3  501    0  0.25917482885E+03  0.31093333025E+03 -0.11980118565E+03  0.42214150691E+03  0.00000000000E+00 0.  1.
         13    1    1    2    0    0  0.50357178483E+02  0.43150598907E+02  0.12125882264E+03  0.13820829513E+03  0.10566000000E+00 0. -1.
<mgrwt>
<rscale>  1 0.50915020E+03</rscale>
<asrwt>0</asrwt>
<pdfrwt beam="2">  1       21 0.59486179E-01 0.10044342E+04</pdfrwt>
<pdfrwt beam="1">  1        4 0.12256313E+00 0.10044342E+04</pdfrwt>
<totfact> 0.66772505E+01</totfact>
</mgrwt>
</event>
<event>
 6    1  0.5391662E-005  0.9952864E+03  0.7818608E-02  0.9258483E-01
         21   -1    0    0  501  502  0.00000000000E+00  0.00000000000E+00  0.97113874903E+03  0.97113874903E+03  0.00000000000E+00 0.  1.
          4   -1    0    0  502    0 -0.00000000000E+00 -0.00000000000E+00 -0.41794347440E+03  0.41794347440E+03  0.00000000000E+00 0.  1.
    9000010    2    1    2  501    0  0.12420990017E+03 -0.72682293357E+02  0.67330066228E+03  0.12016358834E+04  0.98482698960E+03 0.  0.
        -13    1    3    3    0    0 -0.19575850651E+03  0.37816836270E+03  0.18601554636E+03  0.46468752734E+03  0.10566000000E+00 0.  1.
          4    1    3    3  501    0  0.31996840668E+03 -0.45085065606E+03  0.48728511593E+03  0.73694835609E+03  0.00000000000E+00 0.  1.
         13    1    1    2    0    0 -0.12420990017E+03  0.72682293357E+02 -0.12010538766E+03  0.18744633999E+03  0.10566000000E+00 0. -1.
<mgrwt>
<rscale>  1 0.61374184E+03</rscale>
<asrwt>0</asrwt>
<pdfrwt beam="1">  1       21 0.14940596E+00 0.99528640E+03</pdfrwt>
<pdfrwt beam="2">  1        4 0.64298996E-01 0.99528640E+03</pdfrwt>
<totfact> 0.21448573E+01</totfact>
</mgrwt>
</event>
<event>
 6    1  0.5391662E-005  0.1068615E+04  0.7818608E-02  0.8971956E-01
         21   -1    0    0  501  502  0.00000000000E+00  0.00000000000E+00  0.58895794919E+03  0.58895794919E+03  0.00000000000E+00 0.  1.
          4   -1    0    0  502    0 -0.00000000000E+00 -0.00000000000E+00 -0.87182199743E+03  0.87182199743E+03  0.00000000000E+00 0.  1.
    9000010    2    1    2  501    0 -0.29429777147E+03  0.20770552108E+03 -0.16196038802E+03  0.10808188065E+04  0.10060742336E+04 0.  0.
        -13    1    3    3    0    0  0.18645360620E+03  0.44326361220E+03 -0.24394462183E+03  0.53921847784E+03  0.10566000000E+00 0.  1.
          4    1    3    3  501    0 -0.48075137767E+03 -0.23555809112E+03  0.81984233802E+02  0.54160032867E+03  0.00000000000E+00 0.  1.
         13    1    1    2    0    0  0.29429777147E+03 -0.20770552108E+03 -0.12090366021E+03  0.37996114011E+03  0.10566000000E+00 0. -1.
<mgrwt>
<rscale>  1 0.81424584E+03</rscale>
<asrwt>0</asrwt>
<pdfrwt beam="1">  1       21 0.90608916E-01 0.10686151E+04</pdfrwt>
<pdfrwt beam="2">  1        4 0.13412646E+00 0.10686151E+04</pdfrwt>
<totfact> 0.20862927E+01</totfact>
</mgrwt>
</event>
<event>
 6    1  0.5391662E-005  0.1061839E+04  0.7818608E-02  0.9011004E-01
          4   -1    0    0  502    0 -0.00000000000E+00  0.00000000000E+00  0.22547416687E+04  0.22547416687E+04  0.00000000000E+00 0.  1.
         21   -1    0    0  501  502  0.00000000000E+00 -0.00000000000E+00 -0.28743409673E+03  0.28743409673E+03  0.00000000000E+00 0.  1.
    9000010    2    1    2  501    0 -0.29415045042E+03 -0.10812915720E+03  0.78894868377E+03  0.13228537888E+04  0.10145371944E+04 0.  0.
        -13    1    3    3    0    0  0.65285231262E+02 -0.12309002594E+03  0.92708563942E+03  0.93749725860E+03  0.10566000000E+00 0.  1.
          4    1    3    3  501    0 -0.35943568168E+03  0.14960868735E+02 -0.13813695565E+03  0.38535653021E+03  0.00000000000E+00 0.  1.
         13    1    1    2    0    0  0.29415045042E+03  0.10812915720E+03  0.11783588882E+04  0.12193219766E+04  0.10566000000E+00 0. -1.
<mgrwt>
<rscale>  1 0.78264898E+03</rscale>
<asrwt>0</asrwt>
<pdfrwt beam="2">  1       21 0.44220632E-01 0.10618390E+04</pdfrwt>
<pdfrwt beam="1">  1        4 0.34688332E+00 0.10618390E+04</pdfrwt>
<totfact> 0.26180984E+01</totfact>
</mgrwt>
</event>
<event>
 6    1  0.5391662E-005  0.1086671E+04  0.7818608E-02  0.8993180E-01
         21   -1    0    0  501  502  0.00000000000E+00  0.00000000000E+00  0.23850902574E+03  0.23850902574E+03  0.00000000000E+00 0.  1.
          4   -1    0    0  502    0 -0.00000000000E+00 -0.00000000000E+00 -0.20589221888E+04  0.20589221888E+04  0.00000000000E+00 0.  1.
    9000010    2    1    2  501    0  0.25139837527E+03  0.18855955645E+03 -0.14397672528E+04  0.18038249245E+04  0.10402397640E+04 0.  0.
        -13    1    3    3    0    0  0.17888859993E+02 -0.22635809394E+02 -0.14854048967E+04  0.14856850640E+04  0.10566000000E+00 0.  1.
          4    1    3    3  501    0  0.23350951527E+03  0.21119536584E+03  0.45637643894E+02  0.31813986047E+03  0.00000000000E+00 0.  1.
         13    1    1    2    0    0 -0.25139837527E+03 -0.18855955645E+03 -0.38064591025E+03  0.49360629004E+03  0.10566000000E+00 0. -1.
<mgrwt>
<rscale>  1 0.79688211E+03</rscale>
<asrwt>0</asrwt>
<pdfrwt beam="1">  1       21 0.36693699E-01 0.10866713E+04</pdfrwt>
<pdfrwt beam="2">  1        4 0.31675724E+00 0.10866713E+04</pdfrwt>
<totfact> 0.47682897E+01</totfact>
</mgrwt>
</event>
<event>
 6    1  0.5391662E-005  0.1283798E+04  0.7818608E-02  0.8646967E-01
         21   -1    0    0  501  502  0.00000000000E+00  0.00000000000E+00  0.78708662161E+03  0.78708662161E+03  0.00000000000E+00 0.  1.
          4   -1    0    0  502    0 -0.00000000000E+00 -0.00000000000E+00 -0.29724016689E+04  0.29724016689E+04  0.00000000000E+00 0.  1.
    9000010    2    1    2  501    0  0.52107086979E+03  0.63342992603E+03  0.14222947800E+03  0.12916528319E+04  0.98761808972E+03 0.  0.
        -13    1    3    3    0    0 -0.16270334364E+03  0.57390255785E+03  0.41790864430E+02  0.59798245078E+03  0.10566000000E+00 0.  1.
          4    1    3    3  501    0  0.68377421343E+03  0.59527368187E+02  0.10043861357E+03  0.69367038109E+03  0.00000000000E+00 0.  1.
         13    1    1    2    0    0 -0.52107086979E+03 -0.63342992603E+03 -0.23275445253E+04  0.24678354587E+04  0.10566000000E+00 0. -1.
<mgrwt>
<rscale>  1 0.11477681E+04</rscale>
<asrwt>0</asrwt>
<pdfrwt beam="1">  1       21 0.12109025E+00 0.12837982E+04</pdfrwt>
<pdfrwt beam="2">  1        4 0.45729257E+00 0.12837982E+04</pdfrwt>
<totfact> 0.77975033E-01</totfact>
</mgrwt>
</event>
<event>
 6    1  0.5391662E-005  0.1140091E+04  0.7818608E-02  0.8825219E-01
          4   -1    0    0  502    0 -0.00000000000E+00  0.00000000000E+00  0.95889371386E+03  0.95889371386E+03  0.00000000000E+00 0.  1.
         21   -1    0    0  501  502  0.00000000000E+00 -0.00000000000E+00 -0.86893063446E+03  0.86893063446E+03  0.00000000000E+00 0. -1.
    9000010    2    1    2  501    0  0.58402491309E+02  0.54148465071E+03 -0.27428384114E+03  0.11726203280E+04  0.10015938949E+04 0.  0.
        -13    1    3    3    0    0  0.50778143826E+03  0.27933512347E+03  0.10266735400E+02  0.57963395110E+03  0.10566000000E+00 0.  1.
          4    1    3    3  501    0 -0.44937894695E+03  0.26214952723E+03 -0.28455057654E+03  0.59298637691E+03  0.00000000000E+00 0.  1.
         13    1    1    2    0    0 -0.58402491309E+02 -0.54148465071E+03  0.36424692053E+03  0.65520402031E+03  0.10566000000E+00 0. -1.
<mgrwt>
<rscale>  1 0.94782676E+03</rscale>
<asrwt>0</asrwt>
<pdfrwt beam="2">  1       21 0.13368164E+00 0.11400907E+04</pdfrwt>
<pdfrwt beam="1">  1        4 0.14752211E+00 0.11400907E+04</pdfrwt>
<totfact> 0.62384210E+00</totfact>
</mgrwt>
</event>
<event>
 6    1  0.5391662E-005  0.1006608E+04  0.7818608E-02  0.9270427E-01
          4   -1    0    0  502    0 -0.00000000000E+00  0.00000000000E+00  0.96143664410E+02  0.96143664410E+02  0.00000000000E+00 0.  1.
         21   -1    0    0  501  502  0.00000000000E+00 -0.00000000000E+00 -0.37277774279E+04  0.37277774279E+04  0.00000000000E+00 0.  1.
    9000010    2    1    2  501    0 -0.13218449028E+03  0.13838583664E+02 -0.34781900684E+04  0.36209205391E+04  0.99779514570E+03 0.  0.
        -13    1    3    3    0    0 -0.52264096727E+03  0.20770912496E+03 -0.21855130833E+04  0.22567153364E+04  0.10566000000E+00 0.  1.
          4    1    3    3  501    0  0.39045647699E+03 -0.19387054129E+03 -0.12926769851E+04  0.13642052027E+04  0.00000000000E+00 0.  1.
         13    1    1    2    0    0  0.13218449028E+03 -0.13838583664E+02 -0.15344369505E+03  0.20300055315E+03  0.10566000000E+00 0. -1.
<mgrwt>
<rscale>  1 0.60678126E+03</rscale>
<asrwt>0</asrwt>
<pdfrwt beam="2">  1       21 0.57350424E+00 0.10066079E+04</pdfrwt>
<pdfrwt beam="1">  1        4 0.14791333E-01 0.10066079E+04</pdfrwt>
<totfact> 0.33511487E-01</totfact>
</mgrwt>
</event>
<event>
 6    1  0.5391662E-005  0.9761098E+03  0.7818608E-02  0.9359435E-01
          4   -1    0    0  502    0 -0.00000000000E+00  0.00000000000E+00  0.11768416635E+04  0.11768416635E+04  0.00000000000E+00 0.  1.
         21   -1    0    0  501  502  0.00000000000E+00 -0.00000000000E+00 -0.29184442323E+03  0.29184442323E+03  0.00000000000E+00 0.  1.
    9000010    2    1    2  501    0 -0.13669665870E+02  0.10323701641E+03  0.55546423235E+03  0.11230898544E+04  0.97053880207E+03 0.  0.
        -13    1    3    3    0    0  0.36640998886E+03 -0.22248008038E+03  0.42975254961E+03  0.60699335348E+03  0.10566000000E+00 0.  1.
          4    1    3    3  501    0 -0.38007965473E+03  0.32571709679E+03  0.12571168273E+03  0.51609650092E+03  0.00000000000E+00 0.  1.
         13    1    1    2    0    0  0.13669665870E+02 -0.10323701641E+03  0.32953300790E+03  0.34559623231E+03  0.10566000000E+00 0. -1.
<mgrwt>
<rscale>  1 0.55786158E+03</rscale>
<asrwt>0</asrwt>
<pdfrwt beam="2">  1       21 0.44899143E-01 0.97610978E+03</pdfrwt>
<pdfrwt beam="1">  1        4 0.18105256E+00 0.97610978E+03</pdfrwt>
<totfact> 0.70264032E+01</totfact>
</mgrwt>
</event>
<event>
 6    1  0.5391662E-005  0.1080327E+04  0.7818608E-02  0.9070681E-01
         21   -1    0    0  501  502  0.00000000000E+00  0.00000000000E+00  0.22690783728E+04  0.22690783728E+04  0.00000000000E+00 0.  1.
          4   -1    0    0  502    0 -0.00000000000E+00 -0.00000000000E+00 -0.28256631292E+03  0.28256631292E+03  0.00000000000E+00 0.  1.
    9000010    2    1    2  501    0  0.37145411263E+02 -0.23129606208E+03  0.20426600324E+04  0.23107499870E+04  0.10546221336E+04 0.  0.
        -13    1    3    3    0    0 -0.22296825464E+03 -0.99865567634E+02 -0.31049668847E+01  0.24433097667E+03  0.10566000000E+00 0.  1.
          4    1    3    3  501    0  0.26011366590E+03 -0.13143049444E+03  0.20457649993E+04  0.20664190103E+04  0.00000000000E+00 0.  1.
         13    1    1    2    0    0 -0.37145411263E+02  0.23129606208E+03 -0.56147972473E+02  0.24089469875E+03  0.10566000000E+00 0. -1.
<mgrwt>
<rscale>  1 0.73720919E+03</rscale>
<asrwt>0</asrwt>
<pdfrwt beam="1">  1       21 0.34908897E+00 0.10803266E+04</pdfrwt>
<pdfrwt beam="2">  1        4 0.43471742E-01 0.10803266E+04</pdfrwt>
<totfact> 0.15402875E+00</totfact>
</mgrwt>
</event>
<event>
 6    1  0.5391662E-005  0.1133546E+04  0.7818608E-02  0.8811994E-01
         21   -1    0    0  501  502  0.00000000000E+00  0.00000000000E+00  0.39370226250E+03  0.39370226250E+03  0.00000000000E+00 0. -1.
          4   -1    0    0  502    0 -0.00000000000E+00 -0.00000000000E+00 -0.22706421864E+04  0.22706421864E+04  0.00000000000E+00 0.  1.
    9000010    2    1    2  501    0 -0.40535031892E+03  0.42302850080E+03 -0.65493403569E+03  0.13091469004E+04  0.97039426117E+03 0.  0.
        -13    1    3    3    0    0 -0.49859375220E+03  0.31932823681E+03  0.46570445452E+02  0.59391503610E+03  0.10566000000E+00 0.  1.
          4    1    3    3  501    0  0.93243433281E+02  0.10370026400E+03 -0.70150448114E+03  0.71523186427E+03  0.00000000000E+00 0.  1.
         13    1    1    2    0    0  0.40535031892E+03 -0.42302850080E+03 -0.12220058882E+04  0.13551975485E+04  0.10566000000E+00 0. -1.
<mgrwt>
<rscale>  1 0.96113112E+03</rscale>
<asrwt>0</asrwt>
<pdfrwt beam="1">  1       21 0.60569579E-01 0.11335462E+04</pdfrwt>
<pdfrwt beam="2">  1        4 0.34932957E+00 0.11335462E+04</pdfrwt>
<totfact> 0.12599680E+01</totfact>
</mgrwt>
</event>
<event>
 6    1  0.5391662E-005  0.1186508E+04  0.7818608E-02  0.8760815E-01
          4   -1    0    0  502    0 -0.00000000000E+00  0.00000000000E+00  0.79951674407E+03  0.79951674407E+03  0.00000000000E+00 0.  1.
         21   -1    0    0  501  502  0.00000000000E+00 -0.00000000000E+00 -0.12048938391E+04  0.12048938391E+04  0.00000000000E+00 0. -1.
    9000010    2    1    2  501    0  0.59638848388E+03  0.21773026628E+03 -0.61420649332E+03  0.13360578160E+04  0.10023548168E+04 0.  0.
        -13    1    3    3    0    0  0.40110320297E+03  0.35661076340E+03 -0.84650571945E+03  0.10023108102E+04  0.10566000000E+00 0.  1.
          4    1    3    3  501    0  0.19528528091E+03 -0.13888049712E+03  0.23229922614E+03  0.33374700580E+03  0.00000000000E+00 0.  1.
         13    1    1    2    0    0 -0.59638848388E+03 -0.21773026628E+03  0.20882939833E+03  0.66835276713E+03  0.10566000000E+00 0. -1.
<mgrwt>
<rscale>  1 0.10147934E+04</rscale>
<asrwt>0</asrwt>
<pdfrwt beam="2">  1       21 0.18536828E+00 0.11865078E+04</pdfrwt>
<pdfrwt beam="1">  1        4 0.12300258E+00 0.11865078E+04</pdfrwt>
<totfact> 0.29317186E+00</totfact>
</mgrwt>
</event>
<event>
 6    1  0.5391662E-005  0.9968326E+03  0.7818608E-02  0.9369577E-01
          4   -1    0    0  502    0 -0.00000000000E+00  0.00000000000E+00  0.78147282173E+03  0.78147282173E+03  0.00000000000E+00 0.  1.
         21   -1    0    0  501  502  0.00000000000E+00 -0.00000000000E+00 -0.40138815660E+03  0.40138815660E+03  0.00000000000E+00 0.  1.
    9000010    2    1    2  501    0 -0.84189596831E+01  0.93764413803E+02  0.25982948375E+03  0.10301391266E+04  0.99237725456E+03 0.  0.
        -13    1    3    3    0    0  0.38594072761E+03  0.16848686252E+03  0.42298391126E+03  0.59686972483E+03  0.10566000000E+00 0.  1.
          4    1    3    3  501    0 -0.39435968729E+03 -0.74722448715E+02 -0.16315442751E+03  0.43326940178E+03  0.00000000000E+00 0.  1.
         13    1    1    2    0    0  0.84189596831E+01 -0.93764413803E+02  0.12025518139E+03  0.15272185172E+03  0.10566000000E+00 0. -1.
<mgrwt>
<rscale>  1 0.55260163E+03</rscale>
<asrwt>0</asrwt>
<pdfrwt beam="2">  1       21 0.61752024E-01 0.99683261E+03</pdfrwt>
<pdfrwt beam="1">  1        4 0.12022659E+00 0.99683261E+03</pdfrwt>
<totfact> 0.63307345E+01</totfact>
</mgrwt>
</event>
<event>
 6    1  0.5391662E-005  0.9812095E+03  0.7818608E-02  0.9509563E-01
         21   -1    0    0  501  502  0.00000000000E+00  0.00000000000E+00  0.56722786740E+03  0.56722786740E+03  0.00000000000E+00 0.  1.
          4   -1    0    0  502    0 -0.00000000000E+00 -0.00000000000E+00 -0.63282353784E+03  0.63282353784E+03  0.00000000000E+00 0.  1.
    9000010    2    1    2  501    0 -0.57202067568E+02  0.14359611803E+02  0.13546761213E+03  0.99051685023E+03  0.97943549132E+03 0.  0.
        -13    1    3    3    0    0  0.35575086294E+03 -0.24500215357E+03 -0.10831825507E+03  0.44532862841E+03  0.10566000000E+00 0.  1.
          4    1    3    3  501    0 -0.41295293051E+03  0.25936176537E+03  0.24378586720E+03  0.54518822181E+03  0.00000000000E+00 0.  1.
         13    1    1    2    0    0  0.57202067568E+02 -0.14359611803E+02 -0.20106328257E+03  0.20953455502E+03  0.10566000000E+00 0. -1.
<mgrwt>
<rscale>  1 0.48583856E+03</rscale>
<asrwt>0</asrwt>
<pdfrwt beam="1">  1       21 0.87265826E-01 0.98120954E+03</pdfrwt>
<pdfrwt beam="2">  1        4 0.97357468E-01 0.98120954E+03</pdfrwt>
<totfact> 0.40449180E+01</totfact>
</mgrwt>
</event>
<event>
 6    1  0.5391662E-005  0.1014672E+04  0.7818608E-02  0.9164344E-01
          4   -1    0    0  502    0 -0.00000000000E+00  0.00000000000E+00  0.88340916671E+03  0.88340916671E+03  0.00000000000E+00 0.  1.
         21   -1    0    0  501  502  0.00000000000E+00 -0.00000000000E+00 -0.44660370528E+03  0.44660370528E+03  0.00000000000E+00 0.  1.
    9000010    2    1    2  501    0 -0.57345693932E+02  0.18681265596E+03  0.22021177978E+03  0.10382932615E+04  0.99567674068E+03 0.  0.
        -13    1    3    3    0    0 -0.36300658827E+02 -0.27467979520E+03 -0.25427205241E+03  0.37605985630E+03  0.10566000000E+00 0.  1.
          4    1    3    3  501    0 -0.21045035106E+02  0.46149245116E+03  0.47448383219E+03  0.66223340522E+03  0.00000000000E+00 0.  1.
         13    1    1    2    0    0  0.57345693932E+02 -0.18681265596E+03  0.21659368165E+03  0.29171961047E+03  0.10566000000E+00 0. -1.
<mgrwt>
<rscale>  1 0.67217830E+03</rscale>
<asrwt>0</asrwt>
<pdfrwt beam="2">  1       21 0.68708262E-01 0.10146722E+04</pdfrwt>
<pdfrwt beam="1">  1        4 0.13590910E+00 0.10146722E+04</pdfrwt>
<totfact> 0.40422414E+01</totfact>
</mgrwt>
</event>
<event>
 6    1  0.5391662E-005  0.1047472E+04  0.7818608E-02  0.9002314E-01
          4   -1    0    0  502    0 -0.00000000000E+00  0.00000000000E+00  0.37675215631E+03  0.37675215631E+03  0.00000000000E+00 0.  1.
         21   -1    0    0  501  502  0.00000000000E+00 -0.00000000000E+00 -0.16881101384E+04  0.16881101384E+04  0.00000000000E+00 0.  1.
    9000010    2    1    2  501    0 -0.19794585184E+03  0.27413895494E+03 -0.13670058718E+04  0.17221796053E+04  0.99139437782E+03 0.  0.
        -13    1    3    3    0    0 -0.13640246560E+03 -0.20269909637E+03 -0.11820541132E+04  0.12070395577E+04  0.10566000000E+00 0.  1.
          4    1    3    3  501    0 -0.61543386238E+02  0.47683805131E+03 -0.18495175865E+03  0.51514004755E+03  0.00000000000E+00 0.  1.
         13    1    1    2    0    0  0.19794585184E+03 -0.27413895494E+03  0.55647889690E+02  0.34268268948E+03  0.10566000000E+00 0. -1.
<mgrwt>
<rscale>  1 0.78954899E+03</rscale>
<asrwt>0</asrwt>
<pdfrwt beam="2">  1       21 0.25970925E+00 0.10474720E+04</pdfrwt>
<pdfrwt beam="1">  1        4 0.57961870E-01 0.10474720E+04</pdfrwt>
<totfact> 0.36258969E+00</totfact>
</mgrwt>
</event>
<event>
 6    1  0.5391662E-005  0.1068417E+04  0.7818608E-02  0.9030800E-01
         21   -1    0    0  501  502  0.00000000000E+00  0.00000000000E+00  0.26443339971E+03  0.26443339971E+03  0.00000000000E+00 0.  1.
          4   -1    0    0  502    0 -0.00000000000E+00 -0.00000000000E+00 -0.20125048364E+04  0.20125048364E+04  0.00000000000E+00 0.  1.
    9000010    2    1    2  501    0 -0.28406698390E+03  0.14052972992E+01 -0.94954293990E+03  0.14293865872E+04  0.10299602880E+04 0.  0.
        -13    1    3    3    0    0 -0.52487709334E+03 -0.35197022037E+03 -0.47483829073E+03  0.79047480203E+03  0.10566000000E+00 0.  1.
          4    1    3    3  501    0  0.24081010944E+03  0.35337551766E+03 -0.47470464917E+03  0.63891178518E+03  0.00000000000E+00 0.  1.
         13    1    1    2    0    0  0.28406698390E+03 -0.14052972992E+01 -0.79852849677E+03  0.84755164888E+03  0.10566000000E+00 0. -1.
<mgrwt>
<rscale>  1 0.76720606E+03</rscale>
<asrwt>0</asrwt>
<pdfrwt beam="1">  1       21 0.40682061E-01 0.10684167E+04</pdfrwt>
<pdfrwt beam="2">  1        4 0.30961613E+00 0.10684167E+04</pdfrwt>
<totfact> 0.40130188E+01</totfact>
</mgrwt>
</event>
<event>
 6    1  0.5391662E-005  0.1215926E+04  0.7818608E-02  0.8729791E-01
         21   -1    0    0  501  502  0.00000000000E+00  0.00000000000E+00  0.27706323785E+03  0.27706323785E+03  0.00000000000E+00 0. -1.
          4   -1    0    0  502    0 -0.00000000000E+00 -0.00000000000E+00 -0.36261768979E+04  0.36261768979E+04  0.00000000000E+00 0.  1.
    9000010    2    1    2  501    0 -0.51500311641E+03  0.43446144629E+03 -0.27285860902E+04  0.29872491782E+04  0.10121712517E+04 0.  0.
        -13    1    3    3    0    0 -0.49727036523E+03  0.69542775325E+03 -0.14592632166E+04  0.16912559601E+04  0.10566000000E+00 0.  1.
          4    1    3    3  501    0 -0.17732751176E+02 -0.26096630696E+03 -0.12693228736E+04  0.12959932181E+04  0.00000000000E+00 0.  1.
         13    1    1    2    0    0  0.51500311641E+03 -0.43446144629E+03 -0.62052756981E+03  0.91599095753E+03  0.10566000000E+00 0. -1.
<mgrwt>
<rscale>  1 0.10490847E+04</rscale>
<asrwt>0</asrwt>
<pdfrwt beam="1">  1       21 0.42625117E-01 0.12159258E+04</pdfrwt>
<pdfrwt beam="2">  1        4 0.55787333E+00 0.12159258E+04</pdfrwt>
<totfact> 0.32812613E+00</totfact>
</mgrwt>
</event>
<event>
 6    1  0.5391662E-005  0.1012022E+04  0.7818608E-02  0.9241943E-01
          4   -1    0    0  502    0 -0.00000000000E+00  0.00000000000E+00  0.21340785645E+04  0.21340785645E+04  0.00000000000E+00 0.  1.
         21   -1    0    0  501  502  0.00000000000E+00 -0.00000000000E+00 -0.20158577246E+03  0.20158577246E+03  0.00000000000E+00 0.  1.
    9000010    2    1    2  501    0 -0.14319804241E+03 -0.27668552723E+02  0.11171752436E+04  0.15074047496E+04  0.10014576007E+04 0.  0.
        -13    1    3    3    0    0 -0.32727688521E+03  0.67954390858E+02 -0.35569985868E+02  0.33614460265E+03  0.10566000000E+00 0.  1.
          4    1    3    3  501    0  0.18407884280E+03 -0.95622943581E+02  0.11527452295E+04  0.11712601469E+04  0.00000000000E+00 0.  1.
         13    1    1    2    0    0  0.14319804241E+03  0.27668552723E+02  0.81531754844E+03  0.82825958739E+03  0.10566000000E+00 0. -1.
<mgrwt>
<rscale>  1 0.62354323E+03</rscale>
<asrwt>0</asrwt>
<pdfrwt beam="2">  1       21 0.31013197E-01 0.10120220E+04</pdfrwt>
<pdfrwt beam="1">  1        4 0.32831976E+00 0.10120220E+04</pdfrwt>
<totfact> 0.63309753E+01</totfact>
</mgrwt>
</event>
<event>
 6    1  0.5391662E-005  0.1188394E+04  0.7818608E-02  0.8756234E-01
         21   -1    0    0  501  502  0.00000000000E+00  0.00000000000E+00  0.44993249785E+03  0.44993249785E+03  0.00000000000E+00 0. -1.
          4   -1    0    0  502    0 -0.00000000000E+00 -0.00000000000E+00 -0.21497136561E+04  0.21497136561E+04  0.00000000000E+00 0.  1.
    9000010    2    1    2  501    0  0.53654692512E+03 -0.35681982779E+03 -0.61544345605E+03  0.13383011354E+04  0.99853707439E+03 0.  0.
        -13    1    3    3    0    0  0.81610611070E+03 -0.17619348221E+03 -0.32289944715E+03  0.89517450322E+03  0.10566000000E+00 0.  1.
          4    1    3    3  501    0 -0.27955918558E+03 -0.18062634558E+03 -0.29254400890E+03  0.44312663213E+03  0.00000000000E+00 0.  1.
         13    1    1    2    0    0 -0.53654692512E+03  0.35681982779E+03 -0.10843377022E+04  0.12613450186E+04  0.10566000000E+00 0. -1.
<mgrwt>
<rscale>  1 0.10197713E+04</rscale>
<asrwt>0</asrwt>
<pdfrwt beam="1">  1       21 0.69220384E-01 0.11883936E+04</pdfrwt>
<pdfrwt beam="2">  1        4 0.33072518E+00 0.11883936E+04</pdfrwt>
<totfact> 0.10437027E+01</totfact>
</mgrwt>
</event>
<event>
 6    1  0.5391662E-005  0.1089727E+04  0.7818608E-02  0.8913362E-01
          4   -1    0    0  502    0 -0.00000000000E+00  0.00000000000E+00  0.24921279470E+04  0.24921279470E+04  0.00000000000E+00 0.  1.
         21   -1    0    0  501  502  0.00000000000E+00 -0.00000000000E+00 -0.23448825965E+03  0.23448825965E+03  0.00000000000E+00 0. -1.
    9000010    2    1    2  501    0 -0.41180626105E+03 -0.13024502586E+03  0.14925018917E+04  0.18479899943E+04  0.10004783651E+04 0.  0.
        -13    1    3    3    0    0 -0.24294550275E+03 -0.38708710633E+03  0.16581770086E+03  0.48616300381E+03  0.10566000000E+00 0.  1.
          4    1    3    3  501    0 -0.16886075830E+03  0.25684208047E+03  0.13266841908E+04  0.13618269905E+04  0.00000000000E+00 0.  1.
         13    1    1    2    0    0  0.41180626105E+03  0.13024502586E+03  0.76513779568E+03  0.87862621230E+03  0.10566000000E+00 0. -1.
<mgrwt>
<rscale>  1 0.86464371E+03</rscale>
<asrwt>0</asrwt>
<pdfrwt beam="2">  1       21 0.36075119E-01 0.10897271E+04</pdfrwt>
<pdfrwt beam="1">  1        4 0.38340428E+00 0.10897271E+04</pdfrwt>
<totfact> 0.29756074E+01</totfact>
</mgrwt>
</event>
<event>
 6    1  0.5391662E-005  0.1000336E+04  0.7818608E-02  0.9542229E-01
          4   -1    0    0  502    0 -0.00000000000E+00  0.00000000000E+00  0.38737321109E+04  0.38737321109E+04  0.00000000000E+00 0.  1.
         21   -1    0    0  501  502  0.00000000000E+00 -0.00000000000E+00 -0.90379270368E+02  0.90379270368E+02  0.00000000000E+00 0. -1.
    9000010    2    1    2  501    0  0.15226478763E+02  0.47059209126E+02  0.37846633686E+04  0.39146326640E+04  0.99911243899E+03 0.  0.
        -13    1    3    3    0    0 -0.31921163423E+03 -0.55519536554E+02  0.33056155912E+04  0.33214564478E+04  0.10566000000E+00 0.  1.
          4    1    3    3  501    0  0.33443811300E+03  0.10257874568E+03  0.47904777731E+03  0.59317621617E+03  0.00000000000E+00 0.  1.
         13    1    1    2    0    0 -0.15226478763E+02 -0.47059209126E+02 -0.13105280079E+01  0.49478717311E+02  0.10566000000E+00 0. -1.
<mgrwt>
<rscale>  1 0.47171098E+03</rscale>
<asrwt>0</asrwt>
<pdfrwt beam="2">  1       21 0.13904506E-01 0.10003360E+04</pdfrwt>
<pdfrwt beam="1">  1        4 0.59595866E+00 0.10003360E+04</pdfrwt>
<totfact> 0.20028374E+01</totfact>
</mgrwt>
</event>
<event>
 6    1  0.5391662E-005  0.8883301E+03  0.7818608E-02  0.9125366E-01
          4   -1    0    0  502    0 -0.00000000000E+00  0.00000000000E+00  0.19742410908E+04  0.19742410908E+04  0.00000000000E+00 0.  1.
         21   -1    0    0  501  502  0.00000000000E+00 -0.00000000000E+00 -0.22619737405E+03  0.22619737405E+03  0.00000000000E+00 0.  1.
    9000010    2    1    2  501    0 -0.33911217812E+03 -0.11308133341E+02  0.80723742500E+03  0.12003177557E+04  0.82097838643E+03 0.  0.
        -13    1    3    3    0    0  0.10969893558E+03  0.30552681388E+03  0.19928065126E+03  0.38091111771E+03  0.10566000000E+00 0.  1.
          4    1    3    3  501    0 -0.44881111370E+03 -0.31683494722E+03  0.60795677374E+03  0.81940663794E+03  0.00000000000E+00 0.  1.
         13    1    1    2    0    0  0.33911217812E+03  0.11308133341E+02  0.94080629174E+03  0.10001207092E+04  0.10566000000E+00 0. -1.
<mgrwt>
<rscale>  1 0.69835619E+03</rscale>
<asrwt>0</asrwt>
<pdfrwt beam="2">  1       21 0.34799597E-01 0.88833015E+03</pdfrwt>
<pdfrwt beam="1">  1        4 0.30372939E+00 0.88833015E+03</pdfrwt>
<totfact> 0.59136402E+01</totfact>
</mgrwt>
</event>
<event>
 6    1  0.5391662E-005  0.1015422E+04  0.7818608E-02  0.9205561E-01
          4   -1    0    0  502    0 -0.00000000000E+00  0.00000000000E+00  0.29550695779E+04  0.29550695779E+04  0.00000000000E+00 0.  1.
         21   -1    0    0  501  502  0.00000000000E+00 -0.00000000000E+00 -0.12520169812E+03  0.12520169812E+03  0.00000000000E+00 0. -1.
    9000010    2    1    2  501    0  0.16604909280E+03  0.48715437799E+01  0.26368660241E+04  0.28256229683E+04  0.10017418314E+04 0.  0.
        -13    1    3    3    0    0 -0.24616046290E+03 -0.15589386244E+03  0.21423183789E+04  0.21620420712E+04  0.10566000000E+00 0.  1.
          4    1    3    3  501    0  0.41220955570E+03  0.16076540622E+03  0.49454764517E+03  0.66358089710E+03  0.00000000000E+00 0.  1.
         13    1    1    2    0    0 -0.16604909280E+03 -0.48715437799E+01  0.19300185566E+03  0.25464830769E+03  0.10566000000E+00 0. -1.
<mgrwt>
<rscale>  1 0.64578949E+03</rscale>
<asrwt>0</asrwt>
<pdfrwt beam="2">  1       21 0.19261802E-01 0.10154224E+04</pdfrwt>
<pdfrwt beam="1">  1        4 0.45462604E+00 0.10154224E+04</pdfrwt>
<totfact> 0.53486267E+01</totfact>
</mgrwt>
</event>
<event>
 6    1  0.5391662E-005  0.1216159E+04  0.7818608E-02  0.8721031E-01
          4   -1    0    0  502    0 -0.00000000000E+00  0.00000000000E+00  0.15510182118E+04  0.15510182118E+04  0.00000000000E+00 0.  1.
         21   -1    0    0  501  502  0.00000000000E+00 -0.00000000000E+00 -0.62423795094E+03  0.62423795094E+03  0.00000000000E+00 0.  1.
    9000010    2    1    2  501    0  0.87031629503E+02  0.69383167653E+03  0.34102250704E+03  0.12630670063E+04  0.99502010637E+03 0.  0.
        -13    1    3    3    0    0  0.17977816948E+03  0.81084101571E+02  0.56940934804E+03  0.60259591647E+03  0.10566000000E+00 0.  1.
          4    1    3    3  501    0 -0.92746539977E+02  0.61274757496E+03 -0.22838684099E+03  0.66047108978E+03  0.00000000000E+00 0.  1.
         13    1    1    2    0    0 -0.87031629503E+02 -0.69383167653E+03  0.58575775380E+03  0.91218915648E+03  0.10566000000E+00 0. -1.
<mgrwt>
<rscale>  1 0.10590189E+04</rscale>
<asrwt>0</asrwt>
<pdfrwt beam="2">  1       21 0.96036608E-01 0.12161587E+04</pdfrwt>
<pdfrwt beam="1">  1        4 0.23861818E+00 0.12161587E+04</pdfrwt>
<totfact> 0.80042397E+00</totfact>
</mgrwt>
</event>
<event>
 6    1  0.5391662E-005  0.1006876E+04  0.7818608E-02  0.9521163E-01
         21   -1    0    0  501  502  0.00000000000E+00  0.00000000000E+00  0.34132161638E+03  0.34132161638E+03  0.00000000000E+00 0.  1.
          4   -1    0    0  502    0 -0.00000000000E+00 -0.00000000000E+00 -0.82308506332E+03  0.82308506332E+03  0.00000000000E+00 0.  1.
    9000010    2    1    2  501    0  0.52255680850E+02 -0.28819197568E+01 -0.46779427810E+03  0.11102392496E+04  0.10055151630E+04 0.  0.
        -13    1    3    3    0    0 -0.22175402148E+03 -0.35067254914E+03  0.62302787513E+02  0.41955658886E+03  0.10566000000E+00 0.  1.
          4    1    3    3  501    0  0.27400970233E+03  0.34779062938E+03 -0.53009706561E+03  0.69068266073E+03  0.00000000000E+00 0.  1.
         13    1    1    2    0    0 -0.52255680850E+02  0.28819197568E+01 -0.13969168840E+02  0.54167430110E+02  0.10566000000E+00 0. -1.
<mgrwt>
<rscale>  1 0.48076249E+03</rscale>
<asrwt>0</asrwt>
<pdfrwt beam="1">  1       21 0.52511018E-01 0.10068762E+04</pdfrwt>
<pdfrwt beam="2">  1        4 0.12662847E+00 0.10068762E+04</pdfrwt>
<totfact> 0.83914971E+01</totfact>
</mgrwt>
</event>
<event>
 6    1  0.5391662E-005  0.1008680E+04  0.7818608E-02  0.9144978E-01
         21   -1    0    0  501  502  0.00000000000E+00  0.00000000000E+00  0.15464538070E+03  0.15464538070E+03  0.00000000000E+00 0.  1.
          4   -1    0    0  502    0 -0.00000000000E+00 -0.00000000000E+00 -0.25110696901E+04  0.25110696901E+04  0.00000000000E+00 0.  1.
    9000010    2    1    2  501    0  0.97345853884E+02 -0.19122543451E+03 -0.17183475530E+04  0.19925246518E+04  0.98559261000E+03 0.  0.
        -13    1    3    3    0    0  0.47510349589E+03  0.48529152497E+02 -0.48558825362E+03  0.68108323549E+03  0.10566000000E+00 0.  1.
          4    1    3    3  501    0 -0.37775764200E+03 -0.23975458701E+03 -0.12327592994E+04  0.13114414163E+04  0.00000000000E+00 0.  1.
         13    1    1    2    0    0 -0.97345853884E+02  0.19122543451E+03 -0.63807675640E+03  0.67319041905E+03  0.10566000000E+00 0. -1.
<mgrwt>
<rscale>  1 0.68503239E+03</rscale>
<asrwt>0</asrwt>
<pdfrwt beam="1">  1       21 0.23791598E-01 0.10086804E+04</pdfrwt>
<pdfrwt beam="2">  1        4 0.38631841E+00 0.10086804E+04</pdfrwt>
<totfact> 0.68733589E+01</totfact>
</mgrwt>
</event>
<event>
 6    1  0.5391662E-005  0.1057395E+04  0.7818608E-02  0.8957760E-01
         21   -1    0    0  501  502  0.00000000000E+00  0.00000000000E+00  0.26379307682E+03  0.26379307682E+03  0.00000000000E+00 0.  1.
          4   -1    0    0  502    0 -0.00000000000E+00 -0.00000000000E+00 -0.32125438551E+04  0.32125438551E+04  0.00000000000E+00 0.  1.
    9000010    2    1    2  501    0 -0.29712273501E+03  0.25870195225E+03 -0.89553087744E+03  0.13856622580E+04  0.98126231003E+03 0.  0.
        -13    1    3    3    0    0  0.89724494623E+02  0.37344222754E+03 -0.90385565891E+03  0.98207160918E+03  0.10566000000E+00 0.  1.
          4    1    3    3  501    0 -0.38684722963E+03 -0.11474027529E+03  0.83247814640E+01  0.40359064884E+03  0.00000000000E+00 0.  1.
         13    1    1    2    0    0  0.29712273501E+03 -0.25870195225E+03 -0.20532199008E+04  0.20906746739E+04  0.10566000000E+00 0. -1.
<mgrwt>
<rscale>  1 0.82611869E+03</rscale>
<asrwt>0</asrwt>
<pdfrwt beam="1">  1       21 0.40583552E-01 0.10573951E+04</pdfrwt>
<pdfrwt beam="2">  1        4 0.49423749E+00 0.10573951E+04</pdfrwt>
<totfact> 0.75870333E+00</totfact>
</mgrwt>
</event>
<event>
 6    1  0.5391662E-005  0.1067986E+04  0.7818608E-02  0.9130733E-01
         21   -1    0    0  501  502  0.00000000000E+00  0.00000000000E+00  0.10985048562E+03  0.10985048562E+03  0.00000000000E+00 0.  1.
          4   -1    0    0  502    0 -0.00000000000E+00 -0.00000000000E+00 -0.36595576297E+04  0.36595576297E+04  0.00000000000E+00 0.  1.
    9000010    2    1    2  501    0 -0.13265437040E+03  0.13766663865E+03 -0.31545833464E+04  0.33304637999E+04  0.10507348608E+04 0.  0.
        -13    1    3    3    0    0 -0.11567051271E+02  0.14537916630E+03 -0.31982046094E+04  0.32015280154E+04  0.10566000000E+00 0.  1.
          4    1    3    3  501    0 -0.12108731913E+03 -0.77125276496E+01  0.43621263005E+02  0.12893578449E+03  0.00000000000E+00 0.  1.
         13    1    1    2    0    0  0.13265437040E+03 -0.13766663865E+03 -0.39512379763E+03  0.43894431538E+03  0.10566000000E+00 0. -1.
<mgrwt>
<rscale>  1 0.69467865E+03</rscale>
<asrwt>0</asrwt>
<pdfrwt beam="1">  1       21 0.16900076E-01 0.10679855E+04</pdfrwt>
<pdfrwt beam="2">  1        4 0.56300883E+00 0.10679855E+04</pdfrwt>
<totfact> 0.20569126E+01</totfact>
</mgrwt>
</event>
<event>
 6    1  0.5391662E-005  0.1168247E+04  0.7818608E-02  0.8784424E-01
          4   -1    0    0  502    0 -0.00000000000E+00  0.00000000000E+00  0.36401122436E+04  0.36401122436E+04  0.00000000000E+00 0.  1.
         21   -1    0    0  501  502  0.00000000000E+00 -0.00000000000E+00 -0.26311304137E+03  0.26311304137E+03  0.00000000000E+00 0.  1.
    9000010    2    1    2  501    0 -0.36445041982E+03  0.47851719079E+03  0.13326225156E+04  0.17721976318E+04  0.10014983109E+04 0.  0.
        -13    1    3    3    0    0  0.15716874246E+03 -0.17647072506E+03  0.51728884099E+02  0.24190869977E+03  0.10566000000E+00 0.  1.
          4    1    3    3  501    0 -0.52161916228E+03  0.65498791585E+03  0.12808936315E+04  0.15302889320E+04  0.00000000000E+00 0.  1.
         13    1    1    2    0    0  0.36445041982E+03 -0.47851719079E+03  0.20443766866E+04  0.21310276531E+04  0.10566000000E+00 0. -1.
<mgrwt>
<rscale>  1 0.98960088E+03</rscale>
<asrwt>0</asrwt>
<pdfrwt beam="2">  1       21 0.40478932E-01 0.11682473E+04</pdfrwt>
<pdfrwt beam="1">  1        4 0.56001723E+00 0.11682473E+04</pdfrwt>
<totfact> 0.35950084E+00</totfact>
</mgrwt>
</event>
<event>
 6    1  0.5391662E-005  0.1071584E+04  0.7818608E-02  0.9117064E-01
          4   -1    0    0  502    0 -0.00000000000E+00  0.00000000000E+00  0.11596349363E+04  0.11596349363E+04  0.00000000000E+00 0.  1.
         21   -1    0    0  501  502  0.00000000000E+00 -0.00000000000E+00 -0.35724388806E+03  0.35724388806E+03  0.00000000000E+00 0.  1.
    9000010    2    1    2  501    0 -0.18506340287E+03  0.75116808784E+02  0.75716682077E+03  0.13120954267E+04  0.10528066377E+04 0.  0.
        -13    1    3    3    0    0 -0.54845611448E+03 -0.28625152869E+02  0.10618871253E+03  0.55937425998E+03  0.10566000000E+00 0.  1.
          4    1    3    3  501    0  0.36339271162E+03  0.10374196165E+03  0.65097810825E+03  0.75272116676E+03  0.00000000000E+00 0.  1.
         13    1    1    2    0    0  0.18506340287E+03 -0.75116808784E+02  0.45224227500E+02  0.20478339767E+03  0.10566000000E+00 0. -1.
<mgrwt>
<rscale>  1 0.70409162E+03</rscale>
<asrwt>0</asrwt>
<pdfrwt beam="2">  1       21 0.54960599E-01 0.10715843E+04</pdfrwt>
<pdfrwt beam="1">  1        4 0.17840537E+00 0.10715843E+04</pdfrwt>
<totfact> 0.45531942E+01</totfact>
</mgrwt>
</event>
<event>
 6    1  0.5391662E-005  0.8883379E+03  0.7818608E-02  0.9180274E-01
          4   -1    0    0  502    0 -0.00000000000E+00  0.00000000000E+00  0.17163678222E+04  0.17163678222E+04  0.00000000000E+00 0.  1.
         21   -1    0    0  501  502  0.00000000000E+00 -0.00000000000E+00 -0.22647622622E+03  0.22647622622E+03  0.00000000000E+00 0.  1.
    9000010    2    1    2  501    0 -0.17518578226E+03 -0.21026025231E+03  0.78055914210E+03  0.11825467557E+04  0.84513006284E+03 0.  0.
        -13    1    3    3    0    0 -0.18734834763E+03  0.17963027532E+03  0.74725467680E+03  0.79104740840E+03  0.10566000000E+00 0.  1.
          4    1    3    3  501    0  0.12162565367E+02 -0.38989052763E+03  0.33304465299E+02  0.39149934730E+03  0.00000000000E+00 0.  1.
         13    1    1    2    0    0  0.17518578226E+03  0.21026025231E+03  0.70933245385E+03  0.76029729268E+03  0.10566000000E+00 0. -1.
<mgrwt>
<rscale>  1 0.66182546E+03</rscale>
<asrwt>0</asrwt>
<pdfrwt beam="2">  1       21 0.34842497E-01 0.88833792E+03</pdfrwt>
<pdfrwt beam="1">  1        4 0.26405658E+00 0.88833792E+03</pdfrwt>
<totfact> 0.74276269E+01</totfact>
</mgrwt>
</event>
<event>
 6    1  0.5391662E-005  0.1039071E+04  0.7818608E-02  0.9109893E-01
          4   -1    0    0  502    0 -0.00000000000E+00  0.00000000000E+00  0.32215003607E+04  0.32215003607E+04  0.00000000000E+00 0.  1.
         21   -1    0    0  501  502  0.00000000000E+00 -0.00000000000E+00 -0.14448277602E+03  0.14448277602E+03  0.00000000000E+00 0.  1.
    9000010    2    1    2  501    0  0.22431729038E+03  0.21634593271E+02  0.18809450766E+04  0.21488653289E+04  0.10143379704E+04 0.  0.
        -13    1    3    3    0    0  0.28028260019E+03 -0.26428951643E+03  0.18079134740E+04  0.18485016703E+04  0.10566000000E+00 0.  1.
          4    1    3    3  501    0 -0.55965309814E+02  0.28592410970E+03  0.73031602565E+02  0.30036365856E+03  0.00000000000E+00 0.  1.
         13    1    1    2    0    0 -0.22431729038E+03 -0.21634593271E+02  0.11960725081E+04  0.12171178078E+04  0.10566000000E+00 0. -1.
<mgrwt>
<rscale>  1 0.70909128E+03</rscale>
<asrwt>0</asrwt>
<pdfrwt beam="2">  1       21 0.22228122E-01 0.10390707E+04</pdfrwt>
<pdfrwt beam="1">  1        4 0.49561539E+00 0.10390707E+04</pdfrwt>
<totfact> 0.25824071E+01</totfact>
</mgrwt>
</event>
<event>
 6    1  0.5391662E-005  0.1095842E+04  0.7818608E-02  0.8896706E-01
          4   -1    0    0  502    0 -0.00000000000E+00  0.00000000000E+00  0.19613796223E+04  0.19613796223E+04  0.00000000000E+00 0.  1.
         21   -1    0    0  501  502  0.00000000000E+00 -0.00000000000E+00 -0.65569406127E+03  0.65569406127E+03  0.00000000000E+00 0.  1.
    9000010    2    1    2  501    0  0.38694904177E+02  0.45335463016E+03 -0.13696756791E+03  0.11043688948E+04  0.99691665895E+03 0.  0.
        -13    1    3    3    0    0 -0.33912031419E+03  0.29039098166E+03  0.27317442514E+03  0.52340594899E+03  0.10566000000E+00 0.  1.
          4    1    3    3  501    0  0.37781521837E+03  0.16296364850E+03 -0.41014199305E+03  0.58096294582E+03  0.00000000000E+00 0.  1.
         13    1    1    2    0    0 -0.38694904177E+02 -0.45335463016E+03  0.14426531289E+04  0.15127047887E+04  0.10566000000E+00 0. -1.
<mgrwt>
<rscale>  1 0.87965958E+03</rscale>
<asrwt>0</asrwt>
<pdfrwt beam="2">  1       21 0.10087601E+00 0.10958424E+04</pdfrwt>
<pdfrwt beam="1">  1        4 0.30175071E+00 0.10958424E+04</pdfrwt>
<totfact> 0.49803882E+00</totfact>
</mgrwt>
</event>
<event>
 6    1  0.5391662E-005  0.1006811E+04  0.7818608E-02  0.9104632E-01
         21   -1    0    0  501  502  0.00000000000E+00  0.00000000000E+00  0.30781818302E+03  0.30781818302E+03  0.00000000000E+00 0.  1.
          4   -1    0    0  502    0 -0.00000000000E+00 -0.00000000000E+00 -0.15335103903E+04  0.15335103903E+04  0.00000000000E+00 0.  1.
    9000010    2    1    2  501    0  0.19913173381E+03  0.15594484816E+03 -0.61364534530E+03  0.11790796658E+04  0.97452347609E+03 0.  0.
        -13    1    3    3    0    0 -0.16761381848E+03  0.93504040305E+02 -0.75657839712E+03  0.78054357973E+03  0.10566000000E+00 0.  1.
          4    1    3    3  501    0  0.36674555229E+03  0.62440807854E+02  0.14293305182E+03  0.39853608609E+03  0.00000000000E+00 0.  1.
         13    1    1    2    0    0 -0.19913173381E+03 -0.15594484816E+03 -0.61204686198E+03  0.66224890751E+03  0.10566000000E+00 0. -1.
<mgrwt>
<rscale>  1 0.71278721E+03</rscale>
<asrwt>0</asrwt>
<pdfrwt beam="1">  1       21 0.47356643E-01 0.10068109E+04</pdfrwt>
<pdfrwt beam="2">  1        4 0.23592468E+00 0.10068109E+04</pdfrwt>
<totfact> 0.44263196E+01</totfact>
</mgrwt>
</event>
<event>
 6    1  0.5391662E-005  0.1068818E+04  0.7818608E-02  0.8998439E-01
         21   -1    0    0  501  502  0.00000000000E+00  0.00000000000E+00  0.25802843506E+03  0.25802843506E+03  0.00000000000E+00 0.  1.
          4   -1    0    0  502    0 -0.00000000000E+00 -0.00000000000E+00 -0.19803064178E+04  0.19803064178E+04  0.00000000000E+00 0.  1.
    9000010    2    1    2  501    0 -0.82987008206E+02  0.31247408468E+03 -0.10810431551E+04  0.15202060256E+04  0.10187468577E+04 0.  0.
        -13    1    3    3    0    0 -0.51606889647E+03  0.26045171265E+03 -0.37098874174E+03  0.68687324755E+03  0.10566000000E+00 0.  1.
          4    1    3    3  501    0  0.43308188827E+03  0.52022372030E+02 -0.71005441334E+03  0.83333277809E+03  0.00000000000E+00 0.  1.
         13    1    1    2    0    0  0.82987008206E+02 -0.31247408468E+03 -0.64123482770E+03  0.71812882726E+03  0.10566000000E+00 0. -1.
<mgrwt>
<rscale>  1 0.79264980E+03</rscale>
<asrwt>0</asrwt>
<pdfrwt beam="1">  1       21 0.39696683E-01 0.10688181E+04</pdfrwt>
<pdfrwt beam="2">  1        4 0.30466252E+00 0.10688181E+04</pdfrwt>
<totfact> 0.43625007E+01</totfact>
</mgrwt>
</event>
<event>
 6    1  0.5391662E-005  0.1092280E+04  0.7818608E-02  0.9275895E-01
         21   -1    0    0  501  502  0.00000000000E+00  0.00000000000E+00  0.45692609882E+03  0.45692609882E+03  0.00000000000E+00 0.  1.
          4   -1    0    0  502    0 -0.00000000000E+00 -0.00000000000E+00 -0.90587098771E+03  0.90587098771E+03  0.00000000000E+00 0.  1.
    9000010    2    1    2  501    0 -0.10152703426E+03  0.84261047072E+01 -0.22280998266E+03  0.11147734084E+04  0.10875186094E+04 0.  0.
        -13    1    3    3    0    0  0.11455580850E+03  0.29753512617E+03  0.32723874003E+03  0.45687568189E+03  0.10566000000E+00 0.  1.
          4    1    3    3  501    0 -0.21608284276E+03 -0.28910902146E+03 -0.55004872269E+03  0.65789772652E+03  0.00000000000E+00 0.  1.
         13    1    1    2    0    0  0.10152703426E+03 -0.84261047072E+01 -0.22613490623E+03  0.24802367812E+03  0.10566000000E+00 0. -1.
<mgrwt>
<rscale>  1 0.60362691E+03</rscale>
<asrwt>0</asrwt>
<pdfrwt beam="1">  1       21 0.70296323E-01 0.10922799E+04</pdfrwt>
<pdfrwt beam="2">  1        4 0.13936477E+00 0.10922799E+04</pdfrwt>
<totfact> 0.36648846E+01</totfact>
</mgrwt>
</event>
<event>
 6    1  0.5391662E-005  0.1022873E+04  0.7818608E-02  0.9151356E-01
         21   -1    0    0  501  502  0.00000000000E+00  0.00000000000E+00  0.35142633043E+03  0.35142633043E+03  0.00000000000E+00 0.  1.
          4   -1    0    0  502    0 -0.00000000000E+00 -0.00000000000E+00 -0.14698247054E+04  0.14698247054E+04  0.00000000000E+00 0.  1.
    9000010    2    1    2  501    0 -0.10323982158E+03 -0.17209900523E+03 -0.43947520403E+03  0.11132869043E+04  0.10029918982E+04 0.  0.
        -13    1    3    3    0    0 -0.39487442057E+03 -0.21144768176E+02  0.16253178773E+03  0.42753888996E+03  0.10566000000E+00 0.  1.
          4    1    3    3  501    0  0.29163459900E+03 -0.15095423706E+03 -0.60200699176E+03  0.68574801432E+03  0.00000000000E+00 0.  1.
         13    1    1    2    0    0  0.10323982158E+03  0.17209900523E+03 -0.67892317091E+03  0.70796413152E+03  0.10566000000E+00 0. -1.
<mgrwt>
<rscale>  1 0.68076594E+03</rscale>
<asrwt>0</asrwt>
<pdfrwt beam="1">  1       21 0.54065589E-01 0.10228730E+04</pdfrwt>
<pdfrwt beam="2">  1        4 0.22612688E+00 0.10228730E+04</pdfrwt>
<totfact> 0.34822640E+01</totfact>
</mgrwt>
</event>
<event>
 6    1  0.5391662E-005  0.1272530E+04  0.7818608E-02  0.8663730E-01
         21   -1    0    0  501  502  0.00000000000E+00  0.00000000000E+00  0.93370289574E+03  0.93370289574E+03  0.00000000000E+00 0. -1.
          4   -1    0    0  502    0 -0.00000000000E+00 -0.00000000000E+00 -0.11310783019E+04  0.11310783019E+04  0.00000000000E+00 0.  1.
    9000010    2    1    2  501    0 -0.11533521336E+03  0.77408411767E+03 -0.10944800305E+03  0.12772282330E+04  0.10034065283E+04 0.  0.
        -13    1    3    3    0    0  0.34818598105E+03  0.26312949298E+03 -0.33634639190E+03  0.55099865152E+03  0.10566000000E+00 0.  1.
          4    1    3    3  501    0 -0.46352119441E+03  0.51095462469E+03  0.22689838884E+03  0.72622958148E+03  0.00000000000E+00 0.  1.
         13    1    1    2    0    0  0.11533521336E+03 -0.77408411767E+03 -0.87927403067E+02  0.78755296460E+03  0.10566000000E+00 0. -1.
<mgrwt>
<rscale>  1 0.11269122E+04</rscale>
<asrwt>0</asrwt>
<pdfrwt beam="1">  1       21 0.14364660E+00 0.12725302E+04</pdfrwt>
<pdfrwt beam="2">  1        4 0.17401205E+00 0.12725302E+04</pdfrwt>
<totfact> 0.39310427E+00</totfact>
</mgrwt>
</event>
<event>
 6    1  0.5391662E-005  0.9907852E+03  0.7818608E-02  0.9142614E-01
         21   -1    0    0  501  502  0.00000000000E+00  0.00000000000E+00  0.13653531136E+03  0.13653531136E+03  0.00000000000E+00 0.  1.
          4   -1    0    0  502    0 -0.00000000000E+00 -0.00000000000E+00 -0.27224289794E+04  0.27224289794E+04  0.00000000000E+00 0.  1.
    9000010    2    1    2  501    0 -0.14530194844E+03 -0.17638189476E+03 -0.20913412126E+04  0.23141658222E+04  0.96407061777E+03 0.  0.
        -13    1    3    3    0    0 -0.55878328340E+03 -0.11206698545E+03 -0.11252289915E+04  0.12613239320E+04  0.10566000000E+00 0.  1.
          4    1    3    3  501    0  0.41348133496E+03 -0.64314909306E+02 -0.96611222113E+03  0.10528418902E+04  0.00000000000E+00 0.  1.
         13    1    1    2    0    0  0.14530194844E+03  0.17638189476E+03 -0.49455245543E+03  0.54479846857E+03  0.10566000000E+00 0. -1.
<mgrwt>
<rscale>  1 0.68662185E+03</rscale>
<asrwt>0</asrwt>
<pdfrwt beam="1">  1       21 0.21005435E-01 0.99078524E+03</pdfrwt>
<pdfrwt beam="2">  1        4 0.41883518E+00 0.99078524E+03</pdfrwt>
<totfact> 0.65405502E+01</totfact>
</mgrwt>
</event>
<event>
 6    1  0.5391662E-005  0.1047724E+04  0.7818608E-02  0.9123730E-01
          4   -1    0    0  502    0 -0.00000000000E+00  0.00000000000E+00  0.28316676452E+04  0.28316676452E+04  0.00000000000E+00 0.  1.
         21   -1    0    0  501  502  0.00000000000E+00 -0.00000000000E+00 -0.17468689360E+03  0.17468689360E+03  0.00000000000E+00 0.  1.
    9000010    2    1    2  501    0  0.16656381395E+03 -0.12482228882E+03  0.14932110631E+04  0.18241176729E+04  0.10268407364E+04 0.  0.
        -13    1    3    3    0    0  0.44578512362E+03  0.29937316617E+03  0.69954319898E+03  0.88187831784E+03  0.10566000000E+00 0.  1.
          4    1    3    3  501    0 -0.27922130968E+03 -0.42419545499E+03  0.79366786407E+03  0.94223935508E+03  0.00000000000E+00 0.  1.
         13    1    1    2    0    0 -0.16656381395E+03  0.12482228882E+03  0.11637696885E+04  0.11822368659E+04  0.10566000000E+00 0. -1.
<mgrwt>
<rscale>  1 0.69948185E+03</rscale>
<asrwt>0</asrwt>
<pdfrwt beam="2">  1       21 0.26874909E-01 0.10477242E+04</pdfrwt>
<pdfrwt beam="1">  1        4 0.43564114E+00 0.10477242E+04</pdfrwt>
<totfact> 0.33658249E+01</totfact>
</mgrwt>
</event>
<event>
 6    1  0.5391662E-005  0.1007892E+04  0.7818608E-02  0.9404614E-01
          4   -1    0    0  502    0 -0.00000000000E+00  0.00000000000E+00  0.14199779759E+04  0.14199779759E+04  0.00000000000E+00 0.  1.
         21   -1    0    0  501  502  0.00000000000E+00 -0.00000000000E+00 -0.21035198215E+03  0.21035198215E+03  0.00000000000E+00 0.  1.
    9000010    2    1    2  501    0  0.72745785227E+02 -0.33164197480E+02  0.11578610015E+04  0.15350858566E+04  0.10047162163E+04 0.  0.
        -13    1    3    3    0    0  0.18740964353E+03  0.15435408976E+03 -0.96756474136E+02  0.26136064349E+03  0.10566000000E+00 0.  1.
          4    1    3    3  501    0 -0.11466385830E+03 -0.18751828724E+03  0.12546174756E+04  0.12737252131E+04  0.00000000000E+00 0.  1.
         13    1    1    2    0    0 -0.72745785227E+02  0.33164197480E+02  0.51764992214E+02  0.95244101370E+02  0.10566000000E+00 0. -1.
<mgrwt>
<rscale>  1 0.53488903E+03</rscale>
<asrwt>0</asrwt>
<pdfrwt beam="2">  1       21 0.32361844E-01 0.10078921E+04</pdfrwt>
<pdfrwt beam="1">  1        4 0.21845814E+00 0.10078921E+04</pdfrwt>
<totfact> 0.11013641E+02</totfact>
</mgrwt>
</event>
<event>
 6    1  0.5391662E-005  0.1029702E+04  0.7818608E-02  0.9106942E-01
          4   -1    0    0  502    0 -0.00000000000E+00  0.00000000000E+00  0.17239210083E+04  0.17239210083E+04  0.00000000000E+00 0.  1.
         21   -1    0    0  501  502  0.00000000000E+00 -0.00000000000E+00 -0.23827886262E+03  0.23827886262E+03  0.00000000000E+00 0.  1.
    9000010    2    1    2  501    0 -0.22685322384E+03 -0.58530608992E+02  0.10694052669E+04  0.14845584073E+04  0.10026952789E+04 0.  0.
        -13    1    3    3    0    0 -0.10897186482E+03  0.17992290655E+03  0.11784489117E+04  0.11970751724E+04  0.10566000000E+00 0.  1.
          4    1    3    3  501    0 -0.11788135902E+03 -0.23845351555E+03 -0.10904364481E+03  0.28748323491E+03  0.00000000000E+00 0.  1.
         13    1    1    2    0    0  0.22685322384E+03  0.58530608992E+02  0.41623687880E+03  0.47764146365E+03  0.10566000000E+00 0. -1.
<mgrwt>
<rscale>  1 0.71116200E+03</rscale>
<asrwt>0</asrwt>
<pdfrwt beam="2">  1       21 0.36658288E-01 0.10297019E+04</pdfrwt>
<pdfrwt beam="1">  1        4 0.26521861E+00 0.10297019E+04</pdfrwt>
<totfact> 0.65474629E+01</totfact>
</mgrwt>
</event>
<event>
 6    1  0.5391662E-005  0.1001920E+04  0.7818608E-02  0.9558739E-01
         21   -1    0    0  501  502  0.00000000000E+00  0.00000000000E+00  0.12468599186E+03  0.12468599186E+03  0.00000000000E+00 0.  1.
          4   -1    0    0  502    0 -0.00000000000E+00 -0.00000000000E+00 -0.22176726527E+04  0.22176726527E+04  0.00000000000E+00 0.  1.
    9000010    2    1    2  501    0  0.19148532361E+02  0.42253895284E+02 -0.19550567388E+04  0.21968363696E+04  0.10008452052E+04 0.  0.
        -13    1    3    3    0    0  0.13101707219E+03 -0.11179651447E+03 -0.19949055415E+04  0.20023266628E+04  0.10566000000E+00 0.  1.
          4    1    3    3  501    0 -0.11186853983E+03  0.15405040976E+03  0.39848802710E+02  0.19450970677E+03  0.00000000000E+00 0.  1.
         13    1    1    2    0    0 -0.19148532361E+02 -0.42253895284E+02 -0.13792992208E+03  0.14552227502E+03  0.10566000000E+00 0. -1.
<mgrwt>
<rscale>  1 0.46476320E+03</rscale>
<asrwt>0</asrwt>
<pdfrwt beam="1">  1       21 0.19182461E-01 0.10019197E+04</pdfrwt>
<pdfrwt beam="2">  1        4 0.34118039E+00 0.10019197E+04</pdfrwt>
<totfact> 0.15213756E+02</totfact>
</mgrwt>
</event>
<event>
 6    1  0.5391662E-005  0.1591806E+04  0.7818608E-02  0.8411997E-01
         21   -1    0    0  501  502  0.00000000000E+00  0.00000000000E+00  0.71461737011E+03  0.71461737011E+03  0.00000000000E+00 0. -1.
          4   -1    0    0  502    0 -0.00000000000E+00 -0.00000000000E+00 -0.32237434736E+04  0.32237434736E+04  0.00000000000E+00 0.  1.
    9000010    2    1    2  501    0  0.39160958499E+03  0.11772797180E+04 -0.68651930479E+03  0.17335385934E+04  0.99724705943E+03 0.  0.
        -13    1    3    3    0    0 -0.11438440979E+03  0.61915456343E+03 -0.74795727493E+03  0.97768924659E+03  0.10566000000E+00 0.  1.
          4    1    3    3  501    0  0.50599399478E+03  0.55812515459E+03  0.61437970135E+02  0.75584934684E+03  0.00000000000E+00 0.  1.
         13    1    1    2    0    0 -0.39160958499E+03 -0.11772797180E+04 -0.18226067987E+04  0.22048222503E+04  0.10566000000E+00 0. -1.
<mgrwt>
<rscale>  1 0.14956662E+04</rscale>
<asrwt>0</asrwt>
<pdfrwt beam="1">  1       21 0.10994114E+00 0.15918063E+04</pdfrwt>
<pdfrwt beam="2">  1        4 0.49596053E+00 0.15918063E+04</pdfrwt>
<totfact> 0.64016464E-01</totfact>
</mgrwt>
</event>
<event>
 6    1  0.5391662E-005  0.1147291E+04  0.7818608E-02  0.8818063E-01
         21   -1    0    0  501  502  0.00000000000E+00  0.00000000000E+00  0.70861157326E+03  0.70861157326E+03  0.00000000000E+00 0.  1.
          4   -1    0    0  502    0 -0.00000000000E+00 -0.00000000000E+00 -0.21819630122E+04  0.21819630122E+04  0.00000000000E+00 0.  1.
    9000010    2    1    2  501    0 -0.11633823261E+03 -0.53836696957E+03  0.16776772837E+03  0.11594923486E+04  0.10064307813E+04 0.  0.
        -13    1    3    3    0    0  0.64203775454E+02 -0.57255892467E+03 -0.30526624667E+03  0.65202249924E+03  0.10566000000E+00 0.  1.
          4    1    3    3  501    0 -0.18054200807E+03  0.34191955100E+02  0.47303397503E+03  0.50746984936E+03  0.00000000000E+00 0.  1.
         13    1    1    2    0    0  0.11633823261E+03  0.53836696957E+03 -0.16411191673E+04  0.17310822368E+04  0.10566000000E+00 0. -1.
<mgrwt>
<rscale>  1 0.95499785E+03</rscale>
<asrwt>0</asrwt>
<pdfrwt beam="1">  1       21 0.10901717E+00 0.11472909E+04</pdfrwt>
<pdfrwt beam="2">  1        4 0.33568661E+00 0.11472909E+04</pdfrwt>
<totfact> 0.32278760E+00</totfact>
</mgrwt>
</event>
<event>
 6    1  0.5391662E-005  0.1010959E+04  0.7818608E-02  0.9306773E-01
         21   -1    0    0  501  502  0.00000000000E+00  0.00000000000E+00  0.14873748395E+03  0.14873748395E+03  0.00000000000E+00 0.  1.
          4   -1    0    0  502    0 -0.00000000000E+00 -0.00000000000E+00 -0.23397672943E+04  0.23397672943E+04  0.00000000000E+00 0.  1.
    9000010    2    1    2  501    0  0.11222681125E+03 -0.21541075670E+02 -0.16463744153E+04  0.19319902810E+04  0.10044793953E+04 0.  0.
        -13    1    3    3    0    0 -0.26149001624E+03  0.61801727692E+02 -0.29398035491E+02  0.27029749868E+03  0.10566000000E+00 0.  1.
          4    1    3    3  501    0  0.37371682749E+03 -0.83342803362E+02 -0.16169763798E+04  0.16616927823E+04  0.00000000000E+00 0.  1.
         13    1    1    2    0    0 -0.11222681125E+03  0.21541075670E+02 -0.54465539503E+03  0.55651449721E+03  0.10566000000E+00 0. -1.
<mgrwt>
<rscale>  1 0.58618995E+03</rscale>
<asrwt>0</asrwt>
<pdfrwt beam="1">  1       21 0.22882692E-01 0.10109588E+04</pdfrwt>
<pdfrwt beam="2">  1        4 0.35996416E+00 0.10109588E+04</pdfrwt>
<totfact> 0.92904555E+01</totfact>
</mgrwt>
</event>
<event>
 6    1  0.5391662E-005  0.1039694E+04  0.7818608E-02  0.9038397E-01
         21   -1    0    0  501  502  0.00000000000E+00  0.00000000000E+00  0.24779983154E+03  0.24779983154E+03  0.00000000000E+00 0.  1.
          4   -1    0    0  502    0 -0.00000000000E+00 -0.00000000000E+00 -0.18470818917E+04  0.18470818917E+04  0.00000000000E+00 0.  1.
    9000010    2    1    2  501    0 -0.36494528683E+02  0.29677506890E+03 -0.11052799193E+04  0.15174343936E+04  0.99576912322E+03 0.  0.
        -13    1    3    3    0    0  0.78665365411E+02  0.22453884524E+03  0.13242202255E+03  0.27228943416E+03  0.10566000000E+00 0.  1.
          4    1    3    3  501    0 -0.11515989409E+03  0.72236223656E+02 -0.12377019418E+04  0.12451449594E+04  0.00000000000E+00 0.  1.
         13    1    1    2    0    0  0.36494528683E+02 -0.29677506890E+03 -0.49400214092E+03  0.57744732967E+03  0.10566000000E+00 0. -1.
<mgrwt>
<rscale>  1 0.76137875E+03</rscale>
<asrwt>0</asrwt>
<pdfrwt beam="1">  1       21 0.38123052E-01 0.10396939E+04</pdfrwt>
<pdfrwt beam="2">  1        4 0.28416644E+00 0.10396939E+04</pdfrwt>
<totfact> 0.54119712E+01</totfact>
</mgrwt>
</event>
<event>
 6    1  0.5391662E-005  0.1018141E+04  0.7818608E-02  0.9263810E-01
         21   -1    0    0  501  502  0.00000000000E+00  0.00000000000E+00  0.25824248617E+03  0.25824248617E+03  0.00000000000E+00 0.  1.
          4   -1    0    0  502    0 -0.00000000000E+00 -0.00000000000E+00 -0.18205066724E+04  0.18205066724E+04  0.00000000000E+00 0.  1.
    9000010    2    1    2  501    0  0.64133887466E+01 -0.13157061689E+03 -0.77238954345E+03  0.12779658413E+04  0.10095836399E+04 0.  0.
        -13    1    3    3    0    0  0.20839677653E+02 -0.52871288598E+02  0.24800815415E+03  0.25443608433E+03  0.10566000000E+00 0.  1.
          4    1    3    3  501    0 -0.14426288906E+02 -0.78699328296E+02 -0.10203976976E+04  0.10235297569E+04  0.00000000000E+00 0.  1.
         13    1    1    2    0    0 -0.64133887466E+01  0.13157061689E+03 -0.78987464280E+03  0.80078331731E+03  0.10566000000E+00 0. -1.
<mgrwt>
<rscale>  1 0.61062494E+03</rscale>
<asrwt>0</asrwt>
<pdfrwt beam="1">  1       21 0.39729615E-01 0.10181410E+04</pdfrwt>
<pdfrwt beam="2">  1        4 0.28007794E+00 0.10181410E+04</pdfrwt>
<totfact> 0.50896473E+01</totfact>
</mgrwt>
</event>
<event>
 6    1  0.5391662E-005  0.1004363E+04  0.7818608E-02  0.9232580E-01
          4   -1    0    0  502    0 -0.00000000000E+00  0.00000000000E+00  0.12740203456E+04  0.12740203456E+04  0.00000000000E+00 0.  1.
         21   -1    0    0  501  502  0.00000000000E+00 -0.00000000000E+00 -0.27141445763E+03  0.27141445763E+03  0.00000000000E+00 0.  1.
    9000010    2    1    2  501    0 -0.55092926855E+02  0.14453080476E+03  0.76763436839E+03  0.12641235694E+04  0.99238172644E+03 0.  0.
        -13    1    3    3    0    0 -0.18306834714E+02  0.55819402012E+03  0.28369098274E+03  0.62641542857E+03  0.10566000000E+00 0.  1.
          4    1    3    3  501    0 -0.36786092141E+02 -0.41366321536E+03  0.48394338565E+03  0.63770814079E+03  0.00000000000E+00 0.  1.
         13    1    1    2    0    0  0.55092926855E+02 -0.14453080476E+03  0.23497151954E+03  0.28131123382E+03  0.10566000000E+00 0. -1.
<mgrwt>
<rscale>  1 0.62917765E+03</rscale>
<asrwt>0</asrwt>
<pdfrwt beam="2">  1       21 0.41756071E-01 0.10043634E+04</pdfrwt>
<pdfrwt beam="1">  1        4 0.19600313E+00 0.10043634E+04</pdfrwt>
<totfact> 0.73871248E+01</totfact>
</mgrwt>
</event>
<event>
 6    1  0.5391662E-005  0.1087945E+04  0.7818608E-02  0.8921095E-01
          4   -1    0    0  502    0 -0.00000000000E+00  0.00000000000E+00  0.82175674888E+03  0.82175674888E+03  0.00000000000E+00 0.  1.
         21   -1    0    0  501  502  0.00000000000E+00 -0.00000000000E+00 -0.89424415549E+03  0.89424415549E+03  0.00000000000E+00 0.  1.
    9000010    2    1    2  501    0 -0.36666652735E+03 -0.20568085366E+03 -0.42434589270E+03  0.11677734322E+04  0.10034323079E+04 0.  0.
        -13    1    3    3    0    0 -0.43219359047E+03 -0.43356470132E+03 -0.61181595166E+03  0.86549894266E+03  0.10566000000E+00 0.  1.
          4    1    3    3  501    0  0.65527063114E+02  0.22788384767E+03  0.18747005895E+03  0.30227448955E+03  0.00000000000E+00 0.  1.
         13    1    1    2    0    0  0.36666652735E+03  0.20568085366E+03  0.35185848610E+03  0.54822747217E+03  0.10566000000E+00 0. -1.
<mgrwt>
<rscale>  1 0.85777811E+03</rscale>
<asrwt>0</asrwt>
<pdfrwt beam="2">  1       21 0.13757602E+00 0.10879455E+04</pdfrwt>
<pdfrwt beam="1">  1        4 0.12642412E+00 0.10879455E+04</pdfrwt>
<totfact> 0.73178240E+00</totfact>
</mgrwt>
</event>
<event>
 6    1  0.5391662E-005  0.1020369E+04  0.7818608E-02  0.9076479E-01
          4   -1    0    0  502    0 -0.00000000000E+00  0.00000000000E+00  0.87961407246E+03  0.87961407246E+03  0.00000000000E+00 0.  1.
         21   -1    0    0  501  502  0.00000000000E+00 -0.00000000000E+00 -0.18016537548E+04  0.18016537548E+04  0.00000000000E+00 0.  1.
    9000010    2    1    2  501    0 -0.63957312436E+02  0.26404960975E+03 -0.16299631543E+04  0.19230011277E+04  0.98353480792E+03 0.  0.
        -13    1    3    3    0    0 -0.47675080197E+03 -0.76973477324E+02 -0.71294888866E+03  0.86111112662E+03  0.10566000000E+00 0.  1.
          4    1    3    3  501    0  0.41279348954E+03  0.34102308707E+03 -0.91701426566E+03  0.10618900011E+04  0.00000000000E+00 0.  1.
         13    1    1    2    0    0  0.63957312436E+02 -0.26404960975E+03  0.70792347202E+03  0.75826669954E+03  0.10566000000E+00 0. -1.
<mgrwt>
<rscale>  1 0.73296704E+03</rscale>
<asrwt>0</asrwt>
<pdfrwt beam="2">  1       21 0.27717750E+00 0.10203693E+04</pdfrwt>
<pdfrwt beam="1">  1        4 0.13532524E+00 0.10203693E+04</pdfrwt>
<totfact> 0.52659776E-01</totfact>
</mgrwt>
</event>
<event>
 6    1  0.5391662E-005  0.9201794E+03  0.7818608E-02  0.9350445E-01
          4   -1    0    0  502    0 -0.00000000000E+00  0.00000000000E+00  0.29160914495E+04  0.29160914495E+04  0.00000000000E+00 0.  1.
         21   -1    0    0  501  502  0.00000000000E+00 -0.00000000000E+00 -0.11259681879E+03  0.11259681879E+03  0.00000000000E+00 0.  1.
    9000010    2    1    2  501    0 -0.11440679254E+02 -0.12804964318E+03  0.27293231930E+04  0.28802665259E+04  0.91115452500E+03 0.  0.
        -13    1    3    3    0    0  0.33839640562E+03 -0.34457332585E+03  0.11301330079E+04  0.12290010297E+04  0.10566000000E+00 0.  1.
          4    1    3    3  501    0 -0.34983708487E+03  0.21652368267E+03  0.15991901850E+04  0.16512654962E+04  0.00000000000E+00 0.  1.
         13    1    1    2    0    0  0.11440679254E+02  0.12804964318E+03  0.74171437711E+02  0.14842174233E+03  0.10566000000E+00 0. -1.
<mgrwt>
<rscale>  1 0.56257536E+03</rscale>
<asrwt>0</asrwt>
<pdfrwt beam="2">  1       21 0.17322590E-01 0.92017942E+03</pdfrwt>
<pdfrwt beam="1">  1        4 0.44862940E+00 0.92017942E+03</pdfrwt>
<totfact> 0.71061397E+01</totfact>
</mgrwt>
</event>
<event>
 6    1  0.5391662E-005  0.1099361E+04  0.7818608E-02  0.8863010E-01
         21   -1    0    0  501  502  0.00000000000E+00  0.00000000000E+00  0.56827535223E+03  0.56827535223E+03  0.00000000000E+00 0.  1.
          4   -1    0    0  502    0 -0.00000000000E+00 -0.00000000000E+00 -0.11998722507E+04  0.11998722507E+04  0.00000000000E+00 0.  1.
    9000010    2    1    2  501    0 -0.37406100236E+03 -0.35895929524E+03 -0.25828780935E+03  0.11292946493E+04  0.96944334720E+03 0.  0.
        -13    1    3    3    0    0 -0.58437121541E+03 -0.40396993490E+03  0.93941862811E+02  0.71659368575E+03  0.10566000000E+00 0.  1.
          4    1    3    3  501    0  0.21031021305E+03  0.45010639655E+02 -0.35222967216E+03  0.41270096359E+03  0.00000000000E+00 0.  1.
         13    1    1    2    0    0  0.37406100236E+03  0.35895929524E+03 -0.37330908911E+03  0.63885295359E+03  0.10566000000E+00 0. -1.
<mgrwt>
<rscale>  1 0.91102108E+03</rscale>
<asrwt>0</asrwt>
<pdfrwt beam="1">  1       21 0.87426978E-01 0.10993606E+04</pdfrwt>
<pdfrwt beam="2">  1        4 0.18459573E+00 0.10993606E+04</pdfrwt>
<totfact> 0.14390760E+01</totfact>
</mgrwt>
</event>
<event>
 6    1  0.5391662E-005  0.8438670E+03  0.7818608E-02  0.9574212E-01
         21   -1    0    0  501  502  0.00000000000E+00  0.00000000000E+00  0.37778999072E+03  0.37778999072E+03  0.00000000000E+00 0.  1.
          4   -1    0    0  502    0 -0.00000000000E+00 -0.00000000000E+00 -0.55911275507E+03  0.55911275507E+03  0.00000000000E+00 0.  1.
    9000010    2    1    2  501    0 -0.59428856113E+02  0.43174662248E+02 -0.18276633287E+03  0.86343210231E+03  0.84066379872E+03 0.  0.
        -13    1    3    3    0    0  0.11916683354E+03  0.98132588292E+02 -0.48451380624E+03  0.50851192582E+03  0.10566000000E+00 0.  1.
          4    1    3    3  501    0 -0.17859568965E+03 -0.54957926045E+02  0.30174747337E+03  0.35492017649E+03  0.00000000000E+00 0.  1.
         13    1    1    2    0    0  0.59428856113E+02 -0.43174662248E+02  0.14435685270E+01  0.73470643479E+02  0.10566000000E+00 0. -1.
<mgrwt>
<rscale>  1 0.45836669E+03</rscale>
<asrwt>0</asrwt>
<pdfrwt beam="1">  1       21 0.58121537E-01 0.84386697E+03</pdfrwt>
<pdfrwt beam="2">  1        4 0.86017347E-01 0.84386697E+03</pdfrwt>
<totfact> 0.13727815E+02</totfact>
</mgrwt>
</event>
<event>
 6    1  0.5391662E-005  0.1034082E+04  0.7818608E-02  0.9126411E-01
         21   -1    0    0  501  502  0.00000000000E+00  0.00000000000E+00  0.75834861353E+03  0.75834861353E+03  0.00000000000E+00 0. -1.
          4   -1    0    0  502    0 -0.00000000000E+00 -0.00000000000E+00 -0.61430126455E+03  0.61430126455E+03  0.00000000000E+00 0.  1.
    9000010    2    1    2  501    0 -0.13319659236E+03 -0.16777309565E+03 -0.11048739485E+03  0.10399682122E+04  0.10116507669E+04 0.  0.
        -13    1    3    3    0    0 -0.86907246336E+02  0.42690029504E+03 -0.15110661732E+02  0.43591865598E+03  0.10566000000E+00 0.  1.
          4    1    3    3  501    0 -0.46289346022E+02 -0.59467339069E+03 -0.95376733117E+02  0.60404955622E+03  0.00000000000E+00 0.  1.
         13    1    1    2    0    0  0.13319659236E+03  0.16777309565E+03  0.25453474383E+03  0.33268166589E+03  0.10566000000E+00 0. -1.
<mgrwt>
<rscale>  1 0.69763807E+03</rscale>
<asrwt>0</asrwt>
<pdfrwt beam="1">  1       21 0.11666902E+00 0.10340824E+04</pdfrwt>
<pdfrwt beam="2">  1        4 0.94507887E-01 0.10340824E+04</pdfrwt>
<totfact> 0.19866680E+01</totfact>
</mgrwt>
</event>
<event>
 6    1  0.5391662E-005  0.1344704E+04  0.7818608E-02  0.8597776E-01
         21   -1    0    0  501  502  0.00000000000E+00  0.00000000000E+00  0.68241133103E+03  0.68241133103E+03  0.00000000000E+00 0. -1.
          4   -1    0    0  502    0 -0.00000000000E+00 -0.00000000000E+00 -0.20412530747E+04  0.20412530747E+04  0.00000000000E+00 0.  1.
    9000010    2    1    2  501    0 -0.56055692218E+03 -0.68697163881E+03 -0.36824332291E+03  0.13942136402E+04  0.10109769701E+04 0.  0.
        -13    1    3    3    0    0  0.11790953291E+03  0.17948204736E+03 -0.17472104661E+03  0.27684638081E+03  0.10566000000E+00 0.  1.
          4    1    3    3  501    0 -0.67846645509E+03 -0.86645368617E+03 -0.19352227630E+03  0.11173672594E+04  0.00000000000E+00 0.  1.
         13    1    1    2    0    0  0.56055692218E+03  0.68697163881E+03 -0.99059842073E+03  0.13294507655E+04  0.10566000000E+00 0. -1.
<mgrwt>
<rscale>  1 0.12117372E+04</rscale>
<asrwt>0</asrwt>
<pdfrwt beam="1">  1       21 0.10498636E+00 0.13447039E+04</pdfrwt>
<pdfrwt beam="2">  1        4 0.31403894E+00 0.13447039E+04</pdfrwt>
<totfact> 0.40143867E+00</totfact>
</mgrwt>
</event>
<event>
 6    1  0.5391662E-005  0.9517060E+03  0.7818608E-02  0.9295182E-01
         21   -1    0    0  501  502  0.00000000000E+00  0.00000000000E+00  0.52760985349E+03  0.52760985349E+03  0.00000000000E+00 0.  1.
          4   -1    0    0  502    0 -0.00000000000E+00 -0.00000000000E+00 -0.57722335114E+03  0.57722335114E+03  0.00000000000E+00 0.  1.
    9000010    2    1    2  501    0  0.11010934505E+03 -0.91438795508E+02  0.47842860554E+01  0.95171804787E+03  0.94088215630E+03 0.  0.
        -13    1    3    3    0    0 -0.31551592963E+03 -0.75519367522E+02 -0.28885398690E+03  0.43438475299E+03  0.10566000000E+00 0.  1.
          4    1    3    3  501    0  0.42562527469E+03 -0.15919427986E+02  0.29363827295E+03  0.51733329487E+03  0.00000000000E+00 0.  1.
         13    1    1    2    0    0 -0.11010934505E+03  0.91438795508E+02 -0.54397783705E+02  0.15311515676E+03  0.10566000000E+00 0. -1.
<mgrwt>
<rscale>  1 0.59266183E+03</rscale>
<asrwt>0</asrwt>
<pdfrwt beam="1">  1       21 0.81170747E-01 0.95170602E+03</pdfrwt>
<pdfrwt beam="2">  1        4 0.88803592E-01 0.95170602E+03</pdfrwt>
<totfact> 0.58213379E+01</totfact>
</mgrwt>
</event>
<event>
 6    1  0.5391662E-005  0.9973346E+03  0.7818608E-02  0.9138682E-01
          4   -1    0    0  502    0 -0.00000000000E+00  0.00000000000E+00  0.17098078279E+04  0.17098078279E+04  0.00000000000E+00 0.  1.
         21   -1    0    0  501  502  0.00000000000E+00 -0.00000000000E+00 -0.22103626282E+03  0.22103626282E+03  0.00000000000E+00 0. -1.
    9000010    2    1    2  501    0  0.61601284094E+02 -0.21903767092E+03  0.12740879388E+04  0.16180161987E+04  0.97103250404E+03 0.  0.
        -13    1    3    3    0    0 -0.20807554955E+03  0.29357717731E+03  0.23928703910E+03  0.43213573284E+03  0.10566000000E+00 0.  1.
          4    1    3    3  501    0  0.26967683364E+03 -0.51261484823E+03  0.10348008997E+04  0.11858804658E+04  0.00000000000E+00 0.  1.
         13    1    1    2    0    0 -0.61601284094E+02  0.21903767092E+03  0.21468362633E+03  0.31282789208E+03  0.10566000000E+00 0. -1.
<mgrwt>
<rscale>  1 0.68927549E+03</rscale>
<asrwt>0</asrwt>
<pdfrwt beam="2">  1       21 0.34005580E-01 0.99733462E+03</pdfrwt>
<pdfrwt beam="1">  1        4 0.26304735E+00 0.99733462E+03</pdfrwt>
<totfact> 0.77715867E+01</totfact>
</mgrwt>
</event>
<event>
 6    1  0.5391662E-005  0.1344533E+04  0.7818608E-02  0.8591248E-01
          4   -1    0    0  502    0 -0.00000000000E+00  0.00000000000E+00  0.19487546412E+04  0.19487546412E+04  0.00000000000E+00 0.  1.
         21   -1    0    0  501  502  0.00000000000E+00 -0.00000000000E+00 -0.67079299147E+03  0.67079299147E+03  0.00000000000E+00 0. -1.
    9000010    2    1    2  501    0 -0.59839329420E+03  0.68965663704E+03  0.55360107233E+03  0.14540438494E+04  0.98694911578E+03 0.  0.
        -13    1    3    3    0    0 -0.49087399495E+03  0.92003449391E+03  0.27826149096E+03  0.10792822696E+04  0.10566000000E+00 0.  1.
          4    1    3    3  501    0 -0.10751929925E+03 -0.23037785687E+03  0.27533958137E+03  0.37476157983E+03  0.00000000000E+00 0.  1.
         13    1    1    2    0    0  0.59839329420E+03 -0.68965663704E+03  0.72436057740E+03  0.11655037833E+04  0.10566000000E+00 0. -1.
<mgrwt>
<rscale>  1 0.12205481E+04</rscale>
<asrwt>0</asrwt>
<pdfrwt beam="2">  1       21 0.10319892E+00 0.13445331E+04</pdfrwt>
<pdfrwt beam="1">  1        4 0.29980840E+00 0.13445331E+04</pdfrwt>
<totfact> 0.46014608E+00</totfact>
</mgrwt>
</event>
<event>
 6    1  0.5391662E-005  0.1009953E+04  0.7818608E-02  0.9108595E-01
          4   -1    0    0  502    0 -0.00000000000E+00  0.00000000000E+00  0.56209456924E+03  0.56209456924E+03  0.00000000000E+00 0.  1.
         21   -1    0    0  501  502  0.00000000000E+00 -0.00000000000E+00 -0.93404398543E+03  0.93404398543E+03  0.00000000000E+00 0.  1.
    9000010    2    1    2  501    0 -0.19694450688E+03 -0.14853828769E+03  0.45803158093E+02  0.10109911686E+04  0.97936431019E+03 0.  0.
        -13    1    3    3    0    0 -0.55072061788E+03 -0.10741637492E+02  0.22017333355E+03  0.59319886185E+03  0.10566000000E+00 0.  1.
          4    1    3    3  501    0  0.35377611100E+03 -0.13779665020E+03 -0.17437017545E+03  0.41779230678E+03  0.00000000000E+00 0.  1.
         13    1    1    2    0    0  0.19694450688E+03  0.14853828769E+03 -0.41775257428E+03  0.48514738603E+03  0.10566000000E+00 0. -1.
<mgrwt>
<rscale>  1 0.71000141E+03</rscale>
<asrwt>0</asrwt>
<pdfrwt beam="2">  1       21 0.14369908E+00 0.10099531E+04</pdfrwt>
<pdfrwt beam="1">  1        4 0.86476087E-01 0.10099531E+04</pdfrwt>
<totfact> 0.13045299E+01</totfact>
</mgrwt>
</event>
<event>
 6    1  0.5391662E-005  0.1640383E+04  0.7818608E-02  0.8382932E-01
          4   -1    0    0  502    0 -0.00000000000E+00  0.00000000000E+00  0.97558408439E+03  0.97558408439E+03  0.00000000000E+00 0.  1.
         21   -1    0    0  501  502  0.00000000000E+00 -0.00000000000E+00 -0.23370768680E+04  0.23370768680E+04  0.00000000000E+00 0. -1.
    9000010    2    1    2  501    0  0.12975206767E+04  0.20216287530E+02 -0.11365131196E+04  0.19956247095E+04  0.10034377436E+04 0.  0.
        -13    1    3    3    0    0  0.95810251037E+03 -0.40236957545E+03 -0.98741234218E+03  0.14334729995E+04  0.10566000000E+00 0.  1.
          4    1    3    3  501    0  0.33941816633E+03  0.42258586298E+03 -0.14910077746E+03  0.56215171001E+03  0.00000000000E+00 0.  1.
         13    1    1    2    0    0 -0.12975206767E+04 -0.20216287530E+02 -0.22497966397E+03  0.13170362429E+04  0.10566000000E+00 0. -1.
<mgrwt>
<rscale>  1 0.15470369E+04</rscale>
<asrwt>0</asrwt>
<pdfrwt beam="2">  1       21 0.35955029E+00 0.16403829E+04</pdfrwt>
<pdfrwt beam="1">  1        4 0.15008986E+00 0.16403829E+04</pdfrwt>
<totfact> 0.11003513E-01</totfact>
</mgrwt>
</event>
<event>
 6    1  0.5391662E-005  0.1034792E+04  0.7818608E-02  0.9046162E-01
         21   -1    0    0  501  502  0.00000000000E+00  0.00000000000E+00  0.42474576093E+03  0.42474576093E+03  0.00000000000E+00 0.  1.
          4   -1    0    0  502    0 -0.00000000000E+00 -0.00000000000E+00 -0.15021341016E+04  0.15021341016E+04  0.00000000000E+00 0.  1.
    9000010    2    1    2  501    0 -0.28449527245E+03 -0.74107196672E+02 -0.27262940026E+03  0.10701031122E+04  0.99215142198E+03 0.  0.
        -13    1    3    3    0    0 -0.32158547375E+03  0.28784244388E+03  0.19832056731E+03  0.47497531305E+03  0.10566000000E+00 0.  1.
          4    1    3    3  501    0  0.37090201302E+02 -0.36194964055E+03 -0.47094996757E+03  0.59512779912E+03  0.00000000000E+00 0.  1.
         13    1    1    2    0    0  0.28449527245E+03  0.74107196672E+02 -0.80475894044E+03  0.85677675040E+03  0.10566000000E+00 0. -1.
<mgrwt>
<rscale>  1 0.75547904E+03</rscale>
<asrwt>0</asrwt>
<pdfrwt beam="1">  1       21 0.65345504E-01 0.10347917E+04</pdfrwt>
<pdfrwt beam="2">  1        4 0.23109755E+00 0.10347917E+04</pdfrwt>
<totfact> 0.21892909E+01</totfact>
</mgrwt>
</event>
<event>
 6    1  0.5391662E-005  0.1196885E+04  0.7818608E-02  0.8724628E-01
         21   -1    0    0  501  502  0.00000000000E+00  0.00000000000E+00  0.35039342775E+03  0.35039342775E+03  0.00000000000E+00 0. -1.
          4   -1    0    0  502    0 -0.00000000000E+00 -0.00000000000E+00 -0.27934368067E+04  0.27934368067E+04  0.00000000000E+00 0.  1.
    9000010    2    1    2  501    0 -0.64417712752E+03 -0.32677625507E+03 -0.18770434968E+04  0.22261686572E+04  0.95435198388E+03 0.  0.
        -13    1    3    3    0    0 -0.29676894322E+03 -0.53971311905E+03 -0.50991925470E+03  0.79961222728E+03  0.10566000000E+00 0.  1.
          4    1    3    3  501    0 -0.34740818430E+03  0.21293686398E+03 -0.13671242421E+04  0.14265564299E+04  0.00000000000E+00 0.  1.
         13    1    1    2    0    0  0.64417712752E+03  0.32677625507E+03 -0.56599988215E+03  0.91766157720E+03  0.10566000000E+00 0. -1.
<mgrwt>
<rscale>  1 0.10549259E+04</rscale>
<asrwt>0</asrwt>
<pdfrwt beam="1">  1       21 0.53906681E-01 0.11968854E+04</pdfrwt>
<pdfrwt beam="2">  1        4 0.42975951E+00 0.11968854E+04</pdfrwt>
<totfact> 0.79466204E+00</totfact>
</mgrwt>
</event>
<event>
 6    1  0.5391662E-005  0.1107083E+04  0.7818608E-02  0.8873111E-01
          4   -1    0    0  502    0 -0.00000000000E+00  0.00000000000E+00  0.14597009827E+04  0.14597009827E+04  0.00000000000E+00 0.  1.
         21   -1    0    0  501  502  0.00000000000E+00 -0.00000000000E+00 -0.62802366401E+03  0.62802366401E+03  0.00000000000E+00 0. -1.
    9000010    2    1    2  501    0 -0.14163972449E+03 -0.46565793337E+03 -0.19453288905E+02  0.11072541246E+04  0.99435111679E+03 0.  0.
        -13    1    3    3    0    0 -0.32167385866E+03  0.13064994467E+03  0.25075608716E+03  0.42827807065E+03  0.10566000000E+00 0.  1.
          4    1    3    3  501    0  0.18003413417E+03 -0.59630787804E+03 -0.27020937607E+03  0.67897605392E+03  0.00000000000E+00 0.  1.
         13    1    1    2    0    0  0.14163972449E+03  0.46565793337E+03  0.85113060762E+03  0.98047052218E+03  0.10566000000E+00 0. -1.
<mgrwt>
<rscale>  1 0.90147905E+03</rscale>
<asrwt>0</asrwt>
<pdfrwt beam="2">  1       21 0.96619026E-01 0.11070832E+04</pdfrwt>
<pdfrwt beam="1">  1        4 0.22456938E+00 0.11070832E+04</pdfrwt>
<totfact> 0.86350334E+00</totfact>
</mgrwt>
</event>
<event>
 6    1  0.5391662E-005  0.1115877E+04  0.7818608E-02  0.8876310E-01
          4   -1    0    0  502    0 -0.00000000000E+00  0.00000000000E+00  0.20510771551E+04  0.20510771551E+04  0.00000000000E+00 0.  1.
         21   -1    0    0  501  502  0.00000000000E+00 -0.00000000000E+00 -0.64260884123E+03  0.64260884123E+03  0.00000000000E+00 0.  1.
    9000010    2    1    2  501    0 -0.34628344291E+03 -0.31633251939E+03 -0.93888778263E+02  0.11198196332E+04  0.10125228010E+04 0.  0.
        -13    1    3    3    0    0  0.21573378823E+03 -0.78348500965E+02  0.31164720935E+03  0.38704463470E+03  0.10566000000E+00 0.  1.
          4    1    3    3  501    0 -0.56201723114E+03 -0.23798401842E+03 -0.40553598761E+03  0.73277499846E+03  0.00000000000E+00 0.  1.
         13    1    1    2    0    0  0.34628344291E+03  0.31633251939E+03  0.15023570921E+04  0.15738663631E+04  0.10566000000E+00 0. -1.
<mgrwt>
<rscale>  1 0.89848266E+03</rscale>
<asrwt>0</asrwt>
<pdfrwt beam="2">  1       21 0.98862899E-01 0.11158767E+04</pdfrwt>
<pdfrwt beam="1">  1        4 0.31555033E+00 0.11158767E+04</pdfrwt>
<totfact> 0.48007103E+00</totfact>
</mgrwt>
</event>
<event>
 6    1  0.5391662E-005  0.1126750E+04  0.7818608E-02  0.9258304E-01
          4   -1    0    0  502    0 -0.00000000000E+00  0.00000000000E+00  0.28465005895E+04  0.28465005895E+04  0.00000000000E+00 0.  1.
         21   -1    0    0  501  502  0.00000000000E+00 -0.00000000000E+00 -0.13726340180E+03  0.13726340180E+03  0.00000000000E+00 0.  1.
    9000010    2    1    2  501    0 -0.99015912165E+02 -0.68979907323E+01  0.22802446727E+04  0.25434387453E+04  0.11223694359E+04 0.  0.
        -13    1    3    3    0    0 -0.30516711967E+02 -0.46575922024E+03  0.18592865559E+04  0.19169792459E+04  0.10566000000E+00 0.  1.
          4    1    3    3  501    0 -0.68499200198E+02  0.45886122951E+03  0.42095811678E+03  0.62645949945E+03  0.00000000000E+00 0.  1.
         13    1    1    2    0    0  0.99015912165E+02  0.68979907323E+01  0.42899251504E+03  0.44032524600E+03  0.10566000000E+00 0. -1.
<mgrwt>
<rscale>  1 0.61384642E+03</rscale>
<asrwt>0</asrwt>
<pdfrwt beam="2">  1       21 0.21117449E-01 0.11267497E+04</pdfrwt>
<pdfrwt beam="1">  1        4 0.43792312E+00 0.11267497E+04</pdfrwt>
<totfact> 0.52651322E+01</totfact>
</mgrwt>
</event>
<event>
 6    1  0.5391662E-005  0.1021506E+04  0.7818608E-02  0.9073831E-01
          4   -1    0    0  502    0 -0.00000000000E+00  0.00000000000E+00  0.27441629929E+04  0.27441629929E+04  0.00000000000E+00 0.  1.
         21   -1    0    0  501  502  0.00000000000E+00 -0.00000000000E+00 -0.15295198988E+03  0.15295198988E+03  0.00000000000E+00 0. -1.
    9000010    2    1    2  501    0 -0.27362967897E+03 -0.31573372303E+01  0.20781546354E+04  0.23156426984E+04  0.98417033485E+03 0.  0.
        -13    1    3    3    0    0  0.19961923185E+03 -0.16676680693E+03  0.10594923263E+03  0.28086341285E+03  0.10566000000E+00 0.  1.
          4    1    3    3  501    0 -0.47324891082E+03  0.16360946970E+03  0.19722054027E+04  0.20347792855E+04  0.00000000000E+00 0.  1.
         13    1    1    2    0    0  0.27362967897E+03  0.31573372303E+01  0.51305636771E+03  0.58147228446E+03  0.10566000000E+00 0. -1.
<mgrwt>
<rscale>  1 0.73490088E+03</rscale>
<asrwt>0</asrwt>
<pdfrwt beam="2">  1       21 0.23531077E-01 0.10215060E+04</pdfrwt>
<pdfrwt beam="1">  1        4 0.42217888E+00 0.10215060E+04</pdfrwt>
<totfact> 0.50400023E+01</totfact>
</mgrwt>
</event>
<event>
 6    1  0.5391662E-005  0.1026773E+04  0.7818608E-02  0.9093237E-01
         21   -1    0    0  501  502  0.00000000000E+00  0.00000000000E+00  0.25939460268E+03  0.25939460268E+03  0.00000000000E+00 0.  1.
          4   -1    0    0  502    0 -0.00000000000E+00 -0.00000000000E+00 -0.16324403291E+04  0.16324403291E+04  0.00000000000E+00 0.  1.
    9000010    2    1    2  501    0 -0.15475053779E+03 -0.19566629630E+03 -0.93998950522E+03  0.13920642540E+04  0.99600682176E+03 0.  0.
        -13    1    3    3    0    0 -0.45868112916E+03  0.19966199334E+03 -0.63175397096E+03  0.80583272508E+03  0.10566000000E+00 0.  1.
          4    1    3    3  501    0  0.30393059137E+03 -0.39532828964E+03 -0.30823553426E+03  0.58623152895E+03  0.00000000000E+00 0.  1.
         13    1    1    2    0    0  0.15475053779E+03  0.19566629630E+03 -0.43305622119E+03  0.49977067774E+03  0.10566000000E+00 0. -1.
<mgrwt>
<rscale>  1 0.72087245E+03</rscale>
<asrwt>0</asrwt>
<pdfrwt beam="1">  1       21 0.39906862E-01 0.10267729E+04</pdfrwt>
<pdfrwt beam="2">  1        4 0.25114467E+00 0.10267729E+04</pdfrwt>
<totfact> 0.58970226E+01</totfact>
</mgrwt>
</event>
<event>
 6    1  0.5391662E-005  0.1043352E+04  0.7818608E-02  0.9016229E-01
          4   -1    0    0  502    0 -0.00000000000E+00  0.00000000000E+00  0.24697377255E+04  0.24697377255E+04  0.00000000000E+00 0.  1.
         21   -1    0    0  501  502  0.00000000000E+00 -0.00000000000E+00 -0.22810988788E+03  0.22810988788E+03  0.00000000000E+00 0.  1.
    9000010    2    1    2  501    0  0.30712561033E+03  0.10149851086E+03  0.11207439314E+04  0.15312247820E+04  0.99194469862E+03 0.  0.
        -13    1    3    3    0    0  0.21516250755E+03  0.54695493655E+03  0.60296195127E+03  0.84203190743E+03  0.10566000000E+00 0.  1.
          4    1    3    3  501    0  0.91963102778E+02 -0.44545642570E+03  0.51778198013E+03  0.68919287461E+03  0.00000000000E+00 0.  1.
         13    1    1    2    0    0 -0.30712561033E+03 -0.10149851086E+03  0.11208839062E+04  0.11666228313E+04  0.10566000000E+00 0. -1.
<mgrwt>
<rscale>  1 0.77853659E+03</rscale>
<asrwt>0</asrwt>
<pdfrwt beam="2">  1       21 0.35093831E-01 0.10433515E+04</pdfrwt>
<pdfrwt beam="1">  1        4 0.37995963E+00 0.10433515E+04</pdfrwt>
<totfact> 0.32687859E+01</totfact>
</mgrwt>
</event>
<event>
 6    1  0.5391662E-005  0.1212118E+04  0.7818608E-02  0.9017349E-01
         21   -1    0    0  501  502  0.00000000000E+00  0.00000000000E+00  0.25981772784E+03  0.25981772784E+03  0.00000000000E+00 0.  1.
          4   -1    0    0  502    0 -0.00000000000E+00 -0.00000000000E+00 -0.22429350487E+04  0.22429350487E+04  0.00000000000E+00 0.  1.
    9000010    2    1    2  501    0  0.20518957565E+03 -0.84164344331E+01 -0.12490659365E+04  0.17405159076E+04  0.11945946227E+04 0.  0.
        -13    1    3    3    0    0 -0.19552848701E+03  0.50342271249E+03 -0.73332372131E+03  0.91073020598E+03  0.10566000000E+00 0.  1.
          4    1    3    3  501    0  0.40071806266E+03 -0.51183914692E+03 -0.51574221517E+03  0.82978570160E+03  0.00000000000E+00 0.  1.
         13    1    1    2    0    0 -0.20518957565E+03  0.84164344331E+01 -0.73405138439E+03  0.76223686897E+03  0.10566000000E+00 0. -1.
<mgrwt>
<rscale>  1 0.77765820E+03</rscale>
<asrwt>0</asrwt>
<pdfrwt beam="1">  1       21 0.39971958E-01 0.12121179E+04</pdfrwt>
<pdfrwt beam="2">  1        4 0.34506693E+00 0.12121179E+04</pdfrwt>
<totfact> 0.32435212E+01</totfact>
</mgrwt>
</event>
<event>
 6    1  0.5391662E-005  0.9900410E+03  0.7818608E-02  0.9422653E-01
         21   -1    0    0  501  502  0.00000000000E+00  0.00000000000E+00  0.53828935360E+03  0.53828935360E+03  0.00000000000E+00 0.  1.
          4   -1    0    0  502    0 -0.00000000000E+00 -0.00000000000E+00 -0.53086893281E+03  0.53086893281E+03  0.00000000000E+00 0.  1.
    9000010    2    1    2  501    0  0.10199358435E+02 -0.78245360403E+02  0.16803312749E+01  0.99004240223E+03  0.98689146889E+03 0.  0.
        -13    1    3    3    0    0  0.34622376569E+03  0.27508716228E+03 -0.16904825339E+03  0.47341437020E+03  0.10566000000E+00 0.  1.
          4    1    3    3  501    0 -0.33602440725E+03 -0.35333252268E+03  0.17072858467E+03  0.51662803203E+03  0.00000000000E+00 0.  1.
         13    1    1    2    0    0 -0.10199358435E+02  0.78245360403E+02  0.57400895167E+01  0.79115884175E+02  0.10566000000E+00 0. -1.
<mgrwt>
<rscale>  1 0.52604069E+03</rscale>
<asrwt>0</asrwt>
<pdfrwt beam="1">  1       21 0.82813747E-01 0.99004098E+03</pdfrwt>
<pdfrwt beam="2">  1        4 0.81672143E-01 0.99004098E+03</pdfrwt>
<totfact> 0.65615044E+01</totfact>
</mgrwt>
</event>
<event>
 6    1  0.5391662E-005  0.1038482E+04  0.7818608E-02  0.9029787E-01
         21   -1    0    0  501  502  0.00000000000E+00  0.00000000000E+00  0.26041003635E+03  0.26041003635E+03  0.00000000000E+00 0.  1.
          4   -1    0    0  502    0 -0.00000000000E+00 -0.00000000000E+00 -0.22984429715E+04  0.22984429715E+04  0.00000000000E+00 0.  1.
    9000010    2    1    2  501    0 -0.30984497085E+03 -0.21818129185E+02 -0.19898343299E+04  0.22445234778E+04  0.99094149452E+03 0.  0.
        -13    1    3    3    0    0  0.26146542828E+03 -0.29271687353E+02 -0.13955335078E+04  0.14201178770E+04  0.10566000000E+00 0.  1.
          4    1    3    3  501    0 -0.57131039913E+03  0.74535581684E+01 -0.59430082206E+03  0.82440560089E+03  0.00000000000E+00 0.  1.
         13    1    1    2    0    0  0.30984497085E+03  0.21818129185E+02 -0.48198605297E+02  0.31432953001E+03  0.10566000000E+00 0. -1.
<mgrwt>
<rscale>  1 0.76798712E+03</rscale>
<asrwt>0</asrwt>
<pdfrwt beam="1">  1       21 0.40063082E-01 0.10384821E+04</pdfrwt>
<pdfrwt beam="2">  1        4 0.35360661E+00 0.10384821E+04</pdfrwt>
<totfact> 0.30821168E+01</totfact>
</mgrwt>
</event>
<event>
 6    1  0.5391662E-005  0.9436633E+03  0.7818608E-02  0.9174918E-01
          4   -1    0    0  502    0 -0.00000000000E+00  0.00000000000E+00  0.18189275842E+04  0.18189275842E+04  0.00000000000E+00 0.  1.
         21   -1    0    0  501  502  0.00000000000E+00 -0.00000000000E+00 -0.25874799575E+03  0.25874799575E+03  0.00000000000E+00 0.  1.
    9000010    2    1    2  501    0 -0.25413451864E+01  0.23310535910E+03  0.66960650304E+03  0.11570969584E+04  0.91441562501E+03 0.  0.
        -13    1    3    3    0    0 -0.28314560361E+03 -0.17374531589E+03  0.55958768679E+03  0.65076666941E+03  0.10566000000E+00 0.  1.
          4    1    3    3  501    0  0.28060425842E+03  0.40685067499E+03  0.11001881624E+03  0.50633028896E+03  0.00000000000E+00 0.  1.
         13    1    1    2    0    0  0.25413451864E+01 -0.23310535910E+03  0.89057308537E+03  0.92057862154E+03  0.10566000000E+00 0. -1.
<mgrwt>
<rscale>  1 0.66528440E+03</rscale>
<asrwt>0</asrwt>
<pdfrwt beam="2">  1       21 0.39807385E-01 0.94366334E+03</pdfrwt>
<pdfrwt beam="1">  1        4 0.27983501E+00 0.94366334E+03</pdfrwt>
<totfact> 0.51160825E+01</totfact>
</mgrwt>
</event>
<event>
 6    1  0.5391662E-005  0.1017652E+04  0.7818608E-02  0.9138677E-01
          4   -1    0    0  502    0 -0.00000000000E+00  0.00000000000E+00  0.11888753544E+04  0.11888753544E+04  0.00000000000E+00 0.  1.
         21   -1    0    0  501  502  0.00000000000E+00 -0.00000000000E+00 -0.37091686707E+03  0.37091686707E+03  0.00000000000E+00 0.  1.
    9000010    2    1    2  501    0 -0.10250198786E+03 -0.18806091912E+03  0.40632681757E+03  0.10957725995E+04  0.99485805039E+03 0.  0.
        -13    1    3    3    0    0 -0.17145967422E+03 -0.50485980043E+03 -0.50522354652E+02  0.53556919017E+03  0.10566000000E+00 0.  1.
          4    1    3    3  501    0  0.68957686355E+02  0.31679888132E+03  0.45684917222E+03  0.56020340937E+03  0.00000000000E+00 0.  1.
         13    1    1    2    0    0  0.10250198786E+03  0.18806091912E+03  0.41163166971E+03  0.46401962188E+03  0.10566000000E+00 0. -1.
<mgrwt>
<rscale>  1 0.68927873E+03</rscale>
<asrwt>0</asrwt>
<pdfrwt beam="2">  1       21 0.57064134E-01 0.10176523E+04</pdfrwt>
<pdfrwt beam="1">  1        4 0.18290390E+00 0.10176523E+04</pdfrwt>
<totfact> 0.40553734E+01</totfact>
</mgrwt>
</event>
<event>
 6    1  0.5391662E-005  0.1070560E+04  0.7818608E-02  0.8969574E-01
          4   -1    0    0  502    0 -0.00000000000E+00  0.00000000000E+00  0.24511227965E+04  0.24511227965E+04  0.00000000000E+00 0.  1.
         21   -1    0    0  501  502  0.00000000000E+00 -0.00000000000E+00 -0.20970289558E+03  0.20970289558E+03  0.00000000000E+00 0. -1.
    9000010    2    1    2  501    0 -0.22882345536E+03  0.28017849276E+03  0.16198091701E+04  0.19416177435E+04  0.10075899725E+04 0.  0.
        -13    1    3    3    0    0 -0.33280236811E+03  0.58980808401E+03  0.13773589024E+04  0.15348447965E+04  0.10566000000E+00 0.  1.
          4    1    3    3  501    0  0.10397891275E+03 -0.30962959125E+03  0.24245026777E+03  0.40677294701E+03  0.00000000000E+00 0.  1.
         13    1    1    2    0    0  0.22882345536E+03 -0.28017849276E+03  0.62161073080E+03  0.71920794861E+03  0.10566000000E+00 0. -1.
<mgrwt>
<rscale>  1 0.81622342E+03</rscale>
<asrwt>0</asrwt>
<pdfrwt beam="2">  1       21 0.32261986E-01 0.10705595E+04</pdfrwt>
<pdfrwt beam="1">  1        4 0.37709579E+00 0.10705595E+04</pdfrwt>
<totfact> 0.39794158E+01</totfact>
</mgrwt>
</event>
<event>
 6    1  0.5391662E-005  0.9600879E+03  0.7818608E-02  0.9356940E-01
          4   -1    0    0  502    0 -0.00000000000E+00  0.00000000000E+00  0.89295922914E+03  0.89295922914E+03  0.00000000000E+00 0.  1.
         21   -1    0    0  501  502  0.00000000000E+00 -0.00000000000E+00 -0.48672806981E+03  0.48672806981E+03  0.00000000000E+00 0.  1.
    9000010    2    1    2  501    0 -0.10794577110E+03 -0.23458292424E+02  0.14347522135E+01  0.96008901087E+03  0.95371183766E+03 0.  0.
        -13    1    3    3    0    0 -0.21230722692E+03  0.32325820249E+03 -0.29959801259E+03  0.48921284160E+03  0.10566000000E+00 0.  1.
          4    1    3    3  501    0  0.10436145581E+03 -0.34671649491E+03  0.30103276480E+03  0.47087616927E+03  0.00000000000E+00 0.  1.
         13    1    1    2    0    0  0.10794577110E+03  0.23458292424E+02  0.40479640712E+03  0.41959828808E+03  0.10566000000E+00 0. -1.
<mgrwt>
<rscale>  1 0.55916473E+03</rscale>
<asrwt>0</asrwt>
<pdfrwt beam="2">  1       21 0.74881242E-01 0.96008794E+03</pdfrwt>
<pdfrwt beam="1">  1        4 0.13737834E+00 0.96008794E+03</pdfrwt>
<totfact> 0.32511533E+01</totfact>
</mgrwt>
</event>
<event>
 6    1  0.5391662E-005  0.1113927E+04  0.7818608E-02  0.8862056E-01
          4   -1    0    0  502    0 -0.00000000000E+00  0.00000000000E+00  0.10597323948E+04  0.10597323948E+04  0.00000000000E+00 0.  1.
         21   -1    0    0  501  502  0.00000000000E+00 -0.00000000000E+00 -0.63000051777E+03  0.63000051777E+03  0.00000000000E+00 0. -1.
    9000010    2    1    2  501    0  0.33486891166E+00  0.50034962158E+03  0.17273331615E+03  0.11272401327E+04  0.99523045685E+03 0.  0.
        -13    1    3    3    0    0 -0.22507537776E+03  0.15421910161E+03 -0.36089557303E+03  0.45242467083E+03  0.10566000000E+00 0.  1.
          4    1    3    3  501    0  0.22541024667E+03  0.34613051997E+03  0.53362888919E+03  0.67481546184E+03  0.00000000000E+00 0.  1.
         13    1    1    2    0    0 -0.33486891166E+00 -0.50034962158E+03  0.25699856083E+03  0.56249277986E+03  0.10566000000E+00 0. -1.
<mgrwt>
<rscale>  1 0.91192892E+03</rscale>
<asrwt>0</asrwt>
<pdfrwt beam="2">  1       21 0.96923157E-01 0.11139271E+04</pdfrwt>
<pdfrwt beam="1">  1        4 0.16303575E+00 0.11139271E+04</pdfrwt>
<totfact> 0.13104791E+01</totfact>
</mgrwt>
</event>
<event>
 6    1  0.5391662E-005  0.9744543E+03  0.7818608E-02  0.9488908E-01
         21   -1    0    0  501  502  0.00000000000E+00  0.00000000000E+00  0.43166052813E+03  0.43166052813E+03  0.00000000000E+00 0.  1.
          4   -1    0    0  502    0 -0.00000000000E+00 -0.00000000000E+00 -0.79505690625E+03  0.79505690625E+03  0.00000000000E+00 0.  1.
    9000010    2    1    2  501    0 -0.51917181172E+02  0.38952485979E+02 -0.12834579672E+03  0.98287019358E+03  0.97229032908E+03 0.  0.
        -13    1    3    3    0    0  0.14842957196E+03 -0.42462841122E+03 -0.15854898616E+03  0.47694697570E+03  0.10566000000E+00 0.  1.
          4    1    3    3  501    0 -0.20034675314E+03  0.46358089720E+03  0.30203189434E+02  0.50592321788E+03  0.00000000000E+00 0.  1.
         13    1    1    2    0    0  0.51917181172E+02 -0.38952485979E+02 -0.23505058139E+03  0.24384724079E+03  0.10566000000E+00 0. -1.
<mgrwt>
<rscale>  1 0.49504102E+03</rscale>
<asrwt>0</asrwt>
<pdfrwt beam="1">  1       21 0.66409312E-01 0.97445430E+03</pdfrwt>
<pdfrwt beam="2">  1        4 0.12231645E+00 0.97445430E+03</pdfrwt>
<totfact> 0.52023406E+01</totfact>
</mgrwt>
</event>
<event>
 6    1  0.5391662E-005  0.9789969E+03  0.7818608E-02  0.9632138E-01
          4   -1    0    0  502    0 -0.00000000000E+00  0.00000000000E+00  0.47319084879E+03  0.47319084879E+03  0.00000000000E+00 0.  1.
         21   -1    0    0  501  502  0.00000000000E+00 -0.00000000000E+00 -0.61182471685E+03  0.61182471685E+03  0.00000000000E+00 0.  1.
    9000010    2    1    2  501    0 -0.32687117173E+02  0.19940010788E+02 -0.21251944116E+03  0.10017981352E+04  0.97824789245E+03 0.  0.
        -13    1    3    3    0    0  0.36769452377E+03 -0.29343976858E+03 -0.11009886666E+03  0.48314380075E+03  0.10566000000E+00 0.  1.
          4    1    3    3  501    0 -0.40038164094E+03  0.31337977937E+03 -0.10242057450E+03  0.51865433441E+03  0.00000000000E+00 0.  1.
         13    1    1    2    0    0  0.32687117173E+02 -0.19940010788E+02  0.73885573101E+02  0.83217430481E+02  0.10566000000E+00 0. -1.
<mgrwt>
<rscale>  1 0.43536656E+03</rscale>
<asrwt>0</asrwt>
<pdfrwt beam="2">  1       21 0.94126879E-01 0.97899693E+03</pdfrwt>
<pdfrwt beam="1">  1        4 0.72798592E-01 0.97899693E+03</pdfrwt>
<totfact> 0.60070168E+01</totfact>
</mgrwt>
</event>
<event>
 6    1  0.5391662E-005  0.1349700E+04  0.7818608E-02  0.8588048E-01
         21   -1    0    0  501  502  0.00000000000E+00  0.00000000000E+00  0.90992938326E+03  0.90992938326E+03  0.00000000000E+00 0. -1.
          4   -1    0    0  502    0 -0.00000000000E+00 -0.00000000000E+00 -0.20099517018E+04  0.20099517018E+04  0.00000000000E+00 0.  1.
    9000010    2    1    2  501    0 -0.45079597210E+03  0.79688144645E+03  0.16345002257E+03  0.13595607923E+04  0.99169178169E+03 0.  0.
        -13    1    3    3    0    0  0.23517191676E+03  0.20211782132E+01 -0.13089197103E+03  0.26915169485E+03  0.10566000000E+00 0.  1.
          4    1    3    3  501    0 -0.68596788886E+03  0.79486026824E+03  0.29434199360E+03  0.10904090974E+04  0.00000000000E+00 0.  1.
         13    1    1    2    0    0  0.45079597210E+03 -0.79688144645E+03 -0.12634723411E+04  0.15603202928E+04  0.10566000000E+00 0. -1.
<mgrwt>
<rscale>  1 0.12248947E+04</rscale>
<asrwt>0</asrwt>
<pdfrwt beam="1">  1       21 0.13998914E+00 0.13496998E+04</pdfrwt>
<pdfrwt beam="2">  1        4 0.30922334E+00 0.13496998E+04</pdfrwt>
<totfact> 0.18336076E+00</totfact>
</mgrwt>
</event>
<event>
 6    1  0.5391662E-005  0.9862016E+03  0.7818608E-02  0.9315756E-01
          4   -1    0    0  502    0 -0.00000000000E+00  0.00000000000E+00  0.20945338754E+04  0.20945338754E+04  0.00000000000E+00 0.  1.
         21   -1    0    0  501  502  0.00000000000E+00 -0.00000000000E+00 -0.17056711391E+03  0.17056711391E+03  0.00000000000E+00 0.  1.
    9000010    2    1    2  501    0  0.77266816287E+02  0.90488804268E+02  0.13100730958E+04  0.16397820079E+04  0.97899700328E+03 0.  0.
        -13    1    3    3    0    0  0.36939881974E+03 -0.31428048094E+03  0.69808627234E+03  0.85003068387E+03  0.10566000000E+00 0.  1.
          4    1    3    3  501    0 -0.29213200346E+03  0.40476928521E+03  0.61198682347E+03  0.78975132402E+03  0.00000000000E+00 0.  1.
         13    1    1    2    0    0 -0.77266816287E+02 -0.90488804268E+02  0.61389366566E+03  0.62531898140E+03  0.10566000000E+00 0. -1.
<mgrwt>
<rscale>  1 0.58123401E+03</rscale>
<asrwt>0</asrwt>
<pdfrwt beam="2">  1       21 0.26241096E-01 0.98620156E+03</pdfrwt>
<pdfrwt beam="1">  1        4 0.32223596E+00 0.98620156E+03</pdfrwt>
<totfact> 0.92880329E+01</totfact>
</mgrwt>
</event>
<event>
 6    1  0.5391662E-005  0.1016246E+04  0.7818608E-02  0.9014932E-01
         21   -1    0    0  501  502  0.00000000000E+00  0.00000000000E+00  0.31380471565E+03  0.31380471565E+03  0.00000000000E+00 0.  1.
          4   -1    0    0  502    0 -0.00000000000E+00 -0.00000000000E+00 -0.14947109090E+04  0.14947109090E+04  0.00000000000E+00 0.  1.
    9000010    2    1    2  501    0 -0.34476688258E+02 -0.35018253557E+03 -0.91493609644E+03  0.13674299710E+04  0.95338356116E+03 0.  0.
        -13    1    3    3    0    0  0.37723389696E+03 -0.18448526838E+03 -0.88179962302E+02  0.42908733863E+03  0.10566000000E+00 0.  1.
          4    1    3    3  501    0 -0.41171058521E+03 -0.16569726719E+03 -0.82675613414E+03  0.93834263234E+03  0.00000000000E+00 0.  1.
         13    1    1    2    0    0  0.34476688258E+02  0.35018253557E+03 -0.26597009690E+03  0.44108565366E+03  0.10566000000E+00 0. -1.
<mgrwt>
<rscale>  1 0.77955472E+03</rscale>
<asrwt>0</asrwt>
<pdfrwt beam="1">  1       21 0.48277650E-01 0.10162464E+04</pdfrwt>
<pdfrwt beam="2">  1        4 0.22995552E+00 0.10162464E+04</pdfrwt>
<totfact> 0.43837943E+01</totfact>
</mgrwt>
</event>
<event>
 6    1  0.5391662E-005  0.1065893E+04  0.7818608E-02  0.8905798E-01
          4   -1    0    0  502    0 -0.00000000000E+00  0.00000000000E+00  0.17857009115E+04  0.17857009115E+04  0.00000000000E+00 0.  1.
         21   -1    0    0  501  502  0.00000000000E+00 -0.00000000000E+00 -0.48020372371E+03  0.48020372371E+03  0.00000000000E+00 0.  1.
    9000010    2    1    2  501    0  0.47508885706E+03 -0.32310330137E+02  0.23102563056E+03  0.10906418910E+04  0.95361077638E+03 0.  0.
        -13    1    3    3    0    0 -0.29406185131E+03 -0.31286051307E+02  0.85620950781E+02  0.30786709434E+03  0.10566000000E+00 0.  1.
          4    1    3    3  501    0  0.76915070838E+03 -0.10242788297E+01  0.14540467978E+03  0.78277479663E+03  0.00000000000E+00 0.  1.
         13    1    1    2    0    0 -0.47508885706E+03  0.32310330137E+02  0.10744715572E+04  0.11752627443E+04  0.10566000000E+00 0. -1.
<mgrwt>
<rscale>  1 0.87142354E+03</rscale>
<asrwt>0</asrwt>
<pdfrwt beam="2">  1       21 0.73877497E-01 0.10658925E+04</pdfrwt>
<pdfrwt beam="1">  1        4 0.27472321E+00 0.10658925E+04</pdfrwt>
<totfact> 0.12881800E+01</totfact>
</mgrwt>
</event>
<event>
 6    1  0.5391662E-005  0.9983381E+03  0.7818608E-02  0.9284129E-01
          4   -1    0    0  502    0 -0.00000000000E+00  0.00000000000E+00  0.61372416127E+03  0.61372416127E+03  0.00000000000E+00 0.  1.
         21   -1    0    0  501  502  0.00000000000E+00 -0.00000000000E+00 -0.51849913311E+03  0.51849913311E+03  0.00000000000E+00 0.  1.
    9000010    2    1    2  501    0 -0.96490822159E+02 -0.86082911802E+02  0.72845381557E+02  0.10009921768E+04  0.98992835197E+03 0.  0.
        -13    1    3    3    0    0  0.38232269865E+03 -0.28415829827E+03 -0.87666719879E+01  0.47643829619E+03  0.10566000000E+00 0.  1.
          4    1    3    3  501    0 -0.47881352080E+03  0.19807538646E+03  0.81612053545E+02  0.52455388066E+03  0.00000000000E+00 0.  1.
         13    1    1    2    0    0  0.96490822159E+02  0.86082911802E+02  0.22379646602E+02  0.13123111754E+03  0.10566000000E+00 0. -1.
<mgrwt>
<rscale>  1 0.59891504E+03</rscale>
<asrwt>0</asrwt>
<pdfrwt beam="2">  1       21 0.79769098E-01 0.99833806E+03</pdfrwt>
<pdfrwt beam="1">  1        4 0.94419101E-01 0.99833806E+03</pdfrwt>
<totfact> 0.53610125E+01</totfact>
</mgrwt>
</event>
<event>
 6    1  0.5391662E-005  0.1020206E+04  0.7818608E-02  0.9290077E-01
          4   -1    0    0  502    0 -0.00000000000E+00  0.00000000000E+00  0.11047339668E+04  0.11047339668E+04  0.00000000000E+00 0.  1.
         21   -1    0    0  501  502  0.00000000000E+00 -0.00000000000E+00 -0.29341983036E+03  0.29341983036E+03  0.00000000000E+00 0.  1.
    9000010    2    1    2  501    0 -0.11369864617E+03 -0.33255108129E+02  0.72457500223E+03  0.12513308667E+04  0.10133048503E+04 0.  0.
        -13    1    3    3    0    0  0.25526642428E+03  0.27256572523E+03 -0.10793818596E+02  0.37359006895E+03  0.10566000000E+00 0.  1.
          4    1    3    3  501    0 -0.36896507045E+03 -0.30582083336E+03  0.73536882083E+03  0.87774079772E+03  0.00000000000E+00 0.  1.
         13    1    1    2    0    0  0.11369864617E+03  0.33255108129E+02  0.86739134242E+02  0.14682293054E+03  0.10566000000E+00 0. -1.
<mgrwt>
<rscale>  1 0.59553984E+03</rscale>
<asrwt>0</asrwt>
<pdfrwt beam="2">  1       21 0.45141513E-01 0.10202059E+04</pdfrwt>
<pdfrwt beam="1">  1        4 0.16995907E+00 0.10202059E+04</pdfrwt>
<totfact> 0.75588024E+01</totfact>
</mgrwt>
</event>
<event>
 6    1  0.5391662E-005  0.1019371E+04  0.7818608E-02  0.8957932E-01
          4   -1    0    0  502    0 -0.00000000000E+00  0.00000000000E+00  0.13035445192E+04  0.13035445192E+04  0.00000000000E+00 0.  1.
         21   -1    0    0  501  502  0.00000000000E+00 -0.00000000000E+00 -0.41815404605E+03  0.41815404605E+03  0.00000000000E+00 0. -1.
    9000010    2    1    2  501    0  0.40458792574E+03 -0.17142857678E+03  0.49187117450E+03  0.11318370593E+04  0.91980363665E+03 0.  0.
        -13    1    3    3    0    0 -0.24614456379E+03  0.15144451185E+03  0.95915056639E+02  0.30450335910E+03  0.10566000000E+00 0.  1.
          4    1    3    3  501    0  0.65073248952E+03 -0.32287308862E+03  0.39595611786E+03  0.82733370024E+03  0.00000000000E+00 0.  1.
         13    1    1    2    0    0 -0.40458792574E+03  0.17142857678E+03  0.39351929867E+03  0.58986150593E+03  0.10566000000E+00 0. -1.
<mgrwt>
<rscale>  1 0.82597372E+03</rscale>
<asrwt>0</asrwt>
<pdfrwt beam="2">  1       21 0.64331392E-01 0.10193713E+04</pdfrwt>
<pdfrwt beam="1">  1        4 0.20054531E+00 0.10193713E+04</pdfrwt>
<totfact> 0.27282018E+01</totfact>
</mgrwt>
</event>
<event>
 6    1  0.5391662E-005  0.1018383E+04  0.7818608E-02  0.9068239E-01
          4   -1    0    0  502    0 -0.00000000000E+00  0.00000000000E+00  0.21496403541E+04  0.21496403541E+04  0.00000000000E+00 0.  1.
         21   -1    0    0  501  502  0.00000000000E+00 -0.00000000000E+00 -0.27447198194E+03  0.27447198194E+03  0.00000000000E+00 0.  1.
    9000010    2    1    2  501    0 -0.28180376525E+03 -0.18238744703E+02  0.75187700364E+03  0.12658681806E+04  0.97844632355E+03 0.  0.
        -13    1    3    3    0    0  0.18638026212E+03  0.36129258759E+03  0.22108730821E+03  0.46276294685E+03  0.10566000000E+00 0.  1.
          4    1    3    3  501    0 -0.46818402736E+03 -0.37953133229E+03  0.53078969543E+03  0.80310523373E+03  0.00000000000E+00 0.  1.
         13    1    1    2    0    0  0.28180376525E+03  0.18238744703E+02  0.11232913685E+04  0.11582441555E+04  0.10566000000E+00 0. -1.
<mgrwt>
<rscale>  1 0.73900415E+03</rscale>
<asrwt>0</asrwt>
<pdfrwt beam="2">  1       21 0.42226460E-01 0.10183827E+04</pdfrwt>
<pdfrwt beam="1">  1        4 0.33071389E+00 0.10183827E+04</pdfrwt>
<totfact> 0.32507537E+01</totfact>
</mgrwt>
</event>
<event>
 6    1  0.5391662E-005  0.1298678E+04  0.7818608E-02  0.8624632E-01
          4   -1    0    0  502    0 -0.00000000000E+00  0.00000000000E+00  0.13955204056E+04  0.13955204056E+04  0.00000000000E+00 0.  1.
         21   -1    0    0  501  502  0.00000000000E+00 -0.00000000000E+00 -0.99140753242E+03  0.99140753242E+03  0.00000000000E+00 0. -1.
    9000010    2    1    2  501    0  0.25615264981E+03 -0.83571585101E+03 -0.21423878474E+03  0.13162300592E+04  0.96048328893E+03 0.  0.
        -13    1    3    3    0    0  0.76770703242E+01 -0.99612199095E+03 -0.10806556175E+03  0.10019960754E+04  0.10566000000E+00 0.  1.
          4    1    3    3  501    0  0.24847557948E+03  0.16040613995E+03 -0.10617322299E+03  0.31423398386E+03  0.00000000000E+00 0.  1.
         13    1    1    2    0    0 -0.25615264981E+03  0.83571585101E+03  0.61835165795E+03  0.10706978788E+04  0.10566000000E+00 0. -1.
<mgrwt>
<rscale>  1 0.11762921E+04</rscale>
<asrwt>0</asrwt>
<pdfrwt beam="2">  1       21 0.15252423E+00 0.12986775E+04</pdfrwt>
<pdfrwt beam="1">  1        4 0.21469545E+00 0.12986775E+04</pdfrwt>
<totfact> 0.24629735E+00</totfact>
</mgrwt>
</event>
<event>
 6    1  0.5391662E-005  0.8329429E+03  0.7818608E-02  0.9168817E-01
          4   -1    0    0  502    0 -0.00000000000E+00  0.00000000000E+00  0.52233222099E+03  0.52233222099E+03  0.00000000000E+00 0.  1.
         21   -1    0    0  501  502  0.00000000000E+00 -0.00000000000E+00 -0.73882943508E+03  0.73882943508E+03  0.00000000000E+00 0.  1.
    9000010    2    1    2  501    0  0.13257504166E+03  0.32083308041E+03 -0.32999988224E+03  0.89593176409E+03  0.75715506766E+03 0.  0.
        -13    1    3    3    0    0  0.16533365678E+03  0.47134520891E+03  0.34024452712E+02  0.50065876460E+03  0.10566000000E+00 0.  1.
          4    1    3    3  501    0 -0.32758615127E+02 -0.15051212850E+03 -0.36402433495E+03  0.39527299949E+03  0.00000000000E+00 0.  1.
         13    1    1    2    0    0 -0.13257504166E+03 -0.32083308041E+03  0.11350266815E+03  0.36522989198E+03  0.10566000000E+00 0. -1.
<mgrwt>
<rscale>  1 0.66925142E+03</rscale>
<asrwt>0</asrwt>
<pdfrwt beam="2">  1       21 0.11366607E+00 0.83294286E+03</pdfrwt>
<pdfrwt beam="1">  1        4 0.80358803E-01 0.83294286E+03</pdfrwt>
<totfact> 0.30125781E+01</totfact>
</mgrwt>
</event>
<event>
 6    1  0.5391662E-005  0.1037381E+04  0.7818608E-02  0.9070715E-01
         21   -1    0    0  501  502  0.00000000000E+00  0.00000000000E+00  0.23082797365E+03  0.23082797365E+03  0.00000000000E+00 0.  1.
          4   -1    0    0  502    0 -0.00000000000E+00 -0.00000000000E+00 -0.18366159942E+04  0.18366159942E+04  0.00000000000E+00 0.  1.
    9000010    2    1    2  501    0  0.12912579672E+03 -0.23088408105E+03 -0.12615061702E+04  0.16332655093E+04  0.10030839825E+04 0.  0.
        -13    1    3    3    0    0 -0.75942739629E+02 -0.94906522972E+02 -0.13620485883E+04  0.13674614861E+04  0.10566000000E+00 0.  1.
          4    1    3    3  501    0  0.20506853635E+03 -0.13597755808E+03  0.10054241810E+03  0.26580402319E+03  0.00000000000E+00 0.  1.
         13    1    1    2    0    0 -0.12912579672E+03  0.23088408105E+03 -0.34428185035E+03  0.43417845859E+03  0.10566000000E+00 0. -1.
<mgrwt>
<rscale>  1 0.73718425E+03</rscale>
<asrwt>0</asrwt>
<pdfrwt beam="1">  1       21 0.35511997E-01 0.10373806E+04</pdfrwt>
<pdfrwt beam="2">  1        4 0.28255630E+00 0.10373806E+04</pdfrwt>
<totfact> 0.63467944E+01</totfact>
</mgrwt>
</event>
<event>
 6    1  0.5391662E-005  0.9938002E+03  0.7818608E-02  0.9173001E-01
          4   -1    0    0  502    0 -0.00000000000E+00  0.00000000000E+00  0.15038399175E+04  0.15038399175E+04  0.00000000000E+00 0.  1.
         21   -1    0    0  501  502  0.00000000000E+00 -0.00000000000E+00 -0.28710433641E+03  0.28710433641E+03  0.00000000000E+00 0.  1.
    9000010    2    1    2  501    0  0.11467090246E+03  0.16518253019E+03  0.64471229231E+03  0.11846066102E+04  0.97324416096E+03 0.  0.
        -13    1    3    3    0    0  0.43124365833E+03  0.19371942426E+02  0.70910825977E+03  0.83016919977E+03  0.10566000000E+00 0.  1.
          4    1    3    3  501    0 -0.31657275587E+03  0.14581058777E+03 -0.64395967459E+02  0.35443741040E+03  0.00000000000E+00 0.  1.
         13    1    1    2    0    0 -0.11467090246E+03 -0.16518253019E+03  0.57202328876E+03  0.60633764372E+03  0.10566000000E+00 0. -1.
<mgrwt>
<rscale>  1 0.66652829E+03</rscale>
<asrwt>0</asrwt>
<pdfrwt beam="2">  1       21 0.44169899E-01 0.99380022E+03</pdfrwt>
<pdfrwt beam="1">  1        4 0.23135998E+00 0.99380022E+03</pdfrwt>
<totfact> 0.52908685E+01</totfact>
</mgrwt>
</event>
<event>
 6    1  0.5391662E-005  0.8481710E+03  0.7818608E-02  0.9257758E-01
         21   -1    0    0  501  502  0.00000000000E+00  0.00000000000E+00  0.40538898694E+03  0.40538898694E+03  0.00000000000E+00 0.  1.
          4   -1    0    0  502    0 -0.00000000000E+00 -0.00000000000E+00 -0.72484463787E+03  0.72484463787E+03  0.00000000000E+00 0.  1.
    9000010    2    1    2  501    0 -0.80027433034E+02 -0.21902025975E+03 -0.21671145684E+03  0.87541870216E+03  0.81548745199E+03 0.  0.
        -13    1    3    3    0    0  0.64731999329E+01 -0.46251763518E+03  0.93254098983E+02  0.47186947698E+03  0.10566000000E+00 0.  1.
          4    1    3    3  501    0 -0.86500632967E+02  0.24349737543E+03 -0.30996555582E+03  0.40354922518E+03  0.00000000000E+00 0.  1.
         13    1    1    2    0    0  0.80027433034E+02  0.21902025975E+03 -0.10274419409E+03  0.25481492264E+03  0.10566000000E+00 0. -1.
<mgrwt>
<rscale>  1 0.61416739E+03</rscale>
<asrwt>0</asrwt>
<pdfrwt beam="1">  1       21 0.62367537E-01 0.84817100E+03</pdfrwt>
<pdfrwt beam="2">  1        4 0.11151456E+00 0.84817100E+03</pdfrwt>
<totfact> 0.71037671E+01</totfact>
</mgrwt>
</event>
<event>
 6    1  0.5391662E-005  0.1160872E+04  0.7818608E-02  0.8810636E-01
          4   -1    0    0  502    0 -0.00000000000E+00  0.00000000000E+00  0.15778751072E+04  0.15778751072E+04  0.00000000000E+00 0.  1.
         21   -1    0    0  501  502  0.00000000000E+00 -0.00000000000E+00 -0.49118411083E+03  0.49118411083E+03  0.00000000000E+00 0.  1.
    9000010    2    1    2  501    0 -0.54051549561E+03 -0.93928419968E+02  0.49452114920E+03  0.12618140953E+04  0.10230562522E+04 0.  0.
        -13    1    3    3    0    0 -0.47343754037E+03 -0.52760910737E+03  0.21202570506E+03  0.73991174176E+03  0.10566000000E+00 0.  1.
          4    1    3    3  501    0 -0.67077955232E+02  0.43368068741E+03  0.28249544414E+03  0.52190235357E+03  0.00000000000E+00 0.  1.
         13    1    1    2    0    0  0.54051549561E+03  0.93928419968E+02  0.59216984719E+03  0.80724512272E+03  0.10566000000E+00 0. -1.
<mgrwt>
<rscale>  1 0.96251024E+03</rscale>
<asrwt>0</asrwt>
<pdfrwt beam="2">  1       21 0.75566787E-01 0.11608719E+04</pdfrwt>
<pdfrwt beam="1">  1        4 0.24275001E+00 0.11608719E+04</pdfrwt>
<totfact> 0.14367580E+01</totfact>
</mgrwt>
</event>
<event>
 6    1  0.5391662E-005  0.8651290E+03  0.7818608E-02  0.9874698E-01
          4   -1    0    0  502    0 -0.00000000000E+00  0.00000000000E+00  0.21845771979E+03  0.21845771979E+03  0.00000000000E+00 0.  1.
         21   -1    0    0  501  502  0.00000000000E+00 -0.00000000000E+00 -0.11731717847E+04  0.11731717847E+04  0.00000000000E+00 0.  1.
    9000010    2    1    2  501    0  0.12241363826E+02  0.20701943115E+02 -0.10108768047E+04  0.13305337932E+04  0.86479468025E+03 0.  0.
        -13    1    3    3    0    0  0.11535327674E+03 -0.11470969257E+03 -0.11177724608E+04  0.11295485724E+04  0.10566000000E+00 0.  1.
          4    1    3    3  501    0 -0.10311191291E+03  0.13541163568E+03  0.10689565613E+03  0.20098522076E+03  0.00000000000E+00 0.  1.
         13    1    1    2    0    0 -0.12241363826E+02 -0.20701943115E+02  0.56162739807E+02  0.61095711337E+02  0.10566000000E+00 0. -1.
<mgrwt>
<rscale>  1 0.35325821E+03</rscale>
<asrwt>0</asrwt>
<pdfrwt beam="2">  1       21 0.18048796E+00 0.86512904E+03</pdfrwt>
<pdfrwt beam="1">  1        4 0.33608881E-01 0.86512904E+03</pdfrwt>
<totfact> 0.45320594E+01</totfact>
</mgrwt>
</event>
<event>
 6    1  0.5391662E-005  0.1039469E+04  0.7818608E-02  0.9049256E-01
         21   -1    0    0  501  502  0.00000000000E+00  0.00000000000E+00  0.26497655430E+04  0.26497655430E+04  0.00000000000E+00 0. -1.
          4   -1    0    0  502    0 -0.00000000000E+00 -0.00000000000E+00 -0.16599601612E+03  0.16599601612E+03  0.00000000000E+00 0.  1.
    9000010    2    1    2  501    0  0.28445268597E+03  0.33918492772E+02  0.19780487989E+04  0.22345410669E+04  0.99921615986E+03 0.  0.
        -13    1    3    3    0    0  0.56011881336E+03  0.25436134057E+03  0.16149777355E+04  0.17281741446E+04  0.10566000000E+00 0.  1.
          4    1    3    3  501    0 -0.27566612739E+03 -0.22044284780E+03  0.36307106335E+03  0.50636692228E+03  0.00000000000E+00 0.  1.
         13    1    1    2    0    0 -0.28445268597E+03 -0.33918492772E+02  0.50572072796E+03  0.58122049221E+03  0.10566000000E+00 0. -1.
<mgrwt>
<rscale>  1 0.75314354E+03</rscale>
<asrwt>0</asrwt>
<pdfrwt beam="1">  1       21 0.40765621E+00 0.10394694E+04</pdfrwt>
<pdfrwt beam="2">  1        4 0.25537851E-01 0.10394694E+04</pdfrwt>
<totfact> 0.17498953E+00</totfact>
</mgrwt>
</event>
<event>
 6    1  0.5391662E-005  0.1011800E+04  0.7818608E-02  0.9289726E-01
          4   -1    0    0  502    0 -0.00000000000E+00  0.00000000000E+00  0.29324790899E+03  0.29324790899E+03  0.00000000000E+00 0.  1.
         21   -1    0    0  501  502  0.00000000000E+00 -0.00000000000E+00 -0.11940831422E+04  0.11940831422E+04  0.00000000000E+00 0.  1.
    9000010    2    1    2  501    0 -0.12128726221E+03  0.87339119473E+01 -0.91593081654E+03  0.13647962847E+04  0.10044664041E+04 0.  0.
        -13    1    3    3    0    0 -0.19801870583E+03 -0.38398448805E+03 -0.85779365934E+03  0.96045065885E+03  0.10566000000E+00 0.  1.
          4    1    3    3  501    0  0.76731443627E+02  0.39271839999E+03 -0.58137157199E+02  0.40434562590E+03  0.00000000000E+00 0.  1.
         13    1    1    2    0    0  0.12128726221E+03 -0.87339119473E+01  0.15095583310E+02  0.12253476646E+03  0.10566000000E+00 0. -1.
<mgrwt>
<rscale>  1 0.59573852E+03</rscale>
<asrwt>0</asrwt>
<pdfrwt beam="2">  1       21 0.18370510E+00 0.10118002E+04</pdfrwt>
<pdfrwt beam="1">  1        4 0.45115063E-01 0.10118002E+04</pdfrwt>
<totfact> 0.23141415E+01</totfact>
</mgrwt>
</event>
<event>
 6    1  0.5391662E-005  0.1006760E+04  0.7818608E-02  0.9365782E-01
         21   -1    0    0  501  502  0.00000000000E+00  0.00000000000E+00  0.33582062128E+03  0.33582062128E+03  0.00000000000E+00 0.  1.
          4   -1    0    0  502    0 -0.00000000000E+00 -0.00000000000E+00 -0.10052544400E+04  0.10052544400E+04  0.00000000000E+00 0.  1.
    9000010    2    1    2  501    0  0.86043509093E+02 -0.34461544581E+02 -0.44977681298E+03  0.11026630338E+04  0.10024846638E+04 0.  0.
        -13    1    3    3    0    0 -0.53160430971E+02 -0.61043410147E+02  0.31481141225E+03  0.32505163557E+03  0.10566000000E+00 0.  1.
          4    1    3    3  501    0  0.13920394006E+03  0.26581865566E+02 -0.76458822523E+03  0.77761139824E+03  0.00000000000E+00 0.  1.
         13    1    1    2    0    0 -0.86043509093E+02  0.34461544581E+02 -0.21965700574E+03  0.23841202748E+03  0.10566000000E+00 0. -1.
<mgrwt>
<rscale>  1 0.55456272E+03</rscale>
<asrwt>0</asrwt>
<pdfrwt beam="1">  1       21 0.51664712E-01 0.10067604E+04</pdfrwt>
<pdfrwt beam="2">  1        4 0.15465453E+00 0.10067604E+04</pdfrwt>
<totfact> 0.64147092E+01</totfact>
</mgrwt>
</event>
<event>
 6    1  0.5391662E-005  0.1004772E+04  0.7818608E-02  0.9357351E-01
          4   -1    0    0  502    0 -0.00000000000E+00  0.00000000000E+00  0.35754677567E+03  0.35754677567E+03  0.00000000000E+00 0.  1.
         21   -1    0    0  501  502  0.00000000000E+00 -0.00000000000E+00 -0.91772499053E+03  0.91772499053E+03  0.00000000000E+00 0.  1.
    9000010    2    1    2  501    0  0.26261191232E+02 -0.92572273621E+02 -0.60094184089E+03  0.11707683673E+04  0.10001540870E+04 0.  0.
        -13    1    3    3    0    0  0.26790550595E+03 -0.46593472608E+03 -0.20472714840E+03  0.57513628432E+03  0.10566000000E+00 0.  1.
          4    1    3    3  501    0 -0.24164431472E+03  0.37336245246E+03 -0.39621469249E+03  0.59563208299E+03  0.00000000000E+00 0.  1.
         13    1    1    2    0    0 -0.26261191232E+02  0.92572273621E+02  0.40763626024E+02  0.10450339889E+03  0.10566000000E+00 0. -1.
<mgrwt>
<rscale>  1 0.55894999E+03</rscale>
<asrwt>0</asrwt>
<pdfrwt beam="2">  1       21 0.14118846E+00 0.10047723E+04</pdfrwt>
<pdfrwt beam="1">  1        4 0.55007197E-01 0.10047723E+04</pdfrwt>
<totfact> 0.35416591E+01</totfact>
</mgrwt>
</event>
<event>
 6    1  0.5391662E-005  0.1027265E+04  0.7818608E-02  0.9101547E-01
         21   -1    0    0  501  502  0.00000000000E+00  0.00000000000E+00  0.76784362066E+03  0.76784362066E+03  0.00000000000E+00 0.  1.
          4   -1    0    0  502    0 -0.00000000000E+00 -0.00000000000E+00 -0.11314700728E+04  0.11314700728E+04  0.00000000000E+00 0.  1.
    9000010    2    1    2  501    0  0.54479309057E+02 -0.23480521557E+03  0.39707494221E+03  0.11013361832E+04  0.99858469560E+03 0.  0.
        -13    1    3    3    0    0  0.36324068881E+03 -0.19076534772E+03 -0.17791856412E+03  0.44720268618E+03  0.10566000000E+00 0.  1.
          4    1    3    3  501    0 -0.30876137976E+03 -0.44039867851E+02  0.57499350632E+03  0.65413349701E+03  0.00000000000E+00 0.  1.
         13    1    1    2    0    0 -0.54479309057E+02  0.23480521557E+03 -0.76070139436E+03  0.79797751029E+03  0.10566000000E+00 0. -1.
<mgrwt>
<rscale>  1 0.71496570E+03</rscale>
<asrwt>0</asrwt>
<pdfrwt beam="1">  1       21 0.11812979E+00 0.10272648E+04</pdfrwt>
<pdfrwt beam="2">  1        4 0.17407232E+00 0.10272648E+04</pdfrwt>
<totfact> 0.70980183E+00</totfact>
</mgrwt>
</event>
<event>
 6    1  0.5391662E-005  0.1363760E+04  0.7818608E-02  0.8578436E-01
         21   -1    0    0  501  502  0.00000000000E+00  0.00000000000E+00  0.77800274883E+03  0.77800274883E+03  0.00000000000E+00 0. -1.
          4   -1    0    0  502    0 -0.00000000000E+00 -0.00000000000E+00 -0.17177584775E+04  0.17177584775E+04  0.00000000000E+00 0.  1.
    9000010    2    1    2  501    0 -0.12390747452E+03  0.91799525666E+03 -0.72654391077E+03  0.15452205150E+04  0.10008856239E+04 0.  0.
        -13    1    3    3    0    0  0.23676642259E+03  0.78873606764E+03 -0.12632149696E+03  0.83313867695E+03  0.10566000000E+00 0.  1.
          4    1    3    3  501    0 -0.36067389711E+03  0.12925918902E+03 -0.60022241381E+03  0.71208183802E+03  0.00000000000E+00 0.  1.
         13    1    1    2    0    0  0.12390747452E+03 -0.91799525666E+03 -0.21321181790E+03  0.95054071136E+03  0.10566000000E+00 0. -1.
<mgrwt>
<rscale>  1 0.12380656E+04</rscale>
<asrwt>0</asrwt>
<pdfrwt beam="1">  1       21 0.11969273E+00 0.13637597E+04</pdfrwt>
<pdfrwt beam="2">  1        4 0.26427053E+00 0.13637597E+04</pdfrwt>
<totfact> 0.37836111E+00</totfact>
</mgrwt>
</event>
<event>
 6    1  0.5391662E-005  0.1225928E+04  0.7818608E-02  0.8695330E-01
         21   -1    0    0  501  502  0.00000000000E+00  0.00000000000E+00  0.34880101223E+03  0.34880101223E+03  0.00000000000E+00 0.  1.
          4   -1    0    0  502    0 -0.00000000000E+00 -0.00000000000E+00 -0.42850011807E+04  0.42850011807E+04  0.00000000000E+00 0.  1.
    9000010    2    1    2  501    0 -0.27521845978E+03 -0.71150331237E+03 -0.94786411240E+03  0.15496273342E+04  0.95964385849E+03 0.  0.
        -13    1    3    3    0    0 -0.12419801345E+03  0.20182674494E+03 -0.42456975523E+03  0.48622903013E+03  0.10566000000E+00 0.  1.
          4    1    3    3  501    0 -0.15102044633E+03 -0.91333005732E+03 -0.52329435716E+03  0.10633983040E+04  0.00000000000E+00 0.  1.
         13    1    1    2    0    0  0.27521845978E+03  0.71150331237E+03 -0.29883360560E+04  0.30841748587E+04  0.10566000000E+00 0. -1.
<mgrwt>
<rscale>  1 0.10888356E+04</rscale>
<asrwt>0</asrwt>
<pdfrwt beam="1">  1       21 0.53661695E-01 0.12259276E+04</pdfrwt>
<pdfrwt beam="2">  1        4 0.65923095E+00 0.12259276E+04</pdfrwt>
<totfact> 0.55841526E-01</totfact>
</mgrwt>
</event>
<event>
 6    1  0.5391662E-005  0.9580028E+03  0.7818608E-02  0.9144365E-01
          4   -1    0    0  502    0 -0.00000000000E+00  0.00000000000E+00  0.21805251034E+04  0.21805251034E+04  0.00000000000E+00 0.  1.
         21   -1    0    0  501  502  0.00000000000E+00 -0.00000000000E+00 -0.18861174674E+03  0.18861174674E+03  0.00000000000E+00 0. -1.
    9000010    2    1    2  501    0 -0.24842646047E+03  0.36308029354E+02  0.18432991589E+04  0.20773832380E+04  0.92451898254E+03 0.  0.
        -13    1    3    3    0    0 -0.43410338232E+03  0.26293890319E+03  0.53801922544E+03  0.73962646752E+03  0.10566000000E+00 0.  1.
          4    1    3    3  501    0  0.18567692185E+03 -0.22663087383E+03  0.13052799335E+04  0.13377567705E+04  0.00000000000E+00 0.  1.
         13    1    1    2    0    0  0.24842646047E+03 -0.36308029354E+02  0.14861419777E+03  0.29175361214E+03  0.10566000000E+00 0. -1.
<mgrwt>
<rscale>  1 0.68544400E+03</rscale>
<asrwt>0</asrwt>
<pdfrwt beam="2">  1       21 0.29017193E-01 0.95800278E+03</pdfrwt>
<pdfrwt beam="1">  1        4 0.33546538E+00 0.95800278E+03</pdfrwt>
<totfact> 0.69669508E+01</totfact>
</mgrwt>
</event>
<event>
 6    1  0.5391662E-005  0.9776454E+03  0.7818608E-02  0.9467060E-01
          4   -1    0    0  502    0 -0.00000000000E+00  0.00000000000E+00  0.27240195412E+03  0.27240195412E+03  0.00000000000E+00 0.  1.
         21   -1    0    0  501  502  0.00000000000E+00 -0.00000000000E+00 -0.12193882877E+04  0.12193882877E+04  0.00000000000E+00 0.  1.
    9000010    2    1    2  501    0  0.53101240855E+02  0.45004313542E+02 -0.10043369414E+04  0.14016002568E+04  0.97516432363E+03 0.  0.
        -13    1    3    3    0    0 -0.25989617500E+03 -0.34321708795E+03 -0.25154523835E+03  0.49861709692E+03  0.10566000000E+00 0.  1.
          4    1    3    3  501    0  0.31299741585E+03  0.38822140149E+03 -0.75279170304E+03  0.90298315991E+03  0.00000000000E+00 0.  1.
         13    1    1    2    0    0 -0.53101240855E+02 -0.45004313542E+02  0.57350607797E+02  0.90189985012E+02  0.10566000000E+00 0. -1.
<mgrwt>
<rscale>  1 0.50500925E+03</rscale>
<asrwt>0</asrwt>
<pdfrwt beam="2">  1       21 0.18759819E+00 0.97764543E+03</pdfrwt>
<pdfrwt beam="1">  1        4 0.41907994E-01 0.97764543E+03</pdfrwt>
<totfact> 0.25151050E+01</totfact>
</mgrwt>
</event>
<event>
 6    1  0.5391662E-005  0.1039574E+04  0.7818608E-02  0.9116861E-01
          4   -1    0    0  502    0 -0.00000000000E+00  0.00000000000E+00  0.18165722922E+04  0.18165722922E+04  0.00000000000E+00 0.  1.
         21   -1    0    0  501  502  0.00000000000E+00 -0.00000000000E+00 -0.21835953544E+03  0.21835953544E+03  0.00000000000E+00 0.  1.
    9000010    2    1    2  501    0 -0.52710614393E+01  0.21886271343E+03  0.12865940851E+04  0.16540973766E+04  0.10162603604E+04 0.  0.
        -13    1    3    3    0    0 -0.26677117650E+03 -0.31866141220E+03  0.71516655121E+03  0.82714881574E+03  0.10566000000E+00 0.  1.
          4    1    3    3  501    0  0.26150011506E+03  0.53752412563E+03  0.57142753385E+03  0.82694856082E+03  0.00000000000E+00 0.  1.
         13    1    1    2    0    0  0.52710614393E+01 -0.21886271343E+03  0.31161867169E+03  0.38083445108E+03  0.10566000000E+00 0. -1.
<mgrwt>
<rscale>  1 0.70423231E+03</rscale>
<asrwt>0</asrwt>
<pdfrwt beam="2">  1       21 0.33593776E-01 0.10395739E+04</pdfrwt>
<pdfrwt beam="1">  1        4 0.27947265E+00 0.10395739E+04</pdfrwt>
<totfact> 0.72578071E+01</totfact>
</mgrwt>
</event>
<event>
 6    1  0.5391662E-005  0.1059774E+04  0.7818608E-02  0.9000938E-01
         21   -1    0    0  501  502  0.00000000000E+00  0.00000000000E+00  0.32084838507E+03  0.32084838507E+03  0.00000000000E+00 0.  1.
          4   -1    0    0  502    0 -0.00000000000E+00 -0.00000000000E+00 -0.16038669274E+04  0.16038669274E+04  0.00000000000E+00 0.  1.
    9000010    2    1    2  501    0 -0.32831679828E+03  0.51672696557E+00 -0.11672720373E+04  0.15765925588E+04  0.10076348051E+04 0.  0.
        -13    1    3    3    0    0  0.44557512002E+02 -0.34333082382E+03 -0.50291155271E+02  0.34984373357E+03  0.10566000000E+00 0.  1.
          4    1    3    3  501    0 -0.37287431028E+03  0.34384755078E+03 -0.11169808820E+04  0.12267488252E+04  0.00000000000E+00 0.  1.
         13    1    1    2    0    0  0.32831679828E+03 -0.51672696557E+00 -0.11574650508E+03  0.34812275370E+03  0.10566000000E+00 0. -1.
<mgrwt>
<rscale>  1 0.79064821E+03</rscale>
<asrwt>0</asrwt>
<pdfrwt beam="1">  1       21 0.49361290E-01 0.10597736E+04</pdfrwt>
<pdfrwt beam="2">  1        4 0.24674876E+00 0.10597736E+04</pdfrwt>
<totfact> 0.37956969E+01</totfact>
</mgrwt>
</event>
<event>
 6    1  0.5391662E-005  0.9457150E+03  0.7818608E-02  0.9397438E-01
         21   -1    0    0  501  502  0.00000000000E+00  0.00000000000E+00  0.15399026249E+03  0.15399026249E+03  0.00000000000E+00 0.  1.
          4   -1    0    0  502    0 -0.00000000000E+00 -0.00000000000E+00 -0.17800983063E+04  0.17800983063E+04  0.00000000000E+00 0.  1.
    9000010    2    1    2  501    0  0.91534858129E+02  0.38720006320E+02 -0.15043043246E+04  0.17768816150E+04  0.94047801866E+03 0.  0.
        -13    1    3    3    0    0 -0.42089181354E+03  0.82834721805E+02 -0.62108761539E+03  0.75482537516E+03  0.10566000000E+00 0.  1.
          4    1    3    3  501    0  0.51242667167E+03 -0.44114715485E+02 -0.88321670925E+03  0.10220562399E+04  0.00000000000E+00 0.  1.
         13    1    1    2    0    0 -0.91534858129E+02 -0.38720006320E+02 -0.12180371914E+03  0.15720695373E+03  0.10566000000E+00 0. -1.
<mgrwt>
<rscale>  1 0.53845971E+03</rscale>
<asrwt>0</asrwt>
<pdfrwt beam="1">  1       21 0.23690810E-01 0.94571495E+03</pdfrwt>
<pdfrwt beam="2">  1        4 0.27386128E+00 0.94571495E+03</pdfrwt>
<totfact> 0.15392879E+02</totfact>
</mgrwt>
</event>
<event>
 6    1  0.5391662E-005  0.1046220E+04  0.7818608E-02  0.9065071E-01
         21   -1    0    0  501  502  0.00000000000E+00  0.00000000000E+00  0.17850966226E+03  0.17850966226E+03  0.00000000000E+00 0.  1.
          4   -1    0    0  502    0 -0.00000000000E+00 -0.00000000000E+00 -0.25015554958E+04  0.25015554958E+04  0.00000000000E+00 0.  1.
    9000010    2    1    2  501    0 -0.75802980205E+02  0.25262944766E+03 -0.16127405671E+04  0.19223704224E+04  0.10124268738E+04 0.  0.
        -13    1    3    3    0    0 -0.13392467109E+03 -0.31557728842E+03 -0.19615571927E+03  0.39497078355E+03  0.10566000000E+00 0.  1.
          4    1    3    3  501    0  0.58121690880E+02  0.56820673608E+03 -0.14165848478E+04  0.15273996389E+04  0.00000000000E+00 0.  1.
         13    1    1    2    0    0  0.75802980205E+02 -0.25262944766E+03 -0.71030526644E+03  0.75769473558E+03  0.10566000000E+00 0. -1.
<mgrwt>
<rscale>  1 0.74134130E+03</rscale>
<asrwt>0</asrwt>
<pdfrwt beam="1">  1       21 0.27463027E-01 0.10462198E+04</pdfrwt>
<pdfrwt beam="2">  1        4 0.38485466E+00 0.10462198E+04</pdfrwt>
<totfact> 0.51913424E+01</totfact>
</mgrwt>
</event>
<event>
 6    1  0.5391662E-005  0.1068342E+04  0.7818608E-02  0.8973057E-01
          4   -1    0    0  502    0 -0.00000000000E+00  0.00000000000E+00  0.84712305486E+03  0.84712305486E+03  0.00000000000E+00 0.  1.
         21   -1    0    0  501  502  0.00000000000E+00 -0.00000000000E+00 -0.97693500022E+03  0.97693500022E+03  0.00000000000E+00 0.  1.
    9000010    2    1    2  501    0  0.46691149396E+02 -0.35582479008E+03 -0.60563898052E+03  0.12280691934E+04  0.10062624034E+04 0.  0.
        -13    1    3    3    0    0 -0.10300551931E+03  0.33996328493E+03 -0.17220494653E+03  0.39476540741E+03  0.10566000000E+00 0.  1.
          4    1    3    3  501    0  0.14969666871E+03 -0.69578807502E+03 -0.43343403399E+03  0.83330378601E+03  0.00000000000E+00 0.  1.
         13    1    1    2    0    0 -0.46691149396E+02  0.35582479008E+03  0.47582703516E+03  0.59598886166E+03  0.10566000000E+00 0. -1.
<mgrwt>
<rscale>  1 0.81333352E+03</rscale>
<asrwt>0</asrwt>
<pdfrwt beam="2">  1       21 0.15029769E+00 0.10683423E+04</pdfrwt>
<pdfrwt beam="1">  1        4 0.13032662E+00 0.10683423E+04</pdfrwt>
<totfact> 0.53426634E+00</totfact>
</mgrwt>
</event>
<event>
 6    1  0.5391662E-005  0.1074979E+04  0.7818608E-02  0.9062937E-01
         21   -1    0    0  501  502  0.00000000000E+00  0.00000000000E+00  0.51846428123E+03  0.51846428123E+03  0.00000000000E+00 0.  1.
          4   -1    0    0  502    0 -0.00000000000E+00 -0.00000000000E+00 -0.84339433803E+03  0.84339433803E+03  0.00000000000E+00 0.  1.
    9000010    2    1    2  501    0  0.23978773809E+03  0.51367424067E+02 -0.29561475987E+03  0.11148845935E+04  0.10466340330E+04 0.  0.
        -13    1    3    3    0    0 -0.32264712536E+03  0.18656241576E+03 -0.37770943747E+03  0.53063276641E+03  0.10566000000E+00 0.  1.
          4    1    3    3  501    0  0.56243486344E+03 -0.13519499169E+03  0.82094677595E+02  0.58425182711E+03  0.00000000000E+00 0.  1.
         13    1    1    2    0    0 -0.23978773809E+03 -0.51367424067E+02 -0.29315296928E+02  0.24697402574E+03  0.10566000000E+00 0. -1.
<mgrwt>
<rscale>  1 0.74292081E+03</rscale>
<asrwt>0</asrwt>
<pdfrwt beam="1">  1       21 0.79763736E-01 0.10749789E+04</pdfrwt>
<pdfrwt beam="2">  1        4 0.12975297E+00 0.10749789E+04</pdfrwt>
<totfact> 0.30290420E+01</totfact>
</mgrwt>
</event>
<event>
 6    1  0.5391662E-005  0.1000144E+04  0.7818608E-02  0.9312745E-01
          4   -1    0    0  502    0 -0.00000000000E+00  0.00000000000E+00  0.85138947886E+03  0.85138947886E+03  0.00000000000E+00 0.  1.
         21   -1    0    0  501  502  0.00000000000E+00 -0.00000000000E+00 -0.36541323117E+03  0.36541323117E+03  0.00000000000E+00 0.  1.
    9000010    2    1    2  501    0  0.10359837845E+03  0.50808241688E+02  0.43395773609E+03  0.10902324206E+04  0.99346530532E+03 0.  0.
        -13    1    3    3    0    0  0.37739954283E+03  0.16340634542E+03  0.61749117589E+03  0.74190795394E+03  0.10566000000E+00 0.  1.
          4    1    3    3  501    0 -0.27380116438E+03 -0.11259810373E+03 -0.18353343980E+03  0.34832446670E+03  0.00000000000E+00 0.  1.
         13    1    1    2    0    0 -0.10359837845E+03 -0.50808241688E+02  0.52018511613E+02  0.12657028939E+03  0.10566000000E+00 0. -1.
<mgrwt>
<rscale>  1 0.58288896E+03</rscale>
<asrwt>0</asrwt>
<pdfrwt beam="2">  1       21 0.56217420E-01 0.10001437E+04</pdfrwt>
<pdfrwt beam="1">  1        4 0.13098300E+00 0.10001437E+04</pdfrwt>
<totfact> 0.68167074E+01</totfact>
</mgrwt>
</event>
<event>
 6    1  0.5391662E-005  0.1081782E+04  0.7818608E-02  0.8908415E-01
          4   -1    0    0  502    0 -0.00000000000E+00  0.00000000000E+00  0.12830487675E+04  0.12830487675E+04  0.00000000000E+00 0.  1.
         21   -1    0    0  501  502  0.00000000000E+00 -0.00000000000E+00 -0.49487638418E+03  0.49487638418E+03  0.00000000000E+00 0.  1.
    9000010    2    1    2  501    0 -0.81309120020E+02  0.44321350636E+03  0.31997683265E+03  0.11281125094E+04  0.98346493342E+03 0.  0.
        -13    1    3    3    0    0 -0.50535538060E+03  0.11854575152E+03  0.28676020744E+03  0.59301651211E+03  0.10566000000E+00 0.  1.
          4    1    3    3  501    0  0.42404626058E+03  0.32466775484E+03  0.33216625215E+02  0.53509599731E+03  0.00000000000E+00 0.  1.
         13    1    1    2    0    0  0.81309120020E+02 -0.44321350636E+03  0.46819555069E+03  0.64981264228E+03  0.10566000000E+00 0. -1.
<mgrwt>
<rscale>  1 0.86907064E+03</rscale>
<asrwt>0</asrwt>
<pdfrwt beam="2">  1       21 0.76134829E-01 0.10817822E+04</pdfrwt>
<pdfrwt beam="1">  1        4 0.19739212E+00 0.10817822E+04</pdfrwt>
<totfact> 0.18572894E+01</totfact>
</mgrwt>
</event>
<event>
 6    1  0.5391662E-005  0.1010947E+04  0.7818608E-02  0.9227831E-01
         21   -1    0    0  501  502  0.00000000000E+00  0.00000000000E+00  0.24485769900E+04  0.24485769900E+04  0.00000000000E+00 0.  1.
          4   -1    0    0  502    0 -0.00000000000E+00 -0.00000000000E+00 -0.15851782253E+03  0.15851782253E+03  0.00000000000E+00 0.  1.
    9000010    2    1    2  501    0  0.58050178744E+02  0.14314728173E+03  0.22161702771E+04  0.24358623775E+04  0.99907650236E+03 0.  0.
        -13    1    3    3    0    0  0.45684960512E+03 -0.79844611668E+02  0.16179775010E+04  0.16831333663E+04  0.10566000000E+00 0.  1.
          4    1    3    3  501    0 -0.39879942638E+03  0.22299189340E+03  0.59819277610E+03  0.75272901125E+03  0.00000000000E+00 0.  1.
         13    1    1    2    0    0 -0.58050178744E+02 -0.14314728173E+03  0.73888890370E+02  0.17123243502E+03  0.10566000000E+00 0. -1.
<mgrwt>
<rscale>  1 0.63205880E+03</rscale>
<asrwt>0</asrwt>
<pdfrwt beam="1">  1       21 0.37670412E+00 0.10109475E+04</pdfrwt>
<pdfrwt beam="2">  1        4 0.24387359E-01 0.10109475E+04</pdfrwt>
<totfact> 0.31565388E+00</totfact>
</mgrwt>
</event>
<event>
 6    1  0.5391662E-005  0.1016835E+04  0.7818608E-02  0.9133313E-01
         21   -1    0    0  501  502  0.00000000000E+00  0.00000000000E+00  0.17931532480E+04  0.17931532480E+04  0.00000000000E+00 0.  1.
          4   -1    0    0  502    0 -0.00000000000E+00 -0.00000000000E+00 -0.25602468425E+03  0.25602468425E+03  0.00000000000E+00 0.  1.
    9000010    2    1    2  501    0 -0.21866461674E+03  0.16281130125E+02  0.15206395901E+04  0.18292888984E+04  0.99291178912E+03 0.  0.
        -13    1    3    3    0    0 -0.40292189313E+03  0.32277206849E+03  0.40034887785E+03  0.65330474919E+03  0.10566000000E+00 0.  1.
          4    1    3    3  501    0  0.18425727639E+03 -0.30649093837E+03  0.11202907123E+04  0.11759841492E+04  0.00000000000E+00 0.  1.
         13    1    1    2    0    0  0.21866461674E+03 -0.16281130125E+02  0.16488973677E+02  0.21988903390E+03  0.10566000000E+00 0. -1.
<mgrwt>
<rscale>  1 0.69291918E+03</rscale>
<asrwt>0</asrwt>
<pdfrwt beam="1">  1       21 0.27586972E+00 0.10168348E+04</pdfrwt>
<pdfrwt beam="2">  1        4 0.39388414E-01 0.10168348E+04</pdfrwt>
<totfact> 0.62377868E+00</totfact>
</mgrwt>
</event>
<event>
 6    1  0.5391662E-005  0.1109375E+04  0.7818608E-02  0.8873595E-01
          4   -1    0    0  502    0 -0.00000000000E+00  0.00000000000E+00  0.27549290105E+04  0.27549290105E+04  0.00000000000E+00 0.  1.
         21   -1    0    0  501  502  0.00000000000E+00 -0.00000000000E+00 -0.24038019318E+03  0.24038019318E+03  0.00000000000E+00 0. -1.
    9000010    2    1    2  501    0  0.26116276136E+03 -0.40599438640E+03  0.14439501171E+04  0.18209076464E+04  0.99883696683E+03 0.  0.
        -13    1    3    3    0    0 -0.13918850581E+03 -0.44027253867E+03  0.18164725462E+03  0.49619460369E+03  0.10566000000E+00 0.  1.
          4    1    3    3  501    0  0.40035126717E+03  0.34278152278E+02  0.12623028625E+04  0.13247130427E+04  0.00000000000E+00 0.  1.
         13    1    1    2    0    0 -0.26116276136E+03  0.40599438640E+03  0.10705987002E+04  0.11744015573E+04  0.10566000000E+00 0. -1.
<mgrwt>
<rscale>  1 0.90102527E+03</rscale>
<asrwt>0</asrwt>
<pdfrwt beam="2">  1       21 0.36981570E-01 0.11093749E+04</pdfrwt>
<pdfrwt beam="1">  1        4 0.42383521E+00 0.11093749E+04</pdfrwt>
<totfact> 0.19395997E+01</totfact>
</mgrwt>
</event>
<event>
 6    1  0.5391662E-005  0.8862018E+03  0.7818608E-02  0.9373310E-01
          4   -1    0    0  502    0 -0.00000000000E+00  0.00000000000E+00  0.88454961817E+03  0.88454961817E+03  0.00000000000E+00 0.  1.
         21   -1    0    0  501  502  0.00000000000E+00 -0.00000000000E+00 -0.54773380327E+03  0.54773380327E+03  0.00000000000E+00 0.  1.
    9000010    2    1    2  501    0 -0.11228670520E+03 -0.69642209708E+02 -0.17532009059E+03  0.90337743887E+03  0.87629636617E+03 0.  0.
        -13    1    3    3    0    0 -0.71328347464E+01 -0.33967928912E+03  0.22622869148E+03  0.40818173502E+03  0.10566000000E+00 0.  1.
          4    1    3    3  501    0 -0.10515387046E+03  0.27003707941E+03 -0.40154878207E+03  0.49519570385E+03  0.00000000000E+00 0.  1.
         13    1    1    2    0    0  0.11228670520E+03  0.69642209708E+02  0.51213590549E+03  0.52890598256E+03  0.10566000000E+00 0. -1.
<mgrwt>
<rscale>  1 0.55068074E+03</rscale>
<asrwt>0</asrwt>
<pdfrwt beam="2">  1       21 0.84266739E-01 0.88620182E+03</pdfrwt>
<pdfrwt beam="1">  1        4 0.13608456E+00 0.88620182E+03</pdfrwt>
<totfact> 0.24890955E+01</totfact>
</mgrwt>
</event>
<event>
 6    1  0.5391662E-005  0.1079220E+04  0.7818608E-02  0.8948045E-01
          4   -1    0    0  502    0 -0.00000000000E+00  0.00000000000E+00  0.36960854012E+04  0.36960854012E+04  0.00000000000E+00 0.  1.
         21   -1    0    0  501  502  0.00000000000E+00 -0.00000000000E+00 -0.15716749297E+03  0.15716749297E+03  0.00000000000E+00 0.  1.
    9000010    2    1    2  501    0 -0.28391408351E+03  0.26087068166E+03  0.20683311911E+04  0.23329614671E+04  0.10079953232E+04 0.  0.
        -13    1    3    3    0    0 -0.30465080938E+03  0.63480009609E+03  0.13129051333E+04  0.14897997106E+04  0.10566000000E+00 0.  1.
          4    1    3    3  501    0  0.20736725872E+02 -0.37392941443E+03  0.75542605784E+03  0.84316175650E+03  0.00000000000E+00 0.  1.
         13    1    1    2    0    0  0.28391408351E+03 -0.26087068166E+03  0.14705867171E+04  0.15202914270E+04  0.10566000000E+00 0. -1.
<mgrwt>
<rscale>  1 0.83436667E+03</rscale>
<asrwt>0</asrwt>
<pdfrwt beam="2">  1       21 0.24179617E-01 0.10792198E+04</pdfrwt>
<pdfrwt beam="1">  1        4 0.56862846E+00 0.10792198E+04</pdfrwt>
<totfact> 0.94697689E+00</totfact>
</mgrwt>
</event>
<event>
 6    1  0.5391662E-005  0.1021247E+04  0.7818608E-02  0.9147367E-01
          4   -1    0    0  502    0 -0.00000000000E+00  0.00000000000E+00  0.41259802545E+04  0.41259802545E+04  0.00000000000E+00 0.  1.
         21   -1    0    0  501  502  0.00000000000E+00 -0.00000000000E+00 -0.91168769073E+02  0.91168769073E+02  0.00000000000E+00 0.  1.
    9000010    2    1    2  501    0 -0.20407348117E+03  0.17541449137E+02  0.34073041144E+04  0.35570587267E+04  0.10004957617E+04 0.  0.
        -13    1    3    3    0    0  0.39367138492E+03  0.12314827038E+03  0.12772180796E+04  0.13421731221E+04  0.10566000000E+00 0.  1.
          4    1    3    3  501    0 -0.59774486609E+03 -0.10560682124E+03  0.21300860348E+04  0.22148856045E+04  0.00000000000E+00 0.  1.
         13    1    1    2    0    0  0.20407348117E+03 -0.17541449137E+02  0.62750737105E+03  0.66009029688E+03  0.10566000000E+00 0. -1.
<mgrwt>
<rscale>  1 0.68343062E+03</rscale>
<asrwt>0</asrwt>
<pdfrwt beam="2">  1       21 0.14025968E-01 0.10212470E+04</pdfrwt>
<pdfrwt beam="1">  1        4 0.63476605E+00 0.10212470E+04</pdfrwt>
<totfact> 0.12142401E+01</totfact>
</mgrwt>
</event>
<event>
 6    1  0.5391662E-005  0.1044607E+04  0.7818608E-02  0.9317220E-01
         21   -1    0    0  501  502  0.00000000000E+00  0.00000000000E+00  0.12923234200E+03  0.12923234200E+03  0.00000000000E+00 0.  1.
          4   -1    0    0  502    0 -0.00000000000E+00 -0.00000000000E+00 -0.27858260313E+04  0.27858260313E+04  0.00000000000E+00 0.  1.
    9000010    2    1    2  501    0  0.89002579014E+02  0.44647846611E+02 -0.20548008898E+04  0.23050833951E+04  0.10398499279E+04 0.  0.
        -13    1    3    3    0    0  0.54086893048E+03  0.11016761465E+01 -0.14591250034E+04  0.15561446592E+04  0.10566000000E+00 0.  1.
          4    1    3    3  501    0 -0.45186635146E+03  0.43546170465E+02 -0.59567588633E+03  0.74893873588E+03  0.00000000000E+00 0.  1.
         13    1    1    2    0    0 -0.89002579014E+02 -0.44647846611E+02 -0.60179279949E+03  0.60997497814E+03  0.10566000000E+00 0. -1.
<mgrwt>
<rscale>  1 0.58043099E+03</rscale>
<asrwt>0</asrwt>
<pdfrwt beam="1">  1       21 0.19881899E-01 0.10446065E+04</pdfrwt>
<pdfrwt beam="2">  1        4 0.42858861E+00 0.10446065E+04</pdfrwt>
<totfact> 0.65793935E+01</totfact>
</mgrwt>
</event>
<event>
 6    1  0.5391662E-005  0.1036178E+04  0.7818608E-02  0.9060205E-01
         21   -1    0    0  501  502  0.00000000000E+00  0.00000000000E+00  0.15690116767E+03  0.15690116767E+03  0.00000000000E+00 0. -1.
          4   -1    0    0  502    0 -0.00000000000E+00 -0.00000000000E+00 -0.28651839585E+04  0.28651839585E+04  0.00000000000E+00 0.  1.
    9000010    2    1    2  501    0  0.26464943772E+03  0.81189807613E+02 -0.23580022153E+04  0.25756239269E+04  0.99851542570E+03 0.  0.
        -13    1    3    3    0    0  0.27050712891E+02  0.28085719490E+03 -0.22167528357E+04  0.22346377001E+04  0.10566000000E+00 0.  1.
          4    1    3    3  501    0  0.23759872483E+03 -0.19966738729E+03 -0.14124937964E+03  0.34098622676E+03  0.00000000000E+00 0.  1.
         13    1    1    2    0    0 -0.26464943772E+03 -0.81189807613E+02 -0.35028057547E+03  0.44646119928E+03  0.10566000000E+00 0. -1.
<mgrwt>
<rscale>  1 0.74494871E+03</rscale>
<asrwt>0</asrwt>
<pdfrwt beam="1">  1       21 0.24138643E-01 0.10361777E+04</pdfrwt>
<pdfrwt beam="2">  1        4 0.44079750E+00 0.10361777E+04</pdfrwt>
<totfact> 0.39681246E+01</totfact>
</mgrwt>
</event>
<event>
 6    1  0.5391662E-005  0.1028467E+04  0.7818608E-02  0.9159341E-01
          4   -1    0    0  502    0 -0.00000000000E+00  0.00000000000E+00  0.20281607647E+04  0.20281607647E+04  0.00000000000E+00 0.  1.
         21   -1    0    0  501  502  0.00000000000E+00 -0.00000000000E+00 -0.21106792298E+03  0.21106792298E+03  0.00000000000E+00 0.  1.
    9000010    2    1    2  501    0 -0.58548189742E+02 -0.18218532811E+03  0.11388682059E+04  0.15345244574E+04  0.10105073655E+04 0.  0.
        -13    1    3    3    0    0 -0.51541234781E+03 -0.60418334163E+02  0.79702866037E+03  0.95108094292E+03  0.10566000000E+00 0.  1.
          4    1    3    3  501    0  0.45686415807E+03 -0.12176699395E+03  0.34183954551E+03  0.58344351450E+03  0.00000000000E+00 0.  1.
         13    1    1    2    0    0  0.58548189742E+02  0.18218532811E+03  0.67822463588E+03  0.70470423028E+03  0.10566000000E+00 0. -1.
<mgrwt>
<rscale>  1 0.67547097E+03</rscale>
<asrwt>0</asrwt>
<pdfrwt beam="2">  1       21 0.32471989E-01 0.10284671E+04</pdfrwt>
<pdfrwt beam="1">  1        4 0.31202472E+00 0.10284671E+04</pdfrwt>
<totfact> 0.63839484E+01</totfact>
</mgrwt>
</event>
<event>
 6    1  0.5391662E-005  0.1005745E+04  0.7818608E-02  0.9667680E-01
          4   -1    0    0  502    0 -0.00000000000E+00  0.00000000000E+00  0.40139842213E+03  0.40139842213E+03  0.00000000000E+00 0.  1.
         21   -1    0    0  501  502  0.00000000000E+00 -0.00000000000E+00 -0.83946771209E+03  0.83946771209E+03  0.00000000000E+00 0.  1.
    9000010    2    1    2  501    0  0.34757693899E+01 -0.30967513242E+02 -0.53490294978E+03  0.11391418171E+04  0.10052620783E+04 0.  0.
        -13    1    3    3    0    0  0.17912896851E+03 -0.73522984616E+02  0.25987112296E+03  0.32407688646E+03  0.10566000000E+00 0.  1.
          4    1    3    3  501    0 -0.17565319912E+03  0.42555471375E+02 -0.79477407274E+03  0.81506493067E+03  0.00000000000E+00 0.  1.
         13    1    1    2    0    0 -0.34757693899E+01  0.30967513242E+02  0.96833659825E+02  0.10172431709E+03  0.10566000000E+00 0. -1.
<mgrwt>
<rscale>  1 0.42196139E+03</rscale>
<asrwt>0</asrwt>
<pdfrwt beam="2">  1       21 0.12914888E+00 0.10057450E+04</pdfrwt>
<pdfrwt beam="1">  1        4 0.61753604E-01 0.10057450E+04</pdfrwt>
<totfact> 0.35997513E+01</totfact>
</mgrwt>
</event>
<event>
 6    1  0.5391662E-005  0.1043405E+04  0.7818608E-02  0.9040063E-01
         21   -1    0    0  501  502  0.00000000000E+00  0.00000000000E+00  0.29426913269E+03  0.29426913269E+03  0.00000000000E+00 0. -1.
          4   -1    0    0  502    0 -0.00000000000E+00 -0.00000000000E+00 -0.15423042701E+04  0.15423042701E+04  0.00000000000E+00 0.  1.
    9000010    2    1    2  501    0  0.96251025151E+02  0.27765130031E+03 -0.87527378238E+03  0.13619097921E+04  0.10011691082E+04 0.  0.
        -13    1    3    3    0    0 -0.27688946771E+03  0.84097374400E+02 -0.89547476278E+03  0.94107130848E+03  0.10566000000E+00 0.  1.
          4    1    3    3  501    0  0.37314049286E+03  0.19355392591E+03  0.20200980401E+02  0.42083848357E+03  0.00000000000E+00 0.  1.
         13    1    1    2    0    0 -0.96251025151E+02 -0.27765130031E+03 -0.37276135508E+03  0.47466361079E+03  0.10566000000E+00 0. -1.
<mgrwt>
<rscale>  1 0.76010805E+03</rscale>
<asrwt>0</asrwt>
<pdfrwt beam="1">  1       21 0.45272174E-01 0.10434050E+04</pdfrwt>
<pdfrwt beam="2">  1        4 0.23727758E+00 0.10434050E+04</pdfrwt>
<totfact> 0.48329840E+01</totfact>
</mgrwt>
</event>
<event>
 6    1  0.5391662E-005  0.1021431E+04  0.7818608E-02  0.9137728E-01
          4   -1    0    0  502    0 -0.00000000000E+00  0.00000000000E+00  0.20635416377E+04  0.20635416377E+04  0.00000000000E+00 0.  1.
         21   -1    0    0  501  502  0.00000000000E+00 -0.00000000000E+00 -0.46316071751E+03  0.46316071751E+03  0.00000000000E+00 0. -1.
    9000010    2    1    2  501    0  0.11818890603E+03  0.17672523357E+03  0.19012735023E+04  0.21582776236E+04  0.99906003040E+03 0.  0.
        -13    1    3    3    0    0 -0.24815307830E+03 -0.34337482094E+02  0.45078659275E+02  0.25454097830E+03  0.10566000000E+00 0.  1.
          4    1    3    3  501    0  0.36634198434E+03  0.21106271566E+03  0.18561948430E+04  0.19037366453E+04  0.00000000000E+00 0.  1.
         13    1    1    2    0    0 -0.11818890603E+03 -0.17672523357E+03 -0.30089258213E+03  0.36842473157E+03  0.10566000000E+00 0. -1.
<mgrwt>
<rscale>  1 0.68992149E+03</rscale>
<asrwt>0</asrwt>
<pdfrwt beam="2">  1       21 0.71255496E-01 0.10214310E+04</pdfrwt>
<pdfrwt beam="1">  1        4 0.31746794E+00 0.10214310E+04</pdfrwt>
<totfact> 0.10866720E+01</totfact>
</mgrwt>
</event>
<event>
 6    1  0.5391662E-005  0.9844249E+03  0.7818608E-02  0.9170223E-01
          4   -1    0    0  502    0 -0.00000000000E+00  0.00000000000E+00  0.14236846874E+04  0.14236846874E+04  0.00000000000E+00 0.  1.
         21   -1    0    0  501  502  0.00000000000E+00 -0.00000000000E+00 -0.41581231000E+03  0.41581231000E+03  0.00000000000E+00 0.  1.
    9000010    2    1    2  501    0 -0.18085365662E+03  0.10502317247E+03  0.19940494073E+03  0.10044176484E+04  0.96195351764E+03 0.  0.
        -13    1    3    3    0    0 -0.23527927545E+03 -0.80844742711E+02  0.55013238563E+03  0.60376971004E+03  0.10566000000E+00 0.  1.
          4    1    3    3  501    0  0.54425618835E+02  0.18586791519E+03 -0.35072744490E+03  0.40064793833E+03  0.00000000000E+00 0.  1.
         13    1    1    2    0    0  0.18085365662E+03 -0.10502317247E+03  0.80846743671E+03  0.83507934908E+03  0.10566000000E+00 0. -1.
<mgrwt>
<rscale>  1 0.66833504E+03</rscale>
<asrwt>0</asrwt>
<pdfrwt beam="2">  1       21 0.63971125E-01 0.98442495E+03</pdfrwt>
<pdfrwt beam="1">  1        4 0.21902841E+00 0.98442495E+03</pdfrwt>
<totfact> 0.24801854E+01</totfact>
</mgrwt>
</event>
<event>
 6    1  0.5391662E-005  0.1026901E+04  0.7818608E-02  0.9289443E-01
          4   -1    0    0  502    0 -0.00000000000E+00  0.00000000000E+00  0.11114232879E+04  0.11114232879E+04  0.00000000000E+00 0.  1.
         21   -1    0    0  501  502  0.00000000000E+00 -0.00000000000E+00 -0.46441723200E+03  0.46441723200E+03  0.00000000000E+00 0.  1.
    9000010    2    1    2  501    0  0.10823242956E+03 -0.42942964344E+02  0.11740608584E+03  0.10335910418E+04  0.10202783423E+04 0.  0.
        -13    1    3    3    0    0 -0.44719460044E+03 -0.45385166859E+02 -0.53001450615E+02  0.45260577655E+03  0.10566000000E+00 0.  1.
          4    1    3    3  501    0  0.55542703000E+03  0.24422025157E+01  0.17040753646E+03  0.58098526530E+03  0.00000000000E+00 0.  1.
         13    1    1    2    0    0 -0.10823242956E+03  0.42942964344E+02  0.52959997004E+03  0.54224947803E+03  0.10566000000E+00 0. -1.
<mgrwt>
<rscale>  1 0.59589872E+03</rscale>
<asrwt>0</asrwt>
<pdfrwt beam="2">  1       21 0.71448805E-01 0.10269013E+04</pdfrwt>
<pdfrwt beam="1">  1        4 0.17098820E+00 0.10269013E+04</pdfrwt>
<totfact> 0.26377834E+01</totfact>
</mgrwt>
</event>
<event>
 6    1  0.5391662E-005  0.1040488E+04  0.7818608E-02  0.9044115E-01
          4   -1    0    0  502    0 -0.00000000000E+00  0.00000000000E+00  0.94317736422E+03  0.94317736422E+03  0.00000000000E+00 0.  1.
         21   -1    0    0  501  502  0.00000000000E+00 -0.00000000000E+00 -0.97059245142E+03  0.97059245142E+03  0.00000000000E+00 0.  1.
    9000010    2    1    2  501    0  0.12454141504E+03 -0.26362933592E+03 -0.64962539303E+03  0.12266332450E+04  0.99880176999E+03 0.  0.
        -13    1    3    3    0    0  0.15694203867E+03  0.35173961306E+03 -0.41779274108E+03  0.56824496879E+03  0.10566000000E+00 0.  1.
          4    1    3    3  501    0 -0.32400623625E+02 -0.61536894898E+03 -0.23183265195E+03  0.65838827624E+03  0.00000000000E+00 0.  1.
         13    1    1    2    0    0 -0.12454141504E+03  0.26362933592E+03  0.62221030584E+03  0.68713657061E+03  0.10566000000E+00 0. -1.
<mgrwt>
<rscale>  1 0.75702863E+03</rscale>
<asrwt>0</asrwt>
<pdfrwt beam="2">  1       21 0.14932192E+00 0.10404883E+04</pdfrwt>
<pdfrwt beam="1">  1        4 0.14510421E+00 0.10404883E+04</pdfrwt>
<totfact> 0.46329249E+00</totfact>
</mgrwt>
</event>
<event>
 6    1  0.5391662E-005  0.1088555E+04  0.7818608E-02  0.8927437E-01
          4   -1    0    0  502    0 -0.00000000000E+00  0.00000000000E+00  0.10977730222E+04  0.10977730222E+04  0.00000000000E+00 0.  1.
         21   -1    0    0  501  502  0.00000000000E+00 -0.00000000000E+00 -0.52418994882E+03  0.52418994882E+03  0.00000000000E+00 0.  1.
    9000010    2    1    2  501    0 -0.38802568558E+03  0.12895573748E+03  0.29711022478E+03  0.11283733013E+04  0.10088400797E+04 0.  0.
        -13    1    3    3    0    0 -0.67961316527E+02 -0.36943913312E+03 -0.13068820494E+03  0.39772280762E+03  0.10566000000E+00 0.  1.
          4    1    3    3  501    0 -0.32006436906E+03  0.49839487060E+03  0.42779842972E+03  0.73065049364E+03  0.00000000000E+00 0.  1.
         13    1    1    2    0    0  0.38802568558E+03 -0.12895573748E+03  0.27647284857E+03  0.49358966973E+03  0.10566000000E+00 0. -1.
<mgrwt>
<rscale>  1 0.85219737E+03</rscale>
<asrwt>0</asrwt>
<pdfrwt beam="2">  1       21 0.80644608E-01 0.10885549E+04</pdfrwt>
<pdfrwt beam="1">  1        4 0.16888816E+00 0.10885549E+04</pdfrwt>
<totfact> 0.19942230E+01</totfact>
</mgrwt>
</event>
<event>
 6    1  0.5391662E-005  0.1294000E+04  0.7818608E-02  0.8637831E-01
          4   -1    0    0  502    0 -0.00000000000E+00  0.00000000000E+00  0.24283559310E+04  0.24283559310E+04  0.00000000000E+00 0.  1.
         21   -1    0    0  501  502  0.00000000000E+00 -0.00000000000E+00 -0.62376605362E+03  0.62376605362E+03  0.00000000000E+00 0.  1.
    9000010    2    1    2  501    0  0.44756369561E+03 -0.70342736108E+03  0.29439216318E+03  0.13270653302E+04  0.98960210734E+03 0.  0.
        -13    1    3    3    0    0 -0.12847003045E+03  0.11521557554E+02 -0.23439794973E+03  0.26754383755E+03  0.10566000000E+00 0.  1.
          4    1    3    3  501    0  0.57603372605E+03 -0.71494891863E+03  0.52879011291E+03  0.10595214926E+04  0.00000000000E+00 0.  1.
         13    1    1    2    0    0 -0.44756369561E+03  0.70342736108E+03  0.15101977142E+04  0.17250566545E+04  0.10566000000E+00 0. -1.
<mgrwt>
<rscale>  1 0.11593336E+04</rscale>
<asrwt>0</asrwt>
<pdfrwt beam="2">  1       21 0.95964010E-01 0.12939999E+04</pdfrwt>
<pdfrwt beam="1">  1        4 0.37359321E+00 0.12939999E+04</pdfrwt>
<totfact> 0.32828331E+00</totfact>
</mgrwt>
</event>
<event>
 6    1  0.5391662E-005  0.1083687E+04  0.7818608E-02  0.8887820E-01
          4   -1    0    0  502    0 -0.00000000000E+00  0.00000000000E+00  0.27602531540E+04  0.27602531540E+04  0.00000000000E+00 0.  1.
         21   -1    0    0  501  502  0.00000000000E+00 -0.00000000000E+00 -0.45346455904E+03  0.45346455904E+03  0.00000000000E+00 0.  1.
    9000010    2    1    2  501    0  0.53263338497E+02 -0.48523235700E+03  0.26667516826E+03  0.11160165359E+04  0.96751735880E+03 0.  0.
        -13    1    3    3    0    0 -0.17045630050E+03 -0.72496377336E+03  0.11073800914E+03  0.75292147061E+03  0.10566000000E+00 0.  1.
          4    1    3    3  501    0  0.22371963900E+03  0.23973141636E+03  0.15593715911E+03  0.36309506531E+03  0.00000000000E+00 0.  1.
         13    1    1    2    0    0 -0.53263338497E+02  0.48523235700E+03  0.20401134267E+04  0.20977011771E+04  0.10566000000E+00 0. -1.
<mgrwt>
<rscale>  1 0.88780075E+03</rscale>
<asrwt>0</asrwt>
<pdfrwt beam="2">  1       21 0.69763780E-01 0.10836869E+04</pdfrwt>
<pdfrwt beam="1">  1        4 0.42465432E+00 0.10836869E+04</pdfrwt>
<totfact> 0.46852977E+00</totfact>
</mgrwt>
</event>
<event>
 6    1  0.5391662E-005  0.9568059E+03  0.7818608E-02  0.9538868E-01
          4   -1    0    0  502    0 -0.00000000000E+00  0.00000000000E+00  0.24181338805E+03  0.24181338805E+03  0.00000000000E+00 0.  1.
         21   -1    0    0  501  502  0.00000000000E+00 -0.00000000000E+00 -0.11823835072E+04  0.11823835072E+04  0.00000000000E+00 0.  1.
    9000010    2    1    2  501    0  0.72971566319E+01  0.56744962287E+02 -0.96772196832E+03  0.13608685973E+04  0.95509386555E+03 0.  0.
        -13    1    3    3    0    0  0.93484093832E+02  0.49682711466E+03 -0.56474368916E+03  0.75796563462E+03  0.10566000000E+00 0.  1.
          4    1    3    3  501    0 -0.86186937200E+02 -0.44008215237E+03 -0.40297827916E+03  0.60290296272E+03  0.00000000000E+00 0.  1.
         13    1    1    2    0    0 -0.72971566319E+01 -0.56744962287E+02  0.27151849173E+02  0.63328297919E+02  0.10566000000E+00 0. -1.
<mgrwt>
<rscale>  1 0.47314068E+03</rscale>
<asrwt>0</asrwt>
<pdfrwt beam="2">  1       21 0.18190515E+00 0.95680590E+03</pdfrwt>
<pdfrwt beam="1">  1        4 0.37202060E-01 0.95680590E+03</pdfrwt>
<totfact> 0.35693395E+01</totfact>
</mgrwt>
</event>
<event>
 6    1  0.5391662E-005  0.1041634E+04  0.7818608E-02  0.8996953E-01
         21   -1    0    0  501  502  0.00000000000E+00  0.00000000000E+00  0.15025747165E+04  0.15025747165E+04  0.00000000000E+00 0.  1.
          4   -1    0    0  502    0 -0.00000000000E+00 -0.00000000000E+00 -0.68017651799E+03  0.68017651799E+03  0.00000000000E+00 0.  1.
    9000010    2    1    2  501    0  0.29693310253E+03  0.18790115768E+03  0.12514110641E+04  0.16281990165E+04  0.98057446105E+03 0.  0.
        -13    1    3    3    0    0 -0.80986553320E+01 -0.37413250103E+03  0.65176228439E+03  0.75155492352E+03  0.10566000000E+00 0.  1.
          4    1    3    3  501    0  0.30503175786E+03  0.56203365871E+03  0.59964877970E+03  0.87664409301E+03  0.00000000000E+00 0.  1.
         13    1    1    2    0    0 -0.29693310253E+03 -0.18790115768E+03 -0.42901286559E+03  0.55455221796E+03  0.10566000000E+00 0. -1.
<mgrwt>
<rscale>  1 0.79384257E+03</rscale>
<asrwt>0</asrwt>
<pdfrwt beam="1">  1       21 0.23116534E+00 0.10416345E+04</pdfrwt>
<pdfrwt beam="2">  1        4 0.10464254E+00 0.10416345E+04</pdfrwt>
<totfact> 0.17535223E+00</totfact>
</mgrwt>
</event>
<event>
 6    1  0.5391662E-005  0.1031573E+04  0.7818608E-02  0.9064092E-01
         21   -1    0    0  501  502  0.00000000000E+00  0.00000000000E+00  0.31514475862E+03  0.31514475862E+03  0.00000000000E+00 0.  1.
          4   -1    0    0  502    0 -0.00000000000E+00 -0.00000000000E+00 -0.13874814619E+04  0.13874814619E+04  0.00000000000E+00 0.  1.
    9000010    2    1    2  501    0  0.26756963615E+03  0.68619655106E+02 -0.73506762121E+03  0.12666759801E+04  0.99390213981E+03 0.  0.
        -13    1    3    3    0    0 -0.31970975698E+03 -0.16388940391E+03 -0.44416263030E+03  0.57127446883E+03  0.10566000000E+00 0.  1.
          4    1    3    3  501    0  0.58727939313E+03  0.23250905901E+03 -0.29090499090E+03  0.69540151125E+03  0.00000000000E+00 0.  1.
         13    1    1    2    0    0 -0.26756963615E+03 -0.68619655106E+02 -0.33726908211E+03  0.43595024048E+03  0.10566000000E+00 0. -1.
<mgrwt>
<rscale>  1 0.74206545E+03</rscale>
<asrwt>0</asrwt>
<pdfrwt beam="1">  1       21 0.48483808E-01 0.10315734E+04</pdfrwt>
<pdfrwt beam="2">  1        4 0.21345869E+00 0.10315734E+04</pdfrwt>
<totfact> 0.47740638E+01</totfact>
</mgrwt>
</event>
<event>
 6    1  0.5391662E-005  0.1049248E+04  0.7818608E-02  0.9011009E-01
         21   -1    0    0  501  502  0.00000000000E+00  0.00000000000E+00  0.68054369965E+03  0.68054369965E+03  0.00000000000E+00 0.  1.
          4   -1    0    0  502    0 -0.00000000000E+00 -0.00000000000E+00 -0.11567283805E+04  0.11567283805E+04  0.00000000000E+00 0.  1.
    9000010    2    1    2  501    0 -0.19273258680E+02  0.32423445562E+03  0.21728025654E+03  0.10715090155E+04  0.99770808337E+03 0.  0.
        -13    1    3    3    0    0 -0.31353978349E+03 -0.11033903267E+03  0.39606880409E+03  0.51706131812E+03  0.10566000000E+00 0.  1.
          4    1    3    3  501    0  0.29426652481E+03  0.43457348829E+03 -0.17878854755E+03  0.55444769734E+03  0.00000000000E+00 0.  1.
         13    1    1    2    0    0  0.19273258680E+02 -0.32423445562E+03 -0.69346493741E+03  0.76576306472E+03  0.10566000000E+00 0. -1.
<mgrwt>
<rscale>  1 0.78264500E+03</rscale>
<asrwt>0</asrwt>
<pdfrwt beam="1">  1       21 0.10469903E+00 0.10492478E+04</pdfrwt>
<pdfrwt beam="2">  1        4 0.17795821E+00 0.10492478E+04</pdfrwt>
<totfact> 0.95348243E+00</totfact>
</mgrwt>
</event>
<event>
 6    1  0.5391662E-005  0.1007076E+04  0.7818608E-02  0.9472947E-01
          4   -1    0    0  502    0 -0.00000000000E+00  0.00000000000E+00  0.20718654805E+04  0.20718654805E+04  0.00000000000E+00 0.  1.
         21   -1    0    0  501  502  0.00000000000E+00 -0.00000000000E+00 -0.13906771281E+03  0.13906771281E+03  0.00000000000E+00 0.  1.
    9000010    2    1    2  501    0 -0.35349163593E+02 -0.51330800226E+02  0.18596976512E+04  0.21148704398E+04  0.10051453670E+04 0.  0.
        -13    1    3    3    0    0 -0.23044937732E+02  0.22258100309E+03  0.18248017038E+04  0.18384707345E+04  0.10566000000E+00 0.  1.
          4    1    3    3  501    0 -0.12304225861E+02 -0.27391180331E+03  0.34895947398E+02  0.27639970534E+03  0.00000000000E+00 0.  1.
         13    1    1    2    0    0  0.35349163593E+02  0.51330800226E+02  0.73100116488E+02  0.96062753516E+02  0.10566000000E+00 0. -1.
<mgrwt>
<rscale>  1 0.50229924E+03</rscale>
<asrwt>0</asrwt>
<pdfrwt beam="2">  1       21 0.21395034E-01 0.10070758E+04</pdfrwt>
<pdfrwt beam="1">  1        4 0.31874851E+00 0.10070758E+04</pdfrwt>
<totfact> 0.14235658E+02</totfact>
</mgrwt>
</event>
<event>
 6    1  0.5391662E-005  0.1012070E+04  0.7818608E-02  0.9006309E-01
         21   -1    0    0  501  502  0.00000000000E+00  0.00000000000E+00  0.36614163640E+03  0.36614163640E+03  0.00000000000E+00 0. -1.
          4   -1    0    0  502    0 -0.00000000000E+00 -0.00000000000E+00 -0.15725348757E+04  0.15725348757E+04  0.00000000000E+00 0.  1.
    9000010    2    1    2  501    0 -0.35633638826E+03  0.95329763143E+02 -0.11999315651E+04  0.15697521977E+04  0.94245573687E+03 0.  0.
        -13    1    3    3    0    0 -0.70441354900E+02 -0.14201374419E+03 -0.11874322391E+04  0.11979671204E+04  0.10566000000E+00 0.  1.
          4    1    3    3  501    0 -0.28589503336E+03  0.23734350733E+03 -0.12499326050E+02  0.37178507733E+03  0.00000000000E+00 0.  1.
         13    1    1    2    0    0  0.35633638826E+03 -0.95329763143E+02 -0.64616741757E+01  0.36892431437E+03  0.10566000000E+00 0. -1.
<mgrwt>
<rscale>  1 0.78636779E+03</rscale>
<asrwt>0</asrwt>
<pdfrwt beam="1">  1       21 0.56329483E-01 0.10120703E+04</pdfrwt>
<pdfrwt beam="2">  1        4 0.24192844E+00 0.10120703E+04</pdfrwt>
<totfact> 0.29104511E+01</totfact>
</mgrwt>
</event>
<event>
 6    1  0.5391662E-005  0.1030541E+04  0.7818608E-02  0.9123420E-01
         21   -1    0    0  501  502  0.00000000000E+00  0.00000000000E+00  0.51373121248E+03  0.51373121248E+03  0.00000000000E+00 0.  1.
          4   -1    0    0  502    0 -0.00000000000E+00 -0.00000000000E+00 -0.12082906467E+04  0.12082906467E+04  0.00000000000E+00 0.  1.
    9000010    2    1    2  501    0  0.14770403260E+03 -0.16168992177E+03 -0.39470890311E+02  0.10312967883E+04  0.10070029803E+04 0.  0.
        -13    1    3    3    0    0 -0.17862592802E+03 -0.11150321143E+03 -0.45452869362E+03  0.50093565736E+03  0.10566000000E+00 0.  1.
          4    1    3    3  501    0  0.32632996062E+03 -0.50186710344E+02  0.41505780331E+03  0.53036113091E+03  0.00000000000E+00 0.  1.
         13    1    1    2    0    0 -0.14770403260E+03  0.16168992177E+03 -0.65508854392E+03  0.69072507091E+03  0.10566000000E+00 0. -1.
<mgrwt>
<rscale>  1 0.69969545E+03</rscale>
<asrwt>0</asrwt>
<pdfrwt beam="1">  1       21 0.79035572E-01 0.10305412E+04</pdfrwt>
<pdfrwt beam="2">  1        4 0.18589087E+00 0.10305412E+04</pdfrwt>
<totfact> 0.18437734E+01</totfact>
</mgrwt>
</event>
<event>
 6    1  0.5391662E-005  0.1156780E+04  0.7818608E-02  0.8829340E-01
          4   -1    0    0  502    0 -0.00000000000E+00  0.00000000000E+00  0.18714979606E+04  0.18714979606E+04  0.00000000000E+00 0.  1.
         21   -1    0    0  501  502  0.00000000000E+00 -0.00000000000E+00 -0.37237157961E+03  0.37237157961E+03  0.00000000000E+00 0.  1.
    9000010    2    1    2  501    0 -0.46123815273E+03  0.22325239826E+03  0.10612661501E+04  0.15698488730E+04  0.10370908233E+04 0.  0.
        -13    1    3    3    0    0 -0.29580286678E+03  0.62949482221E+03  0.49558673587E+03  0.85403120032E+03  0.10566000000E+00 0.  1.
          4    1    3    3  501    0 -0.16543528595E+03 -0.40624242395E+03  0.56567941422E+03  0.71581767269E+03  0.00000000000E+00 0.  1.
         13    1    1    2    0    0  0.46123815273E+03 -0.22325239826E+03  0.43786023092E+03  0.67402066723E+03  0.10566000000E+00 0. -1.
<mgrwt>
<rscale>  1 0.94372676E+03</rscale>
<asrwt>0</asrwt>
<pdfrwt beam="2">  1       21 0.57287936E-01 0.11567799E+04</pdfrwt>
<pdfrwt beam="1">  1        4 0.28792276E+00 0.11567799E+04</pdfrwt>
<totfact> 0.21369422E+01</totfact>
</mgrwt>
</event>
<event>
 6    1  0.5391662E-005  0.1147206E+04  0.7818608E-02  0.8821140E-01
          4   -1    0    0  502    0 -0.00000000000E+00  0.00000000000E+00  0.38443646241E+04  0.38443646241E+04  0.00000000000E+00 0.  1.
         21   -1    0    0  501  502  0.00000000000E+00 -0.00000000000E+00 -0.19000797587E+03  0.19000797587E+03  0.00000000000E+00 0.  1.
    9000010    2    1    2  501    0  0.52946977588E+03  0.12408946897E+03  0.21897006502E+04  0.24720174407E+04  0.10101212055E+04 0.  0.
        -13    1    3    3    0    0  0.87434597742E+02  0.34226307487E+03  0.18248800291E+04  0.18587565610E+04  0.10566000000E+00 0.  1.
          4    1    3    3  501    0  0.44203517814E+03 -0.21817360590E+03  0.36482062110E+03  0.61326087973E+03  0.00000000000E+00 0.  1.
         13    1    1    2    0    0 -0.52946977588E+03 -0.12408946897E+03  0.14646559981E+04  0.15623551593E+04  0.10566000000E+00 0. -1.
<mgrwt>
<rscale>  1 0.95190613E+03</rscale>
<asrwt>0</asrwt>
<pdfrwt beam="2">  1       21 0.29231999E-01 0.11472059E+04</pdfrwt>
<pdfrwt beam="1">  1        4 0.59144065E+00 0.11472059E+04</pdfrwt>
<totfact> 0.48150263E+00</totfact>
</mgrwt>
</event>
<event>
 6    1  0.5391662E-005  0.9688026E+03  0.7818608E-02  0.9278860E-01
         21   -1    0    0  501  502  0.00000000000E+00  0.00000000000E+00  0.19659327537E+03  0.19659327537E+03  0.00000000000E+00 0.  1.
          4   -1    0    0  502    0 -0.00000000000E+00 -0.00000000000E+00 -0.17432827855E+04  0.17432827855E+04  0.00000000000E+00 0.  1.
    9000010    2    1    2  501    0  0.21061708684E+02  0.14282120895E+03 -0.10775742785E+04  0.14490496099E+04  0.95798588345E+03 0.  0.
        -13    1    3    3    0    0  0.44119272049E+03  0.27576887500E+03 -0.49097409928E+03  0.71537057974E+03  0.10566000000E+00 0.  1.
          4    1    3    3  501    0 -0.42013101181E+03 -0.13294766605E+03 -0.58660017925E+03  0.73367903015E+03  0.00000000000E+00 0.  1.
         13    1    1    2    0    0 -0.21061708684E+02 -0.14282120895E+03 -0.46911523161E+03  0.49082645099E+03  0.10566000000E+00 0. -1.
<mgrwt>
<rscale>  1 0.60192530E+03</rscale>
<asrwt>0</asrwt>
<pdfrwt beam="1">  1       21 0.30245120E-01 0.96880258E+03</pdfrwt>
<pdfrwt beam="2">  1        4 0.26819734E+00 0.96880258E+03</pdfrwt>
<totfact> 0.96736736E+01</totfact>
</mgrwt>
</event>
<event>
 6    1  0.5391662E-005  0.1048268E+04  0.7818608E-02  0.9032144E-01
          4   -1    0    0  502    0 -0.00000000000E+00  0.00000000000E+00  0.25034350829E+04  0.25034350829E+04  0.00000000000E+00 0.  1.
         21   -1    0    0  501  502  0.00000000000E+00 -0.00000000000E+00 -0.18143680345E+03  0.18143680345E+03  0.00000000000E+00 0. -1.
    9000010    2    1    2  501    0 -0.27321724668E+03 -0.12182438435E+03  0.17757771303E+04  0.20620987338E+04  0.10046780217E+04 0.  0.
        -13    1    3    3    0    0 -0.29828778434E+03 -0.32574463146E+03  0.18016679663E+04  0.18550182315E+04  0.10566000000E+00 0.  1.
          4    1    3    3  501    0  0.25070537666E+02  0.20392024711E+03 -0.25890836084E+02  0.20708050230E+03  0.00000000000E+00 0.  1.
         13    1    1    2    0    0  0.27321724668E+03  0.12182438435E+03  0.54622114920E+03  0.62277315252E+03  0.10566000000E+00 0. -1.
<mgrwt>
<rscale>  1 0.76617065E+03</rscale>
<asrwt>0</asrwt>
<pdfrwt beam="2">  1       21 0.27913356E-01 0.10482685E+04</pdfrwt>
<pdfrwt beam="1">  1        4 0.38514383E+00 0.10482685E+04</pdfrwt>
<totfact> 0.50086974E+01</totfact>
</mgrwt>
</event>
<event>
 6    1  0.5391662E-005  0.1022618E+04  0.7818608E-02  0.9262361E-01
          4   -1    0    0  502    0 -0.00000000000E+00  0.00000000000E+00  0.24614827136E+04  0.24614827136E+04  0.00000000000E+00 0.  1.
         21   -1    0    0  501  502  0.00000000000E+00 -0.00000000000E+00 -0.13513536721E+03  0.13513536721E+03  0.00000000000E+00 0.  1.
    9000010    2    1    2  501    0 -0.12140737993E+03  0.48472877257E+02  0.20754134154E+04  0.23136742337E+04  0.10142279049E+04 0.  0.
        -13    1    3    3    0    0 -0.45138457078E+03  0.34793265534E+03  0.12980468763E+04  0.14176497691E+04  0.10566000000E+00 0.  1.
          4    1    3    3  501    0  0.32997719085E+03 -0.29945977808E+03  0.77736653911E+03  0.89602446467E+03  0.00000000000E+00 0.  1.
         13    1    1    2    0    0  0.12140737993E+03 -0.48472877257E+02  0.25093393095E+03  0.28294384708E+03  0.10566000000E+00 0. -1.
<mgrwt>
<rscale>  1 0.61147110E+03</rscale>
<asrwt>0</asrwt>
<pdfrwt beam="2">  1       21 0.20790058E-01 0.10226180E+04</pdfrwt>
<pdfrwt beam="1">  1        4 0.37868962E+00 0.10226180E+04</pdfrwt>
<totfact> 0.95716735E+01</totfact>
</mgrwt>
</event>
<event>
 6    1  0.5391662E-005  0.1118585E+04  0.7818608E-02  0.8870022E-01
          4   -1    0    0  502    0 -0.00000000000E+00  0.00000000000E+00  0.26074418405E+04  0.26074418405E+04  0.00000000000E+00 0.  1.
         21   -1    0    0  501  502  0.00000000000E+00 -0.00000000000E+00 -0.25866915743E+03  0.25866915743E+03  0.00000000000E+00 0.  1.
    9000010    2    1    2  501    0 -0.19325096350E+03  0.43716615074E+03  0.13096433538E+04  0.17223234511E+04  0.10113219951E+04 0.  0.
        -13    1    3    3    0    0 -0.24132054333E+03  0.16879629098E+03 -0.80818488936E+02  0.30538407261E+03  0.10566000000E+00 0.  1.
          4    1    3    3  501    0  0.48069579838E+02  0.26836985975E+03  0.13904618428E+04  0.14169393785E+04  0.00000000000E+00 0.  1.
         13    1    1    2    0    0  0.19325096350E+03 -0.43716615074E+03  0.10391293292E+04  0.11437875468E+04  0.10566000000E+00 0. -1.
<mgrwt>
<rscale>  1 0.90438438E+03</rscale>
<asrwt>0</asrwt>
<pdfrwt beam="2">  1       21 0.39795257E-01 0.11185850E+04</pdfrwt>
<pdfrwt beam="1">  1        4 0.40114488E+00 0.11185850E+04</pdfrwt>
<totfact> 0.20545537E+01</totfact>
</mgrwt>
</event>
<event>
 6    1  0.5391662E-005  0.1100054E+04  0.7818608E-02  0.8915993E-01
          4   -1    0    0  502    0 -0.00000000000E+00  0.00000000000E+00  0.13782486134E+04  0.13782486134E+04  0.00000000000E+00 0.  1.
         21   -1    0    0  501  502  0.00000000000E+00 -0.00000000000E+00 -0.41664591297E+03  0.41664591297E+03  0.00000000000E+00 0.  1.
    9000010    2    1    2  501    0  0.18557518918E+03  0.37156366911E+03  0.68524468886E+03  0.12960243301E+04  0.10186368683E+04 0.  0.
        -13    1    3    3    0    0  0.52191074768E+03  0.18349273105E+03  0.72126058032E+03  0.90899793552E+03  0.10566000000E+00 0.  1.
          4    1    3    3  501    0 -0.33633555850E+03  0.18807093805E+03 -0.36015891460E+02  0.38702639456E+03  0.00000000000E+00 0.  1.
         13    1    1    2    0    0 -0.18557518918E+03 -0.37156366911E+03  0.27635801161E+03  0.49887019633E+03  0.10566000000E+00 0. -1.
<mgrwt>
<rscale>  1 0.86230007E+03</rscale>
<asrwt>0</asrwt>
<pdfrwt beam="2">  1       21 0.64099372E-01 0.11000540E+04</pdfrwt>
<pdfrwt beam="1">  1        4 0.21203825E+00 0.11000540E+04</pdfrwt>
<totfact> 0.25438878E+01</totfact>
</mgrwt>
</event>
<event>
 6    1  0.5391662E-005  0.9947872E+03  0.7818608E-02  0.9134098E-01
         21   -1    0    0  501  502  0.00000000000E+00  0.00000000000E+00  0.77145130682E+03  0.77145130682E+03  0.00000000000E+00 0.  1.
          4   -1    0    0  502    0 -0.00000000000E+00 -0.00000000000E+00 -0.48975545693E+03  0.48975545693E+03  0.00000000000E+00 0.  1.
    9000010    2    1    2  501    0 -0.14930488427E+03  0.17946725552E+03  0.24898320777E+03  0.10254726500E+04  0.96700624292E+03 0.  0.
        -13    1    3    3    0    0 -0.18905528815E+03 -0.25050632702E+03 -0.22358140536E+03  0.38533618807E+03  0.10566000000E+00 0.  1.
          4    1    3    3  501    0  0.39750403881E+02  0.42997358254E+03  0.47256461313E+03  0.64013646192E+03  0.00000000000E+00 0.  1.
         13    1    1    2    0    0  0.14930488427E+03 -0.17946725552E+03  0.32712642122E+02  0.23573411376E+03  0.10566000000E+00 0. -1.
<mgrwt>
<rscale>  1 0.69238500E+03</rscale>
<asrwt>0</asrwt>
<pdfrwt beam="1">  1       21 0.11868482E+00 0.99478717E+03</pdfrwt>
<pdfrwt beam="2">  1        4 0.75346994E-01 0.99478717E+03</pdfrwt>
<totfact> 0.30119087E+01</totfact>
</mgrwt>
</event>
<event>
 6    1  0.5391662E-005  0.1011349E+04  0.7818608E-02  0.9082892E-01
         21   -1    0    0  501  502  0.00000000000E+00  0.00000000000E+00  0.30097586092E+03  0.30097586092E+03  0.00000000000E+00 0.  1.
          4   -1    0    0  502    0 -0.00000000000E+00 -0.00000000000E+00 -0.16332864558E+04  0.16332864558E+04  0.00000000000E+00 0.  1.
    9000010    2    1    2  501    0  0.13970477958E+03  0.23337464995E+03 -0.65643379435E+03  0.12057085347E+04  0.97408756874E+03 0.  0.
        -13    1    3    3    0    0 -0.58998649950E+02  0.22239989875E+03  0.21314706110E+03  0.31364667459E+03  0.10566000000E+00 0.  1.
          4    1    3    3  501    0  0.19870342953E+03  0.10974751197E+02 -0.86958085545E+03  0.89206186010E+03  0.00000000000E+00 0.  1.
         13    1    1    2    0    0 -0.13970477958E+03 -0.23337464995E+03 -0.67587680056E+03  0.72855378207E+03  0.10566000000E+00 0. -1.
<mgrwt>
<rscale>  1 0.72830968E+03</rscale>
<asrwt>0</asrwt>
<pdfrwt beam="1">  1       21 0.46303978E-01 0.10113495E+04</pdfrwt>
<pdfrwt beam="2">  1        4 0.25127484E+00 0.10113495E+04</pdfrwt>
<totfact> 0.42785100E+01</totfact>
</mgrwt>
</event>
<event>
 6    1  0.5391662E-005  0.1182055E+04  0.7818608E-02  0.8754429E-01
         21   -1    0    0  501  502  0.00000000000E+00  0.00000000000E+00  0.67357162377E+03  0.67357162377E+03  0.00000000000E+00 0.  1.
          4   -1    0    0  502    0 -0.00000000000E+00 -0.00000000000E+00 -0.13646518726E+04  0.13646518726E+04  0.00000000000E+00 0.  1.
    9000010    2    1    2  501    0  0.12133311838E+03 -0.64860282921E+03 -0.16334039176E+03  0.11932875677E+04  0.98073838504E+03 0.  0.
        -13    1    3    3    0    0 -0.10964272950E+03  0.87317977414E+02  0.27316213638E+03  0.30702364930E+03  0.10566000000E+00 0.  1.
          4    1    3    3  501    0  0.23097584788E+03 -0.73592080663E+03 -0.43650252814E+03  0.88626391837E+03  0.00000000000E+00 0.  1.
         13    1    1    2    0    0 -0.12133311838E+03  0.64860282921E+03 -0.52773985703E+03  0.84493592866E+03  0.10566000000E+00 0. -1.
<mgrwt>
<rscale>  1 0.10217399E+04</rscale>
<asrwt>0</asrwt>
<pdfrwt beam="1">  1       21 0.10362641E+00 0.11820555E+04</pdfrwt>
<pdfrwt beam="2">  1        4 0.20994644E+00 0.11820555E+04</pdfrwt>
<totfact> 0.77713855E+00</totfact>
</mgrwt>
</event>
<event>
 6    1  0.5391662E-005  0.1084796E+04  0.7818608E-02  0.8939906E-01
         21   -1    0    0  501  502  0.00000000000E+00  0.00000000000E+00  0.15285270148E+04  0.15285270148E+04  0.00000000000E+00 0.  1.
          4   -1    0    0  502    0 -0.00000000000E+00 -0.00000000000E+00 -0.39847191215E+03  0.39847191215E+03  0.00000000000E+00 0.  1.
    9000010    2    1    2  501    0 -0.23432826554E+03  0.31490987365E+03  0.10809420862E+04  0.15314106762E+04  0.10112887328E+04 0.  0.
        -13    1    3    3    0    0 -0.59999853516E+03  0.91197813036E+02  0.40027505607E+03  0.72700441194E+03  0.10566000000E+00 0.  1.
          4    1    3    3  501    0  0.36567026962E+03  0.22371206062E+03  0.68066703008E+03  0.80440626426E+03  0.00000000000E+00 0.  1.
         13    1    1    2    0    0  0.23432826554E+03 -0.31490987365E+03  0.49113016466E+02  0.39558825072E+03  0.10566000000E+00 0. -1.
<mgrwt>
<rscale>  1 0.84135387E+03</rscale>
<asrwt>0</asrwt>
<pdfrwt beam="1">  1       21 0.23515800E+00 0.10847962E+04</pdfrwt>
<pdfrwt beam="2">  1        4 0.61303372E-01 0.10847962E+04</pdfrwt>
<totfact> 0.48435713E+00</totfact>
</mgrwt>
</event>
<event>
 6    1  0.5391662E-005  0.1015917E+04  0.7818608E-02  0.9303167E-01
          4   -1    0    0  502    0 -0.00000000000E+00  0.00000000000E+00  0.17803307686E+04  0.17803307686E+04  0.00000000000E+00 0.  1.
         21   -1    0    0  501  502  0.00000000000E+00 -0.00000000000E+00 -0.20212801445E+03  0.20212801445E+03  0.00000000000E+00 0.  1.
    9000010    2    1    2  501    0  0.10990294417E+03 -0.30876958253E+02  0.15673327869E+04  0.18677844134E+04  0.10094822963E+04 0.  0.
        -13    1    3    3    0    0  0.17248014647E+03 -0.16921385825E+03 -0.47146057673E+02  0.24618182847E+03  0.10566000000E+00 0.  1.
          4    1    3    3  501    0 -0.62577202301E+02  0.13833689999E+03  0.16144788445E+04  0.16216025850E+04  0.00000000000E+00 0.  1.
         13    1    1    2    0    0 -0.10990294417E+03  0.30876958253E+02  0.10869967267E+02  0.11467436959E+03  0.10566000000E+00 0. -1.
<mgrwt>
<rscale>  1 0.58819349E+03</rscale>
<asrwt>0</asrwt>
<pdfrwt beam="2">  1       21 0.31096619E-01 0.10159166E+04</pdfrwt>
<pdfrwt beam="1">  1        4 0.27389703E+00 0.10159166E+04</pdfrwt>
<totfact> 0.88180374E+01</totfact>
</mgrwt>
</event>
<event>
 6    1  0.5391662E-005  0.1031161E+04  0.7818608E-02  0.9143713E-01
         21   -1    0    0  501  502  0.00000000000E+00  0.00000000000E+00  0.34234387569E+03  0.34234387569E+03  0.00000000000E+00 0.  1.
          4   -1    0    0  502    0 -0.00000000000E+00 -0.00000000000E+00 -0.11129643295E+04  0.11129643295E+04  0.00000000000E+00 0.  1.
    9000010    2    1    2  501    0  0.10046552836E+03 -0.17506562667E+03 -0.67060837516E+03  0.12300445306E+04  0.10112134584E+04 0.  0.
        -13    1    3    3    0    0  0.42187130667E+03 -0.42988438892E+03 -0.28213140574E+03  0.66511211724E+03  0.10566000000E+00 0.  1.
          4    1    3    3  501    0 -0.32140577831E+03  0.25481876225E+03 -0.38847696942E+03  0.56493241339E+03  0.00000000000E+00 0.  1.
         13    1    1    2    0    0 -0.10046552836E+03  0.17506562667E+03 -0.10001207863E+03  0.22526367454E+03  0.10566000000E+00 0. -1.
<mgrwt>
<rscale>  1 0.68588204E+03</rscale>
<asrwt>0</asrwt>
<pdfrwt beam="1">  1       21 0.52668289E-01 0.10311615E+04</pdfrwt>
<pdfrwt beam="2">  1        4 0.17122528E+00 0.10311615E+04</pdfrwt>
<totfact> 0.53211983E+01</totfact>
</mgrwt>
</event>
<event>
 6    1  0.5391662E-005  0.1348316E+04  0.7818608E-02  0.8587942E-01
         21   -1    0    0  501  502  0.00000000000E+00  0.00000000000E+00  0.59572767644E+03  0.59572767644E+03  0.00000000000E+00 0. -1.
          4   -1    0    0  502    0 -0.00000000000E+00 -0.00000000000E+00 -0.23181204617E+04  0.23181204617E+04  0.00000000000E+00 0.  1.
    9000010    2    1    2  501    0 -0.66237575549E+03 -0.63676571625E+03 -0.13906773587E+04  0.19369922868E+04  0.98678436571E+03 0.  0.
        -13    1    3    3    0    0 -0.46057456928E+03 -0.70469887951E+02 -0.12291422921E+04  0.13144906711E+04  0.10566000000E+00 0.  1.
          4    1    3    3  501    0 -0.20180118621E+03 -0.56629582830E+03 -0.16153506665E+03  0.62250161579E+03  0.00000000000E+00 0.  1.
         13    1    1    2    0    0  0.66237575549E+03  0.63676571625E+03 -0.33171542656E+03  0.97685585131E+03  0.10566000000E+00 0. -1.
<mgrwt>
<rscale>  1 0.12250399E+04</rscale>
<asrwt>0</asrwt>
<pdfrwt beam="1">  1       21 0.91650413E-01 0.13483158E+04</pdfrwt>
<pdfrwt beam="2">  1        4 0.35663391E+00 0.13483158E+04</pdfrwt>
<totfact> 0.42317898E+00</totfact>
</mgrwt>
</event>
<event>
 6    1  0.5391662E-005  0.1015602E+04  0.7818608E-02  0.9178596E-01
         21   -1    0    0  501  502  0.00000000000E+00  0.00000000000E+00  0.12959282065E+03  0.12959282065E+03  0.00000000000E+00 0.  1.
          4   -1    0    0  502    0 -0.00000000000E+00 -0.00000000000E+00 -0.30706898215E+04  0.30706898215E+04  0.00000000000E+00 0.  1.
    9000010    2    1    2  501    0  0.57450303005E+02 -0.17516814538E+03 -0.20202348527E+04  0.22611492525E+04  0.99873052703E+03 0.  0.
        -13    1    3    3    0    0  0.43592182721E+03 -0.70309005215E+02 -0.16939798259E+04  0.17505824337E+04  0.10566000000E+00 0.  1.
          4    1    3    3  501    0 -0.37847152420E+03 -0.10485914017E+03 -0.32625502681E+03  0.51056681877E+03  0.00000000000E+00 0.  1.
         13    1    1    2    0    0 -0.57450303005E+02  0.17516814538E+03 -0.92086214816E+03  0.93913338964E+03  0.10566000000E+00 0. -1.
<mgrwt>
<rscale>  1 0.66290700E+03</rscale>
<asrwt>0</asrwt>
<pdfrwt beam="1">  1       21 0.19937356E-01 0.10156018E+04</pdfrwt>
<pdfrwt beam="2">  1        4 0.47241383E+00 0.10156018E+04</pdfrwt>
<totfact> 0.41119395E+01</totfact>
</mgrwt>
</event>
<event>
 6    1  0.5391662E-005  0.1068223E+04  0.7818608E-02  0.9024851E-01
          4   -1    0    0  502    0 -0.00000000000E+00  0.00000000000E+00  0.89007081136E+03  0.89007081136E+03  0.00000000000E+00 0.  1.
         21   -1    0    0  501  502  0.00000000000E+00 -0.00000000000E+00 -0.51954321449E+03  0.51954321449E+03  0.00000000000E+00 0.  1.
    9000010    2    1    2  501    0 -0.23873103550E+03 -0.16658111357E+03  0.27228792987E+03  0.11023798838E+04  0.10277932266E+04 0.  0.
        -13    1    3    3    0    0 -0.41230007713E+03  0.28159318570E+03  0.35775806540E+03  0.61422871991E+03  0.10566000000E+00 0.  1.
          4    1    3    3  501    0  0.17356904163E+03 -0.44817429927E+03 -0.85470135529E+02  0.48815116389E+03  0.00000000000E+00 0.  1.
         13    1    1    2    0    0  0.23873103550E+03  0.16658111357E+03  0.98239667003E+02  0.30723414205E+03  0.10566000000E+00 0. -1.
<mgrwt>
<rscale>  1 0.77180696E+03</rscale>
<asrwt>0</asrwt>
<pdfrwt beam="2">  1       21 0.79929726E-01 0.10682231E+04</pdfrwt>
<pdfrwt beam="1">  1        4 0.13693397E+00 0.10682231E+04</pdfrwt>
<totfact> 0.27694845E+01</totfact>
</mgrwt>
</event>
<event>
 6    1  0.5391662E-005  0.1079374E+04  0.7818608E-02  0.8902874E-01
          4   -1    0    0  502    0 -0.00000000000E+00  0.00000000000E+00  0.20303810198E+04  0.20303810198E+04  0.00000000000E+00 0.  1.
         21   -1    0    0  501  502  0.00000000000E+00 -0.00000000000E+00 -0.35392287997E+03  0.35392287997E+03  0.00000000000E+00 0.  1.
    9000010    2    1    2  501    0 -0.43611566328E+03 -0.15884981597E+03  0.65558145836E+03  0.12628676128E+04  0.97448315692E+03 0.  0.
        -13    1    3    3    0    0  0.18961267422E+03  0.26303834788E+03  0.21382031754E+03  0.38840864825E+03  0.10566000000E+00 0.  1.
          4    1    3    3  501    0 -0.62572833750E+03 -0.42188816385E+03  0.44176114082E+03  0.87445896455E+03  0.00000000000E+00 0.  1.
         13    1    1    2    0    0  0.43611566328E+03  0.15884981597E+03  0.10208766814E+04  0.11214362869E+04  0.10566000000E+00 0. -1.
<mgrwt>
<rscale>  1 0.87406188E+03</rscale>
<asrwt>0</asrwt>
<pdfrwt beam="2">  1       21 0.54449675E-01 0.10793737E+04</pdfrwt>
<pdfrwt beam="1">  1        4 0.31236630E+00 0.10793737E+04</pdfrwt>
<totfact> 0.20763825E+01</totfact>
</mgrwt>
</event>
<event>
 6    1  0.5391662E-005  0.1008880E+04  0.7818608E-02  0.9242656E-01
          4   -1    0    0  502    0 -0.00000000000E+00  0.00000000000E+00  0.47943104743E+03  0.47943104743E+03  0.00000000000E+00 0.  1.
         21   -1    0    0  501  502  0.00000000000E+00 -0.00000000000E+00 -0.11357608814E+04  0.11357608814E+04  0.00000000000E+00 0.  1.
    9000010    2    1    2  501    0 -0.13069841965E+03 -0.66869427093E+02 -0.88594094416E+03  0.13426577654E+04  0.99814073217E+03 0.  0.
        -13    1    3    3    0    0  0.42051276188E+03 -0.15846243916E+03 -0.36956117082E+03  0.58182196390E+03  0.10566000000E+00 0.  1.
          4    1    3    3  501    0 -0.55121118153E+03  0.91593012066E+02 -0.51637977334E+03  0.76083580148E+03  0.00000000000E+00 0.  1.
         13    1    1    2    0    0  0.13069841965E+03  0.66869427093E+02  0.22961111018E+03  0.27253416347E+03  0.10566000000E+00 0. -1.
<mgrwt>
<rscale>  1 0.62311697E+03</rscale>
<asrwt>0</asrwt>
<pdfrwt beam="2">  1       21 0.17473244E+00 0.10088798E+04</pdfrwt>
<pdfrwt beam="1">  1        4 0.73758623E-01 0.10088798E+04</pdfrwt>
<totfact> 0.97325381E+00</totfact>
</mgrwt>
</event>
<event>
 6    1  0.5391662E-005  0.1345767E+04  0.7818608E-02  0.8591008E-01
         21   -1    0    0  501  502  0.00000000000E+00  0.00000000000E+00  0.64861526744E+03  0.64861526744E+03  0.00000000000E+00 0. -1.
          4   -1    0    0  502    0 -0.00000000000E+00 -0.00000000000E+00 -0.19747858301E+04  0.19747858301E+04  0.00000000000E+00 0.  1.
    9000010    2    1    2  501    0  0.91036047816E+03 -0.46217096374E+02 -0.69460557851E+03  0.15144526945E+04  0.99004940990E+03 0.  0.
        -13    1    3    3    0    0  0.96050461056E+03 -0.36061973780E+03 -0.55930633946E+03  0.11685201302E+04  0.10566000000E+00 0.  1.
          4    1    3    3  501    0 -0.50144132404E+02  0.31440264143E+03 -0.13529923905E+03  0.34593256430E+03  0.00000000000E+00 0.  1.
         13    1    1    2    0    0 -0.91036047816E+03  0.46217096374E+02 -0.63156498414E+03  0.11089484030E+04  0.10566000000E+00 0. -1.
<mgrwt>
<rscale>  1 0.12208733E+04</rscale>
<asrwt>0</asrwt>
<pdfrwt beam="1">  1       21 0.99786964E-01 0.13457675E+04</pdfrwt>
<pdfrwt beam="2">  1        4 0.30381321E+00 0.13457675E+04</pdfrwt>
<totfact> 0.49025122E+00</totfact>
</mgrwt>
</event>
<event>
 6    1  0.5391662E-005  0.9931446E+03  0.7818608E-02  0.9359032E-01
          4   -1    0    0  502    0 -0.00000000000E+00  0.00000000000E+00  0.47019507635E+03  0.47019507635E+03  0.00000000000E+00 0.  1.
         21   -1    0    0  501  502  0.00000000000E+00 -0.00000000000E+00 -0.65355721522E+03  0.65355721522E+03  0.00000000000E+00 0.  1.
    9000010    2    1    2  501    0 -0.99016506755E+02  0.81339715197E+00 -0.22166702580E+03  0.10175816471E+04  0.98819593600E+03 0.  0.
        -13    1    3    3    0    0  0.55385788526E+02  0.23854029551E+03 -0.53903308442E+03  0.59205213911E+03  0.10566000000E+00 0.  1.
          4    1    3    3  501    0 -0.15440229528E+03 -0.23772689836E+03  0.31736605863E+03  0.42552950798E+03  0.00000000000E+00 0.  1.
         13    1    1    2    0    0  0.99016506755E+02 -0.81339715197E+00  0.38304886926E+02  0.10617064449E+03  0.10566000000E+00 0. -1.
<mgrwt>
<rscale>  1 0.55807167E+03</rscale>
<asrwt>0</asrwt>
<pdfrwt beam="2">  1       21 0.10054726E+00 0.99314457E+03</pdfrwt>
<pdfrwt beam="1">  1        4 0.72337705E-01 0.99314457E+03</pdfrwt>
<totfact> 0.51285132E+01</totfact>
</mgrwt>
</event>
<event>
 6    1  0.5391662E-005  0.1030383E+04  0.7818608E-02  0.9075019E-01
          4   -1    0    0  502    0 -0.00000000000E+00  0.00000000000E+00  0.21900519456E+04  0.21900519456E+04  0.00000000000E+00 0.  1.
         21   -1    0    0  501  502  0.00000000000E+00 -0.00000000000E+00 -0.19242053494E+03  0.19242053494E+03  0.00000000000E+00 0.  1.
    9000010    2    1    2  501    0  0.89812021235E+01  0.26522559759E+03  0.15257358389E+04  0.18410754715E+04  0.99562229885E+03 0.  0.
        -13    1    3    3    0    0  0.31500341788E+03  0.78996966011E+02  0.14353297028E+04  0.14716110359E+04  0.10566000000E+00 0.  1.
          4    1    3    3  501    0 -0.30602221576E+03  0.18622863157E+03  0.90406136112E+02  0.36946443564E+03  0.00000000000E+00 0.  1.
         13    1    1    2    0    0 -0.89812021235E+01 -0.26522559759E+03  0.47189557174E+03  0.54139700904E+03  0.10566000000E+00 0. -1.
<mgrwt>
<rscale>  1 0.73403215E+03</rscale>
<asrwt>0</asrwt>
<pdfrwt beam="2">  1       21 0.29603161E-01 0.10303830E+04</pdfrwt>
<pdfrwt beam="1">  1        4 0.33693105E+00 0.10303830E+04</pdfrwt>
<totfact> 0.65682730E+01</totfact>
</mgrwt>
</event>
<event>
 6    1  0.5391662E-005  0.1049756E+04  0.7818608E-02  0.9019167E-01
         21   -1    0    0  501  502  0.00000000000E+00  0.00000000000E+00  0.16936098008E+03  0.16936098008E+03  0.00000000000E+00 0.  1.
          4   -1    0    0  502    0 -0.00000000000E+00 -0.00000000000E+00 -0.27741216842E+04  0.27741216842E+04  0.00000000000E+00 0.  1.
    9000010    2    1    2  501    0  0.31232570969E+03 -0.30799214717E+02 -0.18699783262E+04  0.21444826050E+04  0.10017438607E+04 0.  0.
        -13    1    3    3    0    0  0.11030390528E+02 -0.24340374958E+03 -0.17346533989E+04  0.17516819004E+04  0.10566000000E+00 0.  1.
          4    1    3    3  501    0  0.30129531916E+03  0.21260453486E+03 -0.13532492727E+03  0.39280070460E+03  0.00000000000E+00 0.  1.
         13    1    1    2    0    0 -0.31232570969E+03  0.30799214717E+02 -0.73478237796E+03  0.79900005925E+03  0.10566000000E+00 0. -1.
<mgrwt>
<rscale>  1 0.77623537E+03</rscale>
<asrwt>0</asrwt>
<pdfrwt beam="1">  1       21 0.26055538E-01 0.10497555E+04</pdfrwt>
<pdfrwt beam="2">  1        4 0.42678792E+00 0.10497555E+04</pdfrwt>
<totfact> 0.39134501E+01</totfact>
</mgrwt>
</event>
<event>
 6    1  0.5391662E-005  0.1084365E+04  0.7818608E-02  0.8912987E-01
         21   -1    0    0  501  502  0.00000000000E+00  0.00000000000E+00  0.39383841553E+03  0.39383841553E+03  0.00000000000E+00 0.  1.
          4   -1    0    0  502    0 -0.00000000000E+00 -0.00000000000E+00 -0.19461159833E+04  0.19461159833E+04  0.00000000000E+00 0.  1.
    9000010    2    1    2  501    0  0.12325945104E+03  0.42137204833E+03 -0.48884462718E+03  0.11894601895E+04  0.99151357910E+03 0.  0.
        -13    1    3    3    0    0  0.44947264662E+03  0.37280424359E+03 -0.60399227202E+03  0.84012816875E+03  0.10566000000E+00 0.  1.
          4    1    3    3  501    0 -0.32621319558E+03  0.48567804735E+02  0.11514764484E+03  0.34933202077E+03  0.00000000000E+00 0.  1.
         13    1    1    2    0    0 -0.12325945104E+03 -0.42137204833E+03 -0.10634329406E+04  0.11504942093E+04  0.10566000000E+00 0. -1.
<mgrwt>
<rscale>  1 0.86497792E+03</rscale>
<asrwt>0</asrwt>
<pdfrwt beam="1">  1       21 0.60590525E-01 0.10843645E+04</pdfrwt>
<pdfrwt beam="2">  1        4 0.29940246E+00 0.10843645E+04</pdfrwt>
<totfact> 0.17649737E+01</totfact>
</mgrwt>
</event>
<event>
 6    1  0.5391662E-005  0.9963944E+03  0.7818608E-02  0.9602618E-01
          4   -1    0    0  502    0 -0.00000000000E+00  0.00000000000E+00  0.16832158205E+04  0.16832158205E+04  0.00000000000E+00 0.  1.
         21   -1    0    0  501  502  0.00000000000E+00 -0.00000000000E+00 -0.15964319047E+03  0.15964319047E+03  0.00000000000E+00 0.  1.
    9000010    2    1    2  501    0  0.40274555190E+02 -0.19946823836E+01  0.14613765043E+04  0.17687348734E+04  0.99557809660E+03 0.  0.
        -13    1    3    3    0    0  0.29154771941E+03  0.11285802769E+01  0.57810560203E+01  0.29160723269E+03  0.10566000000E+00 0.  1.
          4    1    3    3  501    0 -0.25127316422E+03 -0.31232626605E+01  0.14555954483E+04  0.14771276407E+04  0.00000000000E+00 0.  1.
         13    1    1    2    0    0 -0.40274555190E+02  0.19946823836E+01  0.62196125729E+02  0.74124137589E+02  0.10566000000E+00 0. -1.
<mgrwt>
<rscale>  1 0.44690428E+03</rscale>
<asrwt>0</asrwt>
<pdfrwt beam="2">  1       21 0.24560492E-01 0.99639438E+03</pdfrwt>
<pdfrwt beam="1">  1        4 0.25895627E+00 0.99639438E+03</pdfrwt>
<totfact> 0.15424487E+02</totfact>
</mgrwt>
</event>
<event>
 6    1  0.5391662E-005  0.9969686E+03  0.7818608E-02  0.9648006E-01
         21   -1    0    0  501  502  0.00000000000E+00  0.00000000000E+00  0.58984882392E+03  0.58984882392E+03  0.00000000000E+00 0.  1.
          4   -1    0    0  502    0 -0.00000000000E+00 -0.00000000000E+00 -0.49761393950E+03  0.49761393950E+03  0.00000000000E+00 0.  1.
    9000010    2    1    2  501    0 -0.32760604780E+02  0.10099681703E+02  0.16170193370E+03  0.10099970104E+04  0.99637903670E+03 0.  0.
        -13    1    3    3    0    0  0.75372744273E+02  0.47587915089E+03 -0.55147534340E+02  0.48495698628E+03  0.10566000000E+00 0.  1.
          4    1    3    3  501    0 -0.10813334905E+03 -0.46577946919E+03  0.21684946804E+03  0.52504002408E+03  0.00000000000E+00 0.  1.
         13    1    1    2    0    0  0.32760604780E+02 -0.10099681703E+02 -0.69467049278E+02  0.77465753049E+02  0.10566000000E+00 0. -1.
<mgrwt>
<rscale>  1 0.42931733E+03</rscale>
<asrwt>0</asrwt>
<pdfrwt beam="1">  1       21 0.90745973E-01 0.99696863E+03</pdfrwt>
<pdfrwt beam="2">  1        4 0.76555991E-01 0.99696863E+03</pdfrwt>
<totfact> 0.59373088E+01</totfact>
</mgrwt>
</event>
<event>
 6    1  0.5391662E-005  0.1028082E+04  0.7818608E-02  0.9414614E-01
          4   -1    0    0  502    0 -0.00000000000E+00  0.00000000000E+00  0.60046718148E+03  0.60046718148E+03  0.00000000000E+00 0.  1.
         21   -1    0    0  501  502  0.00000000000E+00 -0.00000000000E+00 -0.51075633032E+03  0.51075633032E+03  0.00000000000E+00 0.  1.
    9000010    2    1    2  501    0  0.41614963576E+02  0.59480159910E+02  0.51943318495E+02  0.10293938576E+04  0.10255164119E+04 0.  0.
        -13    1    3    3    0    0 -0.21093057830E+03  0.44332017861E+03  0.22286872361E+03  0.53916135688E+03  0.10566000000E+00 0.  1.
          4    1    3    3  501    0  0.25254554188E+03 -0.38384001870E+03 -0.17092540511E+03  0.49023250075E+03  0.00000000000E+00 0.  1.
         13    1    1    2    0    0 -0.41614963576E+02 -0.59480159910E+02  0.37767532660E+02  0.81829654182E+02  0.10566000000E+00 0. -1.
<mgrwt>
<rscale>  1 0.52996144E+03</rscale>
<asrwt>0</asrwt>
<pdfrwt beam="2">  1       21 0.78577897E-01 0.10280825E+04</pdfrwt>
<pdfrwt beam="1">  1        4 0.92379566E-01 0.10280825E+04</pdfrwt>
<totfact> 0.57942733E+01</totfact>
</mgrwt>
</event>
<event>
 6    1  0.5391662E-005  0.1091840E+04  0.7818608E-02  0.9195165E-01
         21   -1    0    0  501  502  0.00000000000E+00  0.00000000000E+00  0.96718840305E+03  0.96718840305E+03  0.00000000000E+00 0.  1.
          4   -1    0    0  502    0 -0.00000000000E+00 -0.00000000000E+00 -0.10983836547E+04  0.10983836547E+04  0.00000000000E+00 0.  1.
    9000010    2    1    2  501    0 -0.68021620977E+02 -0.12135147136E+03  0.65094350754E+03  0.12711577009E+04  0.10829410557E+04 0.  0.
        -13    1    3    3    0    0 -0.42874745411E+03 -0.40523427142E+03  0.18791254469E+03  0.61915291306E+03  0.10566000000E+00 0.  1.
          4    1    3    3  501    0  0.36072583313E+03  0.28388280006E+03  0.46303096285E+03  0.65200478787E+03  0.00000000000E+00 0.  1.
         13    1    1    2    0    0  0.68021620977E+02  0.12135147136E+03 -0.78213875922E+03  0.79441435684E+03  0.10566000000E+00 0. -1.
<mgrwt>
<rscale>  1 0.65232367E+03</rscale>
<asrwt>0</asrwt>
<pdfrwt beam="1">  1       21 0.14879822E+00 0.10918399E+04</pdfrwt>
<pdfrwt beam="2">  1        4 0.16898210E+00 0.10918399E+04</pdfrwt>
<totfact> 0.37448193E+00</totfact>
</mgrwt>
</event>
<event>
 6    1  0.5391662E-005  0.1105738E+04  0.7818608E-02  0.8877066E-01
          4   -1    0    0  502    0 -0.00000000000E+00  0.00000000000E+00  0.79416676530E+03  0.79416676530E+03  0.00000000000E+00 0.  1.
         21   -1    0    0  501  502  0.00000000000E+00 -0.00000000000E+00 -0.82230940883E+03  0.82230940883E+03  0.00000000000E+00 0.  1.
    9000010    2    1    2  501    0 -0.75461602596E+02  0.47456244283E+03 -0.16227577761E+03  0.11175817219E+04  0.99586721585E+03 0.  0.
        -13    1    3    3    0    0 -0.11944553911E+02  0.78043769707E+03 -0.19191976135E+03  0.80377787811E+03  0.10566000000E+00 0.  1.
          4    1    3    3  501    0 -0.63517048685E+02 -0.30587525424E+03  0.29643983745E+02  0.31380384383E+03  0.00000000000E+00 0.  1.
         13    1    1    2    0    0  0.75461602596E+02 -0.47456244283E+03  0.13413313407E+03  0.49889445219E+03  0.10566000000E+00 0. -1.
<mgrwt>
<rscale>  1 0.89777594E+03</rscale>
<asrwt>0</asrwt>
<pdfrwt beam="2">  1       21 0.12650914E+00 0.11057375E+04</pdfrwt>
<pdfrwt beam="1">  1        4 0.12217950E+00 0.11057375E+04</pdfrwt>
<totfact> 0.98680915E+00</totfact>
</mgrwt>
</event>
<event>
 6    1  0.5391662E-005  0.9797248E+03  0.7818608E-02  0.9353966E-01
          4   -1    0    0  502    0 -0.00000000000E+00  0.00000000000E+00  0.18141478616E+04  0.18141478616E+04  0.00000000000E+00 0.  1.
         21   -1    0    0  501  502  0.00000000000E+00 -0.00000000000E+00 -0.17341704364E+03  0.17341704364E+03  0.00000000000E+00 0.  1.
    9000010    2    1    2  501    0  0.30592327029E+02 -0.10056900779E+03  0.12804954654E+04  0.16123056133E+04  0.97406916485E+03 0.  0.
        -13    1    3    3    0    0  0.32444828919E+03  0.15804098633E+03  0.11410523048E+04  0.11967639781E+04  0.10566000000E+00 0.  1.
          4    1    3    3  501    0 -0.29385596216E+03 -0.25860999412E+03  0.13944316058E+03  0.41554163521E+03  0.00000000000E+00 0.  1.
         13    1    1    2    0    0 -0.30592327029E+02  0.10056900779E+03  0.36023535260E+03  0.37525929199E+03  0.10566000000E+00 0. -1.
<mgrwt>
<rscale>  1 0.56072317E+03</rscale>
<asrwt>0</asrwt>
<pdfrwt beam="2">  1       21 0.26679546E-01 0.97972484E+03</pdfrwt>
<pdfrwt beam="1">  1        4 0.27909966E+00 0.97972484E+03</pdfrwt>
<totfact> 0.11732846E+02</totfact>
</mgrwt>
</event>
<event>
 6    1  0.5391662E-005  0.1219839E+04  0.7818608E-02  0.8703026E-01
         21   -1    0    0  501  502  0.00000000000E+00  0.00000000000E+00  0.78736541059E+03  0.78736541059E+03  0.00000000000E+00 0. -1.
          4   -1    0    0  502    0 -0.00000000000E+00 -0.00000000000E+00 -0.14181541669E+04  0.14181541669E+04  0.00000000000E+00 0.  1.
    9000010    2    1    2  501    0  0.53036151226E+03 -0.52884537288E+03 -0.77164866248E+03  0.14434157221E+04  0.96283255372E+03 0.  0.
        -13    1    3    3    0    0  0.18996243812E+03 -0.77055078119E+03 -0.42193337802E+03  0.89881144905E+03  0.10566000000E+00 0.  1.
          4    1    3    3  501    0  0.34039907413E+03  0.24170540831E+03 -0.34971528447E+03  0.54460427309E+03  0.00000000000E+00 0.  1.
         13    1    1    2    0    0 -0.53036151226E+03  0.52884537288E+03  0.14085990613E+03  0.76210385540E+03  0.10566000000E+00 0. -1.
<mgrwt>
<rscale>  1 0.10798005E+04</rscale>
<asrwt>0</asrwt>
<pdfrwt beam="1">  1       21 0.12113314E+00 0.12198390E+04</pdfrwt>
<pdfrwt beam="2">  1        4 0.21817756E+00 0.12198390E+04</pdfrwt>
<totfact> 0.48126242E+00</totfact>
</mgrwt>
</event>
<event>
 6    1  0.5391662E-005  0.9584280E+03  0.7818608E-02  0.9148745E-01
          4   -1    0    0  502    0 -0.00000000000E+00  0.00000000000E+00  0.79121312798E+03  0.79121312798E+03  0.00000000000E+00 0.  1.
         21   -1    0    0  501  502  0.00000000000E+00 -0.00000000000E+00 -0.65626297631E+03  0.65626297631E+03  0.00000000000E+00 0. -1.
    9000010    2    1    2  501    0  0.13592941046E+03  0.20559098907E+03  0.44058659914E+03  0.10548463696E+04  0.92619644386E+03 0.  0.
        -13    1    3    3    0    0  0.30339981504E+03  0.38170460589E+03 -0.66905458887E+02  0.49216481540E+03  0.10566000000E+00 0.  1.
          4    1    3    3  501    0 -0.16747040458E+03 -0.17611361681E+03  0.50749205802E+03  0.56268155416E+03  0.00000000000E+00 0.  1.
         13    1    1    2    0    0 -0.13592941046E+03 -0.20559098907E+03 -0.30563644747E+03  0.39262973474E+03  0.10566000000E+00 0. -1.
<mgrwt>
<rscale>  1 0.68250845E+03</rscale>
<asrwt>0</asrwt>
<pdfrwt beam="2">  1       21 0.10096353E+00 0.95842804E+03</pdfrwt>
<pdfrwt beam="1">  1        4 0.12172510E+00 0.95842804E+03</pdfrwt>
<totfact> 0.18635315E+01</totfact>
</mgrwt>
</event>
<event>
 6    1  0.5391662E-005  0.1256649E+04  0.7818608E-02  0.8695126E-01
         21   -1    0    0  501  502  0.00000000000E+00  0.00000000000E+00  0.72460587173E+03  0.72460587173E+03  0.00000000000E+00 0.  1.
          4   -1    0    0  502    0 -0.00000000000E+00 -0.00000000000E+00 -0.13878794473E+04  0.13878794473E+04  0.00000000000E+00 0.  1.
    9000010    2    1    2  501    0  0.13414956511E+03 -0.69610176579E+03 -0.21823345558E+03  0.12754581428E+04  0.10376000476E+04 0.  0.
        -13    1    3    3    0    0 -0.16426702900E+03 -0.41111846776E+03  0.35616851847E+03  0.56820601551E+03  0.10566000000E+00 0.  1.
          4    1    3    3  501    0  0.29841659411E+03 -0.28498329803E+03 -0.57440197405E+03  0.70725212731E+03  0.00000000000E+00 0.  1.
         13    1    1    2    0    0 -0.13414956511E+03  0.69610176579E+03 -0.44504012001E+03  0.83702717623E+03  0.10566000000E+00 0. -1.
<mgrwt>
<rscale>  1 0.10890765E+04</rscale>
<asrwt>0</asrwt>
<pdfrwt beam="1">  1       21 0.11147783E+00 0.12566494E+04</pdfrwt>
<pdfrwt beam="2">  1        4 0.21351991E+00 0.12566494E+04</pdfrwt>
<totfact> 0.62038171E+00</totfact>
</mgrwt>
</event>
<event>
 6    1  0.5391662E-005  0.9032253E+03  0.7818608E-02  0.9234233E-01
          4   -1    0    0  502    0 -0.00000000000E+00  0.00000000000E+00  0.50083272754E+03  0.50083272754E+03  0.00000000000E+00 0.  1.
         21   -1    0    0  501  502  0.00000000000E+00 -0.00000000000E+00 -0.83306531515E+03  0.83306531515E+03  0.00000000000E+00 0.  1.
    9000010    2    1    2  501    0 -0.51199225566E+02  0.20502530048E+03 -0.52766328677E+03  0.10460614504E+04  0.87815675096E+03 0.  0.
        -13    1    3    3    0    0 -0.41431840780E+03  0.17141143119E+03 -0.59011395262E+02  0.45224327272E+03  0.10566000000E+00 0.  1.
          4    1    3    3  501    0  0.36311918224E+03  0.33613869292E+02 -0.46865189150E+03  0.59381817767E+03  0.00000000000E+00 0.  1.
         13    1    1    2    0    0  0.51199225566E+02 -0.20502530048E+03  0.19543069915E+03  0.28783659231E+03  0.10566000000E+00 0. -1.
<mgrwt>
<rscale>  1 0.62817836E+03</rscale>
<asrwt>0</asrwt>
<pdfrwt beam="2">  1       21 0.12816389E+00 0.90322534E+03</pdfrwt>
<pdfrwt beam="1">  1        4 0.77051189E-01 0.90322534E+03</pdfrwt>
<totfact> 0.23329159E+01</totfact>
</mgrwt>
</event>
<event>
 6    1  0.5391662E-005  0.1014899E+04  0.7818608E-02  0.9240529E-01
          4   -1    0    0  502    0 -0.00000000000E+00  0.00000000000E+00  0.14528878630E+04  0.14528878630E+04  0.00000000000E+00 0.  1.
         21   -1    0    0  501  502  0.00000000000E+00 -0.00000000000E+00 -0.23233542913E+03  0.23233542913E+03  0.00000000000E+00 0.  1.
    9000010    2    1    2  501    0  0.12368729513E+03  0.76431523599E+02  0.10360656468E+04  0.14503281867E+04  0.10044299378E+04 0.  0.
        -13    1    3    3    0    0 -0.27310260701E+03  0.33347784989E+03  0.16946234054E+03  0.46315224964E+03  0.10566000000E+00 0.  1.
          4    1    3    3  501    0  0.39678990214E+03 -0.25704632629E+03  0.86660330626E+03  0.98717593707E+03  0.00000000000E+00 0.  1.
         13    1    1    2    0    0 -0.12368729513E+03 -0.76431523599E+02  0.18448678704E+03  0.23489510538E+03  0.10566000000E+00 0. -1.
<mgrwt>
<rscale>  1 0.62439020E+03</rscale>
<asrwt>0</asrwt>
<pdfrwt beam="2">  1       21 0.35743913E-01 0.10148989E+04</pdfrwt>
<pdfrwt beam="1">  1        4 0.22352120E+00 0.10148989E+04</pdfrwt>
<totfact> 0.86864771E+01</totfact>
</mgrwt>
</event>
<event>
 6    1  0.5391662E-005  0.9920745E+03  0.7818608E-02  0.9506688E-01
          4   -1    0    0  502    0 -0.00000000000E+00  0.00000000000E+00  0.24549818761E+03  0.24549818761E+03  0.00000000000E+00 0.  1.
         21   -1    0    0  501  502  0.00000000000E+00 -0.00000000000E+00 -0.11405928149E+04  0.11405928149E+04  0.00000000000E+00 0.  1.
    9000010    2    1    2  501    0  0.34790345639E+01 -0.57553379900E+02 -0.88086909572E+03  0.13267035279E+04  0.99039759290E+03 0.  0.
        -13    1    3    3    0    0 -0.26978500414E+03 -0.33423932005E+03 -0.80711680622E+02  0.43705177963E+03  0.10566000000E+00 0.  1.
          4    1    3    3  501    0  0.27326403870E+03  0.27668594015E+03 -0.80015741510E+03  0.88965174830E+03  0.00000000000E+00 0.  1.
         13    1    1    2    0    0 -0.34790345639E+01  0.57553379900E+02 -0.14225531531E+02  0.59387474528E+02  0.10566000000E+00 0. -1.
<mgrwt>
<rscale>  1 0.48710672E+03</rscale>
<asrwt>0</asrwt>
<pdfrwt beam="2">  1       21 0.17547581E+00 0.99207454E+03</pdfrwt>
<pdfrwt beam="1">  1        4 0.37768953E-01 0.99207454E+03</pdfrwt>
<totfact> 0.38956658E+01</totfact>
</mgrwt>
</event>
<event>
 6    1  0.5391662E-005  0.1134863E+04  0.7818608E-02  0.8830697E-01
         21   -1    0    0  501  502  0.00000000000E+00  0.00000000000E+00  0.34372167089E+03  0.34372167089E+03  0.00000000000E+00 0.  1.
          4   -1    0    0  502    0 -0.00000000000E+00 -0.00000000000E+00 -0.22293440666E+04  0.22293440666E+04  0.00000000000E+00 0.  1.
    9000010    2    1    2  501    0 -0.16349820999E+03 -0.51423842696E+03 -0.89617780999E+03  0.14460460288E+04  0.99836948361E+03 0.  0.
        -13    1    3    3    0    0  0.26579234184E+03 -0.43172887266E+03 -0.87145339529E+03  0.10081995932E+04  0.10566000000E+00 0.  1.
          4    1    3    3  501    0 -0.42929055183E+03 -0.82509554309E+02 -0.24724414701E+02  0.43784643555E+03  0.00000000000E+00 0.  1.
         13    1    1    2    0    0  0.16349820999E+03  0.51423842696E+03 -0.98944458572E+03  0.11270197087E+04  0.10566000000E+00 0. -1.
<mgrwt>
<rscale>  1 0.94238093E+03</rscale>
<asrwt>0</asrwt>
<pdfrwt beam="1">  1       21 0.52880258E-01 0.11348632E+04</pdfrwt>
<pdfrwt beam="2">  1        4 0.34297600E+00 0.11348632E+04</pdfrwt>
<totfact> 0.18000834E+01</totfact>
</mgrwt>
</event>
<event>
 6    1  0.5391662E-005  0.1122702E+04  0.7818608E-02  0.8885434E-01
          4   -1    0    0  502    0 -0.00000000000E+00  0.00000000000E+00  0.25423719014E+04  0.25423719014E+04  0.00000000000E+00 0.  1.
         21   -1    0    0  501  502  0.00000000000E+00 -0.00000000000E+00 -0.29564139819E+03  0.29564139819E+03  0.00000000000E+00 0.  1.
    9000010    2    1    2  501    0  0.36237820804E+03  0.25546761383E+03  0.96048420891E+03  0.14774945720E+04  0.10314449221E+04 0.  0.
        -13    1    3    3    0    0 -0.80149769243E+01  0.48343852739E+03  0.72755732425E+02  0.48894831770E+03  0.10566000000E+00 0.  1.
          4    1    3    3  501    0  0.37039318497E+03 -0.22797091356E+03  0.88772847648E+03  0.98854625428E+03  0.00000000000E+00 0.  1.
         13    1    1    2    0    0 -0.36237820804E+03 -0.25546761383E+03  0.12862462943E+04  0.13605187276E+04  0.10566000000E+00 0. -1.
<mgrwt>
<rscale>  1 0.89000269E+03</rscale>
<asrwt>0</asrwt>
<pdfrwt beam="2">  1       21 0.45483294E-01 0.11227022E+04</pdfrwt>
<pdfrwt beam="1">  1        4 0.39113412E+00 0.11227022E+04</pdfrwt>
<totfact> 0.16834884E+01</totfact>
</mgrwt>
</event>
<event>
 6    1  0.5391662E-005  0.1023692E+04  0.7818608E-02  0.9374231E-01
         21   -1    0    0  501  502  0.00000000000E+00  0.00000000000E+00  0.11631812363E+04  0.11631812363E+04  0.00000000000E+00 0.  1.
          4   -1    0    0  502    0 -0.00000000000E+00 -0.00000000000E+00 -0.30042999216E+03  0.30042999216E+03  0.00000000000E+00 0.  1.
    9000010    2    1    2  501    0 -0.21643030263E+02  0.82640703252E+02  0.90673911099E+03  0.13675235072E+04  0.10201209834E+04 0.  0.
        -13    1    3    3    0    0 -0.23647679198E+03 -0.19042376053E+03 -0.86147401349E+02  0.31560080425E+03  0.10566000000E+00 0.  1.
          4    1    3    3  501    0  0.21483376172E+03  0.27306446379E+03  0.99288651234E+03  0.10519227029E+04  0.00000000000E+00 0.  1.
         13    1    1    2    0    0  0.21643030263E+02 -0.82640703252E+02 -0.43987866828E+02  0.96087721302E+02  0.10566000000E+00 0. -1.
<mgrwt>
<rscale>  1 0.55020782E+03</rscale>
<asrwt>0</asrwt>
<pdfrwt beam="1">  1       21 0.17895096E+00 0.10236917E+04</pdfrwt>
<pdfrwt beam="2">  1        4 0.46219999E-01 0.10236917E+04</pdfrwt>
<totfact> 0.24029308E+01</totfact>
</mgrwt>
</event>
<event>
 6    1  0.5391662E-005  0.9924485E+03  0.7818608E-02  0.9210070E-01
         21   -1    0    0  501  502  0.00000000000E+00  0.00000000000E+00  0.36636472791E+03  0.36636472791E+03  0.00000000000E+00 0.  1.
          4   -1    0    0  502    0 -0.00000000000E+00 -0.00000000000E+00 -0.10195593827E+04  0.10195593827E+04  0.00000000000E+00 0.  1.
    9000010    2    1    2  501    0 -0.11219763902E+03 -0.13410568674E+03 -0.38237100577E+03  0.10635607978E+04  0.97692442857E+03 0.  0.
        -13    1    3    3    0    0 -0.28889597173E+03 -0.18616846946E+03  0.23693337450E+03  0.41744103371E+03  0.10566000000E+00 0.  1.
          4    1    3    3  501    0  0.17669833271E+03  0.52062782727E+02 -0.61930438027E+03  0.64611976409E+03  0.00000000000E+00 0.  1.
         13    1    1    2    0    0  0.11219763902E+03  0.13410568674E+03 -0.27082364899E+03  0.32236331279E+03  0.10566000000E+00 0. -1.
<mgrwt>
<rscale>  1 0.64298024E+03</rscale>
<asrwt>0</asrwt>
<pdfrwt beam="1">  1       21 0.56363805E-01 0.99244848E+03</pdfrwt>
<pdfrwt beam="2">  1        4 0.15685529E+00 0.99244848E+03</pdfrwt>
<totfact> 0.51720212E+01</totfact>
</mgrwt>
</event>
<event>
 6    1  0.5391662E-005  0.1067892E+04  0.7818608E-02  0.8999809E-01
          4   -1    0    0  502    0 -0.00000000000E+00  0.00000000000E+00  0.18201786588E+04  0.18201786588E+04  0.00000000000E+00 0.  1.
         21   -1    0    0  501  502  0.00000000000E+00 -0.00000000000E+00 -0.37140932035E+03  0.37140932035E+03  0.00000000000E+00 0.  1.
    9000010    2    1    2  501    0  0.31633800016E+03  0.61991696526E+02  0.48039746980E+03  0.11709720926E+04  0.10180772131E+04 0.  0.
        -13    1    3    3    0    0 -0.17871180424E+03  0.23206698429E+03 -0.16799205812E+03  0.33766009081E+03  0.10566000000E+00 0.  1.
          4    1    3    3  501    0  0.49504980440E+03 -0.17007528776E+03  0.64838952793E+03  0.83331200175E+03  0.00000000000E+00 0.  1.
         13    1    1    2    0    0 -0.31633800016E+03 -0.61991696526E+02  0.96837186865E+03  0.10206158866E+04  0.10566000000E+00 0. -1.
<mgrwt>
<rscale>  1 0.79155149E+03</rscale>
<asrwt>0</asrwt>
<pdfrwt beam="2">  1       21 0.57139897E-01 0.10678923E+04</pdfrwt>
<pdfrwt beam="1">  1        4 0.28002748E+00 0.10678923E+04</pdfrwt>
<totfact> 0.22753464E+01</totfact>
</mgrwt>
</event>
<event>
 6    1  0.5391662E-005  0.1095926E+04  0.7818608E-02  0.8898506E-01
         21   -1    0    0  501  502  0.00000000000E+00  0.00000000000E+00  0.47125268671E+03  0.47125268671E+03  0.00000000000E+00 0. -1.
          4   -1    0    0  502    0 -0.00000000000E+00 -0.00000000000E+00 -0.12768326398E+04  0.12768326398E+04  0.00000000000E+00 0.  1.
    9000010    2    1    2  501    0 -0.45132417504E+03 -0.13292042769E+02 -0.51294185809E+03  0.12100265424E+04  0.99859135490E+03 0.  0.
        -13    1    3    3    0    0  0.58758006983E+02  0.24841238937E+03  0.17875290723E+03  0.31163092206E+03  0.10566000000E+00 0.  1.
          4    1    3    3  501    0 -0.51008218202E+03 -0.26170443213E+03 -0.69169476532E+03  0.89839562031E+03  0.00000000000E+00 0.  1.
         13    1    1    2    0    0  0.45132417504E+03  0.13292042769E+02 -0.29263809499E+03  0.53805878413E+03  0.10566000000E+00 0. -1.
<mgrwt>
<rscale>  1 0.87802178E+03</rscale>
<asrwt>0</asrwt>
<pdfrwt beam="1">  1       21 0.72500414E-01 0.10959265E+04</pdfrwt>
<pdfrwt beam="2">  1        4 0.19643579E+00 0.10959265E+04</pdfrwt>
<totfact> 0.20990665E+01</totfact>
</mgrwt>
</event>
<event>
 6    1  0.5391662E-005  0.1016156E+04  0.7818608E-02  0.9165517E-01
         21   -1    0    0  501  502  0.00000000000E+00  0.00000000000E+00  0.28696420250E+03  0.28696420250E+03  0.00000000000E+00 0.  1.
          4   -1    0    0  502    0 -0.00000000000E+00 -0.00000000000E+00 -0.13212245040E+04  0.13212245040E+04  0.00000000000E+00 0.  1.
    9000010    2    1    2  501    0 -0.10002897322E+03 -0.16584186779E+03 -0.74466977781E+03  0.12598038573E+04  0.99752862628E+03 0.  0.
        -13    1    3    3    0    0 -0.37679150011E+03 -0.45910860383E+03 -0.32185970921E+03  0.67553403189E+03  0.10566000000E+00 0.  1.
          4    1    3    3  501    0  0.27676252689E+03  0.29326673604E+03 -0.42281006860E+03  0.58426982539E+03  0.00000000000E+00 0.  1.
         13    1    1    2    0    0  0.10002897322E+03  0.16584186779E+03 -0.28959052373E+03  0.34838484926E+03  0.10566000000E+00 0. -1.
<mgrwt>
<rscale>  1 0.67140976E+03</rscale>
<asrwt>0</asrwt>
<pdfrwt beam="1">  1       21 0.44148338E-01 0.10161558E+04</pdfrwt>
<pdfrwt beam="2">  1        4 0.20326531E+00 0.10161558E+04</pdfrwt>
<totfact> 0.62418746E+01</totfact>
</mgrwt>
</event>
<event>
 6    1  0.5391662E-005  0.1014314E+04  0.7818608E-02  0.9101417E-01
         21   -1    0    0  501  502  0.00000000000E+00  0.00000000000E+00  0.47361220756E+03  0.47361220756E+03  0.00000000000E+00 0.  1.
          4   -1    0    0  502    0 -0.00000000000E+00 -0.00000000000E+00 -0.18080901293E+04  0.18080901293E+04  0.00000000000E+00 0.  1.
    9000010    2    1    2  501    0 -0.22023655676E+03 -0.11940447764E+03 -0.96797553491E+02  0.10189219619E+04  0.98288891943E+03 0.  0.
        -13    1    3    3    0    0 -0.59762294180E+03 -0.11754310747E+03 -0.17457916489E+03  0.63359881523E+03  0.10566000000E+00 0.  1.
          4    1    3    3  501    0  0.37738638504E+03 -0.18613701680E+01  0.77781611402E+02  0.38532314670E+03  0.00000000000E+00 0.  1.
         13    1    1    2    0    0  0.22023655676E+03  0.11940447764E+03 -0.12376803683E+04  0.12627803749E+04  0.10566000000E+00 0. -1.
<mgrwt>
<rscale>  1 0.71505746E+03</rscale>
<asrwt>0</asrwt>
<pdfrwt beam="1">  1       21 0.72863414E-01 0.10143137E+04</pdfrwt>
<pdfrwt beam="2">  1        4 0.27816772E+00 0.10143137E+04</pdfrwt>
<totfact> 0.13134513E+01</totfact>
</mgrwt>
</event>
<event>
 6    1  0.5391662E-005  0.1007993E+04  0.7818608E-02  0.9385947E-01
         21   -1    0    0  501  502  0.00000000000E+00  0.00000000000E+00  0.38306428680E+03  0.38306428680E+03  0.00000000000E+00 0.  1.
          4   -1    0    0  502    0 -0.00000000000E+00 -0.00000000000E+00 -0.79931264188E+03  0.79931264188E+03  0.00000000000E+00 0.  1.
    9000010    2    1    2  501    0 -0.78511329277E+02  0.34260012261E+02 -0.42952620582E+03  0.10956930793E+04  0.10043469446E+04 0.  0.
        -13    1    3    3    0    0  0.25183102790E+03 -0.38244309784E+03 -0.30302191616E+03  0.54909369194E+03  0.10566000000E+00 0.  1.
          4    1    3    3  501    0 -0.33034235718E+03  0.41670311010E+03 -0.12650428967E+03  0.54659938732E+03  0.00000000000E+00 0.  1.
         13    1    1    2    0    0  0.78511329277E+02 -0.34260012261E+02  0.13277850737E+02  0.86683849414E+02  0.10566000000E+00 0. -1.
<mgrwt>
<rscale>  1 0.54423811E+03</rscale>
<asrwt>0</asrwt>
<pdfrwt beam="1">  1       21 0.58932968E-01 0.10079933E+04</pdfrwt>
<pdfrwt beam="2">  1        4 0.12297117E+00 0.10079933E+04</pdfrwt>
<totfact> 0.67825155E+01</totfact>
</mgrwt>
</event>
<event>
 6    1  0.5391662E-005  0.9890745E+03  0.7818608E-02  0.9291850E-01
          4   -1    0    0  502    0 -0.00000000000E+00  0.00000000000E+00  0.25609971422E+04  0.25609971422E+04  0.00000000000E+00 0.  1.
         21   -1    0    0  501  502  0.00000000000E+00 -0.00000000000E+00 -0.13541434399E+03  0.13541434399E+03  0.00000000000E+00 0.  1.
    9000010    2    1    2  501    0  0.12763272158E+03 -0.19615408613E+02  0.17641998487E+04  0.20225403613E+04  0.98060875539E+03 0.  0.
        -13    1    3    3    0    0  0.68786014018E+02 -0.49228954006E+03  0.10796229958E+04  0.11885564064E+04  0.10566000000E+00 0.  1.
          4    1    3    3  501    0  0.58846707561E+02  0.47267413145E+03  0.68457685291E+03  0.83398395492E+03  0.00000000000E+00 0.  1.
         13    1    1    2    0    0 -0.12763272158E+03  0.19615408613E+02  0.66138294952E+03  0.67387112488E+03  0.10566000000E+00 0. -1.
<mgrwt>
<rscale>  1 0.59453801E+03</rscale>
<asrwt>0</asrwt>
<pdfrwt beam="2">  1       21 0.20832978E-01 0.98907452E+03</pdfrwt>
<pdfrwt beam="1">  1        4 0.39399953E+00 0.98907452E+03</pdfrwt>
<totfact> 0.83685782E+01</totfact>
</mgrwt>
</event>
<event>
 6    1  0.5391662E-005  0.1050930E+04  0.7818608E-02  0.9013306E-01
         21   -1    0    0  501  502  0.00000000000E+00  0.00000000000E+00  0.95118107135E+03  0.95118107135E+03  0.00000000000E+00 0.  1.
          4   -1    0    0  502    0 -0.00000000000E+00 -0.00000000000E+00 -0.61278372629E+03  0.61278372629E+03  0.00000000000E+00 0.  1.
    9000010    2    1    2  501    0 -0.16365242440E+03  0.27529824414E+03  0.54400065004E+03  0.11833810757E+04  0.10009409692E+04 0.  0.
        -13    1    3    3    0    0  0.22827082774E+03 -0.10228475272E+03 -0.15745291686E+03  0.29556923660E+03  0.10566000000E+00 0.  1.
          4    1    3    3  501    0 -0.39192325214E+03  0.37758299687E+03  0.70145356690E+03  0.88781183908E+03  0.00000000000E+00 0.  1.
         13    1    1    2    0    0  0.16365242440E+03 -0.27529824414E+03 -0.20560330498E+03  0.38058372196E+03  0.10566000000E+00 0. -1.
<mgrwt>
<rscale>  1 0.78083375E+03</rscale>
<asrwt>0</asrwt>
<pdfrwt beam="1">  1       21 0.14633555E+00 0.10509301E+04</pdfrwt>
<pdfrwt beam="2">  1        4 0.94274420E-01 0.10509301E+04</pdfrwt>
<totfact> 0.10338892E+01</totfact>
</mgrwt>
</event>
<event>
 6    1  0.5391662E-005  0.1584429E+04  0.7818608E-02  0.8415217E-01
          4   -1    0    0  502    0 -0.00000000000E+00  0.00000000000E+00  0.27934225943E+04  0.27934225943E+04  0.00000000000E+00 0.  1.
         21   -1    0    0  501  502  0.00000000000E+00 -0.00000000000E+00 -0.76377278692E+03  0.76377278692E+03  0.00000000000E+00 0. -1.
    9000010    2    1    2  501    0 -0.19603187232E+03  0.12239019000E+04  0.15829022392E+04  0.22396416796E+04  0.98694022019E+03 0.  0.
        -13    1    3    3    0    0  0.37105156730E+02  0.86310440674E+03  0.34660088616E+03  0.93083736229E+03  0.10566000000E+00 0.  1.
          4    1    3    3  501    0 -0.23313702905E+03  0.36079749331E+03  0.12363013530E+04  0.13088043173E+04  0.00000000000E+00 0.  1.
         13    1    1    2    0    0  0.19603187232E+03 -0.12239019000E+04  0.44674756824E+03  0.13175537017E+04  0.10566000000E+00 0. -1.
<mgrwt>
<rscale>  1 0.14901035E+04</rscale>
<asrwt>0</asrwt>
<pdfrwt beam="2">  1       21 0.11750351E+00 0.15844290E+04</pdfrwt>
<pdfrwt beam="1">  1        4 0.42975732E+00 0.15844290E+04</pdfrwt>
<totfact> 0.10886970E+00</totfact>
</mgrwt>
</event>
<event>
 6    1  0.5391662E-005  0.1071792E+04  0.7818608E-02  0.8951757E-01
          4   -1    0    0  502    0 -0.00000000000E+00  0.00000000000E+00  0.30559547916E+04  0.30559547916E+04  0.00000000000E+00 0.  1.
         21   -1    0    0  501  502  0.00000000000E+00 -0.00000000000E+00 -0.17706017429E+03  0.17706017429E+03  0.00000000000E+00 0. -1.
    9000010    2    1    2  501    0 -0.16150516211E+03  0.35245923214E+03  0.22834554496E+04  0.25224804901E+04  0.99921349307E+03 0.  0.
        -13    1    3    3    0    0  0.17115526973E+03  0.61976121462E+02 -0.14371898922E+02  0.18259717585E+03  0.10566000000E+00 0.  1.
          4    1    3    3  501    0 -0.33266043184E+03  0.29048311068E+03  0.22978273485E+04  0.23398833142E+04  0.00000000000E+00 0.  1.
         13    1    1    2    0    0  0.16150516211E+03 -0.35245923214E+03  0.59543916764E+03  0.71053447575E+03  0.10566000000E+00 0. -1.
<mgrwt>
<rscale>  1 0.83120295E+03</rscale>
<asrwt>0</asrwt>
<pdfrwt beam="2">  1       21 0.27240029E-01 0.10717924E+04</pdfrwt>
<pdfrwt beam="1">  1        4 0.47014685E+00 0.10717924E+04</pdfrwt>
<totfact> 0.22459407E+01</totfact>
</mgrwt>
</event>
<event>
 6    1  0.5391662E-005  0.1014795E+04  0.7818608E-02  0.9409952E-01
         21   -1    0    0  501  502  0.00000000000E+00  0.00000000000E+00  0.17280473847E+03  0.17280473847E+03  0.00000000000E+00 0.  1.
          4   -1    0    0  502    0 -0.00000000000E+00 -0.00000000000E+00 -0.17594332984E+04  0.17594332984E+04  0.00000000000E+00 0.  1.
    9000010    2    1    2  501    0  0.76739685883E+02 -0.29165752215E+01 -0.13889933168E+04  0.17202069394E+04  0.10118853663E+04 0.  0.
        -13    1    3    3    0    0 -0.42291659988E+03 -0.18227214367E+03 -0.46426312787E+03  0.65392801429E+03  0.10566000000E+00 0.  1.
          4    1    3    3  501    0  0.49965628576E+03  0.17935556845E+03 -0.92473018895E+03  0.10662789251E+04  0.00000000000E+00 0.  1.
         13    1    1    2    0    0 -0.76739685883E+02  0.29165752215E+01 -0.19763524306E+03  0.21203109740E+03  0.10566000000E+00 0. -1.
<mgrwt>
<rscale>  1 0.53225199E+03</rscale>
<asrwt>0</asrwt>
<pdfrwt beam="1">  1       21 0.26585345E-01 0.10147953E+04</pdfrwt>
<pdfrwt beam="2">  1        4 0.27068204E+00 0.10147953E+04</pdfrwt>
<totfact> 0.12359318E+02</totfact>
</mgrwt>
</event>
<event>
 6    1  0.5391662E-005  0.1032536E+04  0.7818608E-02  0.9111016E-01
         21   -1    0    0  501  502  0.00000000000E+00  0.00000000000E+00  0.42731645878E+03  0.42731645878E+03  0.00000000000E+00 0.  1.
          4   -1    0    0  502    0 -0.00000000000E+00 -0.00000000000E+00 -0.12183619177E+04  0.12183619177E+04  0.00000000000E+00 0.  1.
    9000010    2    1    2  501    0 -0.15347997429E+03  0.16948056615E+03 -0.25596073187E+03  0.10637888328E+04  0.10069016931E+04 0.  0.
        -13    1    3    3    0    0 -0.17902572955E+03  0.28162325596E+03 -0.60793271793E+03  0.69350131278E+03  0.10566000000E+00 0.  1.
          4    1    3    3  501    0  0.25545755262E+02 -0.11214268981E+03  0.35197198605E+03  0.37028751998E+03  0.00000000000E+00 0.  1.
         13    1    1    2    0    0  0.15347997429E+03 -0.16948056615E+03 -0.53508472708E+03  0.58188954375E+03  0.10566000000E+00 0. -1.
<mgrwt>
<rscale>  1 0.70830555E+03</rscale>
<asrwt>0</asrwt>
<pdfrwt beam="1">  1       21 0.65740995E-01 0.10325361E+04</pdfrwt>
<pdfrwt beam="2">  1        4 0.18744029E+00 0.10325361E+04</pdfrwt>
<totfact> 0.28290919E+01</totfact>
</mgrwt>
</event>
<event>
 6    1  0.5391662E-005  0.1061098E+04  0.7818608E-02  0.8990924E-01
          4   -1    0    0  502    0 -0.00000000000E+00  0.00000000000E+00  0.15745532939E+04  0.15745532939E+04  0.00000000000E+00 0.  1.
         21   -1    0    0  501  502  0.00000000000E+00 -0.00000000000E+00 -0.10714454892E+04  0.10714454892E+04  0.00000000000E+00 0.  1.
    9000010    2    1    2  501    0 -0.22168456622E+03  0.25861837240E+03 -0.78096723243E+03  0.13175123430E+04  0.10049385286E+04 0.  0.
        -13    1    3    3    0    0 -0.46813431844E+03  0.52132995720E+03 -0.52832348855E+03  0.87753084510E+03  0.10566000000E+00 0.  1.
          4    1    3    3  501    0  0.24644975222E+03 -0.26271158480E+03 -0.25264374387E+03  0.43998149788E+03  0.00000000000E+00 0.  1.
         13    1    1    2    0    0  0.22168456622E+03 -0.25861837240E+03  0.12840750371E+04  0.13284864401E+04  0.10566000000E+00 0. -1.
<mgrwt>
<rscale>  1 0.79870563E+03</rscale>
<asrwt>0</asrwt>
<pdfrwt beam="2">  1       21 0.16483777E+00 0.10610980E+04</pdfrwt>
<pdfrwt beam="1">  1        4 0.24223897E+00 0.10610980E+04</pdfrwt>
<totfact> 0.16945222E+00</totfact>
</mgrwt>
</event>
<event>
 6    1  0.5391662E-005  0.9246876E+03  0.7818608E-02  0.9472900E-01
         21   -1    0    0  501  502  0.00000000000E+00  0.00000000000E+00  0.51012964804E+03  0.51012964804E+03  0.00000000000E+00 0.  1.
          4   -1    0    0  502    0 -0.00000000000E+00 -0.00000000000E+00 -0.50363835432E+03  0.50363835432E+03  0.00000000000E+00 0.  1.
    9000010    2    1    2  501    0  0.20282971709E+02  0.77930146121E+02  0.42264647589E+02  0.92565301710E+03  0.92117463112E+03 0.  0.
        -13    1    3    3    0    0  0.50028977625E+02 -0.39625776563E+03 -0.13036919549E+03  0.42014194473E+03  0.10566000000E+00 0.  1.
          4    1    3    3  501    0 -0.29746005916E+02  0.47418791175E+03  0.17263384308E+03  0.50551107237E+03  0.00000000000E+00 0.  1.
         13    1    1    2    0    0 -0.20282971709E+02 -0.77930146121E+02 -0.35773353863E+02  0.88114985255E+02  0.10566000000E+00 0. -1.
<mgrwt>
<rscale>  1 0.50232061E+03</rscale>
<asrwt>0</asrwt>
<pdfrwt beam="1">  1       21 0.78481484E-01 0.92468763E+03</pdfrwt>
<pdfrwt beam="2">  1        4 0.77482824E-01 0.92468763E+03</pdfrwt>
<totfact> 0.83650402E+01</totfact>
</mgrwt>
</event>
<event>
 6    1  0.5391662E-005  0.1055361E+04  0.7818608E-02  0.9013020E-01
         21   -1    0    0  501  502  0.00000000000E+00  0.00000000000E+00  0.11975753588E+03  0.11975753588E+03  0.00000000000E+00 0.  1.
          4   -1    0    0  502    0 -0.00000000000E+00 -0.00000000000E+00 -0.39768574560E+04  0.39768574560E+04  0.00000000000E+00 0.  1.
    9000010    2    1    2  501    0 -0.30821862645E+03 -0.72435512069E+02 -0.27656689059E+04  0.29601875657E+04  0.10067473872E+04 0.  0.
        -13    1    3    3    0    0 -0.18696795610E+03 -0.51587291400E+03 -0.10593234100E+04  0.11929995718E+04  0.10566000000E+00 0.  1.
          4    1    3    3  501    0 -0.12125067035E+03  0.44343740194E+03 -0.17063454959E+04  0.17671879939E+04  0.00000000000E+00 0.  1.
         13    1    1    2    0    0  0.30821862645E+03  0.72435512069E+02 -0.10914310142E+04  0.11364274262E+04  0.10566000000E+00 0. -1.
<mgrwt>
<rscale>  1 0.78105898E+03</rscale>
<asrwt>0</asrwt>
<pdfrwt beam="1">  1       21 0.18424236E-01 0.10553606E+04</pdfrwt>
<pdfrwt beam="2">  1        4 0.61182422E+00 0.10553606E+04</pdfrwt>
<totfact> 0.95649501E+00</totfact>
</mgrwt>
</event>
<event>
 6    1  0.5391662E-005  0.1147938E+04  0.7818608E-02  0.8813599E-01
         21   -1    0    0  501  502  0.00000000000E+00  0.00000000000E+00  0.37674452641E+03  0.37674452641E+03  0.00000000000E+00 0.  1.
          4   -1    0    0  502    0 -0.00000000000E+00 -0.00000000000E+00 -0.19502944795E+04  0.19502944795E+04  0.00000000000E+00 0.  1.
    9000010    2    1    2  501    0 -0.55512291673E+03  0.76108213398E+02 -0.96327876473E+03  0.14985555436E+04  0.10019026029E+04 0.  0.
        -13    1    3    3    0    0 -0.19031278684E+03  0.52525973016E+03 -0.37164731922E+03  0.67099812370E+03  0.10566000000E+00 0.  1.
          4    1    3    3  501    0 -0.36481012989E+03 -0.44915151676E+03 -0.59163144551E+03  0.82755741988E+03  0.00000000000E+00 0.  1.
         13    1    1    2    0    0  0.55512291673E+03 -0.76108213398E+02 -0.61027118834E+03  0.82848346230E+03  0.10566000000E+00 0. -1.
<mgrwt>
<rscale>  1 0.95950490E+03</rscale>
<asrwt>0</asrwt>
<pdfrwt beam="1">  1       21 0.57960696E-01 0.11479385E+04</pdfrwt>
<pdfrwt beam="2">  1        4 0.30004531E+00 0.11479385E+04</pdfrwt>
<totfact> 0.19317603E+01</totfact>
</mgrwt>
</event>
<event>
 6    1  0.5391662E-005  0.9999002E+03  0.7818608E-02  0.9127178E-01
         21   -1    0    0  501  502  0.00000000000E+00  0.00000000000E+00  0.66472328015E+03  0.66472328015E+03  0.00000000000E+00 0.  1.
          4   -1    0    0  502    0 -0.00000000000E+00 -0.00000000000E+00 -0.57551740880E+03  0.57551740880E+03  0.00000000000E+00 0.  1.
    9000010    2    1    2  501    0  0.26067288803E+02 -0.23479007229E+03  0.53558503329E+02  0.10013335363E+04  0.97159377106E+03 0.  0.
        -13    1    3    3    0    0 -0.95000785052E+02  0.34989955837E+03 -0.11593268406E+03  0.38065108499E+03  0.10566000000E+00 0.  1.
          4    1    3    3  501    0  0.12106807385E+03 -0.58468963066E+03  0.16949118739E+03  0.62068245127E+03  0.00000000000E+00 0.  1.
         13    1    1    2    0    0 -0.26067288803E+02  0.23479007229E+03  0.35647368017E+02  0.23890715268E+03  0.10566000000E+00 0. -1.
<mgrwt>
<rscale>  1 0.69711197E+03</rscale>
<asrwt>0</asrwt>
<pdfrwt beam="1">  1       21 0.10226512E+00 0.99990016E+03</pdfrwt>
<pdfrwt beam="2">  1        4 0.88541140E-01 0.99990016E+03</pdfrwt>
<totfact> 0.32380824E+01</totfact>
</mgrwt>
</event>
<event>
 6    1  0.5391662E-005  0.1033333E+04  0.7818608E-02  0.9122595E-01
         21   -1    0    0  501  502  0.00000000000E+00  0.00000000000E+00  0.13204457085E+03  0.13204457085E+03  0.00000000000E+00 0.  1.
          4   -1    0    0  502    0 -0.00000000000E+00 -0.00000000000E+00 -0.31304021233E+04  0.31304021233E+04  0.00000000000E+00 0.  1.
    9000010    2    1    2  501    0  0.19699390619E+03  0.93214575395E+02 -0.21337365870E+04  0.23707825302E+04  0.10100903063E+04 0.  0.
        -13    1    3    3    0    0 -0.13369518750E+03 -0.37866522176E+03 -0.51836395691E+03  0.65571560628E+03  0.10566000000E+00 0.  1.
          4    1    3    3  501    0  0.33068909370E+03  0.47187979715E+03 -0.16153726301E+04  0.17150669240E+04  0.00000000000E+00 0.  1.
         13    1    1    2    0    0 -0.19699390619E+03 -0.93214575395E+02 -0.86462096546E+03  0.89166416392E+03  0.10566000000E+00 0. -1.
<mgrwt>
<rscale>  1 0.70026432E+03</rscale>
<asrwt>0</asrwt>
<pdfrwt beam="1">  1       21 0.20314549E-01 0.10333334E+04</pdfrwt>
<pdfrwt beam="2">  1        4 0.48160033E+00 0.10333334E+04</pdfrwt>
<totfact> 0.35849648E+01</totfact>
</mgrwt>
</event>
<event>
 6    1  0.5391662E-005  0.1097449E+04  0.7818608E-02  0.8897677E-01
          4   -1    0    0  502    0 -0.00000000000E+00  0.00000000000E+00  0.13146991517E+04  0.13146991517E+04  0.00000000000E+00 0.  1.
         21   -1    0    0  501  502  0.00000000000E+00 -0.00000000000E+00 -0.50085190988E+03  0.50085190988E+03  0.00000000000E+00 0.  1.
    9000010    2    1    2  501    0  0.68298669097E+02 -0.44599026755E+03  0.31250367203E+03  0.11410754037E+04  0.10004111679E+04 0.  0.
        -13    1    3    3    0    0  0.18258662138E+01 -0.35552581481E+03 -0.33225529382E+03  0.48661640973E+03  0.10566000000E+00 0.  1.
          4    1    3    3  501    0  0.66472802883E+02 -0.90464452733E+02  0.64475896585E+03  0.65445899396E+03  0.00000000000E+00 0.  1.
         13    1    1    2    0    0 -0.68298669097E+02  0.44599026755E+03  0.50134356978E+03  0.67447565788E+03  0.10566000000E+00 0. -1.
<mgrwt>
<rscale>  1 0.87877573E+03</rscale>
<asrwt>0</asrwt>
<pdfrwt beam="2">  1       21 0.77054140E-01 0.10974491E+04</pdfrwt>
<pdfrwt beam="1">  1        4 0.20226141E+00 0.10974491E+04</pdfrwt>
<totfact> 0.17455935E+01</totfact>
</mgrwt>
</event>
<event>
 6    1  0.5391662E-005  0.1017140E+04  0.7818608E-02  0.9191432E-01
          4   -1    0    0  502    0 -0.00000000000E+00  0.00000000000E+00  0.12642876030E+04  0.12642876030E+04  0.00000000000E+00 0.  1.
         21   -1    0    0  501  502  0.00000000000E+00 -0.00000000000E+00 -0.67055102356E+03  0.67055102356E+03  0.00000000000E+00 0.  1.
    9000010    2    1    2  501    0 -0.15078023448E+03  0.88002071239E+02 -0.27102549913E+03  0.10526297469E+04  0.10020456672E+04 0.  0.
        -13    1    3    3    0    0 -0.54155916227E+03  0.17863955199E+03 -0.31690125245E+01  0.57027052315E+03  0.10566000000E+00 0.  1.
          4    1    3    3  501    0  0.39077892779E+03 -0.90637480754E+02 -0.26785648661E+03  0.48235922375E+03  0.00000000000E+00 0.  1.
         13    1    1    2    0    0  0.15078023448E+03 -0.88002071239E+02  0.86476207856E+03  0.88220887965E+03  0.10566000000E+00 0. -1.
<mgrwt>
<rscale>  1 0.65469023E+03</rscale>
<asrwt>0</asrwt>
<pdfrwt beam="2">  1       21 0.10316170E+00 0.10171404E+04</pdfrwt>
<pdfrwt beam="1">  1        4 0.19450579E+00 0.10171404E+04</pdfrwt>
<totfact> 0.88294319E+00</totfact>
</mgrwt>
</event>
<event>
 6    1  0.5391662E-005  0.1118667E+04  0.7818608E-02  0.8860576E-01
         21   -1    0    0  501  502  0.00000000000E+00  0.00000000000E+00  0.56282899372E+03  0.56282899372E+03  0.00000000000E+00 0.  1.
          4   -1    0    0  502    0 -0.00000000000E+00 -0.00000000000E+00 -0.17251941377E+04  0.17251941377E+04  0.00000000000E+00 0.  1.
    9000010    2    1    2  501    0  0.44475563488E+03 -0.22198932755E+03 -0.10986900752E+03  0.11240493496E+04  0.10021621153E+04 0.  0.
        -13    1    3    3    0    0  0.20954285480E+03 -0.12738344503E+03  0.44830800810E+03  0.51099396411E+03  0.10566000000E+00 0.  1.
          4    1    3    3  501    0  0.23521278009E+03 -0.94605882520E+02 -0.55817701563E+03  0.61305538550E+03  0.00000000000E+00 0.  1.
         13    1    1    2    0    0 -0.44475563488E+03  0.22198932755E+03 -0.10524961365E+04  0.11639737818E+04  0.10566000000E+00 0. -1.
<mgrwt>
<rscale>  1 0.91333859E+03</rscale>
<asrwt>0</asrwt>
<pdfrwt beam="1">  1       21 0.86589075E-01 0.11186669E+04</pdfrwt>
<pdfrwt beam="2">  1        4 0.26541448E+00 0.11186669E+04</pdfrwt>
<totfact> 0.91232709E+00</totfact>
</mgrwt>
</event>
<event>
 6    1  0.5391662E-005  0.1021753E+04  0.7818608E-02  0.9120785E-01
          4   -1    0    0  502    0 -0.00000000000E+00  0.00000000000E+00  0.34283129367E+04  0.34283129367E+04  0.00000000000E+00 0.  1.
         21   -1    0    0  501  502  0.00000000000E+00 -0.00000000000E+00 -0.12181286271E+03  0.12181286271E+03  0.00000000000E+00 0.  1.
    9000010    2    1    2  501    0 -0.41579772400E+02  0.22320234856E+03  0.22746745974E+04  0.24936164567E+04  0.99620798195E+03 0.  0.
        -13    1    3    3    0    0 -0.20154662379E+03  0.33927651533E+03  0.22613505840E+04  0.22955252276E+04  0.10566000000E+00 0.  1.
          4    1    3    3  501    0  0.15996685139E+03 -0.11607416676E+03  0.13324013382E+02  0.19809122915E+03  0.00000000000E+00 0.  1.
         13    1    1    2    0    0  0.41579772400E+02 -0.22320234856E+03  0.10318254766E+04  0.10565093427E+04  0.10566000000E+00 0. -1.
<mgrwt>
<rscale>  1 0.70151344E+03</rscale>
<asrwt>0</asrwt>
<pdfrwt beam="2">  1       21 0.18740443E-01 0.10217527E+04</pdfrwt>
<pdfrwt beam="1">  1        4 0.52743269E+00 0.10217527E+04</pdfrwt>
<totfact> 0.25669487E+01</totfact>
</mgrwt>
</event>
<event>
 6    1  0.5391662E-005  0.1012571E+04  0.7818608E-02  0.9149417E-01
          4   -1    0    0  502    0 -0.00000000000E+00  0.00000000000E+00  0.49876667839E+03  0.49876667839E+03  0.00000000000E+00 0.  1.
         21   -1    0    0  501  502  0.00000000000E+00 -0.00000000000E+00 -0.75134192580E+03  0.75134192580E+03  0.00000000000E+00 0.  1.
    9000010    2    1    2  501    0 -0.20699108914E+03  0.24665814275E+02 -0.17442076521E+03  0.10274837008E+04  0.99088164712E+03 0.  0.
        -13    1    3    3    0    0 -0.46232593763E+03  0.10563485789E+03  0.24194759830E+03  0.53239332011E+03  0.10566000000E+00 0.  1.
          4    1    3    3  501    0  0.25533484849E+03 -0.80969043619E+02 -0.41636836351E+03  0.49509038065E+03  0.00000000000E+00 0.  1.
         13    1    1    2    0    0  0.20699108914E+03 -0.24665814275E+02 -0.78154482209E+02  0.22262490344E+03  0.10566000000E+00 0. -1.
<mgrwt>
<rscale>  1 0.68205997E+03</rscale>
<asrwt>0</asrwt>
<pdfrwt beam="2">  1       21 0.11559106E+00 0.10125711E+04</pdfrwt>
<pdfrwt beam="1">  1        4 0.76733336E-01 0.10125711E+04</pdfrwt>
<totfact> 0.31168537E+01</totfact>
</mgrwt>
</event>
<event>
 6    1  0.5391662E-005  0.1362619E+04  0.7818608E-02  0.8571590E-01
          4   -1    0    0  502    0 -0.00000000000E+00  0.00000000000E+00  0.16908991886E+04  0.16908991886E+04  0.00000000000E+00 0.  1.
         21   -1    0    0  501  502  0.00000000000E+00 -0.00000000000E+00 -0.80281098961E+03  0.80281098961E+03  0.00000000000E+00 0.  1.
    9000010    2    1    2  501    0 -0.76522284318E+03 -0.57543188654E+03  0.40641028274E+03  0.14219352569E+04  0.96955799268E+03 0.  0.
        -13    1    3    3    0    0  0.19640172912E+03 -0.29269790789E+03  0.17364616349E+03  0.39293600718E+03  0.10566000000E+00 0.  1.
          4    1    3    3  501    0 -0.96162457230E+03 -0.28273397865E+03  0.23276411925E+03  0.10289992497E+04  0.00000000000E+00 0.  1.
         13    1    1    2    0    0  0.76522284318E+03  0.57543188654E+03  0.48167791625E+03  0.10717749213E+04  0.10566000000E+00 0. -1.
<mgrwt>
<rscale>  1 0.12475516E+04</rscale>
<asrwt>0</asrwt>
<pdfrwt beam="2">  1       21 0.12350938E+00 0.13626190E+04</pdfrwt>
<pdfrwt beam="1">  1        4 0.26013833E+00 0.13626190E+04</pdfrwt>
<totfact> 0.35388098E+00</totfact>
</mgrwt>
</event>
<event>
 6    1  0.5391662E-005  0.1110002E+04  0.7818608E-02  0.8885302E-01
         21   -1    0    0  501  502  0.00000000000E+00  0.00000000000E+00  0.26338706292E+03  0.26338706292E+03  0.00000000000E+00 0.  1.
          4   -1    0    0  502    0 -0.00000000000E+00 -0.00000000000E+00 -0.24632053251E+04  0.24632053251E+04  0.00000000000E+00 0.  1.
    9000010    2    1    2  501    0 -0.28899659394E+03 -0.35662294727E+03 -0.12502179155E+04  0.16718697764E+04  0.10106457120E+04 0.  0.
        -13    1    3    3    0    0 -0.59040922856E+03 -0.35951667090E+03 -0.11716578087E+04  0.13603739653E+04  0.10566000000E+00 0.  1.
          4    1    3    3  501    0  0.30141263461E+03  0.28937236353E+01 -0.78560106848E+02  0.31149581109E+03  0.00000000000E+00 0.  1.
         13    1    1    2    0    0  0.28899659394E+03  0.35662294727E+03 -0.94960034662E+03  0.10547226115E+04  0.10566000000E+00 0. -1.
<mgrwt>
<rscale>  1 0.89012403E+03</rscale>
<asrwt>0</asrwt>
<pdfrwt beam="1">  1       21 0.40521087E-01 0.11100017E+04</pdfrwt>
<pdfrwt beam="2">  1        4 0.37895466E+00 0.11100017E+04</pdfrwt>
<totfact> 0.24104389E+01</totfact>
</mgrwt>
</event>
<event>
 6    1  0.5391662E-005  0.1035956E+04  0.7818608E-02  0.9032450E-01
         21   -1    0    0  501  502  0.00000000000E+00  0.00000000000E+00  0.21444781994E+03  0.21444781994E+03  0.00000000000E+00 0.  1.
          4   -1    0    0  502    0 -0.00000000000E+00 -0.00000000000E+00 -0.22680920263E+04  0.22680920263E+04  0.00000000000E+00 0.  1.
    9000010    2    1    2  501    0 -0.30954912312E+03  0.26377230406E+01 -0.12633897203E+04  0.16338174057E+04  0.98862435363E+03 0.  0.
        -13    1    3    3    0    0 -0.44813111768E+03 -0.23717857256E+03 -0.12584994179E+04  0.13567962154E+04  0.10566000000E+00 0.  1.
          4    1    3    3  501    0  0.13858199456E+03  0.23981629560E+03 -0.48903023980E+01  0.27702119036E+03  0.00000000000E+00 0.  1.
         13    1    1    2    0    0  0.30954912312E+03 -0.26377230406E+01 -0.79025448605E+03  0.84872244055E+03  0.10566000000E+00 0. -1.
<mgrwt>
<rscale>  1 0.76593596E+03</rscale>
<asrwt>0</asrwt>
<pdfrwt beam="1">  1       21 0.32991972E-01 0.10359564E+04</pdfrwt>
<pdfrwt beam="2">  1        4 0.34893724E+00 0.10359564E+04</pdfrwt>
<totfact> 0.48160061E+01</totfact>
</mgrwt>
</event>
<event>
 6    1  0.5391662E-005  0.1074248E+04  0.7818608E-02  0.8985727E-01
          4   -1    0    0  502    0 -0.00000000000E+00  0.00000000000E+00  0.19450855106E+04  0.19450855106E+04  0.00000000000E+00 0.  1.
         21   -1    0    0  501  502  0.00000000000E+00 -0.00000000000E+00 -0.31605081461E+03  0.31605081461E+03  0.00000000000E+00 0.  1.
    9000010    2    1    2  501    0 -0.32606800498E+03  0.77998419449E+02  0.72254883009E+03  0.12946371097E+04  0.10205901904E+04 0.  0.
        -13    1    3    3    0    0 -0.19076126387E+02 -0.32200512295E+03 -0.93081982567E+02  0.33573123841E+03  0.10566000000E+00 0.  1.
          4    1    3    3  501    0 -0.30699187860E+03  0.40000354240E+03  0.81563081266E+03  0.95890587130E+03  0.00000000000E+00 0.  1.
         13    1    1    2    0    0  0.32606800498E+03 -0.77998419449E+02  0.90648586585E+03  0.96649921545E+03  0.10566000000E+00 0. -1.
<mgrwt>
<rscale>  1 0.80292715E+03</rscale>
<asrwt>0</asrwt>
<pdfrwt beam="2">  1       21 0.48623204E-01 0.10742478E+04</pdfrwt>
<pdfrwt beam="1">  1        4 0.29924392E+00 0.10742478E+04</pdfrwt>
<totfact> 0.29043782E+01</totfact>
</mgrwt>
</event>
<event>
 6    1  0.5391662E-005  0.9792363E+03  0.7818608E-02  0.9455766E-01
         21   -1    0    0  501  502  0.00000000000E+00  0.00000000000E+00  0.82460694906E+03  0.82460694906E+03  0.00000000000E+00 0.  1.
          4   -1    0    0  502    0 -0.00000000000E+00 -0.00000000000E+00 -0.41553589542E+03  0.41553589542E+03  0.00000000000E+00 0.  1.
    9000010    2    1    2  501    0  0.24922014666E+02 -0.67755578860E+02  0.51927314824E+03  0.11083990093E+04  0.97657147006E+03 0.  0.
        -13    1    3    3    0    0  0.38336251805E+03  0.22022422493E+03  0.39503847695E+02  0.44387621544E+03  0.10566000000E+00 0.  1.
          4    1    3    3  501    0 -0.35844050338E+03 -0.28797980379E+03  0.47976930054E+03  0.66452279389E+03  0.00000000000E+00 0.  1.
         13    1    1    2    0    0 -0.24922014666E+02  0.67755578860E+02 -0.11020209460E+03  0.13174383515E+03  0.10566000000E+00 0. -1.
<mgrwt>
<rscale>  1 0.51025882E+03</rscale>
<asrwt>0</asrwt>
<pdfrwt beam="1">  1       21 0.12686261E+00 0.97923632E+03</pdfrwt>
<pdfrwt beam="2">  1        4 0.63928599E-01 0.97923632E+03</pdfrwt>
<totfact> 0.35277209E+01</totfact>
</mgrwt>
</event>
<event>
 6    1  0.5391662E-005  0.1172389E+04  0.7818608E-02  0.8776233E-01
          4   -1    0    0  502    0 -0.00000000000E+00  0.00000000000E+00  0.33589741033E+04  0.33589741033E+04  0.00000000000E+00 0.  1.
         21   -1    0    0  501  502  0.00000000000E+00 -0.00000000000E+00 -0.24066073499E+03  0.24066073499E+03  0.00000000000E+00 0. -1.
    9000010    2    1    2  501    0  0.58636238311E+03 -0.18955000870E+03  0.22151018991E+04  0.25062268543E+04  0.99736982696E+03 0.  0.
        -13    1    3    3    0    0  0.80329646666E+03  0.93503362353E+02  0.16586541392E+04  0.18453080114E+04  0.10566000000E+00 0.  1.
          4    1    3    3  501    0 -0.21693408355E+03 -0.28305337106E+03  0.55644775992E+03  0.66091884297E+03  0.00000000000E+00 0.  1.
         13    1    1    2    0    0 -0.58636238311E+03  0.18955000870E+03  0.90321146915E+03  0.10934079839E+04  0.10566000000E+00 0. -1.
<mgrwt>
<rscale>  1 0.99825424E+03</rscale>
<asrwt>0</asrwt>
<pdfrwt beam="2">  1       21 0.37024731E-01 0.11723893E+04</pdfrwt>
<pdfrwt beam="1">  1        4 0.51676521E+00 0.11723893E+04</pdfrwt>
<totfact> 0.71145282E+00</totfact>
</mgrwt>
</event>
<event>
 6    1  0.5391662E-005  0.1034433E+04  0.7818608E-02  0.9021149E-01
          4   -1    0    0  502    0 -0.00000000000E+00  0.00000000000E+00  0.13325882299E+04  0.13325882299E+04  0.00000000000E+00 0.  1.
         21   -1    0    0  501  502  0.00000000000E+00 -0.00000000000E+00 -0.40215613580E+03  0.40215613580E+03  0.00000000000E+00 0.  1.
    9000010    2    1    2  501    0 -0.26693923297E+03  0.18606415056E+03  0.39317224936E+03  0.11066324536E+04  0.98192390102E+03 0.  0.
        -13    1    3    3    0    0 -0.21868239916E+03 -0.84113831377E+02 -0.28857429897E+03  0.37171530171E+03  0.10566000000E+00 0.  1.
          4    1    3    3  501    0 -0.48256833809E+02  0.27017798194E+03  0.68174654833E+03  0.73491715186E+03  0.00000000000E+00 0.  1.
         13    1    1    2    0    0  0.26693923297E+03 -0.18606415056E+03  0.53725984476E+03  0.62811191215E+03  0.10566000000E+00 0. -1.
<mgrwt>
<rscale>  1 0.77468757E+03</rscale>
<asrwt>0</asrwt>
<pdfrwt beam="2">  1       21 0.61870175E-01 0.10344327E+04</pdfrwt>
<pdfrwt beam="1">  1        4 0.20501357E+00 0.10344327E+04</pdfrwt>
<totfact> 0.28986512E+01</totfact>
</mgrwt>
</event>
<event>
 6    1  0.5391662E-005  0.1003033E+04  0.7818608E-02  0.9121457E-01
          4   -1    0    0  502    0 -0.00000000000E+00  0.00000000000E+00  0.31660432310E+04  0.31660432310E+04  0.00000000000E+00 0.  1.
         21   -1    0    0  501  502  0.00000000000E+00 -0.00000000000E+00 -0.13263621250E+03  0.13263621250E+03  0.00000000000E+00 0.  1.
    9000010    2    1    2  501    0 -0.11081193386E+02  0.23910208886E+03  0.19939520374E+04  0.22320214521E+04  0.97405463576E+03 0.  0.
        -13    1    3    3    0    0  0.13603548180E+03  0.14811483096E+03 -0.27680320919E+02  0.20300213494E+03  0.10566000000E+00 0.  1.
          4    1    3    3  501    0 -0.14711667519E+03  0.90987257898E+02  0.20216323584E+04  0.20290193172E+04  0.00000000000E+00 0.  1.
         13    1    1    2    0    0  0.11081193386E+02 -0.23910208886E+03  0.10394549811E+04  0.10666579914E+04  0.10566000000E+00 0. -1.
<mgrwt>
<rscale>  1 0.70104956E+03</rscale>
<asrwt>0</asrwt>
<pdfrwt beam="2">  1       21 0.20405574E-01 0.10030329E+04</pdfrwt>
<pdfrwt beam="1">  1        4 0.48708352E+00 0.10030329E+04</pdfrwt>
<totfact> 0.33677437E+01</totfact>
</mgrwt>
</event>
<event>
 6    1  0.5391662E-005  0.1094347E+04  0.7818608E-02  0.9032830E-01
          4   -1    0    0  502    0 -0.00000000000E+00  0.00000000000E+00  0.16065411363E+04  0.16065411363E+04  0.00000000000E+00 0.  1.
         21   -1    0    0  501  502  0.00000000000E+00 -0.00000000000E+00 -0.30502506334E+03  0.30502506334E+03  0.00000000000E+00 0.  1.
    9000010    2    1    2  501    0 -0.19988287573E+03 -0.16970149516E+03  0.12156367813E+04  0.16356549361E+04  0.10624700111E+04 0.  0.
        -13    1    3    3    0    0 -0.35554037965E+03  0.27416621826E+03  0.15428245755E+03  0.47474115544E+03  0.10566000000E+00 0.  1.
          4    1    3    3  501    0  0.15565750392E+03 -0.44386771343E+03  0.10613543237E+04  0.11609137806E+04  0.00000000000E+00 0.  1.
         13    1    1    2    0    0  0.19988287573E+03  0.16970149516E+03  0.85879291697E+02  0.27591126359E+03  0.10566000000E+00 0. -1.
<mgrwt>
<rscale>  1 0.76564365E+03</rscale>
<asrwt>0</asrwt>
<pdfrwt beam="2">  1       21 0.46926934E-01 0.10943465E+04</pdfrwt>
<pdfrwt beam="1">  1        4 0.24716017E+00 0.10943465E+04</pdfrwt>
<totfact> 0.42199087E+01</totfact>
</mgrwt>
</event>
<event>
 6    1  0.5391662E-005  0.1035513E+04  0.7818608E-02  0.9045204E-01
          4   -1    0    0  502    0 -0.00000000000E+00  0.00000000000E+00  0.25617366031E+04  0.25617366031E+04  0.00000000000E+00 0.  1.
         21   -1    0    0  501  502  0.00000000000E+00 -0.00000000000E+00 -0.20535651048E+03  0.20535651048E+03  0.00000000000E+00 0.  1.
    9000010    2    1    2  501    0  0.28454679777E+03 -0.75922397436E+02  0.12551934381E+04  0.16272057728E+04  0.99275221946E+03 0.  0.
        -13    1    3    3    0    0 -0.34472853555E+03  0.37276347595E+02  0.22052362855E+03  0.41092331550E+03  0.10566000000E+00 0.  1.
          4    1    3    3  501    0  0.62927533331E+03 -0.11319874503E+03  0.10346698096E+04  0.12162824573E+04  0.00000000000E+00 0.  1.
         13    1    1    2    0    0 -0.28454679777E+03  0.75922397436E+02  0.11011866544E+04  0.11398873408E+04  0.10566000000E+00 0. -1.
<mgrwt>
<rscale>  1 0.75620346E+03</rscale>
<asrwt>0</asrwt>
<pdfrwt beam="2">  1       21 0.31593311E-01 0.10355134E+04</pdfrwt>
<pdfrwt beam="1">  1        4 0.39411330E+00 0.10355134E+04</pdfrwt>
<totfact> 0.35957483E+01</totfact>
</mgrwt>
</event>
<event>
 6    1  0.5391662E-005  0.1048965E+04  0.7818608E-02  0.9007852E-01
         21   -1    0    0  501  502  0.00000000000E+00  0.00000000000E+00  0.25851536857E+03  0.25851536857E+03  0.00000000000E+00 0.  1.
          4   -1    0    0  502    0 -0.00000000000E+00 -0.00000000000E+00 -0.19317681389E+04  0.19317681389E+04  0.00000000000E+00 0.  1.
    9000010    2    1    2  501    0 -0.31397245908E+03 -0.99096247256E+02 -0.10431817337E+04  0.14793768373E+04  0.99595628721E+03 0.  0.
        -13    1    3    3    0    0 -0.23509072402E+03 -0.85228720380E+02  0.14462454268E+03  0.28887342004E+03  0.10566000000E+00 0.  1.
          4    1    3    3  501    0 -0.78881735061E+02 -0.13867526875E+02 -0.11878062763E+04  0.11905034173E+04  0.00000000000E+00 0.  1.
         13    1    1    2    0    0  0.31397245908E+03  0.99096247256E+02 -0.63007103668E+03  0.71090667018E+03  0.10566000000E+00 0. -1.
<mgrwt>
<rscale>  1 0.78514310E+03</rscale>
<asrwt>0</asrwt>
<pdfrwt beam="1">  1       21 0.39771595E-01 0.10489651E+04</pdfrwt>
<pdfrwt beam="2">  1        4 0.29719510E+00 0.10489651E+04</pdfrwt>
<totfact> 0.45633980E+01</totfact>
</mgrwt>
</event>
<event>
 6    1  0.5391662E-005  0.1016213E+04  0.7818608E-02  0.9185418E-01
         21   -1    0    0  501  502  0.00000000000E+00  0.00000000000E+00  0.88149819721E+03  0.88149819721E+03  0.00000000000E+00 0.  1.
          4   -1    0    0  502    0 -0.00000000000E+00 -0.00000000000E+00 -0.61861386230E+03  0.61861386230E+03  0.00000000000E+00 0.  1.
    9000010    2    1    2  501    0 -0.15459052206E+03 -0.90629461185E+02  0.55463939301E+03  0.11577190779E+04  0.10002882976E+04 0.  0.
        -13    1    3    3    0    0 -0.34419228593E+03  0.37153399792E+03  0.19736129319E+03  0.54355987023E+03  0.10566000000E+00 0.  1.
          4    1    3    3  501    0  0.18960176388E+03 -0.46216345911E+03  0.35727809982E+03  0.61415920771E+03  0.00000000000E+00 0.  1.
         13    1    1    2    0    0  0.15459052206E+03  0.90629461185E+02 -0.29175505810E+03  0.34239298158E+03  0.10566000000E+00 0. -1.
<mgrwt>
<rscale>  1 0.65852435E+03</rscale>
<asrwt>0</asrwt>
<pdfrwt beam="1">  1       21 0.13561511E+00 0.10162129E+04</pdfrwt>
<pdfrwt beam="2">  1        4 0.95171363E-01 0.10162129E+04</pdfrwt>
<totfact> 0.12782643E+01</totfact>
</mgrwt>
</event>
<event>
 6    1  0.5391662E-005  0.1131763E+04  0.7818608E-02  0.8897963E-01
          4   -1    0    0  502    0 -0.00000000000E+00  0.00000000000E+00  0.25299592109E+04  0.25299592109E+04  0.00000000000E+00 0.  1.
         21   -1    0    0  501  502  0.00000000000E+00 -0.00000000000E+00 -0.28305725071E+03  0.28305725071E+03  0.00000000000E+00 0.  1.
    9000010    2    1    2  501    0 -0.40624166843E+03  0.61662781495E+02  0.20830616787E+04  0.23706611284E+04  0.10545395378E+04 0.  0.
        -13    1    3    3    0    0 -0.59247721977E+03  0.19496771611E+03  0.58482921377E+03  0.85502449480E+03  0.10566000000E+00 0.  1.
          4    1    3    3  501    0  0.18623555134E+03 -0.13330493462E+03  0.14982324650E+04  0.15156366336E+04  0.00000000000E+00 0.  1.
         13    1    1    2    0    0  0.40624166843E+03 -0.61662781495E+02  0.16384028145E+03  0.44235533316E+03  0.10566000000E+00 0. -1.
<mgrwt>
<rscale>  1 0.87851554E+03</rscale>
<asrwt>0</asrwt>
<pdfrwt beam="2">  1       21 0.43547271E-01 0.11317633E+04</pdfrwt>
<pdfrwt beam="1">  1        4 0.38922448E+00 0.11317633E+04</pdfrwt>
<totfact> 0.18801328E+01</totfact>
</mgrwt>
</event>
<event>
 6    1  0.5391662E-005  0.1115420E+04  0.7818608E-02  0.8842765E-01
         21   -1    0    0  501  502  0.00000000000E+00  0.00000000000E+00  0.29972493235E+03  0.29972493235E+03  0.00000000000E+00 0. -1.
          4   -1    0    0  502    0 -0.00000000000E+00 -0.00000000000E+00 -0.29866570536E+04  0.29866570536E+04  0.00000000000E+00 0.  1.
    9000010    2    1    2  501    0  0.28106720282E+03 -0.46136611485E+03 -0.94277757134E+03  0.14604760274E+04  0.97586024261E+03 0.  0.
        -13    1    3    3    0    0 -0.63407190909E+02  0.96228482521E+02  0.14821637848E+03  0.18774583543E+03  0.10566000000E+00 0.  1.
          4    1    3    3  501    0  0.34447439373E+03 -0.55759459737E+03 -0.10909939498E+04  0.12727301920E+04  0.00000000000E+00 0.  1.
         13    1    1    2    0    0 -0.28106720282E+03  0.46136611485E+03 -0.17441545500E+04  0.18259059586E+04  0.10566000000E+00 0. -1.
<mgrwt>
<rscale>  1 0.93051854E+03</rscale>
<asrwt>0</asrwt>
<pdfrwt beam="1">  1       21 0.46111526E-01 0.11154195E+04</pdfrwt>
<pdfrwt beam="2">  1        4 0.45948572E+00 0.11154195E+04</pdfrwt>
<totfact> 0.82914192E+00</totfact>
</mgrwt>
</event>
<event>
 6    1  0.5391662E-005  0.9427906E+03  0.7818608E-02  0.9091357E-01
          4   -1    0    0  502    0 -0.00000000000E+00  0.00000000000E+00  0.25301988734E+04  0.25301988734E+04  0.00000000000E+00 0.  1.
         21   -1    0    0  501  502  0.00000000000E+00 -0.00000000000E+00 -0.16014900443E+03  0.16014900443E+03  0.00000000000E+00 0.  1.
    9000010    2    1    2  501    0  0.30457576819E+03 -0.11241260204E+03  0.18686987707E+04  0.20930573902E+04  0.88512775999E+03 0.  0.
        -13    1    3    3    0    0  0.18892407259E+03  0.25412896625E+03  0.18648246765E+03  0.36749089593E+03  0.10566000000E+00 0.  1.
          4    1    3    3  501    0  0.11565169560E+03 -0.36654156829E+03  0.16822163031E+04  0.17255664943E+04  0.00000000000E+00 0.  1.
         13    1    1    2    0    0 -0.30457576819E+03  0.11241260204E+03  0.50135109825E+03  0.59729048757E+03  0.10566000000E+00 0. -1.
<mgrwt>
<rscale>  1 0.72221768E+03</rscale>
<asrwt>0</asrwt>
<pdfrwt beam="2">  1       21 0.24638310E-01 0.94279061E+03</pdfrwt>
<pdfrwt beam="1">  1        4 0.38926134E+00 0.94279061E+03</pdfrwt>
<totfact> 0.63011107E+01</totfact>
</mgrwt>
</event>
<event>
 6    1  0.5391662E-005  0.8542945E+03  0.7818608E-02  0.9647416E-01
          4   -1    0    0  502    0 -0.00000000000E+00  0.00000000000E+00  0.50204623227E+03  0.50204623227E+03  0.00000000000E+00 0.  1.
         21   -1    0    0  501  502  0.00000000000E+00 -0.00000000000E+00 -0.85613630940E+03  0.85613630940E+03  0.00000000000E+00 0.  1.
    9000010    2    1    2  501    0 -0.38698246378E+02 -0.38517561869E+02 -0.63979141719E+03  0.10673107078E+04  0.85254790639E+03 0.  0.
        -13    1    3    3    0    0 -0.38184138810E+03  0.16769468057E+03 -0.17073429200E+03  0.45063794912E+03  0.10566000000E+00 0.  1.
          4    1    3    3  501    0  0.34314314172E+03 -0.20621224244E+03 -0.46905712519E+03  0.61667275871E+03  0.00000000000E+00 0.  1.
         13    1    1    2    0    0  0.38698246378E+02  0.38517561869E+02  0.28570134006E+03  0.29087183384E+03  0.10566000000E+00 0. -1.
<mgrwt>
<rscale>  1 0.42954040E+03</rscale>
<asrwt>0</asrwt>
<pdfrwt beam="2">  1       21 0.13171328E+00 0.85429450E+03</pdfrwt>
<pdfrwt beam="1">  1        4 0.77237883E-01 0.85429450E+03</pdfrwt>
<totfact> 0.21556417E+01</totfact>
</mgrwt>
</event>
<event>
 6    1  0.5391662E-005  0.1019586E+04  0.7818608E-02  0.9137798E-01
          4   -1    0    0  502    0 -0.00000000000E+00  0.00000000000E+00  0.45858973004E+03  0.45858973004E+03  0.00000000000E+00 0.  1.
         21   -1    0    0  501  502  0.00000000000E+00 -0.00000000000E+00 -0.86392305773E+03  0.86392305773E+03  0.00000000000E+00 0. -1.
    9000010    2    1    2  501    0  0.53899025783E+02 -0.20679236673E+03 -0.22788499581E+03  0.10447429018E+04  0.99693930186E+03 0.  0.
        -13    1    3    3    0    0 -0.22198769187E+03 -0.51360105538E+03 -0.28546659267E+03  0.62813674159E+03  0.10566000000E+00 0.  1.
          4    1    3    3  501    0  0.27588671766E+03  0.30680868866E+03  0.57581596856E+02  0.41660616019E+03  0.00000000000E+00 0.  1.
         13    1    1    2    0    0 -0.53899025783E+02  0.20679236673E+03 -0.17744833188E+03  0.27776988600E+03  0.10566000000E+00 0. -1.
<mgrwt>
<rscale>  1 0.68987399E+03</rscale>
<asrwt>0</asrwt>
<pdfrwt beam="2">  1       21 0.13291124E+00 0.10195863E+04</pdfrwt>
<pdfrwt beam="1">  1        4 0.70552266E-01 0.10195863E+04</pdfrwt>
<totfact> 0.24967031E+01</totfact>
</mgrwt>
</event>
<event>
 6    1  0.5391662E-005  0.1105446E+04  0.7818608E-02  0.8878095E-01
          4   -1    0    0  502    0 -0.00000000000E+00  0.00000000000E+00  0.13764986547E+04  0.13764986547E+04  0.00000000000E+00 0.  1.
         21   -1    0    0  501  502  0.00000000000E+00 -0.00000000000E+00 -0.48291384759E+03  0.48291384759E+03  0.00000000000E+00 0.  1.
    9000010    2    1    2  501    0 -0.89127228877E+02 -0.47048384727E+03  0.41047093386E+03  0.11791936117E+04  0.99634957358E+03 0.  0.
        -13    1    3    3    0    0 -0.52452434564E+02 -0.33834212676E+03  0.74376585189E+03  0.81878831589E+03  0.10566000000E+00 0.  1.
          4    1    3    3  501    0 -0.36674794313E+02 -0.13214172050E+03 -0.33329491803E+03  0.36040529577E+03  0.00000000000E+00 0.  1.
         13    1    1    2    0    0  0.89127228877E+02  0.47048384727E+03  0.48311387325E+03  0.68021889062E+03  0.10566000000E+00 0. -1.
<mgrwt>
<rscale>  1 0.89681610E+03</rscale>
<asrwt>0</asrwt>
<pdfrwt beam="2">  1       21 0.74294439E-01 0.11054461E+04</pdfrwt>
<pdfrwt beam="1">  1        4 0.21176902E+00 0.11054461E+04</pdfrwt>
<totfact> 0.17953160E+01</totfact>
</mgrwt>
</event>
<event>
 6    1  0.5391662E-005  0.8553301E+03  0.7818608E-02  0.9338698E-01
          4   -1    0    0  502    0 -0.00000000000E+00  0.00000000000E+00  0.22902396026E+04  0.22902396026E+04  0.00000000000E+00 0.  1.
         21   -1    0    0  501  502  0.00000000000E+00 -0.00000000000E+00 -0.14642338297E+03  0.14642338297E+03  0.00000000000E+00 0. -1.
    9000010    2    1    2  501    0  0.16305965219E+03 -0.37377916185E+02  0.20942537240E+04  0.22621865948E+04  0.83881104563E+03 0.  0.
        -13    1    3    3    0    0  0.34706190419E+03  0.24288719881E+03  0.62408280661E+03  0.75427151435E+03  0.10566000000E+00 0.  1.
          4    1    3    3  501    0 -0.18400225200E+03 -0.28026511499E+03  0.14701709174E+04  0.15079150805E+04  0.00000000000E+00 0.  1.
         13    1    1    2    0    0 -0.16305965219E+03  0.37377916185E+02  0.49562495566E+02  0.17447639073E+03  0.10566000000E+00 0. -1.
<mgrwt>
<rscale>  1 0.56880988E+03</rscale>
<asrwt>0</asrwt>
<pdfrwt beam="2">  1       21 0.22526676E-01 0.85533007E+03</pdfrwt>
<pdfrwt beam="1">  1        4 0.35234453E+00 0.85533007E+03</pdfrwt>
<totfact> 0.10391391E+02</totfact>
</mgrwt>
</event>
<event>
 6    1  0.5391662E-005  0.1076953E+04  0.7818608E-02  0.9093798E-01
          4   -1    0    0  502    0 -0.00000000000E+00  0.00000000000E+00  0.12744647586E+04  0.12744647586E+04  0.00000000000E+00 0.  1.
         21   -1    0    0  501  502  0.00000000000E+00 -0.00000000000E+00 -0.48805798493E+03  0.48805798493E+03  0.00000000000E+00 0.  1.
    9000010    2    1    2  501    0  0.18992109761E+03 -0.10228668438E+03  0.14605332227E+03  0.10868119008E+04  0.10551284024E+04 0.  0.
        -13    1    3    3    0    0  0.33464010642E+03  0.10290009479E+03  0.52572024404E+03  0.63162822648E+03  0.10566000000E+00 0.  1.
          4    1    3    3  501    0 -0.14471900880E+03 -0.20518677917E+03 -0.37966692177E+03  0.45518367429E+03  0.00000000000E+00 0.  1.
         13    1    1    2    0    0 -0.18992109761E+03  0.10228668438E+03  0.64035345137E+03  0.67571084272E+03  0.10566000000E+00 0. -1.
<mgrwt>
<rscale>  1 0.72047238E+03</rscale>
<asrwt>0</asrwt>
<pdfrwt beam="2">  1       21 0.75085844E-01 0.10769534E+04</pdfrwt>
<pdfrwt beam="1">  1        4 0.19607150E+00 0.10769534E+04</pdfrwt>
<totfact> 0.19379713E+01</totfact>
</mgrwt>
</event>
<event>
 6    1  0.5391662E-005  0.1208323E+04  0.7818608E-02  0.8730319E-01
         21   -1    0    0  501  502  0.00000000000E+00  0.00000000000E+00  0.36043140530E+03  0.36043140530E+03  0.00000000000E+00 0.  1.
          4   -1    0    0  502    0 -0.00000000000E+00 -0.00000000000E+00 -0.25333816029E+04  0.25333816029E+04  0.00000000000E+00 0.  1.
    9000010    2    1    2  501    0  0.93433673275E+02 -0.67862361086E+03 -0.11917759279E+04  0.16971665210E+04  0.99538157572E+03 0.  0.
        -13    1    3    3    0    0  0.48205525003E+03 -0.12117345086E+03 -0.31728424220E+03  0.58968599338E+03  0.10566000000E+00 0.  1.
          4    1    3    3  501    0 -0.38862157675E+03 -0.55745016000E+03 -0.87449168565E+03  0.11074805276E+04  0.00000000000E+00 0.  1.
         13    1    1    2    0    0 -0.93433673275E+02  0.67862361086E+03 -0.98117426971E+03  0.11966464872E+04  0.10566000000E+00 0. -1.
<mgrwt>
<rscale>  1 0.10484892E+04</rscale>
<asrwt>0</asrwt>
<pdfrwt beam="1">  1       21 0.55450984E-01 0.12083229E+04</pdfrwt>
<pdfrwt beam="2">  1        4 0.38975102E+00 0.12083229E+04</pdfrwt>
<totfact> 0.10844063E+01</totfact>
</mgrwt>
</event>
<event>
 6    1  0.5391662E-005  0.1021593E+04  0.7818608E-02  0.9237366E-01
          4   -1    0    0  502    0 -0.00000000000E+00  0.00000000000E+00  0.73241525007E+03  0.73241525007E+03  0.00000000000E+00 0.  1.
         21   -1    0    0  501  502  0.00000000000E+00 -0.00000000000E+00 -0.46970128603E+03  0.46970128603E+03  0.00000000000E+00 0.  1.
    9000010    2    1    2  501    0  0.10624576707E+03 -0.97645060799E+02  0.18496166526E+03  0.10382014604E+04  0.10113499561E+04 0.  0.
        -13    1    3    3    0    0 -0.10625673332E+03  0.32842730911E+03 -0.22320737080E+03  0.41106755197E+03  0.10566000000E+00 0.  1.
          4    1    3    3  501    0  0.21250250040E+03 -0.42607236991E+03  0.40816903606E+03  0.62713390840E+03  0.00000000000E+00 0.  1.
         13    1    1    2    0    0 -0.10624576707E+03  0.97645060799E+02  0.77752298779E+02  0.16391507572E+03  0.10566000000E+00 0. -1.
<mgrwt>
<rscale>  1 0.62629006E+03</rscale>
<asrwt>0</asrwt>
<pdfrwt beam="2">  1       21 0.72261736E-01 0.10215926E+04</pdfrwt>
<pdfrwt beam="1">  1        4 0.11267927E+00 0.10215926E+04</pdfrwt>
<totfact> 0.48848924E+01</totfact>
</mgrwt>
</event>
<event>
 6    1  0.5391662E-005  0.1026564E+04  0.7818608E-02  0.9057688E-01
          4   -1    0    0  502    0 -0.00000000000E+00  0.00000000000E+00  0.59214909791E+03  0.59214909791E+03  0.00000000000E+00 0.  1.
         21   -1    0    0  501  502  0.00000000000E+00 -0.00000000000E+00 -0.11225172775E+04  0.11225172775E+04  0.00000000000E+00 0.  1.
    9000010    2    1    2  501    0 -0.13994944395E+03  0.25119503785E+03 -0.81448698004E+03  0.13104284531E+04  0.98546887122E+03 0.  0.
        -13    1    3    3    0    0  0.14703831566E+03  0.50222031960E+03 -0.15009118672E+03  0.54440140630E+03  0.10566000000E+00 0.  1.
          4    1    3    3  501    0 -0.28698775961E+03 -0.25102528175E+03 -0.66439579332E+03  0.76602704680E+03  0.00000000000E+00 0.  1.
         13    1    1    2    0    0  0.13994944395E+03 -0.25119503785E+03  0.28411880044E+03  0.40423792231E+03  0.10566000000E+00 0. -1.
<mgrwt>
<rscale>  1 0.74682310E+03</rscale>
<asrwt>0</asrwt>
<pdfrwt beam="2">  1       21 0.17269496E+00 0.10265640E+04</pdfrwt>
<pdfrwt beam="1">  1        4 0.91099863E-01 0.10265640E+04</pdfrwt>
<totfact> 0.65565571E+00</totfact>
</mgrwt>
</event>
<event>
 6    1  0.5391662E-005  0.9708080E+03  0.7818608E-02  0.9254462E-01
          4   -1    0    0  502    0 -0.00000000000E+00  0.00000000000E+00  0.24227459340E+04  0.24227459340E+04  0.00000000000E+00 0.  1.
         21   -1    0    0  501  502  0.00000000000E+00 -0.00000000000E+00 -0.15962291077E+03  0.15962291077E+03  0.00000000000E+00 0.  1.
    9000010    2    1    2  501    0 -0.15208847943E+03  0.40852194423E+02  0.13918130501E+04  0.16969418925E+04  0.95795010972E+03 0.  0.
        -13    1    3    3    0    0 -0.98915788635E+02 -0.26705589432E+03  0.13523305830E+04  0.13819917514E+04  0.10566000000E+00 0.  1.
          4    1    3    3  501    0 -0.53172690799E+02  0.30790808875E+03  0.39482467030E+02  0.31495014108E+03  0.00000000000E+00 0.  1.
         13    1    1    2    0    0  0.15208847943E+03 -0.40852194423E+02  0.87130997313E+03  0.88542695227E+03  0.10566000000E+00 0. -1.
<mgrwt>
<rscale>  1 0.61610691E+03</rscale>
<asrwt>0</asrwt>
<pdfrwt beam="2">  1       21 0.24557373E-01 0.97080802E+03</pdfrwt>
<pdfrwt beam="1">  1        4 0.37273012E+00 0.97080802E+03</pdfrwt>
<totfact> 0.72897229E+01</totfact>
</mgrwt>
</event>
<event>
 6    1  0.5391662E-005  0.1027911E+04  0.7818608E-02  0.9166028E-01
          4   -1    0    0  502    0 -0.00000000000E+00  0.00000000000E+00  0.19692355092E+04  0.19692355092E+04  0.00000000000E+00 0.  1.
         21   -1    0    0  501  502  0.00000000000E+00 -0.00000000000E+00 -0.24546871993E+03  0.24546871993E+03  0.00000000000E+00 0.  1.
    9000010    2    1    2  501    0 -0.15015409235E+03 -0.11100593187E+03  0.88809333005E+03  0.13584223188E+04  0.10108080258E+04 0.  0.
        -13    1    3    3    0    0 -0.13271820340E+02  0.42837508086E+03  0.58365853629E+03  0.72411231813E+03  0.10566000000E+00 0.  1.
          4    1    3    3  501    0 -0.13688227201E+03 -0.53938101274E+03  0.30443479375E+03  0.63431000066E+03  0.00000000000E+00 0.  1.
         13    1    1    2    0    0  0.15015409235E+03  0.11100593187E+03  0.83567345925E+03  0.85628191037E+03  0.10566000000E+00 0. -1.
<mgrwt>
<rscale>  1 0.67107488E+03</rscale>
<asrwt>0</asrwt>
<pdfrwt beam="2">  1       21 0.37764420E-01 0.10279112E+04</pdfrwt>
<pdfrwt beam="1">  1        4 0.30295930E+00 0.10279112E+04</pdfrwt>
<totfact> 0.49243006E+01</totfact>
</mgrwt>
</event>
<event>
 6    1  0.5391662E-005  0.1069308E+04  0.7818608E-02  0.8982210E-01
          4   -1    0    0  502    0 -0.00000000000E+00  0.00000000000E+00  0.19617803310E+04  0.19617803310E+04  0.00000000000E+00 0.  1.
         21   -1    0    0  501  502  0.00000000000E+00 -0.00000000000E+00 -0.26369991630E+03  0.26369991630E+03  0.00000000000E+00 0.  1.
    9000010    2    1    2  501    0 -0.21944940926E+03 -0.26598204171E+03  0.14455975019E+04  0.17981020516E+04  0.10121829680E+04 0.  0.
        -13    1    3    3    0    0 -0.27040350238E+01 -0.54575389765E+03  0.13099432662E+04  0.14190863259E+04  0.10566000000E+00 0.  1.
          4    1    3    3  501    0 -0.21674537423E+03  0.27977185593E+03  0.13565423562E+03  0.37901572562E+03  0.00000000000E+00 0.  1.
         13    1    1    2    0    0  0.21944940926E+03  0.26598204171E+03  0.25248291284E+03  0.42737819572E+03  0.10566000000E+00 0. -1.
<mgrwt>
<rscale>  1 0.80579923E+03</rscale>
<asrwt>0</asrwt>
<pdfrwt beam="2">  1       21 0.40569219E-01 0.10693077E+04</pdfrwt>
<pdfrwt beam="1">  1        4 0.30181235E+00 0.10693077E+04</pdfrwt>
<totfact> 0.42395430E+01</totfact>
</mgrwt>
</event>
<event>
 6    1  0.5391662E-005  0.1441858E+04  0.7818608E-02  0.8516933E-01
          4   -1    0    0  502    0 -0.00000000000E+00  0.00000000000E+00  0.28953507048E+04  0.28953507048E+04  0.00000000000E+00 0.  1.
         21   -1    0    0  501  502  0.00000000000E+00 -0.00000000000E+00 -0.53084838231E+03  0.53084838231E+03  0.00000000000E+00 0. -1.
    9000010    2    1    2  501    0 -0.87115723420E+03  0.55505598468E+03  0.14807714800E+04  0.20667939650E+04  0.10059577750E+04 0.  0.
        -13    1    3    3    0    0 -0.10234612460E+04  0.18285355665E+03  0.10615634925E+04  0.14858752993E+04  0.10566000000E+00 0.  1.
          4    1    3    3  501    0  0.15230401180E+03  0.37220242803E+03  0.41920798751E+03  0.58091866577E+03  0.00000000000E+00 0.  1.
         13    1    1    2    0    0  0.87115723420E+03 -0.55505598468E+03  0.88373084255E+03  0.13594051221E+04  0.10566000000E+00 0. -1.
<mgrwt>
<rscale>  1 0.13265159E+04</rscale>
<asrwt>0</asrwt>
<pdfrwt beam="2">  1       21 0.81668984E-01 0.14418575E+04</pdfrwt>
<pdfrwt beam="1">  1        4 0.44543856E+00 0.14418575E+04</pdfrwt>
<totfact> 0.24557457E+00</totfact>
</mgrwt>
</event>
<event>
 6    1  0.5391662E-005  0.1086284E+04  0.7818608E-02  0.8914514E-01
          4   -1    0    0  502    0 -0.00000000000E+00  0.00000000000E+00  0.14188464504E+04  0.14188464504E+04  0.00000000000E+00 0.  1.
         21   -1    0    0  501  502  0.00000000000E+00 -0.00000000000E+00 -0.40783638032E+03  0.40783638032E+03  0.00000000000E+00 0.  1.
    9000010    2    1    2  501    0  0.17775761923E+02  0.43360011568E+03  0.75405769458E+03  0.13223520142E+04  0.99583472763E+03 0.  0.
        -13    1    3    3    0    0  0.44399652932E+03 -0.18679428603E+02  0.19081209713E+03  0.48362289718E+03  0.10566000000E+00 0.  1.
          4    1    3    3  501    0 -0.42622076740E+03  0.45227954428E+03  0.56324559745E+03  0.83872911705E+03  0.00000000000E+00 0.  1.
         13    1    1    2    0    0 -0.17775761923E+02 -0.43360011568E+03  0.25695237550E+03  0.50433081650E+03  0.10566000000E+00 0. -1.
<mgrwt>
<rscale>  1 0.86361654E+03</rscale>
<asrwt>0</asrwt>
<pdfrwt beam="2">  1       21 0.62744059E-01 0.10862835E+04</pdfrwt>
<pdfrwt beam="1">  1        4 0.21828407E+00 0.10862835E+04</pdfrwt>
<totfact> 0.25808365E+01</totfact>
</mgrwt>
</event>
<event>
 6    1  0.5391662E-005  0.1053263E+04  0.7818608E-02  0.9007581E-01
          4   -1    0    0  502    0 -0.00000000000E+00  0.00000000000E+00  0.93801442281E+03  0.93801442281E+03  0.00000000000E+00 0.  1.
         21   -1    0    0  501  502  0.00000000000E+00 -0.00000000000E+00 -0.51858647322E+03  0.51858647322E+03  0.00000000000E+00 0.  1.
    9000010    2    1    2  501    0  0.29445153241E+03 -0.13893288888E+03  0.22383580086E+03  0.10767846874E+04  0.10016779645E+04 0.  0.
        -13    1    3    3    0    0 -0.32249135331E+03 -0.20647614626E+03  0.24707892050E+03  0.45572039241E+03  0.10566000000E+00 0.  1.
          4    1    3    3  501    0  0.61694288572E+03  0.67543257389E+02 -0.23243119645E+02  0.62106429496E+03  0.00000000000E+00 0.  1.
         13    1    1    2    0    0 -0.29445153241E+03  0.13893288888E+03  0.19559214873E+03  0.37981620866E+03  0.10566000000E+00 0. -1.
<mgrwt>
<rscale>  1 0.78535844E+03</rscale>
<asrwt>0</asrwt>
<pdfrwt beam="2">  1       21 0.79782534E-01 0.10532629E+04</pdfrwt>
<pdfrwt beam="1">  1        4 0.14430991E+00 0.10532629E+04</pdfrwt>
<totfact> 0.25721524E+01</totfact>
</mgrwt>
</event>
<event>
 6    1  0.5391662E-005  0.1055845E+04  0.7818608E-02  0.8997839E-01
         21   -1    0    0  501  502  0.00000000000E+00  0.00000000000E+00  0.93066571829E+03  0.93066571829E+03  0.00000000000E+00 0. -1.
          4   -1    0    0  502    0 -0.00000000000E+00 -0.00000000000E+00 -0.77498610268E+03  0.77498610268E+03  0.00000000000E+00 0.  1.
    9000010    2    1    2  501    0  0.23802923071E+03 -0.23740821004E+03  0.54751468508E+03  0.11893618775E+04  0.10008939866E+04 0.  0.
        -13    1    3    3    0    0  0.35663433505E+03 -0.58055098987E+03  0.43863134662E+03  0.81032399087E+03  0.10566000000E+00 0.  1.
          4    1    3    3  501    0 -0.11860510434E+03  0.34314277983E+03  0.10888333847E+03  0.37903788666E+03  0.00000000000E+00 0.  1.
         13    1    1    2    0    0 -0.23802923071E+03  0.23740821004E+03 -0.39183506947E+03  0.51628994344E+03  0.10566000000E+00 0. -1.
<mgrwt>
<rscale>  1 0.79313099E+03</rscale>
<asrwt>0</asrwt>
<pdfrwt beam="1">  1       21 0.14317934E+00 0.10558453E+04</pdfrwt>
<pdfrwt beam="2">  1        4 0.11922863E+00 0.10558453E+04</pdfrwt>
<totfact> 0.71808921E+00</totfact>
</mgrwt>
</event>
<event>
 6    1  0.5391662E-005  0.9963021E+03  0.7818608E-02  0.9362729E-01
          4   -1    0    0  502    0 -0.00000000000E+00  0.00000000000E+00  0.36818502463E+04  0.36818502463E+04  0.00000000000E+00 0.  1.
         21   -1    0    0  501  502  0.00000000000E+00 -0.00000000000E+00 -0.84758566526E+02  0.84758566526E+02  0.00000000000E+00 0.  1.
    9000010    2    1    2  501    0  0.26502403946E+02 -0.93033547538E+02  0.34465786638E+04  0.35876904026E+04  0.99159483692E+03 0.  0.
        -13    1    3    3    0    0  0.35784919298E-01 -0.47692635749E+03  0.27575734668E+04  0.27985121382E+04  0.10566000000E+00 0.  1.
          4    1    3    3  501    0  0.26466619027E+02  0.38389280995E+03  0.68900519700E+03  0.78917826437E+03  0.00000000000E+00 0.  1.
         13    1    1    2    0    0 -0.26502403946E+02  0.93033547538E+02  0.15051301592E+03  0.17891841020E+03  0.10566000000E+00 0. -1.
<mgrwt>
<rscale>  1 0.55614634E+03</rscale>
<asrwt>0</asrwt>
<pdfrwt beam="2">  1       21 0.13039782E-01 0.99630213E+03</pdfrwt>
<pdfrwt beam="1">  1        4 0.56643837E+00 0.99630213E+03</pdfrwt>
<totfact> 0.32503489E+01</totfact>
</mgrwt>
</event>
<event>
 6    1  0.5391662E-005  0.1117584E+04  0.7818608E-02  0.8859551E-01
          4   -1    0    0  502    0 -0.00000000000E+00  0.00000000000E+00  0.11988325950E+04  0.11988325950E+04  0.00000000000E+00 0.  1.
         21   -1    0    0  501  502  0.00000000000E+00 -0.00000000000E+00 -0.56113077925E+03  0.56113077925E+03  0.00000000000E+00 0. -1.
    9000010    2    1    2  501    0  0.20898176032E+03  0.45496375942E+03  0.57059914921E+03  0.12548216342E+04  0.99916392353E+03 0.  0.
        -13    1    3    3    0    0  0.56161633276E+03  0.48654551851E+03  0.49486578121E+03  0.89276626246E+03  0.10566000000E+00 0.  1.
          4    1    3    3  501    0 -0.35263457244E+03 -0.31581759097E+02  0.75733368000E+02  0.36205537175E+03  0.00000000000E+00 0.  1.
         13    1    1    2    0    0 -0.20898176032E+03 -0.45496375942E+03  0.67102666573E+02  0.50514174006E+03  0.10566000000E+00 0. -1.
<mgrwt>
<rscale>  1 0.91431739E+03</rscale>
<asrwt>0</asrwt>
<pdfrwt beam="2">  1       21 0.86327813E-01 0.11175840E+04</pdfrwt>
<pdfrwt beam="1">  1        4 0.18443578E+00 0.11175840E+04</pdfrwt>
<totfact> 0.14856930E+01</totfact>
</mgrwt>
</event>
<event>
 6    1  0.5391662E-005  0.1178579E+04  0.7818608E-02  0.8765554E-01
          4   -1    0    0  502    0 -0.00000000000E+00  0.00000000000E+00  0.24257705636E+04  0.24257705636E+04  0.00000000000E+00 0.  1.
         21   -1    0    0  501  502  0.00000000000E+00 -0.00000000000E+00 -0.46673673675E+03  0.46673673675E+03  0.00000000000E+00 0. -1.
    9000010    2    1    2  501    0 -0.47316514020E+03 -0.42321435923E+03  0.46102688147E+03  0.12655406555E+04  0.99300137041E+03 0.  0.
        -13    1    3    3    0    0 -0.49150693302E+03  0.17478641532E+03  0.19585962246E+02  0.52202775527E+03  0.10566000000E+00 0.  1.
          4    1    3    3  501    0  0.18341792818E+02 -0.59800077454E+03  0.44144091923E+03  0.74351290028E+03  0.00000000000E+00 0.  1.
         13    1    1    2    0    0  0.47316514020E+03  0.42321435923E+03  0.14980069454E+04  0.16269666448E+04  0.10566000000E+00 0. -1.
<mgrwt>
<rscale>  1 0.10096746E+04</rscale>
<asrwt>0</asrwt>
<pdfrwt beam="2">  1       21 0.71805653E-01 0.11785785E+04</pdfrwt>
<pdfrwt beam="1">  1        4 0.37319547E+00 0.11785785E+04</pdfrwt>
<totfact> 0.68941590E+00</totfact>
</mgrwt>
</event>
<event>
 6    1  0.5391662E-005  0.1026721E+04  0.7818608E-02  0.9147513E-01
         21   -1    0    0  501  502  0.00000000000E+00  0.00000000000E+00  0.34038900847E+03  0.34038900847E+03  0.00000000000E+00 0.  1.
          4   -1    0    0  502    0 -0.00000000000E+00 -0.00000000000E+00 -0.16718385235E+04  0.16718385235E+04  0.00000000000E+00 0.  1.
    9000010    2    1    2  501    0  0.20112862075E+03  0.11415766465E+02 -0.47296067864E+03  0.11304190861E+04  0.10067633609E+04 0.  0.
        -13    1    3    3    0    0  0.16790114271E+03  0.29248558074E+03 -0.69380201940E+03  0.77142715920E+03  0.10566000000E+00 0.  1.
          4    1    3    3  501    0  0.33227478038E+02 -0.28106981428E+03  0.22084134077E+03  0.35899192691E+03  0.00000000000E+00 0.  1.
         13    1    1    2    0    0 -0.20112862075E+03 -0.11415766465E+02 -0.85848883643E+03  0.88180844589E+03  0.10566000000E+00 0. -1.
<mgrwt>
<rscale>  1 0.68333292E+03</rscale>
<asrwt>0</asrwt>
<pdfrwt beam="1">  1       21 0.52367540E-01 0.10267208E+04</pdfrwt>
<pdfrwt beam="2">  1        4 0.25720592E+00 0.10267208E+04</pdfrwt>
<totfact> 0.31499080E+01</totfact>
</mgrwt>
</event>
<event>
 6    1  0.5391662E-005  0.1141370E+04  0.7818608E-02  0.8831360E-01
         21   -1    0    0  501  502  0.00000000000E+00  0.00000000000E+00  0.40454224829E+03  0.40454224829E+03  0.00000000000E+00 0.  1.
          4   -1    0    0  502    0 -0.00000000000E+00 -0.00000000000E+00 -0.21272675920E+04  0.21272675920E+04  0.00000000000E+00 0.  1.
    9000010    2    1    2  501    0  0.18268481633E+02 -0.52863622904E+03 -0.59715361890E+03  0.12881452075E+04  0.10114028035E+04 0.  0.
        -13    1    3    3    0    0  0.26062040986E+03 -0.33233416088E+03  0.17364440593E+03  0.45664141665E+03  0.10566000000E+00 0.  1.
          4    1    3    3  501    0 -0.24235192823E+03 -0.19630206816E+03 -0.77079802484E+03  0.83150379083E+03  0.00000000000E+00 0.  1.
         13    1    1    2    0    0 -0.18268481633E+02  0.52863622904E+03 -0.11255717248E+04  0.12436646328E+04  0.10566000000E+00 0. -1.
<mgrwt>
<rscale>  1 0.94172453E+03</rscale>
<asrwt>0</asrwt>
<pdfrwt beam="1">  1       21 0.62237270E-01 0.11413701E+04</pdfrwt>
<pdfrwt beam="2">  1        4 0.32727193E+00 0.11413701E+04</pdfrwt>
<totfact> 0.13787037E+01</totfact>
</mgrwt>
</event>
<event>
 6    1  0.5391662E-005  0.9426370E+03  0.7818608E-02  0.9404939E-01
         21   -1    0    0  501  502  0.00000000000E+00  0.00000000000E+00  0.97671992940E+03  0.97671992940E+03  0.00000000000E+00 0.  1.
          4   -1    0    0  502    0 -0.00000000000E+00 -0.00000000000E+00 -0.52356902507E+03  0.52356902507E+03  0.00000000000E+00 0.  1.
    9000010    2    1    2  501    0 -0.55807443250E+02  0.80083973996E+02  0.73928762687E+03  0.11979610716E+04  0.93756952818E+03 0.  0.
        -13    1    3    3    0    0 -0.86939600567E+02 -0.98810787789E+01  0.95666151387E+03  0.96065466904E+03  0.10566000000E+00 0.  1.
          4    1    3    3  501    0  0.31132157317E+02  0.89965052775E+02 -0.21737388700E+03  0.23730640254E+03  0.00000000000E+00 0.  1.
         13    1    1    2    0    0  0.55807443250E+02 -0.80083973996E+02 -0.28613672255E+03  0.30232788288E+03  0.10566000000E+00 0. -1.
<mgrwt>
<rscale>  1 0.53472828E+03</rscale>
<asrwt>0</asrwt>
<pdfrwt beam="1">  1       21 0.15026460E+00 0.94263701E+03</pdfrwt>
<pdfrwt beam="2">  1        4 0.80549081E-01 0.94263701E+03</pdfrwt>
<totfact> 0.13243311E+01</totfact>
</mgrwt>
</event>
<event>
 6    1  0.5391662E-005  0.9932937E+03  0.7818608E-02  0.9281112E-01
          4   -1    0    0  502    0 -0.00000000000E+00  0.00000000000E+00  0.69073684882E+03  0.69073684882E+03  0.00000000000E+00 0.  1.
         21   -1    0    0  501  502  0.00000000000E+00 -0.00000000000E+00 -0.54112450698E+03  0.54112450698E+03  0.00000000000E+00 0.  1.
    9000010    2    1    2  501    0  0.13044048905E+03 -0.24947942525E+02 -0.47221120027E+02  0.99441548008E+03  0.98437553395E+03 0.  0.
        -13    1    3    3    0    0  0.27672178733E+03  0.25307383110E+03  0.33278463897E+03  0.50136507524E+03  0.10566000000E+00 0.  1.
          4    1    3    3  501    0 -0.14628129829E+03 -0.27802177362E+03 -0.38000575900E+03  0.49305040484E+03  0.00000000000E+00 0.  1.
         13    1    1    2    0    0 -0.13044048905E+03  0.24947942525E+02  0.19683346187E+03  0.23744587572E+03  0.10566000000E+00 0. -1.
<mgrwt>
<rscale>  1 0.60063654E+03</rscale>
<asrwt>0</asrwt>
<pdfrwt beam="2">  1       21 0.83249924E-01 0.99329367E+03</pdfrwt>
<pdfrwt beam="1">  1        4 0.10626721E+00 0.99329367E+03</pdfrwt>
<totfact> 0.38590988E+01</totfact>
</mgrwt>
</event>
<event>
 6    1  0.5391662E-005  0.1088243E+04  0.7818608E-02  0.8923731E-01
          4   -1    0    0  502    0 -0.00000000000E+00  0.00000000000E+00  0.11555135740E+04  0.11555135740E+04  0.00000000000E+00 0.  1.
         21   -1    0    0  501  502  0.00000000000E+00 -0.00000000000E+00 -0.51629550599E+03  0.51629550599E+03  0.00000000000E+00 0.  1.
    9000010    2    1    2  501    0 -0.17234386697E+03 -0.37810892721E+03  0.28287417956E+03  0.11244063513E+04  0.10057848041E+04 0.  0.
        -13    1    3    3    0    0  0.16225319129E+03 -0.45355840639E+03 -0.20871844345E+03  0.52498069097E+03  0.10566000000E+00 0.  1.
          4    1    3    3  501    0 -0.33459705826E+03  0.75449479173E+02  0.49159262301E+03  0.59942566036E+03  0.00000000000E+00 0.  1.
         13    1    1    2    0    0  0.17234386697E+03  0.37810892721E+03  0.35634388841E+03  0.54740272861E+03  0.10566000000E+00 0. -1.
<mgrwt>
<rscale>  1 0.85545270E+03</rscale>
<asrwt>0</asrwt>
<pdfrwt beam="2">  1       21 0.79430078E-01 0.10882425E+04</pdfrwt>
<pdfrwt beam="1">  1        4 0.17777132E+00 0.10882425E+04</pdfrwt>
<totfact> 0.19275653E+01</totfact>
</mgrwt>
</event>
<event>
 6    1  0.5391662E-005  0.8817043E+03  0.7818608E-02  0.9332630E-01
          4   -1    0    0  502    0 -0.00000000000E+00  0.00000000000E+00  0.54220002454E+03  0.54220002454E+03  0.00000000000E+00 0.  1.
         21   -1    0    0  501  502  0.00000000000E+00 -0.00000000000E+00 -0.56285803894E+03  0.56285803894E+03  0.00000000000E+00 0.  1.
    9000010    2    1    2  501    0  0.15427580949E+03 -0.24735133518E+02 -0.15952576062E+03  0.89601951600E+03  0.86774976377E+03 0.  0.
        -13    1    3    3    0    0  0.28891657398E+03 -0.35108825351E+03 -0.26663129648E+03  0.52709392702E+03  0.10566000000E+00 0.  1.
          4    1    3    3  501    0 -0.13464076449E+03  0.32635311999E+03  0.10710553586E+03  0.36892558898E+03  0.00000000000E+00 0.  1.
         13    1    1    2    0    0 -0.15427580949E+03  0.24735133518E+02  0.13886774622E+03  0.20903854747E+03  0.10566000000E+00 0. -1.
<mgrwt>
<rscale>  1 0.57206393E+03</rscale>
<asrwt>0</asrwt>
<pdfrwt beam="2">  1       21 0.86593544E-01 0.88170432E+03</pdfrwt>
<pdfrwt beam="1">  1        4 0.83415388E-01 0.88170432E+03</pdfrwt>
<totfact> 0.56584249E+01</totfact>
</mgrwt>
</event>
<event>
 6    1  0.5391662E-005  0.1142168E+04  0.7818608E-02  0.8823323E-01
          4   -1    0    0  502    0 -0.00000000000E+00  0.00000000000E+00  0.19037747886E+04  0.19037747886E+04  0.00000000000E+00 0.  1.
         21   -1    0    0  501  502  0.00000000000E+00 -0.00000000000E+00 -0.40812882980E+03  0.40812882980E+03  0.00000000000E+00 0. -1.
    9000010    2    1    2  501    0 -0.56717541570E+02  0.54304617198E+03  0.67653708463E+03  0.13274975115E+04  0.10032104424E+04 0.  0.
        -13    1    3    3    0    0 -0.46470183761E+03  0.53224981815E+03  0.56420656480E+03  0.90419396466E+03  0.10566000000E+00 0.  1.
          4    1    3    3  501    0  0.40798429604E+03  0.10796353829E+02  0.11233051983E+03  0.42330354683E+03  0.00000000000E+00 0.  1.
         13    1    1    2    0    0  0.56717541570E+02 -0.54304617198E+03  0.81910887421E+03  0.98440610694E+03  0.10566000000E+00 0. -1.
<mgrwt>
<rscale>  1 0.94972002E+03</rscale>
<asrwt>0</asrwt>
<pdfrwt beam="2">  1       21 0.62789052E-01 0.11421678E+04</pdfrwt>
<pdfrwt beam="1">  1        4 0.29288842E+00 0.11421678E+04</pdfrwt>
<totfact> 0.16817464E+01</totfact>
</mgrwt>
</event>
<event>
 6    1  0.5391662E-005  0.1002184E+04  0.7818608E-02  0.9207308E-01
          4   -1    0    0  502    0 -0.00000000000E+00  0.00000000000E+00  0.92670439191E+03  0.92670439191E+03  0.00000000000E+00 0.  1.
         21   -1    0    0  501  502  0.00000000000E+00 -0.00000000000E+00 -0.38335185902E+03  0.38335185902E+03  0.00000000000E+00 0.  1.
    9000010    2    1    2  501    0  0.71700533638E+02  0.15593279383E+03  0.37615628875E+03  0.10704511635E+04  0.98737841636E+03 0.  0.
        -13    1    3    3    0    0 -0.91384028436E+02 -0.32906968419E+03 -0.11580959000E+03  0.36062413952E+03  0.10566000000E+00 0.  1.
          4    1    3    3  501    0  0.16308456207E+03  0.48500247802E+03  0.49196587875E+03  0.70982702395E+03  0.00000000000E+00 0.  1.
         13    1    1    2    0    0 -0.71700533638E+02 -0.15593279383E+03  0.16719624414E+03  0.23960508746E+03  0.10566000000E+00 0. -1.
<mgrwt>
<rscale>  1 0.64469937E+03</rscale>
<asrwt>0</asrwt>
<pdfrwt beam="2">  1       21 0.58977209E-01 0.10021837E+04</pdfrwt>
<pdfrwt beam="1">  1        4 0.14256991E+00 0.10021837E+04</pdfrwt>
<totfact> 0.53617964E+01</totfact>
</mgrwt>
</event>
<event>
 6    1  0.5391662E-005  0.1008923E+04  0.7818608E-02  0.9332185E-01
          4   -1    0    0  502    0 -0.00000000000E+00  0.00000000000E+00  0.16351625015E+04  0.16351625015E+04  0.00000000000E+00 0.  1.
         21   -1    0    0  501  502  0.00000000000E+00 -0.00000000000E+00 -0.19712650173E+03  0.19712650173E+03  0.00000000000E+00 0.  1.
    9000010    2    1    2  501    0  0.60055506714E+02  0.85464924759E+02  0.11718222046E+04  0.15463157298E+04  0.10035009415E+04 0.  0.
        -13    1    3    3    0    0 -0.38105815564E+03  0.31380474382E+03  0.73183563530E+03  0.88275825880E+03  0.10566000000E+00 0.  1.
          4    1    3    3  501    0  0.44111366236E+03 -0.22833981906E+03  0.43998656934E+03  0.66355747097E+03  0.00000000000E+00 0.  1.
         13    1    1    2    0    0 -0.60055506714E+02 -0.85464924759E+02  0.26621379514E+03  0.28597327347E+03  0.10566000000E+00 0. -1.
<mgrwt>
<rscale>  1 0.57230316E+03</rscale>
<asrwt>0</asrwt>
<pdfrwt beam="2">  1       21 0.30327155E-01 0.10089227E+04</pdfrwt>
<pdfrwt beam="1">  1        4 0.25156345E+00 0.10089227E+04</pdfrwt>
<totfact> 0.10466751E+02</totfact>
</mgrwt>
</event>
<event>
 6    1  0.5391662E-005  0.1032152E+04  0.7818608E-02  0.9182960E-01
         21   -1    0    0  501  502  0.00000000000E+00  0.00000000000E+00  0.14687814029E+03  0.14687814029E+03  0.00000000000E+00 0.  1.
          4   -1    0    0  502    0 -0.00000000000E+00 -0.00000000000E+00 -0.24708193638E+04  0.24708193638E+04  0.00000000000E+00 0.  1.
    9000010    2    1    2  501    0 -0.44533940226E+02 -0.16682354715E+03 -0.19963872236E+04  0.22474205784E+04  0.10176069682E+04 0.  0.
        -13    1    3    3    0    0 -0.30783922899E+03 -0.41726687580E+03 -0.17035676562E+04  0.17807356364E+04  0.10566000000E+00 0.  1.
          4    1    3    3  501    0  0.26330528877E+03  0.25044332865E+03 -0.29281956749E+03  0.46668494197E+03  0.00000000000E+00 0.  1.
         13    1    1    2    0    0  0.44533940226E+02  0.16682354715E+03 -0.32755399983E+03  0.37027692567E+03  0.10566000000E+00 0. -1.
<mgrwt>
<rscale>  1 0.66009908E+03</rscale>
<asrwt>0</asrwt>
<pdfrwt beam="1">  1       21 0.22596637E-01 0.10321518E+04</pdfrwt>
<pdfrwt beam="2">  1        4 0.38012605E+00 0.10321518E+04</pdfrwt>
<totfact> 0.80127752E+01</totfact>
</mgrwt>
</event>
<event>
 6    1  0.5391662E-005  0.1008242E+04  0.7818608E-02  0.9268226E-01
         21   -1    0    0  501  502  0.00000000000E+00  0.00000000000E+00  0.21037395198E+03  0.21037395198E+03  0.00000000000E+00 0.  1.
          4   -1    0    0  502    0 -0.00000000000E+00 -0.00000000000E+00 -0.17646184366E+04  0.17646184366E+04  0.00000000000E+00 0.  1.
    9000010    2    1    2  501    0 -0.13202775307E+03  0.18923870781E+02 -0.10594133101E+04  0.14625010785E+04  0.99938151001E+03 0.  0.
        -13    1    3    3    0    0  0.13574107484E+03  0.46528925456E+03 -0.45426514547E+03  0.66428650699E+03  0.10566000000E+00 0.  1.
          4    1    3    3  501    0 -0.26776882791E+03 -0.44636538378E+03 -0.60514816462E+03  0.79821457151E+03  0.00000000000E+00 0.  1.
         13    1    1    2    0    0  0.13202775307E+03 -0.18923870781E+02 -0.49483117452E+03  0.51249131008E+03  0.10566000000E+00 0. -1.
<mgrwt>
<rscale>  1 0.60805667E+03</rscale>
<asrwt>0</asrwt>
<pdfrwt beam="1">  1       21 0.32365223E-01 0.10082425E+04</pdfrwt>
<pdfrwt beam="2">  1        4 0.27147977E+00 0.10082425E+04</pdfrwt>
<totfact> 0.82349757E+01</totfact>
</mgrwt>
</event>
<event>
 6    1  0.5391662E-005  0.1077734E+04  0.7818608E-02  0.8937059E-01
         21   -1    0    0  501  502  0.00000000000E+00  0.00000000000E+00  0.65310040907E+03  0.65310040907E+03  0.00000000000E+00 0.  1.
          4   -1    0    0  502    0 -0.00000000000E+00 -0.00000000000E+00 -0.95406006256E+03  0.95406006256E+03  0.00000000000E+00 0.  1.
    9000010    2    1    2  501    0 -0.97692726419E+02 -0.39303961178E+03 -0.46033729627E+03  0.11719303608E+04  0.99874237866E+03 0.  0.
        -13    1    3    3    0    0 -0.17774013763E+03 -0.56813521321E+02 -0.71734881893E+03  0.74122106818E+03  0.10566000000E+00 0.  1.
          4    1    3    3  501    0  0.80047411206E+02 -0.33622609046E+03  0.25701152266E+03  0.43070929259E+03  0.00000000000E+00 0.  1.
         13    1    1    2    0    0  0.97692726419E+02  0.39303961178E+03  0.15937764277E+03  0.43523011086E+03  0.10566000000E+00 0. -1.
<mgrwt>
<rscale>  1 0.84381480E+03</rscale>
<asrwt>0</asrwt>
<pdfrwt beam="1">  1       21 0.10047699E+00 0.10777339E+04</pdfrwt>
<pdfrwt beam="2">  1        4 0.14677847E+00 0.10777339E+04</pdfrwt>
<totfact> 0.13929641E+01</totfact>
</mgrwt>
</event>
<event>
 6    1  0.5391662E-005  0.1364963E+04  0.7818608E-02  0.8593663E-01
          4   -1    0    0  502    0 -0.00000000000E+00  0.00000000000E+00  0.21010573860E+04  0.21010573860E+04  0.00000000000E+00 0.  1.
         21   -1    0    0  501  502  0.00000000000E+00 -0.00000000000E+00 -0.59201798564E+03  0.59201798564E+03  0.00000000000E+00 0. -1.
    9000010    2    1    2  501    0  0.85344710458E+03  0.13054949323E+03  0.98274831930E+03  0.16819386630E+04  0.10572172323E+04 0.  0.
        -13    1    3    3    0    0 -0.12895477138E+03 -0.49398656688E+02  0.59459049725E+03  0.61041578529E+03  0.10566000000E+00 0.  1.
          4    1    3    3  501    0  0.98240187596E+03  0.17994814991E+03  0.38815782205E+03  0.10715228777E+04  0.00000000000E+00 0.  1.
         13    1    1    2    0    0 -0.85344710458E+03 -0.13054949323E+03  0.52629108110E+03  0.10111367087E+04  0.10566000000E+00 0. -1.
<mgrwt>
<rscale>  1 0.12172799E+04</rscale>
<asrwt>0</asrwt>
<pdfrwt beam="2">  1       21 0.91079691E-01 0.13649628E+04</pdfrwt>
<pdfrwt beam="1">  1        4 0.32323959E+00 0.13649628E+04</pdfrwt>
<totfact> 0.54641919E+00</totfact>
</mgrwt>
</event>
<event>
 6    1  0.5391662E-005  0.1075963E+04  0.7818608E-02  0.8969543E-01
         21   -1    0    0  501  502  0.00000000000E+00  0.00000000000E+00  0.35011380010E+03  0.35011380010E+03  0.00000000000E+00 0.  1.
          4   -1    0    0  502    0 -0.00000000000E+00 -0.00000000000E+00 -0.14722759674E+04  0.14722759674E+04  0.00000000000E+00 0.  1.
    9000010    2    1    2  501    0 -0.44268234638E+02 -0.35360794334E+03 -0.78586964954E+03  0.13323990300E+04  0.10152328870E+04 0.  0.
        -13    1    3    3    0    0 -0.19707103538E+03  0.29339117789E+03 -0.49140431980E+03  0.60530454561E+03  0.10566000000E+00 0.  1.
          4    1    3    3  501    0  0.15280280075E+03 -0.64699912123E+03 -0.29446532973E+03  0.72709448437E+03  0.00000000000E+00 0.  1.
         13    1    1    2    0    0  0.44268234638E+02  0.35360794334E+03 -0.33629251778E+03  0.48999073753E+03  0.10566000000E+00 0. -1.
<mgrwt>
<rscale>  1 0.81624904E+03</rscale>
<asrwt>0</asrwt>
<pdfrwt beam="1">  1       21 0.53863661E-01 0.10759629E+04</pdfrwt>
<pdfrwt beam="2">  1        4 0.22650400E+00 0.10759629E+04</pdfrwt>
<totfact> 0.34877674E+01</totfact>
</mgrwt>
</event>
<event>
 6    1  0.5391662E-005  0.1067122E+04  0.7818608E-02  0.9000086E-01
         21   -1    0    0  501  502  0.00000000000E+00  0.00000000000E+00  0.60368391056E+03  0.60368391056E+03  0.00000000000E+00 0.  1.
          4   -1    0    0  502    0 -0.00000000000E+00 -0.00000000000E+00 -0.96718448223E+03  0.96718448223E+03  0.00000000000E+00 0.  1.
    9000010    2    1    2  501    0  0.11639019039E+03  0.30097097884E+03  0.22997601459E+02  0.10673695790E+04  0.10171620923E+04 0.  0.
        -13    1    3    3    0    0 -0.45038957115E+03  0.74029376813E+02  0.61102972704E+00  0.45643345512E+03  0.10566000000E+00 0.  1.
          4    1    3    3  501    0  0.56677976155E+03  0.22694160203E+03  0.22386571732E+02  0.61093612385E+03  0.00000000000E+00 0.  1.
         13    1    1    2    0    0 -0.11639019039E+03 -0.30097097884E+03 -0.38649817313E+03  0.50349881382E+03  0.10566000000E+00 0. -1.
<mgrwt>
<rscale>  1 0.79132993E+03</rscale>
<asrwt>0</asrwt>
<pdfrwt beam="1">  1       21 0.92874448E-01 0.10671218E+04</pdfrwt>
<pdfrwt beam="2">  1        4 0.14879761E+00 0.10671218E+04</pdfrwt>
<totfact> 0.16739388E+01</totfact>
</mgrwt>
</event>
<event>
 6    1  0.5391662E-005  0.1006551E+04  0.7818608E-02  0.9351200E-01
          4   -1    0    0  502    0 -0.00000000000E+00  0.00000000000E+00  0.31098763868E+03  0.31098763868E+03  0.00000000000E+00 0.  1.
         21   -1    0    0  501  502  0.00000000000E+00 -0.00000000000E+00 -0.20717561957E+04  0.20717561957E+04  0.00000000000E+00 0.  1.
    9000010    2    1    2  501    0 -0.80125195316E+02 -0.56333162569E+02 -0.19359828262E+04  0.21820113672E+04  0.10017737424E+04 0.  0.
        -13    1    3    3    0    0  0.13106781728E+03  0.27289051258E+03 -0.12209050601E+03  0.32642626641E+03  0.10566000000E+00 0.  1.
          4    1    3    3  501    0 -0.21119301259E+03 -0.32922367515E+03 -0.18138923202E+04  0.18555851008E+04  0.00000000000E+00 0.  1.
         13    1    1    2    0    0  0.80125195316E+02  0.56333162569E+02  0.17521426915E+03  0.20073246725E+03  0.10566000000E+00 0. -1.
<mgrwt>
<rscale>  1 0.56217787E+03</rscale>
<asrwt>0</asrwt>
<pdfrwt beam="2">  1       21 0.31873173E+00 0.10065506E+04</pdfrwt>
<pdfrwt beam="1">  1        4 0.47844252E-01 0.10065506E+04</pdfrwt>
<totfact> 0.20792262E+00</totfact>
</mgrwt>
</event>
<event>
 6    1  0.5391662E-005  0.1013962E+04  0.7818608E-02  0.9115039E-01
          4   -1    0    0  502    0 -0.00000000000E+00  0.00000000000E+00  0.47196356287E+04  0.47196356287E+04  0.00000000000E+00 0.  1.
         21   -1    0    0  501  502  0.00000000000E+00 -0.00000000000E+00 -0.86111989058E+02  0.86111989058E+02  0.00000000000E+00 0.  1.
    9000010    2    1    2  501    0  0.21643179135E+03  0.98134757520E+02  0.33378430251E+04  0.34884544017E+04  0.98572049881E+03 0.  0.
        -13    1    3    3    0    0  0.12807531658E+03  0.54423733287E+03  0.18176733140E+04  0.19017186566E+04  0.10566000000E+00 0.  1.
          4    1    3    3  501    0  0.88356474770E+02 -0.44610257535E+03  0.15201697111E+04  0.15867357452E+04  0.00000000000E+00 0.  1.
         13    1    1    2    0    0 -0.21643179135E+03 -0.98134757520E+02  0.12956806146E+04  0.13172932161E+04  0.10566000000E+00 0. -1.
<mgrwt>
<rscale>  1 0.70549897E+03</rscale>
<asrwt>0</asrwt>
<pdfrwt beam="2">  1       21 0.13248002E-01 0.10139616E+04</pdfrwt>
<pdfrwt beam="1">  1        4 0.72609759E+00 0.10139616E+04</pdfrwt>
<totfact> 0.49063275E+00</totfact>
</mgrwt>
</event>
<event>
 6    1  0.5391662E-005  0.1217550E+04  0.7818608E-02  0.8724027E-01
         21   -1    0    0  501  502  0.00000000000E+00  0.00000000000E+00  0.48226123277E+03  0.48226123277E+03  0.00000000000E+00 0. -1.
          4   -1    0    0  502    0 -0.00000000000E+00 -0.00000000000E+00 -0.20459841403E+04  0.20459841403E+04  0.00000000000E+00 0.  1.
    9000010    2    1    2  501    0  0.68449475522E+03  0.68767656936E+02 -0.13264724605E+04  0.18005436166E+04  0.10045725789E+04 0.  0.
        -13    1    3    3    0    0  0.78827426750E+03 -0.29095370894E+03 -0.97379029548E+03  0.12861951377E+04  0.10566000000E+00 0.  1.
          4    1    3    3  501    0 -0.10377951227E+03  0.35972136587E+03 -0.35268216499E+03  0.51434847889E+03  0.00000000000E+00 0.  1.
         13    1    1    2    0    0 -0.68449475522E+03 -0.68767656936E+02 -0.23725044705E+03  0.72770175646E+03  0.10566000000E+00 0. -1.
<mgrwt>
<rscale>  1 0.10556085E+04</rscale>
<asrwt>0</asrwt>
<pdfrwt beam="1">  1       21 0.74194036E-01 0.12175501E+04</pdfrwt>
<pdfrwt beam="2">  1        4 0.31476679E+00 0.12175501E+04</pdfrwt>
<totfact> 0.97877866E+00</totfact>
</mgrwt>
</event>
<event>
 6    1  0.5391662E-005  0.1004230E+04  0.7818608E-02  0.9404723E-01
          4   -1    0    0  502    0 -0.00000000000E+00  0.00000000000E+00  0.78581548696E+03  0.78581548696E+03  0.00000000000E+00 0.  1.
         21   -1    0    0  501  502  0.00000000000E+00 -0.00000000000E+00 -0.43753941930E+03  0.43753941930E+03  0.00000000000E+00 0.  1.
    9000010    2    1    2  501    0 -0.70949369558E+02 -0.38651062291E+02  0.15793136140E+03  0.10165728083E+04  0.10009746461E+04 0.  0.
        -13    1    3    3    0    0 -0.44304003625E+02  0.38156484484E+03 -0.22690776638E+03  0.44614092074E+03  0.10566000000E+00 0.  1.
          4    1    3    3  501    0 -0.26645365933E+02 -0.42021590713E+03  0.38483912778E+03  0.57043188761E+03  0.00000000000E+00 0.  1.
         13    1    1    2    0    0  0.70949369558E+02  0.38651062291E+02  0.19034470625E+03  0.20678209791E+03  0.10566000000E+00 0. -1.
<mgrwt>
<rscale>  1 0.53483543E+03</rscale>
<asrwt>0</asrwt>
<pdfrwt beam="2">  1       21 0.67313757E-01 0.10042300E+04</pdfrwt>
<pdfrwt beam="1">  1        4 0.12089469E+00 0.10042300E+04</pdfrwt>
<totfact> 0.51295165E+01</totfact>
</mgrwt>
</event>
<event>
 6    1  0.5391662E-005  0.1177628E+04  0.7818608E-02  0.8735930E-01
          4   -1    0    0  502    0 -0.00000000000E+00  0.00000000000E+00  0.16789966688E+04  0.16789966688E+04  0.00000000000E+00 0.  1.
         21   -1    0    0  501  502  0.00000000000E+00 -0.00000000000E+00 -0.53796578468E+03  0.53796578468E+03  0.00000000000E+00 0. -1.
    9000010    2    1    2  501    0 -0.68407098312E+03 -0.23210504416E+03  0.73790691858E+03  0.13897171427E+04  0.93004368428E+03 0.  0.
        -13    1    3    3    0    0 -0.84775764472E+03 -0.40457783109E+03  0.60487731902E+03  0.11172523564E+04  0.10566000000E+00 0.  1.
          4    1    3    3  501    0  0.16368666159E+03  0.17247278693E+03  0.13302959956E+03  0.27246478630E+03  0.00000000000E+00 0.  1.
         13    1    1    2    0    0  0.68407098312E+03  0.23210504416E+03  0.40312396553E+03  0.82724531079E+03  0.10566000000E+00 0. -1.
<mgrwt>
<rscale>  1 0.10421897E+04</rscale>
<asrwt>0</asrwt>
<pdfrwt beam="2">  1       21 0.82763967E-01 0.11776277E+04</pdfrwt>
<pdfrwt beam="1">  1        4 0.25830718E+00 0.11776277E+04</pdfrwt>
<totfact> 0.10536224E+01</totfact>
</mgrwt>
</event>
<event>
 6    1  0.5391662E-005  0.1569640E+04  0.7818608E-02  0.8426464E-01
         21   -1    0    0  501  502  0.00000000000E+00  0.00000000000E+00  0.15755130939E+04  0.15755130939E+04  0.00000000000E+00 0. -1.
          4   -1    0    0  502    0 -0.00000000000E+00 -0.00000000000E+00 -0.15603960893E+04  0.15603960893E+04  0.00000000000E+00 0.  1.
    9000010    2    1    2  501    0  0.11179808919E+04  0.46364324096E+03  0.72908789106E+03  0.17307042988E+04  0.99946079835E+03 0.  0.
        -13    1    3    3    0    0  0.37618043360E+03 -0.13551545766E+03 -0.15646919114E+03  0.42937020953E+03  0.10566000000E+00 0.  1.
          4    1    3    3  501    0  0.74180045826E+03  0.59915869861E+03  0.88555708220E+03  0.13013340892E+04  0.00000000000E+00 0.  1.
         13    1    1    2    0    0 -0.11179808919E+04 -0.46364324096E+03 -0.71397088646E+03  0.14052048845E+04  0.10566000000E+00 0. -1.
<mgrwt>
<rscale>  1 0.14708689E+04</rscale>
<asrwt>0</asrwt>
<pdfrwt beam="1">  1       21 0.24238663E+00 0.15696395E+04</pdfrwt>
<pdfrwt beam="2">  1        4 0.24006094E+00 0.15696395E+04</pdfrwt>
<totfact> 0.39710145E-01</totfact>
</mgrwt>
</event>
<event>
 6    1  0.5391662E-005  0.1076541E+04  0.7818608E-02  0.8958482E-01
         21   -1    0    0  501  502  0.00000000000E+00  0.00000000000E+00  0.79809622457E+03  0.79809622457E+03  0.00000000000E+00 0.  1.
          4   -1    0    0  502    0 -0.00000000000E+00 -0.00000000000E+00 -0.11733802535E+04  0.11733802535E+04  0.00000000000E+00 0.  1.
    9000010    2    1    2  501    0  0.21044666048E+03  0.30701443594E+03  0.37005227961E+03  0.11383667105E+04  0.10101457406E+04 0.  0.
        -13    1    3    3    0    0  0.10694681145E+03 -0.36586638686E+03  0.22386599418E+03  0.44205410079E+03  0.10566000000E+00 0.  1.
          4    1    3    3  501    0  0.10349984903E+03  0.67288082279E+03  0.14618628542E+03  0.69631260974E+03  0.00000000000E+00 0.  1.
         13    1    1    2    0    0 -0.21044666048E+03 -0.30701443594E+03 -0.74533630859E+03  0.83310976758E+03  0.10566000000E+00 0. -1.
<mgrwt>
<rscale>  1 0.82550933E+03</rscale>
<asrwt>0</asrwt>
<pdfrwt beam="1">  1       21 0.12278403E+00 0.10765408E+04</pdfrwt>
<pdfrwt beam="2">  1        4 0.18052004E+00 0.10765408E+04</pdfrwt>
<totfact> 0.60236146E+00</totfact>
</mgrwt>
</event>
<event>
 6    1  0.5391662E-005  0.1008854E+04  0.7818608E-02  0.9419975E-01
         21   -1    0    0  501  502  0.00000000000E+00  0.00000000000E+00  0.20945901026E+04  0.20945901026E+04  0.00000000000E+00 0.  1.
          4   -1    0    0  502    0 -0.00000000000E+00 -0.00000000000E+00 -0.32505363926E+03  0.32505363926E+03  0.00000000000E+00 0.  1.
    9000010    2    1    2  501    0 -0.14879428545E+02 -0.73831437678E+02  0.19657258815E+04  0.22094943247E+04  0.10060389909E+04 0.  0.
        -13    1    3    3    0    0  0.37540476931E+03 -0.21892307581E+01  0.25615468621E+03  0.45447636681E+03  0.10566000000E+00 0.  1.
          4    1    3    3  501    0 -0.39028419786E+03 -0.71642206920E+02  0.17095711953E+04  0.17550179579E+04  0.00000000000E+00 0.  1.
         13    1    1    2    0    0  0.14879428545E+02  0.73831437678E+02 -0.19618941813E+03  0.21014941716E+03  0.10566000000E+00 0. -1.
<mgrwt>
<rscale>  1 0.52734282E+03</rscale>
<asrwt>0</asrwt>
<pdfrwt beam="1">  1       21 0.32224462E+00 0.10088543E+04</pdfrwt>
<pdfrwt beam="2">  1        4 0.50008254E-01 0.10088543E+04</pdfrwt>
<totfact> 0.17899823E+00</totfact>
</mgrwt>
</event>
<event>
 6    1  0.5391662E-005  0.1361376E+04  0.7818608E-02  0.8581815E-01
         21   -1    0    0  501  502  0.00000000000E+00  0.00000000000E+00  0.60321078887E+03  0.60321078887E+03  0.00000000000E+00 0. -1.
          4   -1    0    0  502    0 -0.00000000000E+00 -0.00000000000E+00 -0.22071085003E+04  0.22071085003E+04  0.00000000000E+00 0.  1.
    9000010    2    1    2  501    0 -0.73363834460E+03  0.55062494042E+03 -0.11723343459E+04  0.17965836258E+04  0.10059482393E+04 0.  0.
        -13    1    3    3    0    0 -0.23301228719E+03  0.68285126000E+03 -0.29842258750E+03  0.78079230347E+03  0.10566000000E+00 0.  1.
          4    1    3    3  501    0 -0.50062605741E+03 -0.13222631959E+03 -0.87391175843E+03  0.10157913223E+04  0.00000000000E+00 0.  1.
         13    1    1    2    0    0  0.73363834460E+03 -0.55062494042E+03 -0.43156336554E+03  0.10137356634E+04  0.10566000000E+00 0. -1.
<mgrwt>
<rscale>  1 0.12334166E+04</rscale>
<asrwt>0</asrwt>
<pdfrwt beam="1">  1       21 0.92801661E-01 0.13613761E+04</pdfrwt>
<pdfrwt beam="2">  1        4 0.33955515E+00 0.13613761E+04</pdfrwt>
<totfact> 0.46678956E+00</totfact>
</mgrwt>
</event>
<event>
 6    1  0.5391662E-005  0.1002280E+04  0.7818608E-02  0.9241022E-01
          4   -1    0    0  502    0 -0.00000000000E+00  0.00000000000E+00  0.19227877035E+04  0.19227877035E+04  0.00000000000E+00 0.  1.
         21   -1    0    0  501  502  0.00000000000E+00 -0.00000000000E+00 -0.25060039483E+03  0.25060039483E+03  0.00000000000E+00 0.  1.
    9000010    2    1    2  501    0  0.10223114885E+03  0.11068456210E+03  0.78393287732E+03  0.12724451334E+04  0.99089029730E+03 0.  0.
        -13    1    3    3    0    0 -0.28992868779E+03  0.36142756601E+03  0.15210471451E+03  0.48767241547E+03  0.10566000000E+00 0.  1.
          4    1    3    3  501    0  0.39215983664E+03 -0.25074300391E+03  0.63182816281E+03  0.78477271793E+03  0.00000000000E+00 0.  1.
         13    1    1    2    0    0 -0.10223114885E+03 -0.11068456210E+03  0.88825443139E+03  0.90094296498E+03  0.10566000000E+00 0. -1.
<mgrwt>
<rscale>  1 0.62409488E+03</rscale>
<asrwt>0</asrwt>
<pdfrwt beam="2">  1       21 0.38553908E-01 0.10022803E+04</pdfrwt>
<pdfrwt beam="1">  1        4 0.29581348E+00 0.10022803E+04</pdfrwt>
<totfact> 0.49423449E+01</totfact>
</mgrwt>
</event>
<event>
 6    1  0.5391662E-005  0.1028117E+04  0.7818608E-02  0.9194227E-01
          4   -1    0    0  502    0 -0.00000000000E+00  0.00000000000E+00  0.42772852426E+03  0.42772852426E+03  0.00000000000E+00 0.  1.
         21   -1    0    0  501  502  0.00000000000E+00 -0.00000000000E+00 -0.83596659372E+03  0.83596659372E+03  0.00000000000E+00 0.  1.
    9000010    2    1    2  501    0 -0.16247919026E+03 -0.39562028866E+02 -0.33715847491E+03  0.10819894182E+04  0.10144262529E+04 0.  0.
        -13    1    3    3    0    0 -0.19010037209E+03 -0.38133845780E+03 -0.53669034949E+03  0.68526908092E+03  0.10566000000E+00 0.  1.
          4    1    3    3  501    0  0.27621181820E+02  0.34177642893E+03  0.19953187459E+03  0.39672033731E+03  0.00000000000E+00 0.  1.
         13    1    1    2    0    0  0.16247919026E+03  0.39562028866E+02 -0.71079594559E+02  0.18170569976E+03  0.10566000000E+00 0. -1.
<mgrwt>
<rscale>  1 0.65291740E+03</rscale>
<asrwt>0</asrwt>
<pdfrwt beam="2">  1       21 0.12861025E+00 0.10281173E+04</pdfrwt>
<pdfrwt beam="1">  1        4 0.65804388E-01 0.10281173E+04</pdfrwt>
<totfact> 0.31788152E+01</totfact>
</mgrwt>
</event>
<event>
 6    1  0.5391662E-005  0.1049226E+04  0.7818608E-02  0.9250633E-01
         21   -1    0    0  501  502  0.00000000000E+00  0.00000000000E+00  0.71012505555E+03  0.71012505555E+03  0.00000000000E+00 0.  1.
          4   -1    0    0  502    0 -0.00000000000E+00 -0.00000000000E+00 -0.48820287936E+03  0.48820287936E+03  0.00000000000E+00 0.  1.
    9000010    2    1    2  501    0 -0.85436062022E+02  0.93406109240E+02  0.21827039558E+03  0.10716892023E+04  0.10415621723E+04 0.  0.
        -13    1    3    3    0    0 -0.47979700663E+03  0.33579703632E+03  0.14128687555E+03  0.60243407070E+03  0.10566000000E+00 0.  1.
          4    1    3    3  501    0  0.39436094461E+03 -0.24239092708E+03  0.76983520032E+02  0.46925513158E+03  0.00000000000E+00 0.  1.
         13    1    1    2    0    0  0.85436062022E+02 -0.93406109240E+02  0.36517805986E+01  0.12663873263E+03  0.10566000000E+00 0. -1.
<mgrwt>
<rscale>  1 0.61836991E+03</rscale>
<asrwt>0</asrwt>
<pdfrwt beam="1">  1       21 0.10925001E+00 0.10492263E+04</pdfrwt>
<pdfrwt beam="2">  1        4 0.75108135E-01 0.10492263E+04</pdfrwt>
<totfact> 0.37903275E+01</totfact>
</mgrwt>
</event>
<event>
 6    1  0.5391662E-005  0.1015533E+04  0.7818608E-02  0.9161874E-01
         21   -1    0    0  501  502  0.00000000000E+00  0.00000000000E+00  0.59810057531E+03  0.59810057531E+03  0.00000000000E+00 0.  1.
          4   -1    0    0  502    0 -0.00000000000E+00 -0.00000000000E+00 -0.95169884894E+03  0.95169884894E+03  0.00000000000E+00 0.  1.
    9000010    2    1    2  501    0 -0.18259550862E+03 -0.73435389189E+02  0.13366362722E+03  0.10242920053E+04  0.99628021700E+03 0.  0.
        -13    1    3    3    0    0 -0.43038686573E+03 -0.11860758383E+03 -0.28932811266E+03  0.53198813998E+03  0.10566000000E+00 0.  1.
          4    1    3    3  501    0  0.24779135712E+03  0.45172194644E+02  0.42299173988E+03  0.49230386535E+03  0.00000000000E+00 0.  1.
         13    1    1    2    0    0  0.18259550862E+03  0.73435389189E+02 -0.48726190085E+03  0.52550741891E+03  0.10566000000E+00 0. -1.
<mgrwt>
<rscale>  1 0.67380162E+03</rscale>
<asrwt>0</asrwt>
<pdfrwt beam="1">  1       21 0.92015474E-01 0.10155334E+04</pdfrwt>
<pdfrwt beam="2">  1        4 0.14641521E+00 0.10155334E+04</pdfrwt>
<totfact> 0.17628739E+01</totfact>
</mgrwt>
</event>
<event>
 6    1  0.5391662E-005  0.9905637E+03  0.7818608E-02  0.9376867E-01
          4   -1    0    0  502    0 -0.00000000000E+00  0.00000000000E+00  0.27492947731E+03  0.27492947731E+03  0.00000000000E+00 0.  1.
         21   -1    0    0  501  502  0.00000000000E+00 -0.00000000000E+00 -0.12230184912E+04  0.12230184912E+04  0.00000000000E+00 0.  1.
    9000010    2    1    2  501    0 -0.87838387958E+01 -0.92952745085E+02 -0.98556703657E+03  0.13973399072E+04  0.98615367162E+03 0.  0.
        -13    1    3    3    0    0 -0.32729394348E+03  0.21263284836E+03 -0.85043521824E+03  0.93572117921E+03  0.10566000000E+00 0.  1.
          4    1    3    3  501    0  0.31851010468E+03 -0.30558559345E+03 -0.13513181833E+03  0.46161872799E+03  0.00000000000E+00 0.  1.
         13    1    1    2    0    0  0.87838387958E+01  0.92952745085E+02  0.37478022720E+02  0.10060806128E+03  0.10566000000E+00 0. -1.
<mgrwt>
<rscale>  1 0.54885807E+03</rscale>
<asrwt>0</asrwt>
<pdfrwt beam="2">  1       21 0.18815669E+00 0.99056369E+03</pdfrwt>
<pdfrwt beam="1">  1        4 0.42296842E-01 0.99056369E+03</pdfrwt>
<totfact> 0.24396247E+01</totfact>
</mgrwt>
</event>
<event>
 6    1  0.5391662E-005  0.1042275E+04  0.7818608E-02  0.9063093E-01
          4   -1    0    0  502    0 -0.00000000000E+00  0.00000000000E+00  0.15645479997E+04  0.15645479997E+04  0.00000000000E+00 0.  1.
         21   -1    0    0  501  502  0.00000000000E+00 -0.00000000000E+00 -0.28136634285E+03  0.28136634285E+03  0.00000000000E+00 0.  1.
    9000010    2    1    2  501    0  0.18652484501E+03  0.19365620292E+03  0.89562073791E+03  0.13742177030E+04  0.10069972921E+04 0.  0.
        -13    1    3    3    0    0  0.31059897982E+03 -0.24272030356E+03  0.82599467588E+03  0.91523335154E+03  0.10566000000E+00 0.  1.
          4    1    3    3  501    0 -0.12407413481E+03  0.43637650649E+03  0.69626062031E+02  0.45898435143E+03  0.00000000000E+00 0.  1.
         13    1    1    2    0    0 -0.18652484501E+03 -0.19365620292E+03  0.38756091898E+03  0.47169663961E+03  0.10566000000E+00 0. -1.
<mgrwt>
<rscale>  1 0.74280498E+03</rscale>
<asrwt>0</asrwt>
<pdfrwt beam="2">  1       21 0.43287131E-01 0.10422753E+04</pdfrwt>
<pdfrwt beam="1">  1        4 0.24069969E+00 0.10422753E+04</pdfrwt>
<totfact> 0.52324518E+01</totfact>
</mgrwt>
</event>
<event>
 6    1  0.5391662E-005  0.1066058E+04  0.7818608E-02  0.8921389E-01
         21   -1    0    0  501  502  0.00000000000E+00  0.00000000000E+00  0.25508451597E+03  0.25508451597E+03  0.00000000000E+00 0.  1.
          4   -1    0    0  502    0 -0.00000000000E+00 -0.00000000000E+00 -0.29966085096E+04  0.29966085096E+04  0.00000000000E+00 0.  1.
    9000010    2    1    2  501    0 -0.12003129020E+03 -0.42985971717E+03 -0.10278772195E+04  0.14808818654E+04  0.96813874729E+03 0.  0.
        -13    1    3    3    0    0  0.17659985989E+03 -0.16335285556E+03  0.11774994226E+03  0.26783712588E+03  0.10566000000E+00 0.  1.
          4    1    3    3  501    0 -0.29663115009E+03 -0.26650686161E+03 -0.11456271617E+04  0.12130447395E+04  0.00000000000E+00 0.  1.
         13    1    1    2    0    0  0.12003129020E+03  0.42985971717E+03 -0.17136467742E+04  0.17708111602E+04  0.10566000000E+00 0. -1.
<mgrwt>
<rscale>  1 0.85751791E+03</rscale>
<asrwt>0</asrwt>
<pdfrwt beam="1">  1       21 0.39243770E-01 0.10660579E+04</pdfrwt>
<pdfrwt beam="2">  1        4 0.46101671E+00 0.10660579E+04</pdfrwt>
<totfact> 0.11637461E+01</totfact>
</mgrwt>
</event>
<event>
 6    1  0.5391662E-005  0.1053488E+04  0.7818608E-02  0.8982645E-01
         21   -1    0    0  501  502  0.00000000000E+00  0.00000000000E+00  0.22704627740E+03  0.22704627740E+03  0.00000000000E+00 0. -1.
          4   -1    0    0  502    0 -0.00000000000E+00 -0.00000000000E+00 -0.23147921253E+04  0.23147921253E+04  0.00000000000E+00 0.  1.
    9000010    2    1    2  501    0  0.31966192774E+03  0.16548550077E+03 -0.17793822732E+04  0.20678581242E+04  0.99008421298E+03 0.  0.
        -13    1    3    3    0    0  0.41932854519E+03 -0.76117448659E+02 -0.20679808504E+03  0.47370428956E+03  0.10566000000E+00 0.  1.
          4    1    3    3  501    0 -0.99666617454E+02  0.24160294943E+03 -0.15725841881E+04  0.15941538347E+04  0.00000000000E+00 0.  1.
         13    1    1    2    0    0 -0.31966192774E+03 -0.16548550077E+03 -0.30836357475E+03  0.47398027850E+03  0.10566000000E+00 0. -1.
<mgrwt>
<rscale>  1 0.80544303E+03</rscale>
<asrwt>0</asrwt>
<pdfrwt beam="1">  1       21 0.34930198E-01 0.10534875E+04</pdfrwt>
<pdfrwt beam="2">  1        4 0.35612185E+00 0.10534875E+04</pdfrwt>
<totfact> 0.40283552E+01</totfact>
</mgrwt>
</event>
<event>
 6    1  0.5391662E-005  0.1074207E+04  0.7818608E-02  0.8948261E-01
          4   -1    0    0  502    0 -0.00000000000E+00  0.00000000000E+00  0.46140159492E+03  0.46140159492E+03  0.00000000000E+00 0.  1.
         21   -1    0    0  501  502  0.00000000000E+00 -0.00000000000E+00 -0.11654813549E+04  0.11654813549E+04  0.00000000000E+00 0.  1.
    9000010    2    1    2  501    0 -0.38944161021E+03 -0.30597840818E+02 -0.55142932068E+03  0.12074748390E+04  0.10006598801E+04 0.  0.
        -13    1    3    3    0    0 -0.54777237895E+03  0.34790439387E+03 -0.23805468693E+03  0.69120336482E+03  0.10566000000E+00 0.  1.
          4    1    3    3  501    0  0.15833076874E+03 -0.37850223469E+03 -0.31337463375E+03  0.51627147420E+03  0.00000000000E+00 0.  1.
         13    1    1    2    0    0  0.38944161021E+03  0.30597840818E+02 -0.15265043931E+03  0.41940811081E+03  0.10566000000E+00 0. -1.
<mgrwt>
<rscale>  1 0.83418184E+03</rscale>
<asrwt>0</asrwt>
<pdfrwt beam="2">  1       21 0.17930482E+00 0.10742072E+04</pdfrwt>
<pdfrwt beam="1">  1        4 0.70984862E-01 0.10742072E+04</pdfrwt>
<totfact> 0.96079660E+00</totfact>
</mgrwt>
</event>
<event>
 6    1  0.5391662E-005  0.1086480E+04  0.7818608E-02  0.9041422E-01
         21   -1    0    0  501  502  0.00000000000E+00  0.00000000000E+00  0.23502830877E+03  0.23502830877E+03  0.00000000000E+00 0.  1.
          4   -1    0    0  502    0 -0.00000000000E+00 -0.00000000000E+00 -0.20525543394E+04  0.20525543394E+04  0.00000000000E+00 0.  1.
    9000010    2    1    2  501    0  0.24451395266E+03  0.84987652661E+02 -0.16619158778E+04  0.19855487014E+04  0.10551915877E+04 0.  0.
        -13    1    3    3    0    0  0.26958222675E+03  0.14589390072E+03 -0.18035163657E+04  0.18293799222E+04  0.10566000000E+00 0.  1.
          4    1    3    3  501    0 -0.25068274091E+02 -0.60906248057E+02  0.14160048792E+03  0.15616877920E+03  0.00000000000E+00 0.  1.
         13    1    1    2    0    0 -0.24451395266E+03 -0.84987652661E+02 -0.15561015279E+03  0.30203394671E+03  0.10566000000E+00 0. -1.
<mgrwt>
<rscale>  1 0.75907356E+03</rscale>
<asrwt>0</asrwt>
<pdfrwt beam="1">  1       21 0.36158202E-01 0.10864802E+04</pdfrwt>
<pdfrwt beam="2">  1        4 0.31577758E+00 0.10864802E+04</pdfrwt>
<totfact> 0.49490447E+01</totfact>
</mgrwt>
</event>
<event>
 6    1  0.5391662E-005  0.1106776E+04  0.7818608E-02  0.8882159E-01
         21   -1    0    0  501  502  0.00000000000E+00  0.00000000000E+00  0.21756883405E+03  0.21756883405E+03  0.00000000000E+00 0. -1.
          4   -1    0    0  502    0 -0.00000000000E+00 -0.00000000000E+00 -0.29184528297E+04  0.29184528297E+04  0.00000000000E+00 0.  1.
    9000010    2    1    2  501    0  0.14523882154E+03  0.44608210969E+03 -0.20988250908E+04  0.23727664640E+04  0.10024322257E+04 0.  0.
        -13    1    3    3    0    0  0.26254355135E+03  0.54140258996E+03 -0.21343121221E+04  0.22175062856E+04  0.10566000000E+00 0.  1.
          4    1    3    3  501    0 -0.11730472981E+03 -0.95320480265E+02  0.35487031381E+02  0.15526017838E+03  0.00000000000E+00 0.  1.
         13    1    1    2    0    0 -0.14523882154E+03 -0.44608210969E+03 -0.60205890490E+03  0.76325519979E+03  0.10566000000E+00 0. -1.
<mgrwt>
<rscale>  1 0.89303487E+03</rscale>
<asrwt>0</asrwt>
<pdfrwt beam="1">  1       21 0.33472130E-01 0.11067764E+04</pdfrwt>
<pdfrwt beam="2">  1        4 0.44899272E+00 0.11067764E+04</pdfrwt>
<totfact> 0.18474937E+01</totfact>
</mgrwt>
</event>
<event>
 6    1  0.5391662E-005  0.1011378E+04  0.7818608E-02  0.9219224E-01
         21   -1    0    0  501  502  0.00000000000E+00  0.00000000000E+00  0.33968532639E+03  0.33968532639E+03  0.00000000000E+00 0.  1.
          4   -1    0    0  502    0 -0.00000000000E+00 -0.00000000000E+00 -0.12253453678E+04  0.12253453678E+04  0.00000000000E+00 0.  1.
    9000010    2    1    2  501    0 -0.14943319300E+03 -0.55699509501E+02 -0.46114495559E+03  0.11115488491E+04  0.99872591808E+03 0.  0.
        -13    1    3    3    0    0 -0.48638662777E+03 -0.31884332972E+03 -0.22883297926E+03  0.62497805093E+03  0.10566000000E+00 0.  1.
          4    1    3    3  501    0  0.33695343477E+03  0.26314382022E+03 -0.23231197632E+03  0.48657079821E+03  0.00000000000E+00 0.  1.
         13    1    1    2    0    0  0.14943319300E+03  0.55699509501E+02 -0.42451508578E+03  0.45348184501E+03  0.10566000000E+00 0. -1.
<mgrwt>
<rscale>  1 0.63732265E+03</rscale>
<asrwt>0</asrwt>
<pdfrwt beam="1">  1       21 0.52259280E-01 0.10113784E+04</pdfrwt>
<pdfrwt beam="2">  1        4 0.18851468E+00 0.10113784E+04</pdfrwt>
<totfact> 0.47514465E+01</totfact>
</mgrwt>
</event>
<event>
 6    1  0.5391662E-005  0.1023252E+04  0.7818608E-02  0.9029455E-01
          4   -1    0    0  502    0 -0.00000000000E+00  0.00000000000E+00  0.54476387797E+03  0.54476387797E+03  0.00000000000E+00 0.  1.
         21   -1    0    0  501  502  0.00000000000E+00 -0.00000000000E+00 -0.11376423694E+04  0.11376423694E+04  0.00000000000E+00 0.  1.
    9000010    2    1    2  501    0 -0.25325694227E+02  0.32413417502E+03 -0.79830784415E+03  0.12978212966E+04  0.97022695780E+03 0.  0.
        -13    1    3    3    0    0 -0.28237559314E+03 -0.23378091414E+03 -0.48585077724E+03  0.60863821793E+03  0.10566000000E+00 0.  1.
          4    1    3    3  501    0  0.25704989891E+03  0.55791508916E+03 -0.31245706690E+03  0.68918307865E+03  0.00000000000E+00 0.  1.
         13    1    1    2    0    0  0.25325694227E+02 -0.32413417502E+03  0.20542935275E+03  0.38458495074E+03  0.10566000000E+00 0. -1.
<mgrwt>
<rscale>  1 0.76824293E+03</rscale>
<asrwt>0</asrwt>
<pdfrwt beam="2">  1       21 0.17502190E+00 0.10232520E+04</pdfrwt>
<pdfrwt beam="1">  1        4 0.83809828E-01 0.10232520E+04</pdfrwt>
<totfact> 0.74385771E+00</totfact>
</mgrwt>
</event>
<event>
 6    1  0.5391662E-005  0.1677012E+04  0.7818608E-02  0.8360926E-01
          4   -1    0    0  502    0 -0.00000000000E+00  0.00000000000E+00  0.32228443150E+04  0.32228443150E+04  0.00000000000E+00 0.  1.
         21   -1    0    0  501  502  0.00000000000E+00 -0.00000000000E+00 -0.82858376908E+03  0.82858376908E+03  0.00000000000E+00 0.  1.
    9000010    2    1    2  501    0 -0.94209068769E+03 -0.96154280611E+03  0.54349305126E+03  0.17628827465E+04  0.10001357154E+04 0.  0.
        -13    1    3    3    0    0 -0.83167594339E+02  0.19939541398E+03  0.15957198925E+03  0.26858631905E+03  0.10566000000E+00 0.  1.
          4    1    3    3  501    0 -0.85892309335E+03 -0.11609382201E+04  0.38392106201E+03  0.14942964274E+04  0.00000000000E+00 0.  1.
         13    1    1    2    0    0  0.94209068769E+03  0.96154280611E+03  0.18507674947E+04  0.22885453376E+04  0.10566000000E+00 0. -1.
<mgrwt>
<rscale>  1 0.15873583E+04</rscale>
<asrwt>0</asrwt>
<pdfrwt beam="2">  1       21 0.12747443E+00 0.16770125E+04</pdfrwt>
<pdfrwt beam="1">  1        4 0.49582220E+00 0.16770125E+04</pdfrwt>
<totfact> 0.41840253E-01</totfact>
</mgrwt>
</event>
<event>
 6    1  0.5391662E-005  0.1075520E+04  0.7818608E-02  0.8956247E-01
          4   -1    0    0  502    0 -0.00000000000E+00  0.00000000000E+00  0.15915755451E+04  0.15915755451E+04  0.00000000000E+00 0.  1.
         21   -1    0    0  501  502  0.00000000000E+00 -0.00000000000E+00 -0.44057187882E+03  0.44057187882E+03  0.00000000000E+00 0.  1.
    9000010    2    1    2  501    0  0.23962005148E+03  0.29066839822E+03  0.32379564033E+03  0.11232035224E+04  0.10073910111E+04 0.  0.
        -13    1    3    3    0    0  0.53746924250E+02  0.62306730089E+03  0.38947312720E+03  0.73674345690E+03  0.10566000000E+00 0.  1.
          4    1    3    3  501    0  0.18587312723E+03 -0.33239890267E+03 -0.65677486864E+02  0.38646006547E+03  0.00000000000E+00 0.  1.
         13    1    1    2    0    0 -0.23962005148E+03 -0.29066839822E+03  0.82720802595E+03  0.90894390155E+03  0.10566000000E+00 0. -1.
<mgrwt>
<rscale>  1 0.82739677E+03</rscale>
<asrwt>0</asrwt>
<pdfrwt beam="2">  1       21 0.67780290E-01 0.10755197E+04</pdfrwt>
<pdfrwt beam="1">  1        4 0.24485777E+00 0.10755197E+04</pdfrwt>
<totfact> 0.18572635E+01</totfact>
</mgrwt>
</event>
<event>
 6    1  0.5391662E-005  0.1077905E+04  0.7818608E-02  0.9011380E-01
         21   -1    0    0  501  502  0.00000000000E+00  0.00000000000E+00  0.46174630443E+03  0.46174630443E+03  0.00000000000E+00 0.  1.
          4   -1    0    0  502    0 -0.00000000000E+00 -0.00000000000E+00 -0.10312040321E+04  0.10312040321E+04  0.00000000000E+00 0.  1.
    9000010    2    1    2  501    0  0.43281982137E+02 -0.29598718614E+03 -0.40416868459E+03  0.11511869341E+04  0.10355661675E+04 0.  0.
        -13    1    3    3    0    0  0.10400536734E+03 -0.56068781803E+03 -0.59122588261E+03  0.82142315596E+03  0.10566000000E+00 0.  1.
          4    1    3    3  501    0 -0.60723385201E+02  0.26470063189E+03  0.18705719802E+03  0.32976377812E+03  0.00000000000E+00 0.  1.
         13    1    1    2    0    0 -0.43281982137E+02  0.29598718614E+03 -0.16528904311E+03  0.34176340247E+03  0.10566000000E+00 0. -1.
<mgrwt>
<rscale>  1 0.78235192E+03</rscale>
<asrwt>0</asrwt>
<pdfrwt beam="1">  1       21 0.71037894E-01 0.10779049E+04</pdfrwt>
<pdfrwt beam="2">  1        4 0.15864677E+00 0.10779049E+04</pdfrwt>
<totfact> 0.29562227E+01</totfact>
</mgrwt>
</event>
<event>
 6    1  0.5391662E-005  0.7216827E+03  0.7818608E-02  0.9522811E-01
         21   -1    0    0  501  502  0.00000000000E+00  0.00000000000E+00  0.44943458317E+03  0.44943458317E+03  0.00000000000E+00 0.  1.
          4   -1    0    0  502    0 -0.00000000000E+00 -0.00000000000E+00 -0.46586186141E+03  0.46586186141E+03  0.00000000000E+00 0.  1.
    9000010    2    1    2  501    0  0.12881286956E+03  0.58039678980E+02  0.10464776016E+03  0.72923049986E+03  0.70771788767E+03 0.  0.
        -13    1    3    3    0    0  0.20833458703E+03 -0.28237966711E+03  0.14010999304E+03  0.37785234929E+03  0.10566000000E+00 0.  1.
          4    1    3    3  501    0 -0.79521717476E+02  0.34041934609E+03 -0.35462232886E+02  0.35137815057E+03  0.00000000000E+00 0.  1.
         13    1    1    2    0    0 -0.12881286956E+03 -0.58039678980E+02 -0.12107503839E+03  0.18606594472E+03  0.10566000000E+00 0. -1.
<mgrwt>
<rscale>  1 0.48004675E+03</rscale>
<asrwt>0</asrwt>
<pdfrwt beam="1">  1       21 0.69143782E-01 0.72168273E+03</pdfrwt>
<pdfrwt beam="2">  1        4 0.71671056E-01 0.72168273E+03</pdfrwt>
<totfact> 0.13445558E+02</totfact>
</mgrwt>
</event>
<event>
 6    1  0.5391662E-005  0.1476083E+04  0.7818608E-02  0.8491541E-01
         21   -1    0    0  501  502  0.00000000000E+00  0.00000000000E+00  0.12243903193E+04  0.12243903193E+04  0.00000000000E+00 0. -1.
          4   -1    0    0  502    0 -0.00000000000E+00 -0.00000000000E+00 -0.13482705794E+04  0.13482705794E+04  0.00000000000E+00 0.  1.
    9000010    2    1    2  501    0  0.10600490380E+04 -0.20773343020E+03 -0.20097217221E+03  0.14897018435E+04  0.10059645261E+04 0.  0.
        -13    1    3    3    0    0  0.93216632799E+03 -0.13250620650E+03  0.28328104563E+03  0.98322943395E+03  0.10566000000E+00 0.  1.
          4    1    3    3  501    0  0.12788270996E+03 -0.75227223693E+02 -0.48425321784E+03  0.50647240960E+03  0.00000000000E+00 0.  1.
         13    1    1    2    0    0 -0.10600490380E+04  0.20773343020E+03  0.77091912106E+02  0.10829590551E+04  0.10566000000E+00 0. -1.
<mgrwt>
<rscale>  1 0.13652444E+04</rscale>
<asrwt>0</asrwt>
<pdfrwt beam="1">  1       21 0.18836774E+00 0.14760833E+04</pdfrwt>
<pdfrwt beam="2">  1        4 0.20742624E+00 0.14760833E+04</pdfrwt>
<totfact> 0.12609076E+00</totfact>
</mgrwt>
</event>
<event>
 6    1  0.5391662E-005  0.1013595E+04  0.7818608E-02  0.9157326E-01
         21   -1    0    0  501  502  0.00000000000E+00  0.00000000000E+00  0.40149562344E+03  0.40149562344E+03  0.00000000000E+00 0.  1.
          4   -1    0    0  502    0 -0.00000000000E+00 -0.00000000000E+00 -0.14632933611E+04  0.14632933611E+04  0.00000000000E+00 0.  1.
    9000010    2    1    2  501    0 -0.17440451553E+03  0.10090339682E+03 -0.27166454650E+03  0.10493695210E+04  0.99336616377E+03 0.  0.
        -13    1    3    3    0    0 -0.14912914123E+03  0.39178786656E+03  0.22309596401E+03  0.47487793534E+03  0.10566000000E+00 0.  1.
          4    1    3    3  501    0 -0.25275374298E+02 -0.29088446973E+03 -0.49476051051E+03  0.57449158570E+03  0.00000000000E+00 0.  1.
         13    1    1    2    0    0  0.17440451553E+03 -0.10090339682E+03 -0.79013319114E+03  0.81541946348E+03  0.10566000000E+00 0. -1.
<mgrwt>
<rscale>  1 0.67680258E+03</rscale>
<asrwt>0</asrwt>
<pdfrwt beam="1">  1       21 0.61768557E-01 0.10135950E+04</pdfrwt>
<pdfrwt beam="2">  1        4 0.22512206E+00 0.10135950E+04</pdfrwt>
<totfact> 0.25885533E+01</totfact>
</mgrwt>
</event>
<event>
 6    1  0.5391662E-005  0.1155576E+04  0.7818608E-02  0.8799538E-01
         21   -1    0    0  501  502  0.00000000000E+00  0.00000000000E+00  0.99536871705E+03  0.99536871705E+03  0.00000000000E+00 0.  1.
          4   -1    0    0  502    0 -0.00000000000E+00 -0.00000000000E+00 -0.76407767295E+03  0.76407767295E+03  0.00000000000E+00 0.  1.
    9000010    2    1    2  501    0  0.56638168950E+03 -0.13785186911E+03  0.22052940173E+03  0.11764307983E+04  0.99777996081E+03 0.  0.
        -13    1    3    3    0    0  0.72032846978E+03  0.99580727870E+02 -0.11639988155E+03  0.73643626291E+03  0.10566000000E+00 0.  1.
          4    1    3    3  501    0 -0.15394678027E+03 -0.23743259698E+03  0.33692928329E+03  0.43999453542E+03  0.00000000000E+00 0.  1.
         13    1    1    2    0    0 -0.56638168950E+03  0.13785186911E+03  0.10761642374E+02  0.58301559167E+03  0.10566000000E+00 0. -1.
<mgrwt>
<rscale>  1 0.97386883E+03</rscale>
<asrwt>0</asrwt>
<pdfrwt beam="1">  1       21 0.15313365E+00 0.11555761E+04</pdfrwt>
<pdfrwt beam="2">  1        4 0.11755041E+00 0.11555761E+04</pdfrwt>
<totfact> 0.59322351E+00</totfact>
</mgrwt>
</event>
<event>
 6    1  0.5391662E-005  0.1128134E+04  0.7818608E-02  0.8844089E-01
         21   -1    0    0  501  502  0.00000000000E+00  0.00000000000E+00  0.20159654057E+03  0.20159654057E+03  0.00000000000E+00 0. -1.
          4   -1    0    0  502    0 -0.00000000000E+00 -0.00000000000E+00 -0.33969634025E+04  0.33969634025E+04  0.00000000000E+00 0.  1.
    9000010    2    1    2  501    0 -0.42384387216E+03 -0.30002138553E+03 -0.20219896969E+04  0.23154112992E+04  0.10015141987E+04 0.  0.
        -13    1    3    3    0    0 -0.36033113310E+03 -0.51064109387E+03 -0.19987718020E+04  0.20942018957E+04  0.10566000000E+00 0.  1.
          4    1    3    3  501    0 -0.63512739058E+02  0.21061970833E+03 -0.23217894913E+02  0.22120940352E+03  0.00000000000E+00 0.  1.
         13    1    1    2    0    0  0.42384387216E+03  0.30002138553E+03 -0.11733771650E+04  0.12831486439E+04  0.10566000000E+00 0. -1.
<mgrwt>
<rscale>  1 0.92922734E+03</rscale>
<asrwt>0</asrwt>
<pdfrwt beam="1">  1       21 0.31014853E-01 0.11281344E+04</pdfrwt>
<pdfrwt beam="2">  1        4 0.52260975E+00 0.11281344E+04</pdfrwt>
<totfact> 0.97218967E+00</totfact>
</mgrwt>
</event>
<event>
 6    1  0.5391662E-005  0.9802336E+03  0.7818608E-02  0.9606931E-01
          4   -1    0    0  502    0 -0.00000000000E+00  0.00000000000E+00  0.43998028076E+03  0.43998028076E+03  0.00000000000E+00 0.  1.
         21   -1    0    0  501  502  0.00000000000E+00 -0.00000000000E+00 -0.76249945849E+03  0.76249945849E+03  0.00000000000E+00 0.  1.
    9000010    2    1    2  501    0 -0.29051348381E+02  0.29925048032E+02 -0.44248032801E+03  0.10754751012E+04  0.97934588542E+03 0.  0.
        -13    1    3    3    0    0  0.39166231987E+03 -0.25916511708E+03 -0.22062409708E+03  0.51888431668E+03  0.10566000000E+00 0.  1.
          4    1    3    3  501    0 -0.42071366825E+03  0.28909016512E+03 -0.22185623094E+03  0.55659078453E+03  0.00000000000E+00 0.  1.
         13    1    1    2    0    0  0.29051348381E+02 -0.29925048032E+02  0.11996115028E+03  0.12700463804E+03  0.10566000000E+00 0. -1.
<mgrwt>
<rscale>  1 0.44519497E+03</rscale>
<asrwt>0</asrwt>
<pdfrwt beam="2">  1       21 0.11730761E+00 0.98023357E+03</pdfrwt>
<pdfrwt beam="1">  1        4 0.67689275E-01 0.98023357E+03</pdfrwt>
<totfact> 0.38954244E+01</totfact>
</mgrwt>
</event>
<event>
 6    1  0.5391662E-005  0.1187164E+04  0.7818608E-02  0.8771288E-01
          4   -1    0    0  502    0 -0.00000000000E+00  0.00000000000E+00  0.44721506227E+04  0.44721506227E+04  0.00000000000E+00 0.  1.
         21   -1    0    0  501  502  0.00000000000E+00 -0.00000000000E+00 -0.22387878271E+03  0.22387878271E+03  0.00000000000E+00 0.  1.
    9000010    2    1    2  501    0 -0.59327871488E+03  0.12423994812E+03  0.16795296885E+04  0.20567394535E+04  0.10207556058E+04 0.  0.
        -13    1    3    3    0    0  0.10896455488E+03  0.13846319651E+02 -0.94934440883E+02  0.14518110765E+03  0.10566000000E+00 0.  1.
          4    1    3    3  501    0 -0.70224326976E+03  0.11039362847E+03  0.17744641294E+04  0.19115583459E+04  0.00000000000E+00 0.  1.
         13    1    1    2    0    0  0.59327871488E+03 -0.12423994812E+03  0.25687421514E+04  0.26392899518E+04  0.10566000000E+00 0. -1.
<mgrwt>
<rscale>  1 0.10035235E+04</rscale>
<asrwt>0</asrwt>
<pdfrwt beam="2">  1       21 0.34442893E-01 0.11871635E+04</pdfrwt>
<pdfrwt beam="1">  1        4 0.68802311E+00 0.11871635E+04</pdfrwt>
<totfact> 0.10453682E+00</totfact>
</mgrwt>
</event>
<event>
 6    1  0.5391662E-005  0.1002253E+04  0.7818608E-02  0.9260662E-01
         21   -1    0    0  501  502  0.00000000000E+00  0.00000000000E+00  0.44766275510E+03  0.44766275510E+03  0.00000000000E+00 0.  1.
          4   -1    0    0  502    0 -0.00000000000E+00 -0.00000000000E+00 -0.75016328330E+03  0.75016328330E+03  0.00000000000E+00 0.  1.
    9000010    2    1    2  501    0 -0.13911618655E+03  0.13426441020E+02 -0.19391797236E+03  0.10208408264E+04  0.99246069450E+03 0.  0.
        -13    1    3    3    0    0  0.27612654570E+03  0.10439670300E+03 -0.43985487217E+03  0.52973281999E+03  0.10566000000E+00 0.  1.
          4    1    3    3  501    0 -0.41524273225E+03 -0.90970261977E+02  0.24593689981E+03  0.49110800639E+03  0.00000000000E+00 0.  1.
         13    1    1    2    0    0  0.13911618655E+03 -0.13426441020E+02 -0.10858255585E+03  0.17698521202E+03  0.10566000000E+00 0. -1.
<mgrwt>
<rscale>  1 0.61246449E+03</rscale>
<asrwt>0</asrwt>
<pdfrwt beam="1">  1       21 0.68871193E-01 0.10022534E+04</pdfrwt>
<pdfrwt beam="2">  1        4 0.11540974E+00 0.10022534E+04</pdfrwt>
<totfact> 0.52579599E+01</totfact>
</mgrwt>
</event>
<event>
 6    1  0.5391662E-005  0.1028614E+04  0.7818608E-02  0.9171046E-01
         21   -1    0    0  501  502  0.00000000000E+00  0.00000000000E+00  0.30021341061E+03  0.30021341061E+03  0.00000000000E+00 0.  1.
          4   -1    0    0  502    0 -0.00000000000E+00 -0.00000000000E+00 -0.16100027305E+04  0.16100027305E+04  0.00000000000E+00 0.  1.
    9000010    2    1    2  501    0 -0.16948014935E+03 -0.68332208508E+02 -0.62981427664E+03  0.12061146695E+04  0.10122518269E+04 0.  0.
        -13    1    3    3    0    0  0.13207237666E+03 -0.36091219935E+03 -0.68189136026E+03  0.78273658831E+03  0.10566000000E+00 0.  1.
          4    1    3    3  501    0 -0.30155252601E+03  0.29257999085E+03  0.52077083617E+02  0.42337808118E+03  0.00000000000E+00 0.  1.
         13    1    1    2    0    0  0.16948014935E+03  0.68332208508E+02 -0.67997504322E+03  0.70410147160E+03  0.10566000000E+00 0. -1.
<mgrwt>
<rscale>  1 0.66779926E+03</rscale>
<asrwt>0</asrwt>
<pdfrwt beam="1">  1       21 0.46186678E-01 0.10286139E+04</pdfrwt>
<pdfrwt beam="2">  1        4 0.24769273E+00 0.10286139E+04</pdfrwt>
<totfact> 0.43821457E+01</totfact>
</mgrwt>
</event>
<event>
 6    1  0.5391662E-005  0.1111976E+04  0.7818608E-02  0.9384388E-01
         21   -1    0    0  501  502  0.00000000000E+00  0.00000000000E+00  0.10547465992E+04  0.10547465992E+04  0.00000000000E+00 0.  1.
          4   -1    0    0  502    0 -0.00000000000E+00 -0.00000000000E+00 -0.40938833778E+03  0.40938833778E+03  0.00000000000E+00 0.  1.
    9000010    2    1    2  501    0 -0.33490808615E+02  0.54746952497E+02  0.75008180409E+03  0.13413102870E+04  0.11101223852E+04 0.  0.
        -13    1    3    3    0    0 -0.24989089889E+03  0.44622698728E+03  0.73285823374E+03  0.89366950684E+03  0.10566000000E+00 0.  1.
          4    1    3    3  501    0  0.21640009028E+03 -0.39148003478E+03  0.17223570347E+02  0.44764078018E+03  0.00000000000E+00 0.  1.
         13    1    1    2    0    0  0.33490808615E+02 -0.54746952497E+02 -0.10472354271E+03  0.12282464993E+03  0.10566000000E+00 0. -1.
<mgrwt>
<rscale>  1 0.54502807E+03</rscale>
<asrwt>0</asrwt>
<pdfrwt beam="1">  1       21 0.16226871E+00 0.11119760E+04</pdfrwt>
<pdfrwt beam="2">  1        4 0.62982822E-01 0.11119760E+04</pdfrwt>
<totfact> 0.17128864E+01</totfact>
</mgrwt>
</event>
<event>
 6    1  0.5391662E-005  0.1152059E+04  0.7818608E-02  0.8792751E-01
          4   -1    0    0  502    0 -0.00000000000E+00  0.00000000000E+00  0.14829563783E+04  0.14829563783E+04  0.00000000000E+00 0.  1.
         21   -1    0    0  501  502  0.00000000000E+00 -0.00000000000E+00 -0.54353623325E+03  0.54353623325E+03  0.00000000000E+00 0. -1.
    9000010    2    1    2  501    0 -0.15167629402E+03 -0.58612607153E+03  0.80744155855E+03  0.14068412351E+04  0.98014841751E+03 0.  0.
        -13    1    3    3    0    0 -0.25395252793E+02  0.26723075224E+03  0.84808682881E+02  0.28151326375E+03  0.10566000000E+00 0.  1.
          4    1    3    3  501    0 -0.12628104123E+03 -0.85335682378E+03  0.72263287567E+03  0.11253279713E+04  0.00000000000E+00 0.  1.
         13    1    1    2    0    0  0.15167629402E+03  0.58612607153E+03  0.13197858650E+03  0.61965137647E+03  0.10566000000E+00 0. -1.
<mgrwt>
<rscale>  1 0.98089546E+03</rscale>
<asrwt>0</asrwt>
<pdfrwt beam="2">  1       21 0.83620959E-01 0.11520592E+04</pdfrwt>
<pdfrwt beam="1">  1        4 0.22814713E+00 0.11520592E+04</pdfrwt>
<totfact> 0.12171448E+01</totfact>
</mgrwt>
</event>
<event>
 6    1  0.5391662E-005  0.1128268E+04  0.7818608E-02  0.8793678E-01
         21   -1    0    0  501  502  0.00000000000E+00  0.00000000000E+00  0.92410727423E+03  0.92410727423E+03  0.00000000000E+00 0. -1.
          4   -1    0    0  502    0 -0.00000000000E+00 -0.00000000000E+00 -0.87900729979E+03  0.87900729979E+03  0.00000000000E+00 0.  1.
    9000010    2    1    2  501    0 -0.63615436967E+03 -0.86576009393E+02  0.19204177862E+03  0.11444950386E+04  0.92779365227E+03 0.  0.
        -13    1    3    3    0    0 -0.10944296563E+03  0.85600319039E+02 -0.34554908693E+03  0.37243705506E+03  0.10566000000E+00 0.  1.
          4    1    3    3  501    0 -0.52671140405E+03 -0.17217632843E+03  0.53759086555E+03  0.77205798354E+03  0.00000000000E+00 0.  1.
         13    1    1    2    0    0  0.63615436967E+03  0.86576009393E+02 -0.14694180419E+03  0.65861953542E+03  0.10566000000E+00 0. -1.
<mgrwt>
<rscale>  1 0.97993240E+03</rscale>
<asrwt>0</asrwt>
<pdfrwt beam="1">  1       21 0.14217035E+00 0.11282681E+04</pdfrwt>
<pdfrwt beam="2">  1        4 0.13523189E+00 0.11282681E+04</pdfrwt>
<totfact> 0.59353367E+00</totfact>
</mgrwt>
</event>
<event>
 6    1  0.5391662E-005  0.1123231E+04  0.7818608E-02  0.8933560E-01
          4   -1    0    0  502    0 -0.00000000000E+00  0.00000000000E+00  0.22081752479E+04  0.22081752479E+04  0.00000000000E+00 0.  1.
         21   -1    0    0  501  502  0.00000000000E+00 -0.00000000000E+00 -0.28352422132E+03  0.28352422132E+03  0.00000000000E+00 0.  1.
    9000010    2    1    2  501    0 -0.20796231305E+03  0.29743741460E+03  0.10211224044E+04  0.15180047935E+04  0.10629817727E+04 0.  0.
        -13    1    3    3    0    0  0.25286926952E+03  0.45893797407E+03  0.85389956425E+03  0.10018539856E+04  0.10566000000E+00 0.  1.
          4    1    3    3  501    0 -0.46083158257E+03 -0.16150055947E+03  0.16722284013E+03  0.51615080787E+03  0.00000000000E+00 0.  1.
         13    1    1    2    0    0  0.20796231305E+03 -0.29743741460E+03  0.90352862220E+03  0.97369467574E+03  0.10566000000E+00 0. -1.
<mgrwt>
<rscale>  1 0.84685128E+03</rscale>
<asrwt>0</asrwt>
<pdfrwt beam="2">  1       21 0.43619112E-01 0.11232309E+04</pdfrwt>
<pdfrwt beam="1">  1        4 0.33971926E+00 0.11232309E+04</pdfrwt>
<totfact> 0.28190166E+01</totfact>
</mgrwt>
</event>
<event>
 6    1  0.5391662E-005  0.1261417E+04  0.7818608E-02  0.8670285E-01
          4   -1    0    0  502    0 -0.00000000000E+00  0.00000000000E+00  0.32871013852E+04  0.32871013852E+04  0.00000000000E+00 0.  1.
         21   -1    0    0  501  502  0.00000000000E+00 -0.00000000000E+00 -0.31755103167E+03  0.31755103167E+03  0.00000000000E+00 0. -1.
    9000010    2    1    2  501    0  0.77644721894E+03 -0.82683472634E+02  0.18912248146E+04  0.22733024180E+04  0.99068952949E+03 0.  0.
        -13    1    3    3    0    0 -0.89956659046E+02 -0.32225338141E+03  0.74464727667E+03  0.81635716457E+03  0.10566000000E+00 0.  1.
          4    1    3    3  501    0  0.86640387799E+03  0.23956990877E+03  0.11465775380E+04  0.14569452535E+04  0.00000000000E+00 0.  1.
         13    1    1    2    0    0 -0.77644721894E+03  0.82683472634E+02  0.10783255389E+04  0.13313499989E+04  0.10566000000E+00 0. -1.
<mgrwt>
<rscale>  1 0.11188817E+04</rscale>
<asrwt>0</asrwt>
<pdfrwt beam="2">  1       21 0.48854007E-01 0.12614169E+04</pdfrwt>
<pdfrwt beam="1">  1        4 0.50570788E+00 0.12614169E+04</pdfrwt>
<totfact> 0.43399270E+00</totfact>
</mgrwt>
</event>
<event>
 6    1  0.5391662E-005  0.1043679E+04  0.7818608E-02  0.9244220E-01
         21   -1    0    0  501  502  0.00000000000E+00  0.00000000000E+00  0.21888805248E+03  0.21888805248E+03  0.00000000000E+00 0.  1.
          4   -1    0    0  502    0 -0.00000000000E+00 -0.00000000000E+00 -0.16364789458E+04  0.16364789458E+04  0.00000000000E+00 0.  1.
    9000010    2    1    2  501    0  0.13156662816E+03  0.81186041268E+01 -0.11256226463E+04  0.15350216256E+04  0.10353208970E+04 0.  0.
        -13    1    3    3    0    0  0.44027144126E+03 -0.35599071444E+03 -0.62274228778E+03  0.84165093650E+03  0.10566000000E+00 0.  1.
          4    1    3    3  501    0 -0.30870481310E+03  0.36410931857E+03 -0.50288035854E+03  0.69337068910E+03  0.00000000000E+00 0.  1.
         13    1    1    2    0    0 -0.13156662816E+03 -0.81186041268E+01 -0.29196824698E+03  0.32034537266E+03  0.10566000000E+00 0. -1.
<mgrwt>
<rscale>  1 0.62218262E+03</rscale>
<asrwt>0</asrwt>
<pdfrwt beam="1">  1       21 0.33675085E-01 0.10436786E+04</pdfrwt>
<pdfrwt beam="2">  1        4 0.25176599E+00 0.10436786E+04</pdfrwt>
<totfact> 0.83933452E+01</totfact>
</mgrwt>
</event>
<event>
 6    1  0.5391662E-005  0.1026361E+04  0.7818608E-02  0.9085243E-01
          4   -1    0    0  502    0 -0.00000000000E+00  0.00000000000E+00  0.11014316666E+04  0.11014316666E+04  0.00000000000E+00 0.  1.
         21   -1    0    0  501  502  0.00000000000E+00 -0.00000000000E+00 -0.45071247340E+03  0.45071247340E+03  0.00000000000E+00 0.  1.
    9000010    2    1    2  501    0 -0.25045220719E+03 -0.61176990306E+02  0.21925134605E+03  0.10495175922E+04  0.99345210829E+03 0.  0.
        -13    1    3    3    0    0  0.34256541379E+03 -0.21180670064E+03  0.10016915769E+02  0.40288148496E+03  0.10566000000E+00 0.  1.
          4    1    3    3  501    0 -0.59301762098E+03  0.15062971033E+03  0.20923443029E+03  0.64663610728E+03  0.00000000000E+00 0.  1.
         13    1    1    2    0    0  0.25045220719E+03  0.61176990306E+02  0.43146784715E+03  0.50262654776E+03  0.10566000000E+00 0. -1.
<mgrwt>
<rscale>  1 0.72661158E+03</rscale>
<asrwt>0</asrwt>
<pdfrwt beam="2">  1       21 0.69340380E-01 0.10263606E+04</pdfrwt>
<pdfrwt beam="1">  1        4 0.16945103E+00 0.10263606E+04</pdfrwt>
<totfact> 0.28679759E+01</totfact>
</mgrwt>
</event>
<event>
 6    1  0.5391662E-005  0.1081578E+04  0.7818608E-02  0.8934824E-01
          4   -1    0    0  502    0 -0.00000000000E+00  0.00000000000E+00  0.19662849585E+04  0.19662849585E+04  0.00000000000E+00 0.  1.
         21   -1    0    0  501  502  0.00000000000E+00 -0.00000000000E+00 -0.31912104750E+03  0.31912104750E+03  0.00000000000E+00 0.  1.
    9000010    2    1    2  501    0 -0.62364884335E+02  0.39955076215E+03  0.15120135545E+04  0.18590307952E+04  0.10031352442E+04 0.  0.
        -13    1    3    3    0    0 -0.13543658741E+03 -0.30198176825E+03  0.25558265231E+03  0.41816092703E+03  0.10566000000E+00 0.  1.
          4    1    3    3  501    0  0.73071703074E+02  0.70153253040E+03  0.12564309022E+04  0.14408698682E+04  0.00000000000E+00 0.  1.
         13    1    1    2    0    0  0.62364884335E+02 -0.39955076215E+03  0.13515035644E+03  0.42637521075E+03  0.10566000000E+00 0. -1.
<mgrwt>
<rscale>  1 0.84575217E+03</rscale>
<asrwt>0</asrwt>
<pdfrwt beam="2">  1       21 0.49095547E-01 0.10815778E+04</pdfrwt>
<pdfrwt beam="1">  1        4 0.30250537E+00 0.10815778E+04</pdfrwt>
<totfact> 0.27829908E+01</totfact>
</mgrwt>
</event>
<event>
 6    1  0.5391662E-005  0.1789959E+04  0.7818608E-02  0.8299371E-01
         21   -1    0    0  501  502  0.00000000000E+00  0.00000000000E+00  0.16539587354E+04  0.16539587354E+04  0.00000000000E+00 0. -1.
          4   -1    0    0  502    0 -0.00000000000E+00 -0.00000000000E+00 -0.16935965828E+04  0.16935965828E+04  0.00000000000E+00 0.  1.
    9000010    2    1    2  501    0  0.71030020053E+03  0.12992642920E+04 -0.37614130817E+03  0.18290532057E+04  0.10056536531E+04 0.  0.
        -13    1    3    3    0    0  0.46732826509E+03  0.17993768690E+02  0.13862617404E+02  0.46787997007E+03  0.10566000000E+00 0.  1.
          4    1    3    3  501    0  0.24297193544E+03  0.12812705233E+04 -0.39000392558E+03  0.13611732356E+04  0.00000000000E+00 0.  1.
         13    1    1    2    0    0 -0.71030020053E+03 -0.12992642920E+04  0.33650346077E+03  0.15185021125E+04  0.10566000000E+00 0. -1.
<mgrwt>
<rscale>  1 0.17070752E+04</rscale>
<asrwt>0</asrwt>
<pdfrwt beam="1">  1       21 0.25445519E+00 0.17899590E+04</pdfrwt>
<pdfrwt beam="2">  1        4 0.26055332E+00 0.17899590E+04</pdfrwt>
<totfact> 0.28193957E-01</totfact>
</mgrwt>
</event>
<event>
 6    1  0.5391662E-005  0.1188025E+04  0.7818608E-02  0.8752850E-01
          4   -1    0    0  502    0 -0.00000000000E+00  0.00000000000E+00  0.21237283789E+04  0.21237283789E+04  0.00000000000E+00 0.  1.
         21   -1    0    0  501  502  0.00000000000E+00 -0.00000000000E+00 -0.40024332780E+03  0.40024332780E+03  0.00000000000E+00 0. -1.
    9000010    2    1    2  501    0 -0.50085774171E+03 -0.42110842616E+03  0.10617376720E+04  0.15933265601E+04  0.99157040037E+03 0.  0.
        -13    1    3    3    0    0 -0.67529572318E+03  0.58291724212E+02  0.61419865148E+03  0.91469242562E+03  0.10566000000E+00 0.  1.
          4    1    3    3  501    0  0.17443798147E+03 -0.47940015037E+03  0.44753902054E+03  0.67863413447E+03  0.00000000000E+00 0.  1.
         13    1    1    2    0    0  0.50085774171E+03  0.42110842616E+03  0.66174737908E+03  0.93064514661E+03  0.10566000000E+00 0. -1.
<mgrwt>
<rscale>  1 0.10234668E+04</rscale>
<asrwt>0</asrwt>
<pdfrwt beam="2">  1       21 0.61575898E-01 0.11880247E+04</pdfrwt>
<pdfrwt beam="1">  1        4 0.32672744E+00 0.11880247E+04</pdfrwt>
<totfact> 0.14103835E+01</totfact>
</mgrwt>
</event>
<event>
 6    1  0.5391662E-005  0.1003621E+04  0.7818608E-02  0.9295875E-01
          4   -1    0    0  502    0 -0.00000000000E+00  0.00000000000E+00  0.20270497382E+04  0.20270497382E+04  0.00000000000E+00 0.  1.
         21   -1    0    0  501  502  0.00000000000E+00 -0.00000000000E+00 -0.15918761029E+03  0.15918761029E+03  0.00000000000E+00 0.  1.
    9000010    2    1    2  501    0 -0.84935926184E+02 -0.87192885924E+02  0.15574276394E+04  0.18527912603E+04  0.99621177035E+03 0.  0.
        -13    1    3    3    0    0  0.31788935069E+03  0.84788952427E+02  0.12014942108E+03  0.35025519309E+03  0.10566000000E+00 0.  1.
          4    1    3    3  501    0 -0.40282527688E+03 -0.17198183835E+03  0.14372782183E+04  0.15025360672E+04  0.00000000000E+00 0.  1.
         13    1    1    2    0    0  0.84935926184E+02  0.87192885924E+02  0.31043448850E+03  0.33344608818E+03  0.10566000000E+00 0. -1.
<mgrwt>
<rscale>  1 0.59227205E+03</rscale>
<asrwt>0</asrwt>
<pdfrwt beam="2">  1       21 0.24490403E-01 0.10036207E+04</pdfrwt>
<pdfrwt beam="1">  1        4 0.31185379E+00 0.10036207E+04</pdfrwt>
<totfact> 0.11377557E+02</totfact>
</mgrwt>
</event>
<event>
 6    1  0.5391662E-005  0.1098068E+04  0.7818608E-02  0.8844703E-01
         21   -1    0    0  501  502  0.00000000000E+00  0.00000000000E+00  0.53008860515E+03  0.53008860515E+03  0.00000000000E+00 0.  1.
          4   -1    0    0  502    0 -0.00000000000E+00 -0.00000000000E+00 -0.20152141503E+04  0.20152141503E+04  0.00000000000E+00 0.  1.
    9000010    2    1    2  501    0  0.55742076248E+03  0.68975863794E+02 -0.16466100951E+03  0.11103455515E+04  0.94354566363E+03 0.  0.
        -13    1    3    3    0    0 -0.13406876990E+03 -0.24092813183E+03  0.12024246414E+03  0.30079737551E+03  0.10566000000E+00 0.  1.
          4    1    3    3  501    0  0.69148953238E+03  0.30990399562E+03 -0.28490347364E+03  0.80954817595E+03  0.00000000000E+00 0.  1.
         13    1    1    2    0    0 -0.55742076248E+03 -0.68975863794E+02 -0.13204645356E+04  0.14349572040E+04  0.10566000000E+00 0. -1.
<mgrwt>
<rscale>  1 0.92863006E+03</rscale>
<asrwt>0</asrwt>
<pdfrwt beam="1">  1       21 0.81552093E-01 0.10980683E+04</pdfrwt>
<pdfrwt beam="2">  1        4 0.31003294E+00 0.10980683E+04</pdfrwt>
<totfact> 0.81359727E+00</totfact>
</mgrwt>
</event>
<event>
 6    1  0.5391662E-005  0.1065610E+04  0.7818608E-02  0.9015113E-01
         21   -1    0    0  501  502  0.00000000000E+00  0.00000000000E+00  0.64096979002E+03  0.64096979002E+03  0.00000000000E+00 0.  1.
          4   -1    0    0  502    0 -0.00000000000E+00 -0.00000000000E+00 -0.74056594535E+03  0.74056594535E+03  0.00000000000E+00 0.  1.
    9000010    2    1    2  501    0 -0.11772381135E+03  0.28134572460E+03 -0.17734085268E+02  0.10657577719E+04  0.10210341905E+04 0.  0.
        -13    1    3    3    0    0 -0.23509864137E+03 -0.21628719110E+03  0.32065943617E+03  0.45263009774E+03  0.10566000000E+00 0.  1.
          4    1    3    3  501    0  0.11737483002E+03  0.49763291570E+03 -0.33839352144E+03  0.61312767420E+03  0.00000000000E+00 0.  1.
         13    1    1    2    0    0  0.11772381135E+03 -0.28134572460E+03 -0.81862070065E+02  0.31577796343E+03  0.10566000000E+00 0. -1.
<mgrwt>
<rscale>  1 0.77941276E+03</rscale>
<asrwt>0</asrwt>
<pdfrwt beam="1">  1       21 0.98610737E-01 0.10656102E+04</pdfrwt>
<pdfrwt beam="2">  1        4 0.11393322E+00 0.10656102E+04</pdfrwt>
<totfact> 0.22000705E+01</totfact>
</mgrwt>
</event>
<event>
 6    1  0.5391662E-005  0.1009995E+04  0.7818608E-02  0.9219372E-01
          4   -1    0    0  502    0 -0.00000000000E+00  0.00000000000E+00  0.43206254877E+03  0.43206254877E+03  0.00000000000E+00 0.  1.
         21   -1    0    0  501  502  0.00000000000E+00 -0.00000000000E+00 -0.10997920211E+04  0.10997920211E+04  0.00000000000E+00 0.  1.
    9000010    2    1    2  501    0 -0.15856772450E+03  0.21666766164E+02 -0.82751182287E+03  0.13057051000E+04  0.99723458588E+03 0.  0.
        -13    1    3    3    0    0  0.38414291444E+03  0.98700436098E+02 -0.12749452779E+03  0.41660823393E+03  0.10566000000E+00 0.  1.
          4    1    3    3  501    0 -0.54271063894E+03 -0.77033669934E+02 -0.70001729507E+03  0.88909686611E+03  0.00000000000E+00 0.  1.
         13    1    1    2    0    0  0.15856772450E+03 -0.21666766164E+02  0.15978235052E+03  0.22614946985E+03  0.10566000000E+00 0. -1.
<mgrwt>
<rscale>  1 0.63723171E+03</rscale>
<asrwt>0</asrwt>
<pdfrwt beam="2">  1       21 0.16919877E+00 0.10099950E+04</pdfrwt>
<pdfrwt beam="1">  1        4 0.66471163E-01 0.10099950E+04</pdfrwt>
<totfact> 0.13461909E+01</totfact>
</mgrwt>
</event>
<event>
 6    1  0.5391662E-005  0.9953457E+03  0.7818608E-02  0.9077738E-01
         21   -1    0    0  501  502  0.00000000000E+00  0.00000000000E+00  0.31550170694E+03  0.31550170694E+03  0.00000000000E+00 0.  1.
          4   -1    0    0  502    0 -0.00000000000E+00 -0.00000000000E+00 -0.13176348474E+04  0.13176348474E+04  0.00000000000E+00 0.  1.
    9000010    2    1    2  501    0  0.52013187483E+02 -0.28655145761E+03 -0.72785892084E+03  0.12330822227E+04  0.95178571634E+03 0.  0.
        -13    1    3    3    0    0 -0.51406552539E+01 -0.63784025550E+03 -0.43358625972E+03  0.77127405872E+03  0.10566000000E+00 0.  1.
          4    1    3    3  501    0  0.57153842737E+02  0.35128879789E+03 -0.29427266112E+03  0.46180816401E+03  0.00000000000E+00 0.  1.
         13    1    1    2    0    0 -0.52013187483E+02  0.28655145761E+03 -0.27427421960E+03  0.40005433160E+03  0.10566000000E+00 0. -1.
<mgrwt>
<rscale>  1 0.73205029E+03</rscale>
<asrwt>0</asrwt>
<pdfrwt beam="1">  1       21 0.48538725E-01 0.99534575E+03</pdfrwt>
<pdfrwt beam="2">  1        4 0.20271305E+00 0.99534575E+03</pdfrwt>
<totfact> 0.50999816E+01</totfact>
</mgrwt>
</event>
<event>
 6    1  0.5391662E-005  0.1001968E+04  0.7818608E-02  0.9287895E-01
         21   -1    0    0  501  502  0.00000000000E+00  0.00000000000E+00  0.15774143232E+03  0.15774143232E+03  0.00000000000E+00 0.  1.
          4   -1    0    0  502    0 -0.00000000000E+00 -0.00000000000E+00 -0.20462578941E+04  0.20462578941E+04  0.00000000000E+00 0.  1.
    9000010    2    1    2  501    0  0.17154332333E+02 -0.12491767508E+03 -0.17511269207E+04  0.20175198535E+04  0.99400310365E+03 0.  0.
        -13    1    3    3    0    0 -0.30092339594E+02 -0.12749086199E+03 -0.18777661636E+04  0.18823297387E+04  0.10566000000E+00 0.  1.
          4    1    3    3  501    0  0.47246671926E+02  0.25731869073E+01  0.12663924289E+03  0.13519011480E+03  0.00000000000E+00 0.  1.
         13    1    1    2    0    0 -0.17154332333E+02  0.12491767508E+03 -0.13738954102E+03  0.18647947290E+03  0.10566000000E+00 0. -1.
<mgrwt>
<rscale>  1 0.59677529E+03</rscale>
<asrwt>0</asrwt>
<pdfrwt beam="1">  1       21 0.24267914E-01 0.10019685E+04</pdfrwt>
<pdfrwt beam="2">  1        4 0.31480889E+00 0.10019685E+04</pdfrwt>
<totfact> 0.11376977E+02</totfact>
</mgrwt>
</event>
<event>
 6    1  0.5391662E-005  0.9589816E+03  0.7818608E-02  0.9719127E-01
         21   -1    0    0  501  502  0.00000000000E+00  0.00000000000E+00  0.19871901364E+03  0.19871901364E+03  0.00000000000E+00 0.  1.
          4   -1    0    0  502    0 -0.00000000000E+00 -0.00000000000E+00 -0.12497690541E+04  0.12497690541E+04  0.00000000000E+00 0.  1.
    9000010    2    1    2  501    0 -0.28626205598E+02  0.91157645575E+01 -0.97903643065E+03  0.13704590477E+04  0.95851088257E+03 0.  0.
        -13    1    3    3    0    0 -0.74269438725E+02  0.36643186070E+03 -0.54002193954E+02  0.37776249970E+03  0.10566000000E+00 0.  1.
          4    1    3    3  501    0  0.45643233127E+02 -0.35731609614E+03 -0.92503423669E+03  0.99269654797E+03  0.00000000000E+00 0.  1.
         13    1    1    2    0    0  0.28626205598E+02 -0.91157645575E+01 -0.72013609817E+02  0.78029020071E+02  0.10566000000E+00 0. -1.
<mgrwt>
<rscale>  1 0.40345276E+03</rscale>
<asrwt>0</asrwt>
<pdfrwt beam="1">  1       21 0.30572156E-01 0.95898158E+03</pdfrwt>
<pdfrwt beam="2">  1        4 0.19227216E+00 0.95898158E+03</pdfrwt>
<totfact> 0.14619001E+02</totfact>
</mgrwt>
</event>
<event>
 6    1  0.5391662E-005  0.1028651E+04  0.7818608E-02  0.9096411E-01
         21   -1    0    0  501  502  0.00000000000E+00  0.00000000000E+00  0.42704188479E+03  0.42704188479E+03  0.00000000000E+00 0.  1.
          4   -1    0    0  502    0 -0.00000000000E+00 -0.00000000000E+00 -0.10235745086E+04  0.10235745086E+04  0.00000000000E+00 0.  1.
    9000010    2    1    2  501    0  0.17059929006E+03 -0.17584529597E+03 -0.31154867416E+03  0.10747952277E+04  0.99904780624E+03 0.  0.
        -13    1    3    3    0    0 -0.27799869866E+03  0.18542475670E+03 -0.36677016845E+03  0.49617132574E+03  0.10566000000E+00 0.  1.
          4    1    3    3  501    0  0.44859798872E+03 -0.36127005267E+03  0.55221494295E+02  0.57862390192E+03  0.00000000000E+00 0.  1.
         13    1    1    2    0    0 -0.17059929006E+03  0.17584529597E+03 -0.28498394966E+03  0.37582116574E+03  0.10566000000E+00 0. -1.
<mgrwt>
<rscale>  1 0.71860972E+03</rscale>
<asrwt>0</asrwt>
<pdfrwt beam="1">  1       21 0.65698753E-01 0.10286507E+04</pdfrwt>
<pdfrwt beam="2">  1        4 0.15747300E+00 0.10286507E+04</pdfrwt>
<totfact> 0.36068685E+01</totfact>
</mgrwt>
</event>
<event>
 6    1  0.5391662E-005  0.1022178E+04  0.7818608E-02  0.9055226E-01
         21   -1    0    0  501  502  0.00000000000E+00  0.00000000000E+00  0.62050367593E+03  0.62050367593E+03  0.00000000000E+00 0.  1.
          4   -1    0    0  502    0 -0.00000000000E+00 -0.00000000000E+00 -0.88847771195E+03  0.88847771195E+03  0.00000000000E+00 0.  1.
    9000010    2    1    2  501    0 -0.15658776940E+03  0.24900193185E+03  0.11218149649E+03  0.10283152546E+04  0.97894120516E+03 0.  0.
        -13    1    3    3    0    0  0.11721445661E+03 -0.34375060008E+03 -0.13316561004E+02  0.36342956106E+03  0.10566000000E+00 0.  1.
          4    1    3    3  501    0 -0.27380222601E+03  0.59275253193E+03  0.12549805749E+03  0.66488569357E+03  0.00000000000E+00 0.  1.
         13    1    1    2    0    0  0.15658776940E+03 -0.24900193185E+03 -0.38015553251E+03  0.48066613325E+03  0.10566000000E+00 0. -1.
<mgrwt>
<rscale>  1 0.74866147E+03</rscale>
<asrwt>0</asrwt>
<pdfrwt beam="1">  1       21 0.95462104E-01 0.10221779E+04</pdfrwt>
<pdfrwt beam="2">  1        4 0.13668888E+00 0.10221779E+04</pdfrwt>
<totfact> 0.17790695E+01</totfact>
</mgrwt>
</event>
<event>
 6    1  0.5391662E-005  0.1050614E+04  0.7818608E-02  0.9056722E-01
         21   -1    0    0  501  502  0.00000000000E+00  0.00000000000E+00  0.35213931789E+03  0.35213931789E+03  0.00000000000E+00 0.  1.
          4   -1    0    0  502    0 -0.00000000000E+00 -0.00000000000E+00 -0.12759968226E+04  0.12759968226E+04  0.00000000000E+00 0.  1.
    9000010    2    1    2  501    0  0.31865528241E+02 -0.26739616174E+03 -0.84288109159E+03  0.13469363719E+04  0.10155160935E+04 0.  0.
        -13    1    3    3    0    0  0.16255979202E+03  0.30312619197E+03 -0.64161500316E+03  0.72799793796E+03  0.10566000000E+00 0.  1.
          4    1    3    3  501    0 -0.13069426378E+03 -0.57052235371E+03 -0.20126608843E+03  0.61893843395E+03  0.00000000000E+00 0.  1.
         13    1    1    2    0    0 -0.31865528241E+02  0.26739616174E+03 -0.80976413132E+02  0.28119976859E+03  0.10566000000E+00 0. -1.
<mgrwt>
<rscale>  1 0.74754383E+03</rscale>
<asrwt>0</asrwt>
<pdfrwt beam="1">  1       21 0.54175279E-01 0.10506137E+04</pdfrwt>
<pdfrwt beam="2">  1        4 0.19630721E+00 0.10506137E+04</pdfrwt>
<totfact> 0.41447250E+01</totfact>
</mgrwt>
</event>
<event>
 6    1  0.5391662E-005  0.1016240E+04  0.7818608E-02  0.9139642E-01
          4   -1    0    0  502    0 -0.00000000000E+00  0.00000000000E+00  0.21087925337E+04  0.21087925337E+04  0.00000000000E+00 0.  1.
         21   -1    0    0  501  502  0.00000000000E+00 -0.00000000000E+00 -0.19499990596E+03  0.19499990596E+03  0.00000000000E+00 0.  1.
    9000010    2    1    2  501    0  0.54427321859E+02  0.20723377320E+03  0.12775780097E+04  0.16324674651E+04  0.99339633760E+03 0.  0.
        -13    1    3    3    0    0  0.31936211150E+03 -0.27837571336E+03  0.33727840671E+03  0.54151817223E+03  0.10566000000E+00 0.  1.
          4    1    3    3  501    0 -0.26493478964E+03  0.48560948657E+03  0.94029960296E+03  0.10909492928E+04  0.00000000000E+00 0.  1.
         13    1    1    2    0    0 -0.54427321859E+02 -0.20723377320E+03  0.63621461804E+03  0.67132497458E+03  0.10566000000E+00 0. -1.
<mgrwt>
<rscale>  1 0.68862627E+03</rscale>
<asrwt>0</asrwt>
<pdfrwt beam="2">  1       21 0.29999987E-01 0.10162404E+04</pdfrwt>
<pdfrwt beam="1">  1        4 0.32442960E+00 0.10162404E+04</pdfrwt>
<totfact> 0.69516384E+01</totfact>
</mgrwt>
</event>
<event>
 6    1  0.5391662E-005  0.1039135E+04  0.7818608E-02  0.9041306E-01
          4   -1    0    0  502    0 -0.00000000000E+00  0.00000000000E+00  0.34072370094E+04  0.34072370094E+04  0.00000000000E+00 0.  1.
         21   -1    0    0  501  502  0.00000000000E+00 -0.00000000000E+00 -0.14272570857E+03  0.14272570857E+03  0.00000000000E+00 0. -1.
    9000010    2    1    2  501    0 -0.16764823982E+02 -0.29554598393E+03  0.28990261298E+04  0.30796352689E+04  0.99607851103E+03 0.  0.
        -13    1    3    3    0    0  0.34449779863E+03 -0.39565022584E+03  0.86735085040E+03  0.10136643149E+04  0.10566000000E+00 0.  1.
          4    1    3    3  501    0 -0.36126262261E+03  0.10010424190E+03  0.20316752794E+04  0.20659709540E+04  0.00000000000E+00 0.  1.
         13    1    1    2    0    0  0.16764823982E+02  0.29554598393E+03  0.36548517097E+03  0.47032744902E+03  0.10566000000E+00 0. -1.
<mgrwt>
<rscale>  1 0.75916225E+03</rscale>
<asrwt>0</asrwt>
<pdfrwt beam="2">  1       21 0.21957804E-01 0.10391347E+04</pdfrwt>
<pdfrwt beam="1">  1        4 0.52419025E+00 0.10391347E+04</pdfrwt>
<totfact> 0.19438011E+01</totfact>
</mgrwt>
</event>
<event>
 6    1  0.5391662E-005  0.9965850E+03  0.7818608E-02  0.9368234E-01
          4   -1    0    0  502    0 -0.00000000000E+00  0.00000000000E+00  0.20116324922E+04  0.20116324922E+04  0.00000000000E+00 0.  1.
         21   -1    0    0  501  502  0.00000000000E+00 -0.00000000000E+00 -0.16728762576E+03  0.16728762576E+03  0.00000000000E+00 0.  1.
    9000010    2    1    2  501    0  0.94679126425E+02 -0.10690873180E+01  0.13637188045E+04  0.16890561547E+04  0.99207682971E+03 0.  0.
        -13    1    3    3    0    0 -0.14972502467E+03 -0.43581157029E+03  0.42894476531E+03  0.62955772623E+03  0.10566000000E+00 0.  1.
          4    1    3    3  501    0  0.24440415110E+03  0.43474248297E+03  0.93477403918E+03  0.10594984285E+04  0.00000000000E+00 0.  1.
         13    1    1    2    0    0 -0.94679126425E+02  0.10690873180E+01  0.48062606193E+03  0.48986396325E+03  0.10566000000E+00 0. -1.
<mgrwt>
<rscale>  1 0.55329445E+03</rscale>
<asrwt>0</asrwt>
<pdfrwt beam="2">  1       21 0.25736559E-01 0.99658503E+03</pdfrwt>
<pdfrwt beam="1">  1        4 0.30948191E+00 0.99658503E+03</pdfrwt>
<totfact> 0.10459060E+02</totfact>
</mgrwt>
</event>
<event>
 6    1  0.5391662E-005  0.1098594E+04  0.7818608E-02  0.8873523E-01
         21   -1    0    0  501  502  0.00000000000E+00  0.00000000000E+00  0.44064928478E+03  0.44064928478E+03  0.00000000000E+00 0. -1.
          4   -1    0    0  502    0 -0.00000000000E+00 -0.00000000000E+00 -0.14673048615E+04  0.14673048615E+04  0.00000000000E+00 0.  1.
    9000010    2    1    2  501    0 -0.10839817313E+03 -0.48528079873E+03 -0.81325981818E+03  0.13668576868E+04  0.97962277763E+03 0.  0.
        -13    1    3    3    0    0  0.27523227134E+03 -0.60588681894E+03 -0.34488866802E+03  0.74953308469E+03  0.10566000000E+00 0.  1.
          4    1    3    3  501    0 -0.38363044447E+03  0.12060602020E+03 -0.46837115016E+03  0.61732460208E+03  0.00000000000E+00 0.  1.
         13    1    1    2    0    0  0.10839817313E+03  0.48528079873E+03 -0.21339575853E+03  0.54109645950E+03  0.10566000000E+00 0. -1.
<mgrwt>
<rscale>  1 0.90109263E+03</rscale>
<asrwt>0</asrwt>
<pdfrwt beam="1">  1       21 0.67792198E-01 0.10985938E+04</pdfrwt>
<pdfrwt beam="2">  1        4 0.22573921E+00 0.10985938E+04</pdfrwt>
<totfact> 0.20595011E+01</totfact>
</mgrwt>
</event>
<event>
 6    1  0.5391662E-005  0.1020295E+04  0.7818608E-02  0.9097661E-01
         21   -1    0    0  501  502  0.00000000000E+00  0.00000000000E+00  0.15263128978E+04  0.15263128978E+04  0.00000000000E+00 0.  1.
          4   -1    0    0  502    0 -0.00000000000E+00 -0.00000000000E+00 -0.36802018426E+03  0.36802018426E+03  0.00000000000E+00 0.  1.
    9000010    2    1    2  501    0  0.22655080018E+03 -0.10530830839E+03  0.39992574554E+03  0.10958748338E+04  0.98923502999E+03 0.  0.
        -13    1    3    3    0    0 -0.29261602197E+03 -0.31201608123E+01  0.47855574301E+03  0.56093625489E+03  0.10566000000E+00 0.  1.
          4    1    3    3  501    0  0.51916682215E+03 -0.10218814758E+03 -0.78629997472E+02  0.53493857893E+03  0.00000000000E+00 0.  1.
         13    1    1    2    0    0 -0.22655080018E+03  0.10530830839E+03  0.75836696805E+03  0.79845824829E+03  0.10566000000E+00 0. -1.
<mgrwt>
<rscale>  1 0.71772069E+03</rscale>
<asrwt>0</asrwt>
<pdfrwt beam="1">  1       21 0.23481737E+00 0.10202946E+04</pdfrwt>
<pdfrwt beam="2">  1        4 0.56618491E-01 0.10202946E+04</pdfrwt>
<totfact> 0.58057358E+00</totfact>
</mgrwt>
</event>
<event>
 6    1  0.5391662E-005  0.1069708E+04  0.7818608E-02  0.8916211E-01
          4   -1    0    0  502    0 -0.00000000000E+00  0.00000000000E+00  0.71218754971E+03  0.71218754971E+03  0.00000000000E+00 0.  1.
         21   -1    0    0  501  502  0.00000000000E+00 -0.00000000000E+00 -0.96931356424E+03  0.96931356424E+03  0.00000000000E+00 0.  1.
    9000010    2    1    2  501    0 -0.27197593089E+03  0.36011514492E+03 -0.48665212300E+03  0.11752046887E+04  0.96985666309E+03 0.  0.
        -13    1    3    3    0    0 -0.34718538149E+03  0.54269643083E+03  0.61863240162E+01  0.64427896670E+03  0.10566000000E+00 0.  1.
          4    1    3    3  501    0  0.75209450599E+02 -0.18258128592E+03 -0.49283844702E+03  0.53092572200E+03  0.00000000000E+00 0.  1.
         13    1    1    2    0    0  0.27197593089E+03 -0.36011514492E+03  0.22952610847E+03  0.50629642525E+03  0.10566000000E+00 0. -1.
<mgrwt>
<rscale>  1 0.86210584E+03</rscale>
<asrwt>0</asrwt>
<pdfrwt beam="2">  1       21 0.14912516E+00 0.10697083E+04</pdfrwt>
<pdfrwt beam="1">  1        4 0.10956732E+00 0.10697083E+04</pdfrwt>
<totfact> 0.73428064E+00</totfact>
</mgrwt>
</event>
<event>
 6    1  0.5391662E-005  0.1247375E+04  0.7818608E-02  0.8751247E-01
         21   -1    0    0  501  502  0.00000000000E+00  0.00000000000E+00  0.62764584717E+03  0.62764584717E+03  0.00000000000E+00 0. -1.
          4   -1    0    0  502    0 -0.00000000000E+00 -0.00000000000E+00 -0.13204683154E+04  0.13204683154E+04  0.00000000000E+00 0.  1.
    9000010    2    1    2  501    0  0.40550534465E+03 -0.39947570529E+03 -0.53618082314E+03  0.13577312023E+04  0.11099228436E+04 0.  0.
        -13    1    3    3    0    0 -0.26110034081E+02 -0.35982038763E+03 -0.78074044854E+03  0.86006284909E+03  0.10566000000E+00 0.  1.
          4    1    3    3  501    0  0.43161537874E+03 -0.39655317664E+02  0.24455962540E+03  0.49766835318E+03  0.00000000000E+00 0.  1.
         13    1    1    2    0    0 -0.40550534465E+03  0.39947570529E+03 -0.15664164506E+03  0.59038296028E+03  0.10566000000E+00 0. -1.
<mgrwt>
<rscale>  1 0.10252234E+04</rscale>
<asrwt>0</asrwt>
<pdfrwt beam="1">  1       21 0.96560900E-01 0.12473749E+04</pdfrwt>
<pdfrwt beam="2">  1        4 0.20314897E+00 0.12473749E+04</pdfrwt>
<totfact> 0.97032783E+00</totfact>
</mgrwt>
</event>
<event>
 6    1  0.5391662E-005  0.1032816E+04  0.7818608E-02  0.9059133E-01
         21   -1    0    0  501  502  0.00000000000E+00  0.00000000000E+00  0.32636212253E+03  0.32636212253E+03  0.00000000000E+00 0. -1.
          4   -1    0    0  502    0 -0.00000000000E+00 -0.00000000000E+00 -0.13940408787E+04  0.13940408787E+04  0.00000000000E+00 0.  1.
    9000010    2    1    2  501    0 -0.21197708532E+03 -0.18405798123E+03 -0.98630584050E+03  0.14281134398E+04  0.99393015892E+03 0.  0.
        -13    1    3    3    0    0  0.23081243977E+03 -0.45097739436E+03 -0.58324523888E+03  0.77254774119E+03  0.10566000000E+00 0.  1.
          4    1    3    3  501    0 -0.44278952508E+03  0.26691941313E+03 -0.40306060162E+03  0.65556569862E+03  0.00000000000E+00 0.  1.
         13    1    1    2    0    0  0.21197708532E+03  0.18405798123E+03 -0.81372915693E+02  0.29228956144E+03  0.10566000000E+00 0. -1.
<mgrwt>
<rscale>  1 0.74574620E+03</rscale>
<asrwt>0</asrwt>
<pdfrwt beam="1">  1       21 0.50209557E-01 0.10328159E+04</pdfrwt>
<pdfrwt beam="2">  1        4 0.21446783E+00 0.10328159E+04</pdfrwt>
<totfact> 0.43927891E+01</totfact>
</mgrwt>
</event>
<event>
 6    1  0.5391662E-005  0.1004393E+04  0.7818608E-02  0.9202180E-01
          4   -1    0    0  502    0 -0.00000000000E+00  0.00000000000E+00  0.37451546817E+03  0.37451546817E+03  0.00000000000E+00 0.  1.
         21   -1    0    0  501  502  0.00000000000E+00 -0.00000000000E+00 -0.13188089950E+04  0.13188089950E+04  0.00000000000E+00 0.  1.
    9000010    2    1    2  501    0  0.15269054011E+03  0.83258015092E+02 -0.10784167682E+04  0.14736989794E+04  0.98922174347E+03 0.  0.
        -13    1    3    3    0    0  0.67352921200E+02  0.29229336174E+03  0.66078463840E+02  0.30714524229E+03  0.10566000000E+00 0.  1.
          4    1    3    3  501    0  0.85337618908E+02 -0.20903534665E+03 -0.11444952320E+04  0.11665537371E+04  0.00000000000E+00 0.  1.
         13    1    1    2    0    0 -0.15269054011E+03 -0.83258015092E+02  0.13412324134E+03  0.21962548383E+03  0.10566000000E+00 0. -1.
<mgrwt>
<rscale>  1 0.64790587E+03</rscale>
<asrwt>0</asrwt>
<pdfrwt beam="2">  1       21 0.20289369E+00 0.10043933E+04</pdfrwt>
<pdfrwt beam="1">  1        4 0.57617766E-01 0.10043933E+04</pdfrwt>
<totfact> 0.97641405E+00</totfact>
</mgrwt>
</event>
<event>
 6    1  0.5391662E-005  0.1012055E+04  0.7818608E-02  0.9231109E-01
         21   -1    0    0  501  502  0.00000000000E+00  0.00000000000E+00  0.15716361522E+03  0.15716361522E+03  0.00000000000E+00 0.  1.
          4   -1    0    0  502    0 -0.00000000000E+00 -0.00000000000E+00 -0.21724863558E+04  0.21724863558E+04  0.00000000000E+00 0.  1.
    9000010    2    1    2  501    0  0.11062441972E+03  0.10428989781E+03 -0.16766957484E+04  0.19584594592E+04  0.10005701754E+04 0.  0.
        -13    1    3    3    0    0 -0.25362673828E+03  0.44559630278E+03 -0.83185518855E+03  0.97717227412E+03  0.10566000000E+00 0.  1.
          4    1    3    3  501    0  0.36425115800E+03 -0.34130640497E+03 -0.84484055981E+03  0.98128718512E+03  0.00000000000E+00 0.  1.
         13    1    1    2    0    0 -0.11062441972E+03 -0.10428989781E+03 -0.33862699224E+03  0.37119051182E+03  0.10566000000E+00 0. -1.
<mgrwt>
<rscale>  1 0.63006849E+03</rscale>
<asrwt>0</asrwt>
<pdfrwt beam="1">  1       21 0.24179018E-01 0.10120548E+04</pdfrwt>
<pdfrwt beam="2">  1        4 0.33422867E+00 0.10120548E+04</pdfrwt>
<totfact> 0.10086704E+02</totfact>
</mgrwt>
</event>
<event>
 6    1  0.5391662E-005  0.1303239E+04  0.7818608E-02  0.8635628E-01
          4   -1    0    0  502    0 -0.00000000000E+00  0.00000000000E+00  0.21218734840E+04  0.21218734840E+04  0.00000000000E+00 0.  1.
         21   -1    0    0  501  502  0.00000000000E+00 -0.00000000000E+00 -0.54034512185E+03  0.54034512185E+03  0.00000000000E+00 0. -1.
    9000010    2    1    2  501    0 -0.49577323345E+03 -0.65826210062E+03  0.81725432719E+03  0.15382902702E+04  0.10096198432E+04 0.  0.
        -13    1    3    3    0    0  0.25436225572E+03 -0.58703421024E+02 -0.23295554150E+02  0.26208575464E+03  0.10566000000E+00 0.  1.
          4    1    3    3  501    0 -0.75013548917E+03 -0.59955867960E+03  0.84054988134E+03  0.12762045155E+04  0.00000000000E+00 0.  1.
         13    1    1    2    0    0  0.49577323345E+03  0.65826210062E+03  0.76427403500E+03  0.11239283357E+04  0.10566000000E+00 0. -1.
<mgrwt>
<rscale>  1 0.11621437E+04</rscale>
<asrwt>0</asrwt>
<pdfrwt beam="2">  1       21 0.83130020E-01 0.13032392E+04</pdfrwt>
<pdfrwt beam="1">  1        4 0.32644207E+00 0.13032392E+04</pdfrwt>
<totfact> 0.68007298E+00</totfact>
</mgrwt>
</event>
<event>
 6    1  0.5391662E-005  0.9962027E+03  0.7818608E-02  0.9321685E-01
          4   -1    0    0  502    0 -0.00000000000E+00  0.00000000000E+00  0.59945469394E+03  0.59945469394E+03  0.00000000000E+00 0.  1.
         21   -1    0    0  501  502  0.00000000000E+00 -0.00000000000E+00 -0.57413065969E+03  0.57413065969E+03  0.00000000000E+00 0.  1.
    9000010    2    1    2  501    0  0.84380911247E+02 -0.74987909636E+02 -0.10435687865E+03  0.10016537535E+04  0.98978611785E+03 0.  0.
        -13    1    3    3    0    0  0.11040284425E+03 -0.51631477685E+03  0.56955598497E+02  0.53104960991E+03  0.10566000000E+00 0.  1.
          4    1    3    3  501    0 -0.26021933008E+02  0.44132686722E+03 -0.16131247714E+03  0.47060414364E+03  0.00000000000E+00 0.  1.
         13    1    1    2    0    0 -0.84380911247E+02  0.74987909636E+02  0.12968091290E+03  0.17193160009E+03  0.10566000000E+00 0. -1.
<mgrwt>
<rscale>  1 0.57799115E+03</rscale>
<asrwt>0</asrwt>
<pdfrwt beam="2">  1       21 0.88327794E-01 0.99620273E+03</pdfrwt>
<pdfrwt beam="1">  1        4 0.92223799E-01 0.99620273E+03</pdfrwt>
<totfact> 0.43527507E+01</totfact>
</mgrwt>
</event>
<event>
 6    1  0.5391662E-005  0.1061253E+04  0.7818608E-02  0.9089529E-01
         21   -1    0    0  501  502  0.00000000000E+00  0.00000000000E+00  0.28933808365E+03  0.28933808365E+03  0.00000000000E+00 0.  1.
          4   -1    0    0  502    0 -0.00000000000E+00 -0.00000000000E+00 -0.18493060463E+04  0.18493060463E+04  0.00000000000E+00 0.  1.
    9000010    2    1    2  501    0 -0.12483571975E+03  0.19231499712E+03 -0.75697705797E+03  0.13035612483E+04  0.10361894840E+04 0.  0.
        -13    1    3    3    0    0  0.11264090903E+03  0.47780619161E+03 -0.79068803314E+03  0.93068485968E+03  0.10566000000E+00 0.  1.
          4    1    3    3  501    0 -0.23747662878E+03 -0.28549119449E+03  0.33710975177E+02  0.37287638863E+03  0.00000000000E+00 0.  1.
         13    1    1    2    0    0  0.12483571975E+03 -0.19231499712E+03 -0.80299090464E+03  0.83508288160E+03  0.10566000000E+00 0. -1.
<mgrwt>
<rscale>  1 0.72352810E+03</rscale>
<asrwt>0</asrwt>
<pdfrwt beam="1">  1       21 0.44513551E-01 0.10612529E+04</pdfrwt>
<pdfrwt beam="2">  1        4 0.28450863E+00 0.10612529E+04</pdfrwt>
<totfact> 0.38626409E+01</totfact>
</mgrwt>
</event>
<event>
 6    1  0.5391662E-005  0.1116762E+04  0.7818608E-02  0.8872515E-01
          4   -1    0    0  502    0 -0.00000000000E+00  0.00000000000E+00  0.28129102601E+04  0.28129102601E+04  0.00000000000E+00 0.  1.
         21   -1    0    0  501  502  0.00000000000E+00 -0.00000000000E+00 -0.22915240255E+03  0.22915240255E+03  0.00000000000E+00 0.  1.
    9000010    2    1    2  501    0 -0.47369877800E+03 -0.39644318222E+02  0.16224235092E+04  0.19696234127E+04  0.10105424982E+04 0.  0.
        -13    1    3    3    0    0 -0.39849954138E+02 -0.38830478487E+03  0.12250654494E+04  0.12857503612E+04  0.10566000000E+00 0.  1.
          4    1    3    3  501    0 -0.43384882386E+03  0.34866046665E+03  0.39735805976E+03  0.68387305154E+03  0.00000000000E+00 0.  1.
         13    1    1    2    0    0  0.47369877800E+03  0.39644318222E+02  0.96133434837E+03  0.10724392499E+04  0.10566000000E+00 0. -1.
<mgrwt>
<rscale>  1 0.90203851E+03</rscale>
<asrwt>0</asrwt>
<pdfrwt beam="2">  1       21 0.35254218E-01 0.11167624E+04</pdfrwt>
<pdfrwt beam="1">  1        4 0.43275540E+00 0.11167624E+04</pdfrwt>
<totfact> 0.19618119E+01</totfact>
</mgrwt>
</event>
<event>
 6    1  0.5391662E-005  0.1032543E+04  0.7818608E-02  0.9204816E-01
          4   -1    0    0  502    0 -0.00000000000E+00  0.00000000000E+00  0.14748523725E+04  0.14748523725E+04  0.00000000000E+00 0.  1.
         21   -1    0    0  501  502  0.00000000000E+00 -0.00000000000E+00 -0.25547947031E+03  0.25547947031E+03  0.00000000000E+00 0.  1.
    9000010    2    1    2  501    0  0.15299755629E+03 -0.41206850888E+02  0.88341833820E+03  0.13588863730E+04  0.10203126765E+04 0.  0.
        -13    1    3    3    0    0  0.37144484265E+02  0.48393545088E+03  0.51091396802E+03  0.70470300638E+03  0.10566000000E+00 0.  1.
          4    1    3    3  501    0  0.11585307203E+03 -0.52514230176E+03  0.37250437018E+03  0.65418336665E+03  0.00000000000E+00 0.  1.
         13    1    1    2    0    0 -0.15299755629E+03  0.41206850888E+02  0.33595456394E+03  0.37144546974E+03  0.10566000000E+00 0. -1.
<mgrwt>
<rscale>  1 0.64625476E+03</rscale>
<asrwt>0</asrwt>
<pdfrwt beam="2">  1       21 0.39304535E-01 0.10325426E+04</pdfrwt>
<pdfrwt beam="1">  1        4 0.22690036E+00 0.10325426E+04</pdfrwt>
<totfact> 0.69580607E+01</totfact>
</mgrwt>
</event>
<event>
 6    1  0.5391662E-005  0.1128899E+04  0.7818608E-02  0.8849801E-01
         21   -1    0    0  501  502  0.00000000000E+00  0.00000000000E+00  0.46992781035E+03  0.46992781035E+03  0.00000000000E+00 0.  1.
          4   -1    0    0  502    0 -0.00000000000E+00 -0.00000000000E+00 -0.16570783383E+04  0.16570783383E+04  0.00000000000E+00 0.  1.
    9000010    2    1    2  501    0 -0.49708959440E+03  0.94416916674E+02 -0.41280509359E+03  0.12020069692E+04  0.10091581094E+04 0.  0.
        -13    1    3    3    0    0 -0.69074948748E+03  0.29430203321E+03 -0.50949393872E+03  0.90737678279E+03  0.10566000000E+00 0.  1.
          4    1    3    3  501    0  0.19365989308E+03 -0.19988511653E+03  0.96688845128E+02  0.29463018645E+03  0.00000000000E+00 0.  1.
         13    1    1    2    0    0  0.49708959440E+03 -0.94416916674E+02 -0.77434543439E+03  0.92499917943E+03  0.10566000000E+00 0. -1.
<mgrwt>
<rscale>  1 0.92368514E+03</rscale>
<asrwt>0</asrwt>
<pdfrwt beam="1">  1       21 0.72296586E-01 0.11288989E+04</pdfrwt>
<pdfrwt beam="2">  1        4 0.25493513E+00 0.11288989E+04</pdfrwt>
<totfact> 0.14976838E+01</totfact>
</mgrwt>
</event>
<event>
 6    1  0.5391662E-005  0.1312339E+04  0.7818608E-02  0.8623151E-01
         21   -1    0    0  501  502  0.00000000000E+00  0.00000000000E+00  0.52437473980E+03  0.52437473980E+03  0.00000000000E+00 0.  1.
          4   -1    0    0  502    0 -0.00000000000E+00 -0.00000000000E+00 -0.23775345256E+04  0.23775345256E+04  0.00000000000E+00 0.  1.
    9000010    2    1    2  501    0  0.26304838961E+03  0.81103249718E+03 -0.76335822703E+03  0.15182056789E+04  0.99762945715E+03 0.  0.
        -13    1    3    3    0    0  0.41477078794E+02  0.84215831038E+03 -0.13847726836E+03  0.85447465312E+03  0.10566000000E+00 0.  1.
          4    1    3    3  501    0  0.22157131082E+03 -0.31125813195E+02 -0.62488095867E+03  0.66373102574E+03  0.00000000000E+00 0.  1.
         13    1    1    2    0    0 -0.26304838961E+03 -0.81103249718E+03 -0.10898015588E+04  0.13837035866E+04  0.10566000000E+00 0. -1.
<mgrwt>
<rscale>  1 0.11782131E+04</rscale>
<asrwt>0</asrwt>
<pdfrwt beam="1">  1       21 0.80673036E-01 0.13123386E+04</pdfrwt>
<pdfrwt beam="2">  1        4 0.36577455E+00 0.13123386E+04</pdfrwt>
<totfact> 0.54428134E+00</totfact>
</mgrwt>
</event>
<event>
 6    1  0.5391662E-005  0.1182029E+04  0.7818608E-02  0.8762407E-01
          4   -1    0    0  502    0 -0.00000000000E+00  0.00000000000E+00  0.22412425742E+04  0.22412425742E+04  0.00000000000E+00 0.  1.
         21   -1    0    0  501  502  0.00000000000E+00 -0.00000000000E+00 -0.36944813605E+03  0.36944813605E+03  0.00000000000E+00 0.  1.
    9000010    2    1    2  501    0 -0.53966320118E+03 -0.33990111578E+03  0.12289308560E+04  0.17051285999E+04  0.99520015789E+03 0.  0.
        -13    1    3    3    0    0  0.19938122212E+03  0.11601952665E+03  0.57048046660E+03  0.61535467516E+03  0.10566000000E+00 0.  1.
          4    1    3    3  501    0 -0.73904442331E+03 -0.45592064243E+03  0.65845038939E+03  0.10897739248E+04  0.00000000000E+00 0.  1.
         13    1    1    2    0    0  0.53966320118E+03  0.33990111578E+03  0.64286358216E+03  0.90556211032E+03  0.10566000000E+00 0. -1.
<mgrwt>
<rscale>  1 0.10130704E+04</rscale>
<asrwt>0</asrwt>
<pdfrwt beam="2">  1       21 0.56838177E-01 0.11820290E+04</pdfrwt>
<pdfrwt beam="1">  1        4 0.34480654E+00 0.11820290E+04</pdfrwt>
<totfact> 0.14995055E+01</totfact>
</mgrwt>
</event>
<event>
 6    1  0.5391662E-005  0.1048439E+04  0.7818608E-02  0.9043619E-01
          4   -1    0    0  502    0 -0.00000000000E+00  0.00000000000E+00  0.85605507257E+03  0.85605507257E+03  0.00000000000E+00 0.  1.
         21   -1    0    0  501  502  0.00000000000E+00 -0.00000000000E+00 -0.53743870106E+03  0.53743870106E+03  0.00000000000E+00 0.  1.
    9000010    2    1    2  501    0 -0.79646011735E+02  0.27421772964E+03  0.14270168986E+03  0.10581061817E+04  0.10088042769E+04 0.  0.
        -13    1    3    3    0    0 -0.95716231682E+01  0.64493813131E+03 -0.24403245639E+02  0.64547063353E+03  0.10566000000E+00 0.  1.
          4    1    3    3  501    0 -0.70074388567E+02 -0.37072040168E+03  0.16710493550E+03  0.41263554818E+03  0.00000000000E+00 0.  1.
         13    1    1    2    0    0  0.79646011735E+02 -0.27421772964E+03  0.17591468165E+03  0.33538759192E+03  0.10566000000E+00 0. -1.
<mgrwt>
<rscale>  1 0.75740478E+03</rscale>
<asrwt>0</asrwt>
<pdfrwt beam="2">  1       21 0.82682877E-01 0.10484393E+04</pdfrwt>
<pdfrwt beam="1">  1        4 0.13170078E+00 0.10484393E+04</pdfrwt>
<totfact> 0.27125654E+01</totfact>
</mgrwt>
</event>
<event>
 6    1  0.5391662E-005  0.9857682E+03  0.7818608E-02  0.9618237E-01
          4   -1    0    0  502    0 -0.00000000000E+00  0.00000000000E+00  0.43455075902E+03  0.43455075902E+03  0.00000000000E+00 0.  1.
         21   -1    0    0  501  502  0.00000000000E+00 -0.00000000000E+00 -0.66712618642E+03  0.66712618642E+03  0.00000000000E+00 0.  1.
    9000010    2    1    2  501    0 -0.75641033194E+01 -0.38663332230E+02 -0.29402449810E+03  0.10286833267E+04  0.98498066594E+03 0.  0.
        -13    1    3    3    0    0  0.35366391640E+03  0.31070734196E+03 -0.22383216617E+03  0.52126583227E+03  0.10566000000E+00 0.  1.
          4    1    3    3  501    0 -0.36122801972E+03 -0.34937067419E+03 -0.70192331927E+02  0.50741749445E+03  0.00000000000E+00 0.  1.
         13    1    1    2    0    0  0.75641033194E+01  0.38663332230E+02  0.61449070706E+02  0.72993618713E+02  0.10566000000E+00 0. -1.
<mgrwt>
<rscale>  1 0.44075310E+03</rscale>
<asrwt>0</asrwt>
<pdfrwt beam="2">  1       21 0.10263480E+00 0.98576822E+03</pdfrwt>
<pdfrwt beam="1">  1        4 0.66853963E-01 0.98576822E+03</pdfrwt>
<totfact> 0.57366224E+01</totfact>
</mgrwt>
</event>
<event>
 6    1  0.5391662E-005  0.1193638E+04  0.7818608E-02  0.8779132E-01
          4   -1    0    0  502    0 -0.00000000000E+00  0.00000000000E+00  0.17508585719E+04  0.17508585719E+04  0.00000000000E+00 0.  1.
         21   -1    0    0  501  502  0.00000000000E+00 -0.00000000000E+00 -0.52934082657E+03  0.52934082657E+03  0.00000000000E+00 0.  1.
    9000010    2    1    2  501    0 -0.93092494054E+02  0.56919151671E+03  0.36612009907E+03  0.12485258360E+04  0.10450491094E+04 0.  0.
        -13    1    3    3    0    0 -0.50125695553E+03  0.46826426481E+03  0.44919104081E+03  0.81994058289E+03  0.10566000000E+00 0.  1.
          4    1    3    3  501    0  0.40816446148E+03  0.10092725190E+03 -0.83070941741E+02  0.42858525308E+03  0.00000000000E+00 0.  1.
         13    1    1    2    0    0  0.93092494054E+02 -0.56919151671E+03  0.85539764623E+03  0.10316735625E+04  0.10566000000E+00 0. -1.
<mgrwt>
<rscale>  1 0.99518144E+03</rscale>
<asrwt>0</asrwt>
<pdfrwt beam="2">  1       21 0.81437051E-01 0.11936385E+04</pdfrwt>
<pdfrwt beam="1">  1        4 0.26936285E+00 0.11936385E+04</pdfrwt>
<totfact> 0.10331741E+01</totfact>
</mgrwt>
</event>
<event>
 6    1  0.5391662E-005  0.1227982E+04  0.7818608E-02  0.8973451E-01
         21   -1    0    0  501  502  0.00000000000E+00  0.00000000000E+00  0.52568252205E+03  0.52568252205E+03  0.00000000000E+00 0.  1.
          4   -1    0    0  502    0 -0.00000000000E+00 -0.00000000000E+00 -0.13077642653E+04  0.13077642653E+04  0.00000000000E+00 0.  1.
    9000010    2    1    2  501    0  0.14603790197E+03 -0.18531208150E+03 -0.25248396502E+03  0.12536697145E+04  0.12051024704E+04 0.  0.
        -13    1    3    3    0    0 -0.23956743182E+03  0.70574078580E+02  0.38924527298E+03  0.46247718718E+03  0.10566000000E+00 0.  1.
          4    1    3    3  501    0  0.38560533379E+03 -0.25588616008E+03 -0.64172923800E+03  0.79119252731E+03  0.00000000000E+00 0.  1.
         13    1    1    2    0    0 -0.14603790197E+03  0.18531208150E+03 -0.52959777824E+03  0.57977707288E+03  0.10566000000E+00 0. -1.
<mgrwt>
<rscale>  1 0.81300710E+03</rscale>
<asrwt>0</asrwt>
<pdfrwt beam="1">  1       21 0.80874235E-01 0.12279819E+04</pdfrwt>
<pdfrwt beam="2">  1        4 0.20119450E+00 0.12279819E+04</pdfrwt>
<totfact> 0.15450342E+01</totfact>
</mgrwt>
</event>
<event>
 6    1  0.5391662E-005  0.1072772E+04  0.7818608E-02  0.8929977E-01
          4   -1    0    0  502    0 -0.00000000000E+00  0.00000000000E+00  0.17356672981E+04  0.17356672981E+04  0.00000000000E+00 0.  1.
         21   -1    0    0  501  502  0.00000000000E+00 -0.00000000000E+00 -0.38538916173E+03  0.38538916173E+03  0.00000000000E+00 0.  1.
    9000010    2    1    2  501    0 -0.41629048764E+03 -0.73715657729E+02  0.52622943318E+03  0.11948879845E+04  0.98595543047E+03 0.  0.
        -13    1    3    3    0    0 -0.12563321074E+03  0.45337298568E+03  0.24701373760E+03  0.53136293201E+03  0.10566000000E+00 0.  1.
          4    1    3    3  501    0 -0.29065727690E+03 -0.52708864341E+03  0.27921569559E+03  0.66352505250E+03  0.00000000000E+00 0.  1.
         13    1    1    2    0    0  0.41629048764E+03  0.73715657729E+02  0.82404870317E+03  0.92616847531E+03  0.10566000000E+00 0. -1.
<mgrwt>
<rscale>  1 0.84997433E+03</rscale>
<asrwt>0</asrwt>
<pdfrwt beam="2">  1       21 0.59290642E-01 0.10727721E+04</pdfrwt>
<pdfrwt beam="1">  1        4 0.26702573E+00 0.10727721E+04</pdfrwt>
<totfact> 0.22491232E+01</totfact>
</mgrwt>
</event>
<event>
 6    1  0.5391662E-005  0.1010622E+04  0.7818608E-02  0.9132199E-01
          4   -1    0    0  502    0 -0.00000000000E+00  0.00000000000E+00  0.74569832426E+03  0.74569832426E+03  0.00000000000E+00 0.  1.
         21   -1    0    0  501  502  0.00000000000E+00 -0.00000000000E+00 -0.51177782213E+03  0.51177782213E+03  0.00000000000E+00 0.  1.
    9000010    2    1    2  501    0 -0.18249736903E+03  0.13043677785E+03  0.17642330065E+03  0.10259054616E+04  0.98541249859E+03 0.  0.
        -13    1    3    3    0    0 -0.17374251045E+03 -0.18329025907E+03 -0.33882738962E+03  0.42259411985E+03  0.10566000000E+00 0.  1.
          4    1    3    3  501    0 -0.87548585734E+01  0.31372703692E+03  0.51525069027E+03  0.60331134174E+03  0.00000000000E+00 0.  1.
         13    1    1    2    0    0  0.18249736903E+03 -0.13043677785E+03  0.57497201485E+02  0.23157068480E+03  0.10566000000E+00 0. -1.
<mgrwt>
<rscale>  1 0.69367832E+03</rscale>
<asrwt>0</asrwt>
<pdfrwt beam="2">  1       21 0.78735050E-01 0.10106220E+04</pdfrwt>
<pdfrwt beam="1">  1        4 0.11472282E+00 0.10106220E+04</pdfrwt>
<totfact> 0.38543738E+01</totfact>
</mgrwt>
</event>
<event>
 6    1  0.5391662E-005  0.1002527E+04  0.7818608E-02  0.9329489E-01
          4   -1    0    0  502    0 -0.00000000000E+00  0.00000000000E+00  0.59752869606E+03  0.59752869606E+03  0.00000000000E+00 0.  1.
         21   -1    0    0  501  502  0.00000000000E+00 -0.00000000000E+00 -0.62497386065E+03  0.62497386065E+03  0.00000000000E+00 0.  1.
    9000010    2    1    2  501    0  0.30629171422E+02  0.10309957734E+03 -0.19701275108E+03  0.10217020424E+04  0.99674137588E+03 0.  0.
        -13    1    3    3    0    0  0.27409080513E+03  0.54467373196E+02  0.33401809253E+03  0.43550035764E+03  0.10566000000E+00 0.  1.
          4    1    3    3  501    0 -0.24346163371E+03  0.48632204142E+02 -0.53103084361E+03  0.58620168477E+03  0.00000000000E+00 0.  1.
         13    1    1    2    0    0 -0.30629171422E+02 -0.10309957734E+03  0.16956758649E+03  0.20080051430E+03  0.10566000000E+00 0. -1.
<mgrwt>
<rscale>  1 0.57375694E+03</rscale>
<asrwt>0</asrwt>
<pdfrwt beam="2">  1       21 0.96149825E-01 0.10025273E+04</pdfrwt>
<pdfrwt beam="1">  1        4 0.91927491E-01 0.10025273E+04</pdfrwt>
<totfact> 0.35244710E+01</totfact>
</mgrwt>
</event>
<event>
 6    1  0.5391662E-005  0.1101376E+04  0.7818608E-02  0.8886334E-01
         21   -1    0    0  501  502  0.00000000000E+00  0.00000000000E+00  0.87782569052E+03  0.87782569052E+03  0.00000000000E+00 0.  1.
          4   -1    0    0  502    0 -0.00000000000E+00 -0.00000000000E+00 -0.20170844816E+04  0.20170844816E+04  0.00000000000E+00 0.  1.
    9000010    2    1    2  501    0 -0.89073679369E+02  0.45932164886E+03  0.48585900657E+03  0.12037808557E+04  0.99705510219E+03 0.  0.
        -13    1    3    3    0    0  0.45529427682E+03  0.23745261003E+03  0.23139189156E+03  0.56322183832E+03  0.10566000000E+00 0.  1.
          4    1    3    3  501    0 -0.54436795619E+03  0.22186903883E+03  0.25446711500E+03  0.64055901738E+03  0.00000000000E+00 0.  1.
         13    1    1    2    0    0  0.89073679369E+02 -0.45932164886E+03 -0.16251177977E+04  0.16911293165E+04  0.10566000000E+00 0. -1.
<mgrwt>
<rscale>  1 0.88917055E+03</rscale>
<asrwt>0</asrwt>
<pdfrwt beam="1">  1       21 0.13505011E+00 0.11013761E+04</pdfrwt>
<pdfrwt beam="2">  1        4 0.31032068E+00 0.11013761E+04</pdfrwt>
<totfact> 0.20982369E+00</totfact>
</mgrwt>
</event>
<event>
 6    1  0.5391662E-005  0.1032399E+04  0.7818608E-02  0.8912348E-01
         21   -1    0    0  501  502  0.00000000000E+00  0.00000000000E+00  0.26675535998E+03  0.26675535998E+03  0.00000000000E+00 0. -1.
          4   -1    0    0  502    0 -0.00000000000E+00 -0.00000000000E+00 -0.22666484298E+04  0.22666484298E+04  0.00000000000E+00 0.  1.
    9000010    2    1    2  501    0 -0.30760641557E+03  0.40686814618E+03 -0.11808169207E+04  0.15684949110E+04  0.89759918122E+03 0.  0.
        -13    1    3    3    0    0 -0.69597641073E+02  0.65358492904E+03 -0.57920338335E+03  0.87606715585E+03  0.10566000000E+00 0.  1.
          4    1    3    3  501    0 -0.23800877450E+03 -0.24671678286E+03 -0.60161353739E+03  0.69242775511E+03  0.00000000000E+00 0.  1.
         13    1    1    2    0    0  0.30760641557E+03 -0.40686814618E+03 -0.81907614913E+03  0.96490887886E+03  0.10566000000E+00 0. -1.
<mgrwt>
<rscale>  1 0.86554860E+03</rscale>
<asrwt>0</asrwt>
<pdfrwt beam="1">  1       21 0.41039288E-01 0.10323990E+04</pdfrwt>
<pdfrwt beam="2">  1        4 0.34871513E+00 0.10323990E+04</pdfrwt>
<totfact> 0.30452192E+01</totfact>
</mgrwt>
</event>
<event>
 6    1  0.5391662E-005  0.1323789E+04  0.7818608E-02  0.8612202E-01
         21   -1    0    0  501  502  0.00000000000E+00  0.00000000000E+00  0.50213182701E+03  0.50213182701E+03  0.00000000000E+00 0. -1.
          4   -1    0    0  502    0 -0.00000000000E+00 -0.00000000000E+00 -0.25608059629E+04  0.25608059629E+04  0.00000000000E+00 0.  1.
    9000010    2    1    2  501    0  0.17334817686E+02  0.87165941631E+03 -0.16038334144E+04  0.20795910927E+04  0.99615604078E+03 0.  0.
        -13    1    3    3    0    0  0.48887135271E+03  0.35485943665E+03 -0.92502596043E+03  0.11048047148E+04  0.10566000000E+00 0.  1.
          4    1    3    3  501    0 -0.47153653502E+03  0.51679997966E+03 -0.67880745396E+03  0.97478637782E+03  0.00000000000E+00 0.  1.
         13    1    1    2    0    0 -0.17334817686E+02 -0.87165941631E+03 -0.45484072154E+03  0.98334669729E+03  0.10566000000E+00 0. -1.
<mgrwt>
<rscale>  1 0.11925383E+04</rscale>
<asrwt>0</asrwt>
<pdfrwt beam="1">  1       21 0.77251051E-01 0.13237891E+04</pdfrwt>
<pdfrwt beam="2">  1        4 0.39397014E+00 0.13237891E+04</pdfrwt>
<totfact> 0.47243949E+00</totfact>
</mgrwt>
</event>
<event>
 6    1  0.5391662E-005  0.1029643E+04  0.7818608E-02  0.9120794E-01
          4   -1    0    0  502    0 -0.00000000000E+00  0.00000000000E+00  0.10961723585E+04  0.10961723585E+04  0.00000000000E+00 0.  1.
         21   -1    0    0  501  502  0.00000000000E+00 -0.00000000000E+00 -0.39853488366E+03  0.39853488366E+03  0.00000000000E+00 0.  1.
    9000010    2    1    2  501    0 -0.22136141861E+03  0.14792430131E+02  0.36011713845E+03  0.10908017058E+04  0.10054572663E+04 0.  0.
        -13    1    3    3    0    0 -0.11959660754E+03  0.14771766471E+03  0.69278657715E+03  0.71838507059E+03  0.10566000000E+00 0.  1.
          4    1    3    3  501    0 -0.10176481107E+03 -0.13292523458E+03 -0.33266943870E+03  0.37241663524E+03  0.00000000000E+00 0.  1.
         13    1    1    2    0    0  0.22136141861E+03 -0.14792430131E+02  0.33752033640E+03  0.40390553634E+03  0.10566000000E+00 0. -1.
<mgrwt>
<rscale>  1 0.70150742E+03</rscale>
<asrwt>0</asrwt>
<pdfrwt beam="2">  1       21 0.61313060E-01 0.10296427E+04</pdfrwt>
<pdfrwt beam="1">  1        4 0.16864190E+00 0.10296427E+04</pdfrwt>
<totfact> 0.38473507E+01</totfact>
</mgrwt>
</event>
<event>
 6    1  0.5391662E-005  0.1008763E+04  0.7818608E-02  0.9333235E-01
         21   -1    0    0  501  502  0.00000000000E+00  0.00000000000E+00  0.64363872345E+03  0.64363872345E+03  0.00000000000E+00 0.  1.
          4   -1    0    0  502    0 -0.00000000000E+00 -0.00000000000E+00 -0.53369077881E+03  0.53369077881E+03  0.00000000000E+00 0.  1.
    9000010    2    1    2  501    0 -0.78490900144E+02 -0.68370440393E+02  0.21283367758E+03  0.10309709571E+04  0.10033780951E+04 0.  0.
        -13    1    3    3    0    0 -0.20670068034E+03  0.30103362982E+03  0.44544500358E+03  0.57599277765E+03  0.10566000000E+00 0.  1.
          4    1    3    3  501    0  0.12820978020E+03 -0.36940407021E+03 -0.23261132600E+03  0.45497817949E+03  0.00000000000E+00 0.  1.
         13    1    1    2    0    0  0.78490900144E+02  0.68370440393E+02 -0.10288573293E+03  0.14635854512E+03  0.10566000000E+00 0. -1.
<mgrwt>
<rscale>  1 0.57173825E+03</rscale>
<asrwt>0</asrwt>
<pdfrwt beam="1">  1       21 0.99021341E-01 0.10087631E+04</pdfrwt>
<pdfrwt beam="2">  1        4 0.82106274E-01 0.10087631E+04</pdfrwt>
<totfact> 0.41105970E+01</totfact>
</mgrwt>
</event>
<event>
 6    1  0.5391662E-005  0.1022136E+04  0.7818608E-02  0.9243784E-01
         21   -1    0    0  501  502  0.00000000000E+00  0.00000000000E+00  0.30972734747E+03  0.30972734747E+03  0.00000000000E+00 0.  1.
          4   -1    0    0  502    0 -0.00000000000E+00 -0.00000000000E+00 -0.11623192299E+04  0.11623192299E+04  0.00000000000E+00 0.  1.
    9000010    2    1    2  501    0 -0.41254000634E+01  0.14050292090E+03 -0.60619330553E+03  0.11883735974E+04  0.10124245125E+04 0.  0.
        -13    1    3    3    0    0 -0.25589911745E+03 -0.33031280468E+03 -0.48632930010E+03  0.64117634591E+03  0.10566000000E+00 0.  1.
          4    1    3    3  501    0  0.25177371739E+03  0.47081572558E+03 -0.11986400542E+03  0.54719725147E+03  0.00000000000E+00 0.  1.
         13    1    1    2    0    0  0.41254000634E+01 -0.14050292090E+03 -0.24639857688E+03  0.28367297997E+03  0.10566000000E+00 0. -1.
<mgrwt>
<rscale>  1 0.62244299E+03</rscale>
<asrwt>0</asrwt>
<pdfrwt beam="1">  1       21 0.47650360E-01 0.10221357E+04</pdfrwt>
<pdfrwt beam="2">  1        4 0.17881835E+00 0.10221357E+04</pdfrwt>
<totfact> 0.62584663E+01</totfact>
</mgrwt>
</event>
<event>
 6    1  0.5391662E-005  0.1024935E+04  0.7818608E-02  0.9521859E-01
          4   -1    0    0  502    0 -0.00000000000E+00  0.00000000000E+00  0.61170187937E+03  0.61170187937E+03  0.00000000000E+00 0.  1.
         21   -1    0    0  501  502  0.00000000000E+00 -0.00000000000E+00 -0.48052000516E+03  0.48052000516E+03  0.00000000000E+00 0.  1.
    9000010    2    1    2  501    0 -0.31468825410E+02 -0.38199814227E+02  0.91922914254E+02  0.10290491857E+04  0.10237396601E+04 0.  0.
        -13    1    3    3    0    0  0.45145366405E+02  0.17388031154E+03 -0.42699946910E+03  0.46325049879E+03  0.10566000000E+00 0.  1.
          4    1    3    3  501    0 -0.76614191815E+02 -0.21208012577E+03  0.51892238336E+03  0.56579868689E+03  0.00000000000E+00 0.  1.
         13    1    1    2    0    0  0.31468825410E+02  0.38199814227E+02  0.39258959953E+02  0.63172698853E+02  0.10566000000E+00 0. -1.
<mgrwt>
<rscale>  1 0.48046035E+03</rscale>
<asrwt>0</asrwt>
<pdfrwt beam="2">  1       21 0.73926154E-01 0.10249353E+04</pdfrwt>
<pdfrwt beam="1">  1        4 0.94107982E-01 0.10249353E+04</pdfrwt>
<totfact> 0.64725703E+01</totfact>
</mgrwt>
</event>
<event>
 6    1  0.5391662E-005  0.1014446E+04  0.7818608E-02  0.9339709E-01
         21   -1    0    0  501  502  0.00000000000E+00  0.00000000000E+00  0.27388225750E+03  0.27388225750E+03  0.00000000000E+00 0.  1.
          4   -1    0    0  502    0 -0.00000000000E+00 -0.00000000000E+00 -0.12717837947E+04  0.12717837947E+04  0.00000000000E+00 0.  1.
    9000010    2    1    2  501    0 -0.98866060942E+02 -0.14282921575E+02 -0.70278494806E+03  0.12341017535E+04  0.10095157032E+04 0.  0.
        -13    1    3    3    0    0  0.19129838746E+03  0.34911548601E+03 -0.65518007686E+03  0.76664048934E+03  0.10566000000E+00 0.  1.
          4    1    3    3  501    0 -0.29016444841E+03 -0.36339840759E+03 -0.47604871202E+02  0.46746126419E+03  0.00000000000E+00 0.  1.
         13    1    1    2    0    0  0.98866060942E+02  0.14282921575E+02 -0.29511658915E+03  0.31156429868E+03  0.10566000000E+00 0. -1.
<mgrwt>
<rscale>  1 0.56827020E+03</rscale>
<asrwt>0</asrwt>
<pdfrwt beam="1">  1       21 0.42135733E-01 0.10144459E+04</pdfrwt>
<pdfrwt beam="2">  1        4 0.19565904E+00 0.10144459E+04</pdfrwt>
<totfact> 0.72557414E+01</totfact>
</mgrwt>
</event>
<event>
 6    1  0.5391662E-005  0.1020050E+04  0.7818608E-02  0.9072553E-01
          4   -1    0    0  502    0 -0.00000000000E+00  0.00000000000E+00  0.14212642525E+04  0.14212642525E+04  0.00000000000E+00 0.  1.
         21   -1    0    0  501  502  0.00000000000E+00 -0.00000000000E+00 -0.29688053285E+03  0.29688053285E+03  0.00000000000E+00 0.  1.
    9000010    2    1    2  501    0  0.23973327383E+03 -0.13721242217E+03  0.83654577003E+03  0.13192087156E+04  0.98193865312E+03 0.  0.
        -13    1    3    3    0    0  0.60658808557E+03  0.19843143606E+02  0.39541077809E+03  0.72435664592E+03  0.10566000000E+00 0.  1.
          4    1    3    3  501    0 -0.36685481174E+03 -0.15705556578E+03  0.44113499194E+03  0.59485206964E+03  0.00000000000E+00 0.  1.
         13    1    1    2    0    0 -0.23973327383E+03  0.13721242217E+03  0.28783794963E+03  0.39893606980E+03  0.10566000000E+00 0. -1.
<mgrwt>
<rscale>  1 0.73583644E+03</rscale>
<asrwt>0</asrwt>
<pdfrwt beam="2">  1       21 0.45673929E-01 0.10200504E+04</pdfrwt>
<pdfrwt beam="1">  1        4 0.21865604E+00 0.10200504E+04</pdfrwt>
<totfact> 0.52851650E+01</totfact>
</mgrwt>
</event>
<event>
 6    1  0.5391662E-005  0.1031210E+04  0.7818608E-02  0.9090522E-01
          4   -1    0    0  502    0 -0.00000000000E+00  0.00000000000E+00  0.19699762035E+04  0.19699762035E+04  0.00000000000E+00 0.  1.
         21   -1    0    0  501  502  0.00000000000E+00 -0.00000000000E+00 -0.21697012882E+03  0.21697012882E+03  0.00000000000E+00 0.  1.
    9000010    2    1    2  501    0  0.78809679798E+02 -0.23612002128E+03  0.12114001433E+04  0.15908753415E+04  0.10007149518E+04 0.  0.
        -13    1    3    3    0    0  0.14140950266E+03 -0.53254218361E+03  0.11591490716E+04  0.12834424047E+04  0.10566000000E+00 0.  1.
          4    1    3    3  501    0 -0.62599822863E+02  0.29642216233E+03  0.52251071742E+02  0.30743293682E+03  0.00000000000E+00 0.  1.
         13    1    1    2    0    0 -0.78809679798E+02  0.23612002128E+03  0.54160593137E+03  0.59607099086E+03  0.10566000000E+00 0. -1.
<mgrwt>
<rscale>  1 0.72281549E+03</rscale>
<asrwt>0</asrwt>
<pdfrwt beam="2">  1       21 0.33380021E-01 0.10312100E+04</pdfrwt>
<pdfrwt beam="1">  1        4 0.30307325E+00 0.10312100E+04</pdfrwt>
<totfact> 0.63731751E+01</totfact>
</mgrwt>
</event>
<event>
 6    1  0.5391662E-005  0.1065174E+04  0.7818608E-02  0.8912031E-01
         21   -1    0    0  501  502  0.00000000000E+00  0.00000000000E+00  0.17663896013E+03  0.17663896013E+03  0.00000000000E+00 0.  1.
          4   -1    0    0  502    0 -0.00000000000E+00 -0.00000000000E+00 -0.33145809944E+04  0.33145809944E+04  0.00000000000E+00 0.  1.
    9000010    2    1    2  501    0  0.41526411858E+03 -0.20928659663E+03 -0.21622310258E+04  0.24103605045E+04  0.95830557998E+03 0.  0.
        -13    1    3    3    0    0  0.33825962645E+03  0.24994329193E+03 -0.17110711972E+04  0.17620033704E+04  0.10566000000E+00 0.  1.
          4    1    3    3  501    0  0.77004492125E+02 -0.45922988856E+03 -0.45115982861E+03  0.64835713408E+03  0.00000000000E+00 0.  1.
         13    1    1    2    0    0 -0.41526411858E+03  0.20928659663E+03 -0.97571100844E+03  0.10808594501E+04  0.10566000000E+00 0. -1.
<mgrwt>
<rscale>  1 0.86583192E+03</rscale>
<asrwt>0</asrwt>
<pdfrwt beam="1">  1       21 0.27175223E-01 0.10651736E+04</pdfrwt>
<pdfrwt beam="2">  1        4 0.50993557E+00 0.10651736E+04</pdfrwt>
<totfact> 0.14762883E+01</totfact>
</mgrwt>
</event>
<event>
 6    1  0.5391662E-005  0.9744728E+03  0.7818608E-02  0.9762656E-01
          4   -1    0    0  502    0 -0.00000000000E+00  0.00000000000E+00  0.76872301598E+03  0.76872301598E+03  0.00000000000E+00 0.  1.
         21   -1    0    0  501  502  0.00000000000E+00 -0.00000000000E+00 -0.32463568104E+03  0.32463568104E+03  0.00000000000E+00 0.  1.
    9000010    2    1    2  501    0 -0.28894972669E+01 -0.24464924012E+02  0.43285316804E+03  0.10662828892E+04  0.97416141010E+03 0.  0.
        -13    1    3    3    0    0 -0.11591335028E+03 -0.45737500994E+03  0.44680129444E+02  0.47394528125E+03  0.10566000000E+00 0.  1.
          4    1    3    3  501    0  0.11302385301E+03  0.43291008593E+03  0.38817303859E+03  0.59233760791E+03  0.00000000000E+00 0.  1.
         13    1    1    2    0    0  0.28894972669E+01  0.24464924012E+02  0.11234166895E+02  0.27075807859E+02  0.10566000000E+00 0. -1.
<mgrwt>
<rscale>  1 0.38856736E+03</rscale>
<asrwt>0</asrwt>
<pdfrwt beam="2">  1       21 0.49943951E-01 0.97447285E+03</pdfrwt>
<pdfrwt beam="1">  1        4 0.11826508E+00 0.97447285E+03</pdfrwt>
<totfact> 0.10525731E+02</totfact>
</mgrwt>
</event>
<event>
 6    1  0.5391662E-005  0.9429079E+03  0.7818608E-02  0.9472156E-01
          4   -1    0    0  502    0 -0.00000000000E+00  0.00000000000E+00  0.14242670527E+04  0.14242670527E+04  0.00000000000E+00 0.  1.
         21   -1    0    0  501  502  0.00000000000E+00 -0.00000000000E+00 -0.21754267075E+03  0.21754267075E+03  0.00000000000E+00 0.  1.
    9000010    2    1    2  501    0  0.57549596755E+02  0.49875794737E+02  0.82597502204E+03  0.12535190627E+04  0.93982751212E+03 0.  0.
        -13    1    3    3    0    0  0.15603496184E+03 -0.35476294053E+03  0.72946899236E+03  0.82603188514E+03  0.10566000000E+00 0.  1.
          4    1    3    3  501    0 -0.98485365082E+02  0.40463873527E+03  0.96506029682E+02  0.42748717757E+03  0.00000000000E+00 0.  1.
         13    1    1    2    0    0 -0.57549596755E+02 -0.49875794737E+02  0.38074935991E+03  0.38829066074E+03  0.10566000000E+00 0. -1.
<mgrwt>
<rscale>  1 0.50266235E+03</rscale>
<asrwt>0</asrwt>
<pdfrwt beam="2">  1       21 0.33468104E-01 0.94290790E+03</pdfrwt>
<pdfrwt beam="1">  1        4 0.21911800E+00 0.94290790E+03</pdfrwt>
<totfact> 0.10279169E+02</totfact>
</mgrwt>
</event>
<event>
 6    1  0.5391662E-005  0.1285112E+04  0.7818608E-02  0.8637149E-01
          4   -1    0    0  502    0 -0.00000000000E+00  0.00000000000E+00  0.69427555474E+03  0.69427555474E+03  0.00000000000E+00 0.  1.
         21   -1    0    0  501  502  0.00000000000E+00 -0.00000000000E+00 -0.16531538083E+04  0.16531538083E+04  0.00000000000E+00 0. -1.
    9000010    2    1    2  501    0  0.82477992815E+03  0.22036839920E+03 -0.50706179651E+03  0.13815296357E+04  0.96056665967E+03 0.  0.
        -13    1    3    3    0    0  0.75624029697E+03  0.88232959751E+02  0.89559596406E+02  0.76661944563E+03  0.10566000000E+00 0.  1.
          4    1    3    3  501    0  0.68539631178E+02  0.13213543945E+03 -0.59662139292E+03  0.61491019010E+03  0.00000000000E+00 0.  1.
         13    1    1    2    0    0 -0.82477992815E+03 -0.22036839920E+03 -0.45181645710E+03  0.96589972736E+03  0.10566000000E+00 0. -1.
<mgrwt>
<rscale>  1 0.11602020E+04</rscale>
<asrwt>0</asrwt>
<pdfrwt beam="2">  1       21 0.25433136E+00 0.12851119E+04</pdfrwt>
<pdfrwt beam="1">  1        4 0.10681162E+00 0.12851119E+04</pdfrwt>
<totfact> 0.11120570E+00</totfact>
</mgrwt>
</event>
<event>
 6    1  0.5391662E-005  0.1034180E+04  0.7818608E-02  0.9227328E-01
          4   -1    0    0  502    0 -0.00000000000E+00  0.00000000000E+00  0.70481819015E+03  0.70481819015E+03  0.00000000000E+00 0.  1.
         21   -1    0    0  501  502  0.00000000000E+00 -0.00000000000E+00 -0.57709176444E+03  0.57709176444E+03  0.00000000000E+00 0.  1.
    9000010    2    1    2  501    0  0.13275924312E+03  0.57235233280E+02 -0.70481085544E+02  0.10365793262E+04  0.10240255014E+04 0.  0.
        -13    1    3    3    0    0  0.28201549983E+03 -0.21390312411E+03 -0.43342094253E+03  0.55959004033E+03  0.10566000000E+00 0.  1.
          4    1    3    3  501    0 -0.14925625671E+03  0.27113835739E+03  0.36293985699E+03  0.47698928584E+03  0.00000000000E+00 0.  1.
         13    1    1    2    0    0 -0.13275924312E+03 -0.57235233280E+02  0.19820751126E+03  0.24533062843E+03  0.10566000000E+00 0. -1.
<mgrwt>
<rscale>  1 0.63236504E+03</rscale>
<asrwt>0</asrwt>
<pdfrwt beam="2">  1       21 0.88783349E-01 0.10341804E+04</pdfrwt>
<pdfrwt beam="1">  1        4 0.10843357E+00 0.10341804E+04</pdfrwt>
<totfact> 0.31524389E+01</totfact>
</mgrwt>
</event>
<event>
 6    1  0.5391662E-005  0.1546588E+04  0.7818608E-02  0.8442377E-01
          4   -1    0    0  502    0 -0.00000000000E+00  0.00000000000E+00  0.30753839543E+04  0.30753839543E+04  0.00000000000E+00 0.  1.
         21   -1    0    0  501  502  0.00000000000E+00 -0.00000000000E+00 -0.60883860268E+03  0.60883860268E+03  0.00000000000E+00 0. -1.
    9000010    2    1    2  501    0 -0.34083528820E+03 -0.11253349501E+04  0.12130404472E+04  0.19655538862E+04  0.10046827904E+04 0.  0.
        -13    1    3    3    0    0 -0.12695687057E+03 -0.76928001489E+03  0.11063308436E+03  0.78749570083E+03  0.10566000000E+00 0.  1.
          4    1    3    3  501    0 -0.21387841763E+03 -0.35605493517E+03  0.11024073629E+04  0.11780581854E+04  0.00000000000E+00 0.  1.
         13    1    1    2    0    0  0.34083528820E+03  0.11253349501E+04  0.12535049044E+04  0.17186686708E+04  0.10566000000E+00 0. -1.
<mgrwt>
<rscale>  1 0.14441623E+04</rscale>
<asrwt>0</asrwt>
<pdfrwt beam="2">  1       21 0.93667479E-01 0.15465882E+04</pdfrwt>
<pdfrwt beam="1">  1        4 0.47313598E+00 0.15465882E+04</pdfrwt>
<totfact> 0.12586714E+00</totfact>
</mgrwt>
</event>
<event>
 6    1  0.5391662E-005  0.1137641E+04  0.7818608E-02  0.8812871E-01
          4   -1    0    0  502    0 -0.00000000000E+00  0.00000000000E+00  0.15645155934E+04  0.15645155934E+04  0.00000000000E+00 0.  1.
         21   -1    0    0  501  502  0.00000000000E+00 -0.00000000000E+00 -0.49784672714E+03  0.49784672714E+03  0.00000000000E+00 0.  1.
    9000010    2    1    2  501    0  0.15337544529E+03  0.55669859390E+03  0.92893413942E+03  0.14687225158E+04  0.98019887845E+03 0.  0.
        -13    1    3    3    0    0  0.37809436818E+03  0.15385804816E+03  0.92096380888E+03  0.10073738128E+04  0.10566000000E+00 0.  1.
          4    1    3    3  501    0 -0.22471892289E+03  0.40284054574E+03  0.79703305416E+01  0.46134870301E+03  0.00000000000E+00 0.  1.
         13    1    1    2    0    0 -0.15337544529E+03 -0.55669859390E+03  0.13773472686E+03  0.59363980478E+03  0.10566000000E+00 0. -1.
<mgrwt>
<rscale>  1 0.96024219E+03</rscale>
<asrwt>0</asrwt>
<pdfrwt beam="2">  1       21 0.76591805E-01 0.11376411E+04</pdfrwt>
<pdfrwt beam="1">  1        4 0.24069470E+00 0.11376411E+04</pdfrwt>
<totfact> 0.14093429E+01</totfact>
</mgrwt>
</event>
<event>
 6    1  0.5391662E-005  0.9616314E+03  0.7818608E-02  0.9385809E-01
         21   -1    0    0  501  502  0.00000000000E+00  0.00000000000E+00  0.20583629409E+03  0.20583629409E+03  0.00000000000E+00 0.  1.
          4   -1    0    0  502    0 -0.00000000000E+00 -0.00000000000E+00 -0.16288384657E+04  0.16288384657E+04  0.00000000000E+00 0.  1.
    9000010    2    1    2  501    0 -0.33644836006E+02  0.92797239940E+02 -0.95097739265E+03  0.13524396451E+04  0.95655197953E+03 0.  0.
        -13    1    3    3    0    0  0.25910229904E+03 -0.65153187802E+02 -0.98262477022E+03  0.10182977902E+04  0.10566000000E+00 0.  1.
          4    1    3    3  501    0 -0.29274713504E+03  0.15795042774E+03  0.31647377571E+02  0.33414185492E+03  0.00000000000E+00 0.  1.
         13    1    1    2    0    0  0.33644836006E+02 -0.92797239940E+02 -0.47202477894E+03  0.48223511468E+03  0.10566000000E+00 0. -1.
<mgrwt>
<rscale>  1 0.54430813E+03</rscale>
<asrwt>0</asrwt>
<pdfrwt beam="1">  1       21 0.31667124E-01 0.96163142E+03</pdfrwt>
<pdfrwt beam="2">  1        4 0.25059052E+00 0.96163142E+03</pdfrwt>
<totfact> 0.96655605E+01</totfact>
</mgrwt>
</event>
<event>
 6    1  0.5391662E-005  0.1015644E+04  0.7818608E-02  0.9238774E-01
         21   -1    0    0  501  502  0.00000000000E+00  0.00000000000E+00  0.69499504495E+03  0.69499504495E+03  0.00000000000E+00 0.  1.
          4   -1    0    0  502    0 -0.00000000000E+00 -0.00000000000E+00 -0.50181260000E+03  0.50181260000E+03  0.00000000000E+00 0.  1.
    9000010    2    1    2  501    0  0.14233904954E+03 -0.32751549480E+02  0.23965122451E+03  0.10435352480E+04  0.10050870786E+04 0.  0.
        -13    1    3    3    0    0 -0.62556524690E+02 -0.25492349988E+03  0.55056422945E+03  0.60993466165E+03  0.10566000000E+00 0.  1.
          4    1    3    3  501    0  0.20489557423E+03  0.22217195040E+03 -0.31091300493E+03  0.43360058639E+03  0.00000000000E+00 0.  1.
         13    1    1    2    0    0 -0.14233904954E+03  0.32751549480E+02 -0.46468779561E+02  0.15327239692E+03  0.10566000000E+00 0. -1.
<mgrwt>
<rscale>  1 0.62544321E+03</rscale>
<asrwt>0</asrwt>
<pdfrwt beam="1">  1       21 0.10692232E+00 0.10156442E+04</pdfrwt>
<pdfrwt beam="2">  1        4 0.77201938E-01 0.10156442E+04</pdfrwt>
<totfact> 0.38040219E+01</totfact>
</mgrwt>
</event>
<event>
 6    1  0.5391662E-005  0.1014838E+04  0.7818608E-02  0.9186823E-01
         21   -1    0    0  501  502  0.00000000000E+00  0.00000000000E+00  0.67757614203E+02  0.67757614203E+02  0.00000000000E+00 0. -1.
          4   -1    0    0  502    0 -0.00000000000E+00 -0.00000000000E+00 -0.55169361045E+04  0.55169361045E+04  0.00000000000E+00 0.  1.
    9000010    2    1    2  501    0 -0.17818069700E+03  0.16550505282E+02 -0.49842553483E+04  0.50865212394E+04  0.99893676565E+03 0.  0.
        -13    1    3    3    0    0  0.24173461100E+03  0.34236918156E+03 -0.13486398042E+04  0.14122611697E+04  0.10566000000E+00 0.  1.
          4    1    3    3  501    0 -0.41991530800E+03 -0.32581867628E+03 -0.36356155441E+04  0.36742600698E+04  0.00000000000E+00 0.  1.
         13    1    1    2    0    0  0.17818069700E+03 -0.16550505282E+02 -0.46492314196E+03  0.49817247927E+03  0.10566000000E+00 0. -1.
<mgrwt>
<rscale>  1 0.65762644E+03</rscale>
<asrwt>0</asrwt>
<pdfrwt beam="1">  1       21 0.10424247E-01 0.10148384E+04</pdfrwt>
<pdfrwt beam="2">  1        4 0.84875947E+00 0.10148384E+04</pdfrwt>
<totfact> 0.60844132E-01</totfact>
</mgrwt>
</event>
<event>
 6    1  0.5391662E-005  0.1332253E+04  0.7818608E-02  0.8605895E-01
         21   -1    0    0  501  502  0.00000000000E+00  0.00000000000E+00  0.16524792369E+04  0.16524792369E+04  0.00000000000E+00 0. -1.
          4   -1    0    0  502    0 -0.00000000000E+00 -0.00000000000E+00 -0.74666026005E+03  0.74666026005E+03  0.00000000000E+00 0.  1.
    9000010    2    1    2  501    0 -0.87031816800E+03 -0.12691019599E+03  0.65494067652E+03  0.14845358428E+04  0.10006695096E+04 0.  0.
        -13    1    3    3    0    0 -0.25688538507E+03  0.24293304187E+03 -0.16974879015E+03  0.39220049314E+03  0.10566000000E+00 0.  1.
          4    1    3    3  501    0 -0.61343278292E+03 -0.36984323785E+03  0.82468946667E+03  0.10923353497E+04  0.00000000000E+00 0.  1.
         13    1    1    2    0    0  0.87031816800E+03  0.12691019599E+03  0.25087830032E+03  0.91460365412E+03  0.10566000000E+00 0. -1.
<mgrwt>
<rscale>  1 0.12008863E+04</rscale>
<asrwt>0</asrwt>
<pdfrwt beam="1">  1       21 0.25422757E+00 0.13322535E+04</pdfrwt>
<pdfrwt beam="2">  1        4 0.11487081E+00 0.13322535E+04</pdfrwt>
<totfact> 0.97318109E-01</totfact>
</mgrwt>
</event>
<event>
 6    1  0.5391662E-005  0.1080455E+04  0.7818608E-02  0.8980236E-01
         21   -1    0    0  501  502  0.00000000000E+00  0.00000000000E+00  0.18870083472E+03  0.18870083472E+03  0.00000000000E+00 0.  1.
          4   -1    0    0  502    0 -0.00000000000E+00 -0.00000000000E+00 -0.27129610230E+04  0.27129610230E+04  0.00000000000E+00 0.  1.
    9000010    2    1    2  501    0  0.33695535332E+03  0.18839743918E+00 -0.17412479204E+04  0.20492258376E+04  0.10265686862E+04 0.  0.
        -13    1    3    3    0    0  0.18960587506E+03  0.43869433738E+02 -0.18504730014E+04  0.18606787082E+04  0.10566000000E+00 0.  1.
          4    1    3    3  501    0  0.14734947826E+03 -0.43681036299E+02  0.10922508101E+03  0.18854712938E+03  0.00000000000E+00 0.  1.
         13    1    1    2    0    0 -0.33695535332E+03 -0.18839743918E+00 -0.78301226793E+03  0.85243602019E+03  0.10566000000E+00 0. -1.
<mgrwt>
<rscale>  1 0.80741723E+03</rscale>
<asrwt>0</asrwt>
<pdfrwt beam="1">  1       21 0.29030898E-01 0.10804546E+04</pdfrwt>
<pdfrwt beam="2">  1        4 0.41737862E+00 0.10804546E+04</pdfrwt>
<totfact> 0.34274196E+01</totfact>
</mgrwt>
</event>
<event>
 6    1  0.5391662E-005  0.1035734E+04  0.7818608E-02  0.9085404E-01
          4   -1    0    0  502    0 -0.00000000000E+00  0.00000000000E+00  0.15887058362E+04  0.15887058362E+04  0.00000000000E+00 0.  1.
         21   -1    0    0  501  502  0.00000000000E+00 -0.00000000000E+00 -0.26151972967E+03  0.26151972967E+03  0.00000000000E+00 0.  1.
    9000010    2    1    2  501    0  0.67934251546E+02 -0.24133982627E+03  0.10193817916E+04  0.14532325159E+04  0.10049306115E+04 0.  0.
        -13    1    3    3    0    0 -0.12840744036E+03 -0.55530600146E+03  0.29989056518E+03  0.64404005174E+03  0.10566000000E+00 0.  1.
          4    1    3    3  501    0  0.19634169191E+03  0.31396617520E+03  0.71949122637E+03  0.80919246411E+03  0.00000000000E+00 0.  1.
         13    1    1    2    0    0 -0.67934251546E+02  0.24133982627E+03  0.30780431493E+03  0.39699304998E+03  0.10566000000E+00 0. -1.
<mgrwt>
<rscale>  1 0.72649570E+03</rscale>
<asrwt>0</asrwt>
<pdfrwt beam="2">  1       21 0.40233805E-01 0.10357343E+04</pdfrwt>
<pdfrwt beam="1">  1        4 0.24441628E+00 0.10357343E+04</pdfrwt>
<totfact> 0.60097143E+01</totfact>
</mgrwt>
</event>
<event>
 6    1  0.5391662E-005  0.1028634E+04  0.7818608E-02  0.9106934E-01
          4   -1    0    0  502    0 -0.00000000000E+00  0.00000000000E+00  0.64904033640E+03  0.64904033640E+03  0.00000000000E+00 0.  1.
         21   -1    0    0  501  502  0.00000000000E+00 -0.00000000000E+00 -0.72791259180E+03  0.72791259180E+03  0.00000000000E+00 0.  1.
    9000010    2    1    2  501    0  0.12894435929E+02 -0.23466598255E+03 -0.28170298091E+03  0.10665101731E+04  0.10014254790E+04 0.  0.
        -13    1    3    3    0    0 -0.30763947369E+03  0.23221291037E+03 -0.31705543510E+03  0.49908821025E+03  0.10566000000E+00 0.  1.
          4    1    3    3  501    0  0.32053390962E+03 -0.46687889292E+03  0.35352454185E+02  0.56742196282E+03  0.00000000000E+00 0.  1.
         13    1    1    2    0    0 -0.12894435929E+02  0.23466598255E+03  0.20283072551E+03  0.31044275514E+03  0.10566000000E+00 0. -1.
<mgrwt>
<rscale>  1 0.71116730E+03</rscale>
<asrwt>0</asrwt>
<pdfrwt beam="2">  1       21 0.11198655E+00 0.10286337E+04</pdfrwt>
<pdfrwt beam="1">  1        4 0.99852360E-01 0.10286337E+04</pdfrwt>
<totfact> 0.20009231E+01</totfact>
</mgrwt>
</event>
<event>
 6    1  0.5391662E-005  0.1246905E+04  0.7818608E-02  0.8943846E-01
         21   -1    0    0  501  502  0.00000000000E+00  0.00000000000E+00  0.38296638247E+03  0.38296638247E+03  0.00000000000E+00 0. -1.
          4   -1    0    0  502    0 -0.00000000000E+00 -0.00000000000E+00 -0.18785032368E+04  0.18785032368E+04  0.00000000000E+00 0.  1.
    9000010    2    1    2  501    0 -0.14070645720E+03 -0.21186224432E+03 -0.15619467873E+04  0.19986118478E+04  0.12206914574E+04 0.  0.
        -13    1    3    3    0    0  0.54270842572E+03 -0.13328713804E+03 -0.68464398873E+03  0.88376201490E+03  0.10566000000E+00 0.  1.
          4    1    3    3  501    0 -0.68341488292E+03 -0.78575106287E+02 -0.87730279860E+03  0.11148498329E+04  0.00000000000E+00 0.  1.
         13    1    1    2    0    0  0.14070645720E+03  0.21186224432E+03  0.66409932976E+02  0.26285777148E+03  0.10566000000E+00 0. -1.
<mgrwt>
<rscale>  1 0.83796248E+03</rscale>
<asrwt>0</asrwt>
<pdfrwt beam="1">  1       21 0.58917906E-01 0.12469048E+04</pdfrwt>
<pdfrwt beam="2">  1        4 0.28900049E+00 0.12469048E+04</pdfrwt>
<totfact> 0.19729383E+01</totfact>
</mgrwt>
</event>
<event>
 6    1  0.5391662E-005  0.1078416E+04  0.7818608E-02  0.8938457E-01
         21   -1    0    0  501  502  0.00000000000E+00  0.00000000000E+00  0.11768395138E+04  0.11768395138E+04  0.00000000000E+00 0. -1.
          4   -1    0    0  502    0 -0.00000000000E+00 -0.00000000000E+00 -0.46770285653E+03  0.46770285653E+03  0.00000000000E+00 0.  1.
    9000010    2    1    2  501    0 -0.38040424983E+03  0.12973320085E+03  0.46589764822E+03  0.11747516474E+04  0.10007210988E+04 0.  0.
        -13    1    3    3    0    0 -0.66959224486E+03 -0.13686751676E+03  0.26421608424E+03  0.73273231255E+03  0.10566000000E+00 0.  1.
          4    1    3    3  501    0  0.28918799503E+03  0.26660071761E+03  0.20168156398E+03  0.44201933481E+03  0.00000000000E+00 0.  1.
         13    1    1    2    0    0  0.38040424983E+03 -0.12973320085E+03  0.24323900906E+03  0.46979072297E+03  0.10566000000E+00 0. -1.
<mgrwt>
<rscale>  1 0.84260520E+03</rscale>
<asrwt>0</asrwt>
<pdfrwt beam="1">  1       21 0.18105223E+00 0.10784159E+04</pdfrwt>
<pdfrwt beam="2">  1        4 0.71954286E-01 0.10784159E+04</pdfrwt>
<totfact> 0.90344908E+00</totfact>
</mgrwt>
</event>
<event>
 6    1  0.5391662E-005  0.9856089E+03  0.7818608E-02  0.9242193E-01
         21   -1    0    0  501  502  0.00000000000E+00  0.00000000000E+00  0.16347171454E+04  0.16347171454E+04  0.00000000000E+00 0.  1.
          4   -1    0    0  502    0 -0.00000000000E+00 -0.00000000000E+00 -0.31499682142E+03  0.31499682142E+03  0.00000000000E+00 0.  1.
    9000010    2    1    2  501    0  0.78156091078E+02  0.13701430970E+03  0.14444126526E+04  0.17486431246E+04  0.97290470787E+03 0.  0.
        -13    1    3    3    0    0 -0.44319656516E+03  0.19365257086E+02  0.54875878957E+03  0.70564469022E+03  0.10566000000E+00 0.  1.
          4    1    3    3  501    0  0.52135265624E+03  0.11764905261E+03  0.89565386303E+03  0.10429984344E+04  0.00000000000E+00 0.  1.
         13    1    1    2    0    0 -0.78156091078E+02 -0.13701430970E+03 -0.12469232859E+03  0.20107084226E+03  0.10566000000E+00 0. -1.
<mgrwt>
<rscale>  1 0.62339398E+03</rscale>
<asrwt>0</asrwt>
<pdfrwt beam="1">  1       21 0.25149494E+00 0.98560888E+03</pdfrwt>
<pdfrwt beam="2">  1        4 0.48461050E-01 0.98560888E+03</pdfrwt>
<totfact> 0.61064260E+00</totfact>
</mgrwt>
</event>
<event>
 6    1  0.5391662E-005  0.1001805E+04  0.7818608E-02  0.9323783E-01
          4   -1    0    0  502    0 -0.00000000000E+00  0.00000000000E+00  0.10010068905E+04  0.10010068905E+04  0.00000000000E+00 0.  1.
         21   -1    0    0  501  502  0.00000000000E+00 -0.00000000000E+00 -0.42810111963E+03  0.42810111963E+03  0.00000000000E+00 0.  1.
    9000010    2    1    2  501    0 -0.35775245918E+02  0.10415575401E+03  0.17592503460E+03  0.10171347034E+04  0.99573344715E+03 0.  0.
        -13    1    3    3    0    0 -0.33436988818E+03  0.35384869170E+03 -0.15004036766E+03  0.50943521848E+03  0.10566000000E+00 0.  1.
          4    1    3    3  501    0  0.29859464226E+03 -0.24969293770E+03  0.32596540226E+03  0.50769948493E+03  0.00000000000E+00 0.  1.
         13    1    1    2    0    0  0.35775245918E+02 -0.10415575401E+03  0.39698073626E+03  0.41197330671E+03  0.10566000000E+00 0. -1.
<mgrwt>
<rscale>  1 0.57684935E+03</rscale>
<asrwt>0</asrwt>
<pdfrwt beam="2">  1       21 0.65861711E-01 0.10018051E+04</pdfrwt>
<pdfrwt beam="1">  1        4 0.15400106E+00 0.10018051E+04</pdfrwt>
<totfact> 0.37097489E+01</totfact>
</mgrwt>
</event>
<event>
 6    1  0.5391662E-005  0.1033242E+04  0.7818608E-02  0.9051779E-01
          4   -1    0    0  502    0 -0.00000000000E+00  0.00000000000E+00  0.23488935247E+04  0.23488935247E+04  0.00000000000E+00 0.  1.
         21   -1    0    0  501  502  0.00000000000E+00 -0.00000000000E+00 -0.30996481786E+03  0.30996481786E+03  0.00000000000E+00 0.  1.
    9000010    2    1    2  501    0  0.12273490566E+03  0.26136645052E+03  0.60751080026E+03  0.11986071611E+04  0.99207533769E+03 0.  0.
        -13    1    3    3    0    0 -0.24126647982E+03 -0.49110886483E+02  0.67215591427E+03  0.71583166855E+03  0.10566000000E+00 0.  1.
          4    1    3    3  501    0  0.36400138548E+03  0.31047733701E+03 -0.64645114009E+02  0.48277549254E+03  0.00000000000E+00 0.  1.
         13    1    1    2    0    0 -0.12273490566E+03 -0.26136645052E+03  0.14314179066E+04  0.14602511815E+04  0.10566000000E+00 0. -1.
<mgrwt>
<rscale>  1 0.75124565E+03</rscale>
<asrwt>0</asrwt>
<pdfrwt beam="2">  1       21 0.47686896E-01 0.10332424E+04</pdfrwt>
<pdfrwt beam="1">  1        4 0.36136822E+00 0.10332424E+04</pdfrwt>
<totfact> 0.19846352E+01</totfact>
</mgrwt>
</event>
<event>
 6    1  0.5391662E-005  0.1003244E+04  0.7818608E-02  0.9253078E-01
         21   -1    0    0  501  502  0.00000000000E+00  0.00000000000E+00  0.52580936968E+03  0.52580936968E+03  0.00000000000E+00 0.  1.
          4   -1    0    0  502    0 -0.00000000000E+00 -0.00000000000E+00 -0.65342580882E+03  0.65342580882E+03  0.00000000000E+00 0.  1.
    9000010    2    1    2  501    0  0.97774995374E+02 -0.10496907987E+03 -0.26256672700E+02  0.10035870334E+04  0.99293457155E+03 0.  0.
        -13    1    3    3    0    0  0.26881560195E+03  0.28094953465E+03  0.28247579226E+03  0.48061112477E+03  0.10566000000E+00 0.  1.
          4    1    3    3  501    0 -0.17104060657E+03 -0.38591861452E+03 -0.30873246496E+03  0.52297590867E+03  0.00000000000E+00 0.  1.
         13    1    1    2    0    0 -0.97774995374E+02  0.10496907987E+03 -0.10135976644E+03  0.17564814507E+03  0.10566000000E+00 0. -1.
<mgrwt>
<rscale>  1 0.61692362E+03</rscale>
<asrwt>0</asrwt>
<pdfrwt beam="1">  1       21 0.80893749E-01 0.10032435E+04</pdfrwt>
<pdfrwt beam="2">  1        4 0.10052705E+00 0.10032435E+04</pdfrwt>
<totfact> 0.45913909E+01</totfact>
</mgrwt>
</event>
<event>
 6    1  0.5391662E-005  0.9734458E+03  0.7818608E-02  0.9110887E-01
         21   -1    0    0  501  502  0.00000000000E+00  0.00000000000E+00  0.20744204545E+03  0.20744204545E+03  0.00000000000E+00 0.  1.
          4   -1    0    0  502    0 -0.00000000000E+00 -0.00000000000E+00 -0.20025819752E+04  0.20025819752E+04  0.00000000000E+00 0.  1.
    9000010    2    1    2  501    0  0.27192727845E+03  0.24222401515E+02 -0.11326233547E+04  0.14934632117E+04  0.93437975773E+03 0.  0.
        -13    1    3    3    0    0 -0.25691893572E+03 -0.26449888787E+03 -0.47911598882E+03  0.60458179193E+03  0.10566000000E+00 0.  1.
          4    1    3    3  501    0  0.52884621418E+03  0.28872128939E+03 -0.65350736584E+03  0.88888141977E+03  0.00000000000E+00 0.  1.
         13    1    1    2    0    0 -0.27192727845E+03 -0.24222401515E+02 -0.66251657511E+03  0.71656080898E+03  0.10566000000E+00 0. -1.
<mgrwt>
<rscale>  1 0.70839596E+03</rscale>
<asrwt>0</asrwt>
<pdfrwt beam="1">  1       21 0.31914161E-01 0.97344579E+03</pdfrwt>
<pdfrwt beam="2">  1        4 0.30808953E+00 0.97344579E+03</pdfrwt>
<totfact> 0.68220905E+01</totfact>
</mgrwt>
</event>
<event>
 6    1  0.5391662E-005  0.1039283E+04  0.7818608E-02  0.9063137E-01
         21   -1    0    0  501  502  0.00000000000E+00  0.00000000000E+00  0.30762899328E+03  0.30762899328E+03  0.00000000000E+00 0.  1.
          4   -1    0    0  502    0 -0.00000000000E+00 -0.00000000000E+00 -0.16457689797E+04  0.16457689797E+04  0.00000000000E+00 0.  1.
    9000010    2    1    2  501    0 -0.17346871737E+02 -0.27060231585E+03 -0.68103828848E+03  0.12425469479E+04  0.10032862204E+04 0.  0.
        -13    1    3    3    0    0  0.39073543697E+03  0.16551992172E+03 -0.17235805687E+03  0.45801565161E+03  0.10566000000E+00 0.  1.
          4    1    3    3  501    0 -0.40808230870E+03 -0.43612223757E+03 -0.50868023161E+03  0.78453129626E+03  0.00000000000E+00 0.  1.
         13    1    1    2    0    0  0.17346871737E+02  0.27060231585E+03 -0.65710169796E+03  0.71085102513E+03  0.10566000000E+00 0. -1.
<mgrwt>
<rscale>  1 0.74277277E+03</rscale>
<asrwt>0</asrwt>
<pdfrwt beam="1">  1       21 0.47327537E-01 0.10392833E+04</pdfrwt>
<pdfrwt beam="2">  1        4 0.25319523E+00 0.10392833E+04</pdfrwt>
<totfact> 0.40242300E+01</totfact>
</mgrwt>
</event>
<event>
 6    1  0.5391662E-005  0.1032222E+04  0.7818608E-02  0.9078076E-01
         21   -1    0    0  501  502  0.00000000000E+00  0.00000000000E+00  0.11020110147E+03  0.11020110147E+03  0.00000000000E+00 0.  1.
          4   -1    0    0  502    0 -0.00000000000E+00 -0.00000000000E+00 -0.38869873455E+04  0.38869873455E+04  0.00000000000E+00 0.  1.
    9000010    2    1    2  501    0  0.15696517362E+02 -0.26029818315E+03 -0.27362528405E+04  0.29244763235E+04  0.99873952301E+03 0.  0.
        -13    1    3    3    0    0  0.40328698217E+03  0.16350111595E+03 -0.14902321970E+04  0.15524706171E+04  0.10566000000E+00 0.  1.
          4    1    3    3  501    0 -0.38759046481E+03 -0.42379929910E+03 -0.12460206435E+04  0.13720057064E+04  0.00000000000E+00 0.  1.
         13    1    1    2    0    0 -0.15696517362E+02  0.26029818315E+03 -0.10405334036E+04  0.10727121235E+04  0.10566000000E+00 0. -1.
<mgrwt>
<rscale>  1 0.73180380E+03</rscale>
<asrwt>0</asrwt>
<pdfrwt beam="1">  1       21 0.16954014E-01 0.10322220E+04</pdfrwt>
<pdfrwt beam="2">  1        4 0.59799811E+00 0.10322220E+04</pdfrwt>
<totfact> 0.13344201E+01</totfact>
</mgrwt>
</event>
<event>
 6    1  0.5391662E-005  0.1032506E+04  0.7818608E-02  0.9104933E-01
         21   -1    0    0  501  502  0.00000000000E+00  0.00000000000E+00  0.72598449635E+03  0.72598449635E+03  0.00000000000E+00 0.  1.
          4   -1    0    0  502    0 -0.00000000000E+00 -0.00000000000E+00 -0.62395452056E+03  0.62395452056E+03  0.00000000000E+00 0.  1.
    9000010    2    1    2  501    0  0.20891729986E+03 -0.10591358763E+03 -0.10434035826E+03  0.10377646231E+04  0.10055865832E+04 0.  0.
        -13    1    3    3    0    0  0.44374607428E+03  0.31539692758E+03 -0.66756760420E+00  0.54441368202E+03  0.10566000000E+00 0.  1.
          4    1    3    3  501    0 -0.23482877442E+03 -0.42131051521E+03 -0.10367279065E+03  0.49335094106E+03  0.00000000000E+00 0.  1.
         13    1    1    2    0    0 -0.20891729986E+03  0.10591358763E+03  0.20637033404E+03  0.31217439383E+03  0.10566000000E+00 0. -1.
<mgrwt>
<rscale>  1 0.71257493E+03</rscale>
<asrwt>0</asrwt>
<pdfrwt beam="1">  1       21 0.11168992E+00 0.10325059E+04</pdfrwt>
<pdfrwt beam="2">  1        4 0.95993003E-01 0.10325059E+04</pdfrwt>
<totfact> 0.21731164E+01</totfact>
</mgrwt>
</event>
<event>
 6    1  0.5391662E-005  0.1027571E+04  0.7818608E-02  0.9191141E-01
         21   -1    0    0  501  502  0.00000000000E+00  0.00000000000E+00  0.28507097730E+03  0.28507097730E+03  0.00000000000E+00 0.  1.
          4   -1    0    0  502    0 -0.00000000000E+00 -0.00000000000E+00 -0.18091415841E+04  0.18091415841E+04  0.00000000000E+00 0.  1.
    9000010    2    1    2  501    0  0.96425560270E+02  0.13941359224E+03 -0.67744954683E+03  0.12307884080E+04  0.10134930578E+04 0.  0.
        -13    1    3    3    0    0 -0.23028364256E+03 -0.11557069198E+03  0.15513798389E+03  0.30075728767E+03  0.10566000000E+00 0.  1.
          4    1    3    3  501    0  0.32670920283E+03  0.25498428422E+03 -0.83258753072E+03  0.93003112030E+03  0.00000000000E+00 0.  1.
         13    1    1    2    0    0 -0.96425560270E+02 -0.13941359224E+03 -0.84662105998E+03  0.86342415344E+03  0.10566000000E+00 0. -1.
<mgrwt>
<rscale>  1 0.65487512E+03</rscale>
<asrwt>0</asrwt>
<pdfrwt beam="1">  1       21 0.43857073E-01 0.10275710E+04</pdfrwt>
<pdfrwt beam="2">  1        4 0.27832947E+00 0.10275710E+04</pdfrwt>
<totfact> 0.41520948E+01</totfact>
</mgrwt>
</event>
<event>
 6    1  0.5391662E-005  0.1013106E+04  0.7818608E-02  0.9235225E-01
          4   -1    0    0  502    0 -0.00000000000E+00  0.00000000000E+00  0.15763531750E+04  0.15763531750E+04  0.00000000000E+00 0.  1.
         21   -1    0    0  501  502  0.00000000000E+00 -0.00000000000E+00 -0.25981638079E+03  0.25981638079E+03  0.00000000000E+00 0.  1.
    9000010    2    1    2  501    0 -0.76552679315E+02 -0.12804065653E+03  0.77804243036E+03  0.12773932915E+04  0.10020623111E+04 0.  0.
        -13    1    3    3    0    0 -0.49807855774E+03  0.11751539179E+03  0.29412385847E+03  0.59025500614E+03  0.10566000000E+00 0.  1.
          4    1    3    3  501    0  0.42152587842E+03 -0.24555604832E+03  0.48391857189E+03  0.68713828540E+03  0.00000000000E+00 0.  1.
         13    1    1    2    0    0  0.76552679315E+02  0.12804065653E+03  0.53849436386E+03  0.55877626427E+03  0.10566000000E+00 0. -1.
<mgrwt>
<rscale>  1 0.62757977E+03</rscale>
<asrwt>0</asrwt>
<pdfrwt beam="2">  1       21 0.39971752E-01 0.10131059E+04</pdfrwt>
<pdfrwt beam="1">  1        4 0.24251587E+00 0.10131059E+04</pdfrwt>
<totfact> 0.61679965E+01</totfact>
</mgrwt>
</event>
<event>
 6    1  0.5391662E-005  0.1079436E+04  0.7818608E-02  0.9080183E-01
         21   -1    0    0  501  502  0.00000000000E+00  0.00000000000E+00  0.23385029355E+04  0.23385029355E+04  0.00000000000E+00 0.  1.
          4   -1    0    0  502    0 -0.00000000000E+00 -0.00000000000E+00 -0.21460083068E+03  0.21460083068E+03  0.00000000000E+00 0.  1.
    9000010    2    1    2  501    0 -0.18850986697E+03 -0.12488681405E+03  0.20471552490E+04  0.23143093414E+04  0.10554858729E+04 0.  0.
        -13    1    3    3    0    0  0.27054213918E+03 -0.29347825994E+03  0.29812316016E+03  0.49819671608E+03  0.10566000000E+00 0.  1.
          4    1    3    3  501    0 -0.45905200615E+03  0.16859144589E+03  0.17490320888E+04  0.18161126253E+04  0.00000000000E+00 0.  1.
         13    1    1    2    0    0  0.18850986697E+03  0.12488681405E+03  0.76746855824E+02  0.23879442479E+03  0.10566000000E+00 0. -1.
<mgrwt>
<rscale>  1 0.73027285E+03</rscale>
<asrwt>0</asrwt>
<pdfrwt beam="1">  1       21 0.35976967E+00 0.10794365E+04</pdfrwt>
<pdfrwt beam="2">  1        4 0.33015514E-01 0.10794365E+04</pdfrwt>
<totfact> 0.22669195E+00</totfact>
</mgrwt>
</event>
<event>
 6    1  0.5391662E-005  0.1026232E+04  0.7818608E-02  0.9197066E-01
          4   -1    0    0  502    0 -0.00000000000E+00  0.00000000000E+00  0.18917807898E+04  0.18917807898E+04  0.00000000000E+00 0.  1.
         21   -1    0    0  501  502  0.00000000000E+00 -0.00000000000E+00 -0.19775134171E+03  0.19775134171E+03  0.00000000000E+00 0.  1.
    9000010    2    1    2  501    0  0.16605932266E+03 -0.91074026547E+01  0.12619506093E+04  0.16265518107E+04  0.10126661883E+04 0.  0.
        -13    1    3    3    0    0  0.29259176943E+03 -0.35538904454E+03  0.11539524465E+04  0.12423838282E+04  0.10566000000E+00 0.  1.
          4    1    3    3  501    0 -0.12653244677E+03  0.34628164188E+03  0.10799816280E+03  0.38416798247E+03  0.00000000000E+00 0.  1.
         13    1    1    2    0    0 -0.16605932266E+03  0.91074026547E+01  0.43207883879E+03  0.46298032088E+03  0.10566000000E+00 0. -1.
<mgrwt>
<rscale>  1 0.65112286E+03</rscale>
<asrwt>0</asrwt>
<pdfrwt beam="2">  1       21 0.30423285E-01 0.10262317E+04</pdfrwt>
<pdfrwt beam="1">  1        4 0.29104319E+00 0.10262317E+04</pdfrwt>
<totfact> 0.83256142E+01</totfact>
</mgrwt>
</event>
<event>
 6    1  0.5391662E-005  0.1046352E+04  0.7818608E-02  0.9037940E-01
          4   -1    0    0  502    0 -0.00000000000E+00  0.00000000000E+00  0.24499430378E+04  0.24499430378E+04  0.00000000000E+00 0.  1.
         21   -1    0    0  501  502  0.00000000000E+00 -0.00000000000E+00 -0.25244561011E+03  0.25244561011E+03  0.00000000000E+00 0.  1.
    9000010    2    1    2  501    0 -0.26157259538E+03  0.13395518186E+03  0.92563357895E+03  0.13970144202E+04  0.10042348104E+04 0.  0.
        -13    1    3    3    0    0  0.28358475977E+03  0.18571479069E+03  0.21109849823E+02  0.33964089327E+03  0.10566000000E+00 0.  1.
          4    1    3    3  501    0 -0.54515735515E+03 -0.51759608828E+02  0.90452372913E+03  0.10573735270E+04  0.00000000000E+00 0.  1.
         13    1    1    2    0    0  0.26157259538E+03 -0.13395518186E+03  0.12718638487E+04  0.13053742277E+04  0.10566000000E+00 0. -1.
<mgrwt>
<rscale>  1 0.76172811E+03</rscale>
<asrwt>0</asrwt>
<pdfrwt beam="2">  1       21 0.38837788E-01 0.10463516E+04</pdfrwt>
<pdfrwt beam="1">  1        4 0.37691430E+00 0.10463516E+04</pdfrwt>
<totfact> 0.27085425E+01</totfact>
</mgrwt>
</event>
<event>
 6    1  0.5391662E-005  0.1018518E+04  0.7818608E-02  0.9129843E-01
          4   -1    0    0  502    0 -0.00000000000E+00  0.00000000000E+00  0.21724946992E+04  0.21724946992E+04  0.00000000000E+00 0.  1.
         21   -1    0    0  501  502  0.00000000000E+00 -0.00000000000E+00 -0.21135031282E+03  0.21135031282E+03  0.00000000000E+00 0.  1.
    9000010    2    1    2  501    0  0.12813374384E+03 -0.18028626107E+03  0.11189282481E+04  0.15130698246E+04  0.99421249115E+03 0.  0.
        -13    1    3    3    0    0  0.51824054503E+03 -0.26609430654E+03  0.85395433237E+03  0.10337395491E+04  0.10566000000E+00 0.  1.
          4    1    3    3  501    0 -0.39010680119E+03  0.85808045464E+02  0.26497391574E+03  0.47933027552E+03  0.00000000000E+00 0.  1.
         13    1    1    2    0    0 -0.12813374384E+03  0.18028626107E+03  0.84221613824E+03  0.87077518736E+03  0.10566000000E+00 0. -1.
<mgrwt>
<rscale>  1 0.69528690E+03</rscale>
<asrwt>0</asrwt>
<pdfrwt beam="2">  1       21 0.32515434E-01 0.10185185E+04</pdfrwt>
<pdfrwt beam="1">  1        4 0.33422994E+00 0.10185185E+04</pdfrwt>
<totfact> 0.55174667E+01</totfact>
</mgrwt>
</event>
<event>
 6    1  0.5391662E-005  0.1101713E+04  0.7818608E-02  0.8854593E-01
          4   -1    0    0  502    0 -0.00000000000E+00  0.00000000000E+00  0.27854588769E+04  0.27854588769E+04  0.00000000000E+00 0.  1.
         21   -1    0    0  501  502  0.00000000000E+00 -0.00000000000E+00 -0.45807670480E+03  0.45807670480E+03  0.00000000000E+00 0.  1.
    9000010    2    1    2  501    0 -0.46269265598E+03  0.26570591812E+03  0.29252237190E+03  0.11398867169E+04  0.96389224525E+03 0.  0.
        -13    1    3    3    0    0  0.85703747389E+01 -0.21210520345E+03 -0.21220831140E+03  0.30015737080E+03  0.10566000000E+00 0.  1.
          4    1    3    3  501    0 -0.47126303072E+03  0.47781112157E+03  0.50473068330E+03  0.83972934609E+03  0.00000000000E+00 0.  1.
         13    1    1    2    0    0  0.46269265598E+03 -0.26570591812E+03  0.20348598002E+04  0.21036488649E+04  0.10566000000E+00 0. -1.
<mgrwt>
<rscale>  1 0.91906638E+03</rscale>
<asrwt>0</asrwt>
<pdfrwt beam="2">  1       21 0.70473341E-01 0.11017134E+04</pdfrwt>
<pdfrwt beam="1">  1        4 0.42853213E+00 0.11017134E+04</pdfrwt>
<totfact> 0.43896038E+00</totfact>
</mgrwt>
</event>
<event>
 6    1  0.5391662E-005  0.1003182E+04  0.7818608E-02  0.9658331E-01
         21   -1    0    0  501  502  0.00000000000E+00  0.00000000000E+00  0.51393850866E+03  0.51393850866E+03  0.00000000000E+00 0.  1.
          4   -1    0    0  502    0 -0.00000000000E+00 -0.00000000000E+00 -0.58376668204E+03  0.58376668204E+03  0.00000000000E+00 0.  1.
    9000010    2    1    2  501    0  0.17151283157E+02 -0.27545816711E+02  0.18764350769E+02  0.10033569791E+04  0.10026565654E+04 0.  0.
        -13    1    3    3    0    0 -0.24658839805E+03  0.20692873953E+03  0.38022484479E+03  0.49819301988E+03  0.10566000000E+00 0.  1.
          4    1    3    3  501    0  0.26373968120E+03 -0.23447455624E+03 -0.36146049402E+03  0.50516395923E+03  0.00000000000E+00 0.  1.
         13    1    1    2    0    0 -0.17151283157E+02  0.27545816711E+02 -0.88592524151E+02  0.94348211598E+02  0.10566000000E+00 0. -1.
<mgrwt>
<rscale>  1 0.42543733E+03</rscale>
<asrwt>0</asrwt>
<pdfrwt beam="1">  1       21 0.79067463E-01 0.10031815E+04</pdfrwt>
<pdfrwt beam="2">  1        4 0.89810259E-01 0.10031815E+04</pdfrwt>
<totfact> 0.60473793E+01</totfact>
</mgrwt>
</event>
<event>
 6    1  0.5391662E-005  0.1005629E+04  0.7818608E-02  0.9186232E-01
          4   -1    0    0  502    0 -0.00000000000E+00  0.00000000000E+00  0.10713336063E+04  0.10713336063E+04  0.00000000000E+00 0.  1.
         21   -1    0    0  501  502  0.00000000000E+00 -0.00000000000E+00 -0.43117129658E+03  0.43117129658E+03  0.00000000000E+00 0.  1.
    9000010    2    1    2  501    0 -0.17828298656E+03 -0.46832095924E+02  0.20002832111E+03  0.10253298746E+04  0.98859089316E+03 0.  0.
        -13    1    3    3    0    0 -0.20020081853E+03 -0.38520962074E+03  0.43360533169E+03  0.61357999844E+03  0.10566000000E+00 0.  1.
          4    1    3    3  501    0  0.21917831972E+02  0.33837752482E+03 -0.23357701058E+03  0.41174987618E+03  0.00000000000E+00 0.  1.
         13    1    1    2    0    0  0.17828298656E+03  0.46832095924E+02  0.44013398857E+03  0.47717502823E+03  0.10566000000E+00 0. -1.
<mgrwt>
<rscale>  1 0.65800357E+03</rscale>
<asrwt>0</asrwt>
<pdfrwt beam="2">  1       21 0.66334046E-01 0.10056292E+04</pdfrwt>
<pdfrwt beam="1">  1        4 0.16482055E+00 0.10056292E+04</pdfrwt>
<totfact> 0.33130752E+01</totfact>
</mgrwt>
</event>
<event>
 6    1  0.5391662E-005  0.1046294E+04  0.7818608E-02  0.9038685E-01
         21   -1    0    0  501  502  0.00000000000E+00  0.00000000000E+00  0.22812682636E+03  0.22812682636E+03  0.00000000000E+00 0.  1.
          4   -1    0    0  502    0 -0.00000000000E+00 -0.00000000000E+00 -0.19975646445E+04  0.19975646445E+04  0.00000000000E+00 0.  1.
    9000010    2    1    2  501    0 -0.19724893669E+03  0.21672639824E+03 -0.12579858901E+04  0.16362336178E+04  0.10044174817E+04 0.  0.
        -13    1    3    3    0    0  0.24372334688E+03 -0.12641746722E+03 -0.16794035655E+02  0.27507180268E+03  0.10566000000E+00 0.  1.
          4    1    3    3  501    0 -0.44097228357E+03  0.34314386545E+03 -0.12411918545E+04  0.13611618151E+04  0.00000000000E+00 0.  1.
         13    1    1    2    0    0  0.19724893669E+03 -0.21672639824E+03 -0.51145192796E+03  0.58945785303E+03  0.10566000000E+00 0. -1.
<mgrwt>
<rscale>  1 0.76115891E+03</rscale>
<asrwt>0</asrwt>
<pdfrwt beam="1">  1       21 0.35096435E-01 0.10462944E+04</pdfrwt>
<pdfrwt beam="2">  1        4 0.30731764E+00 0.10462944E+04</pdfrwt>
<totfact> 0.55792091E+01</totfact>
</mgrwt>
</event>
<event>
 6    1  0.5391662E-005  0.1013984E+04  0.7818608E-02  0.9121090E-01
         21   -1    0    0  501  502  0.00000000000E+00  0.00000000000E+00  0.27467558626E+03  0.27467558626E+03  0.00000000000E+00 0. -1.
          4   -1    0    0  502    0 -0.00000000000E+00 -0.00000000000E+00 -0.20564682652E+04  0.20564682652E+04  0.00000000000E+00 0.  1.
    9000010    2    1    2  501    0 -0.23189005155E+03  0.78314177131E+01 -0.71827548001E+03  0.12426112747E+04  0.98708094281E+03 0.  0.
        -13    1    3    3    0    0 -0.50436868098E+03  0.18653171971E+02 -0.81045152139E+03  0.95476038191E+03  0.10566000000E+00 0.  1.
          4    1    3    3  501    0  0.27247862943E+03 -0.10821754258E+02  0.92176041385E+02  0.28785089276E+03  0.00000000000E+00 0.  1.
         13    1    1    2    0    0  0.23189005155E+03 -0.78314177131E+01 -0.10635171989E+04  0.10885325767E+04  0.10566000000E+00 0. -1.
<mgrwt>
<rscale>  1 0.70130297E+03</rscale>
<asrwt>0</asrwt>
<pdfrwt beam="1">  1       21 0.42257784E-01 0.10139838E+04</pdfrwt>
<pdfrwt beam="2">  1        4 0.31637972E+00 0.10139838E+04</pdfrwt>
<totfact> 0.35665075E+01</totfact>
</mgrwt>
</event>
<event>
 6    1  0.5391662E-005  0.9185863E+03  0.7818608E-02  0.9327627E-01
         21   -1    0    0  501  502  0.00000000000E+00  0.00000000000E+00  0.21558456639E+03  0.21558456639E+03  0.00000000000E+00 0.  1.
          4   -1    0    0  502    0 -0.00000000000E+00 -0.00000000000E+00 -0.14522784573E+04  0.14522784573E+04  0.00000000000E+00 0.  1.
    9000010    2    1    2  501    0 -0.13621236590E+03  0.35643305691E+02 -0.83195965735E+03  0.12393375696E+04  0.90773150545E+03 0.  0.
        -13    1    3    3    0    0  0.97969985959E+02 -0.85976238071E+02 -0.94378319120E+03  0.95274170415E+03  0.10566000000E+00 0.  1.
          4    1    3    3  501    0 -0.23418235186E+03  0.12161954376E+03  0.11182353385E+03  0.28659586541E+03  0.00000000000E+00 0.  1.
         13    1    1    2    0    0  0.13621236590E+03 -0.35643305691E+02 -0.40473423351E+03  0.42852545409E+03  0.10566000000E+00 0. -1.
<mgrwt>
<rscale>  1 0.57476405E+03</rscale>
<asrwt>0</asrwt>
<pdfrwt beam="1">  1       21 0.33166857E-01 0.91858627E+03</pdfrwt>
<pdfrwt beam="2">  1        4 0.22342745E+00 0.91858627E+03</pdfrwt>
<totfact> 0.10236401E+02</totfact>
</mgrwt>
</event>
<event>
 6    1  0.5391662E-005  0.1100362E+04  0.7818608E-02  0.8886014E-01
          4   -1    0    0  502    0 -0.00000000000E+00  0.00000000000E+00  0.16972375567E+04  0.16972375567E+04  0.00000000000E+00 0.  1.
         21   -1    0    0  501  502  0.00000000000E+00 -0.00000000000E+00 -0.56031252587E+03  0.56031252587E+03  0.00000000000E+00 0.  1.
    9000010    2    1    2  501    0  0.46649808908E+03  0.55587231466E+02  0.82798026927E+02  0.11034728932E+04  0.99503090677E+03 0.  0.
        -13    1    3    3    0    0  0.44971230252E+03 -0.34359635105E+03 -0.21473752444E+03  0.60531960406E+03  0.10566000000E+00 0.  1.
          4    1    3    3  501    0  0.16785786556E+02  0.39918358252E+03  0.29753555137E+03  0.49815328917E+03  0.00000000000E+00 0.  1.
         13    1    1    2    0    0 -0.46649808908E+03 -0.55587231466E+02  0.10541270039E+04  0.11540771893E+04  0.10566000000E+00 0. -1.
<mgrwt>
<rscale>  1 0.88946650E+03</rscale>
<asrwt>0</asrwt>
<pdfrwt beam="2">  1       21 0.86201928E-01 0.11003622E+04</pdfrwt>
<pdfrwt beam="1">  1        4 0.26111347E+00 0.11003622E+04</pdfrwt>
<totfact> 0.94534657E+00</totfact>
</mgrwt>
</event>
<event>
 6    1  0.5391662E-005  0.1034980E+04  0.7818608E-02  0.9142833E-01
         21   -1    0    0  501  502  0.00000000000E+00  0.00000000000E+00  0.24910775975E+03  0.24910775975E+03  0.00000000000E+00 0.  1.
          4   -1    0    0  502    0 -0.00000000000E+00 -0.00000000000E+00 -0.16058561928E+04  0.16058561928E+04  0.00000000000E+00 0.  1.
    9000010    2    1    2  501    0  0.13636676653E+03 -0.14672371242E+03 -0.12655517601E+04  0.16348717284E+04  0.10154115264E+04 0.  0.
        -13    1    3    3    0    0  0.30079368512E+03 -0.94099038904E+02 -0.13879234862E+04  0.14232579123E+04  0.10566000000E+00 0.  1.
          4    1    3    3  501    0 -0.16442691859E+03 -0.52624673521E+02  0.12237172612E+03  0.21161381612E+03  0.00000000000E+00 0.  1.
         13    1    1    2    0    0 -0.13636676653E+03  0.14672371242E+03 -0.91196672924E+02  0.22009222412E+03  0.10566000000E+00 0. -1.
<mgrwt>
<rscale>  1 0.68647437E+03</rscale>
<asrwt>0</asrwt>
<pdfrwt beam="1">  1       21 0.38324271E-01 0.10349803E+04</pdfrwt>
<pdfrwt beam="2">  1        4 0.24705480E+00 0.10349803E+04</pdfrwt>
<totfact> 0.65708816E+01</totfact>
</mgrwt>
</event>
<event>
 6    1  0.5391662E-005  0.1006999E+04  0.7818608E-02  0.9168649E-01
         21   -1    0    0  501  502  0.00000000000E+00  0.00000000000E+00  0.30175319129E+03  0.30175319129E+03  0.00000000000E+00 0.  1.
          4   -1    0    0  502    0 -0.00000000000E+00 -0.00000000000E+00 -0.15319756473E+04  0.15319756473E+04  0.00000000000E+00 0.  1.
    9000010    2    1    2  501    0  0.86730441677E+02 -0.17642098794E+03 -0.12822221423E+04  0.16303805831E+04  0.98762375876E+03 0.  0.
        -13    1    3    3    0    0 -0.32071970736E+03  0.23207375768E+03 -0.73682946546E+03  0.83644308356E+03  0.10566000000E+00 0.  1.
          4    1    3    3  501    0  0.40745014903E+03 -0.40849474562E+03 -0.54539267685E+03  0.79393749950E+03  0.00000000000E+00 0.  1.
         13    1    1    2    0    0 -0.86730441677E+02  0.17642098794E+03  0.51999686285E+02  0.20334825556E+03  0.10566000000E+00 0. -1.
<mgrwt>
<rscale>  1 0.66936147E+03</rscale>
<asrwt>0</asrwt>
<pdfrwt beam="1">  1       21 0.46423568E-01 0.10069991E+04</pdfrwt>
<pdfrwt beam="2">  1        4 0.23568856E+00 0.10069991E+04</pdfrwt>
<totfact> 0.46291630E+01</totfact>
</mgrwt>
</event>
<event>
 6    1  0.5391662E-005  0.8712819E+03  0.7818608E-02  0.9198619E-01
         21   -1    0    0  501  502  0.00000000000E+00  0.00000000000E+00  0.13270802413E+03  0.13270802413E+03  0.00000000000E+00 0.  1.
          4   -1    0    0  502    0 -0.00000000000E+00 -0.00000000000E+00 -0.24624386832E+04  0.24624386832E+04  0.00000000000E+00 0.  1.
    9000010    2    1    2  501    0 -0.24206872371E+03 -0.11987245886E+03 -0.17127807302E+04  0.19216529069E+04  0.82835100727E+03 0.  0.
        -13    1    3    3    0    0  0.15609885717E+03 -0.90147403155E+02 -0.18781589049E+02  0.18123511458E+03  0.10566000000E+00 0.  1.
          4    1    3    3  501    0 -0.39816758088E+03 -0.29725055709E+02 -0.16939991412E+04  0.17404177923E+04  0.00000000000E+00 0.  1.
         13    1    1    2    0    0  0.24206872371E+03  0.11987245886E+03 -0.61694992889E+03  0.67349380050E+03  0.10566000000E+00 0. -1.
<mgrwt>
<rscale>  1 0.65014403E+03</rscale>
<asrwt>0</asrwt>
<pdfrwt beam="1">  1       21 0.20416621E-01 0.87128185E+03</pdfrwt>
<pdfrwt beam="2">  1        4 0.37883669E+00 0.87128185E+03</pdfrwt>
<totfact> 0.10100159E+02</totfact>
</mgrwt>
</event>
<event>
 6    1  0.5391662E-005  0.1005543E+04  0.7818608E-02  0.9173950E-01
         21   -1    0    0  501  502  0.00000000000E+00  0.00000000000E+00  0.24882369101E+03  0.24882369101E+03  0.00000000000E+00 0.  1.
          4   -1    0    0  502    0 -0.00000000000E+00 -0.00000000000E+00 -0.18001271660E+04  0.18001271660E+04  0.00000000000E+00 0.  1.
    9000010    2    1    2  501    0  0.14518688600E+03 -0.12777248338E+03 -0.83511914669E+03  0.13071118970E+04  0.98676870776E+03 0.  0.
        -13    1    3    3    0    0  0.14638778171E+03 -0.16934133176E+03  0.18239686294E+03  0.28874642171E+03  0.10566000000E+00 0.  1.
          4    1    3    3  501    0 -0.12008957058E+01  0.41568848384E+02 -0.10175160096E+04  0.10183654752E+04  0.00000000000E+00 0.  1.
         13    1    1    2    0    0 -0.14518688600E+03  0.12777248338E+03 -0.71618432835E+03  0.74183896009E+03  0.10566000000E+00 0. -1.
<mgrwt>
<rscale>  1 0.66591208E+03</rscale>
<asrwt>0</asrwt>
<pdfrwt beam="1">  1       21 0.38280568E-01 0.10055434E+04</pdfrwt>
<pdfrwt beam="2">  1        4 0.27694264E+00 0.10055434E+04</pdfrwt>
<totfact> 0.56168955E+01</totfact>
</mgrwt>
</event>
<event>
 6    1  0.5391662E-005  0.1105971E+04  0.7818608E-02  0.8855395E-01
         21   -1    0    0  501  502  0.00000000000E+00  0.00000000000E+00  0.25779493071E+03  0.25779493071E+03  0.00000000000E+00 0.  1.
          4   -1    0    0  502    0 -0.00000000000E+00 -0.00000000000E+00 -0.27197753022E+04  0.27197753022E+04  0.00000000000E+00 0.  1.
    9000010    2    1    2  501    0  0.13131403171E+03  0.50898699130E+03 -0.13319268052E+04  0.17312427454E+04  0.97306798164E+03 0.  0.
        -13    1    3    3    0    0  0.42117007142E+02  0.75555637411E+03 -0.12413750048E+04  0.14538401530E+04  0.10566000000E+00 0.  1.
          4    1    3    3  501    0  0.89197024568E+02 -0.24656938282E+03 -0.90551800444E+02  0.27740259245E+03  0.00000000000E+00 0.  1.
         13    1    1    2    0    0 -0.13131403171E+03 -0.50898699130E+03 -0.11300535663E+04  0.12463274875E+04  0.10566000000E+00 0. -1.
<mgrwt>
<rscale>  1 0.91829598E+03</rscale>
<asrwt>0</asrwt>
<pdfrwt beam="1">  1       21 0.39660760E-01 0.11059713E+04</pdfrwt>
<pdfrwt beam="2">  1        4 0.41842696E+00 0.11059713E+04</pdfrwt>
<totfact> 0.17624286E+01</totfact>
</mgrwt>
</event>
<event>
 6    1  0.5391662E-005  0.1016317E+04  0.7818608E-02  0.9202185E-01
          4   -1    0    0  502    0 -0.00000000000E+00  0.00000000000E+00  0.16729158247E+04  0.16729158247E+04  0.00000000000E+00 0.  1.
         21   -1    0    0  501  502  0.00000000000E+00 -0.00000000000E+00 -0.24184809024E+03  0.24184809024E+03  0.00000000000E+00 0.  1.
    9000010    2    1    2  501    0  0.11505311182E+01  0.16785776531E+03  0.89909226045E+03  0.13569328749E+04  0.10023584095E+04 0.  0.
        -13    1    3    3    0    0  0.12746205318E+03 -0.25264358322E+03  0.87230280436E+03  0.91705373278E+03  0.10566000000E+00 0.  1.
          4    1    3    3  501    0 -0.12631152206E+03  0.42050134854E+03  0.26789456082E+02  0.43987914213E+03  0.00000000000E+00 0.  1.
         13    1    1    2    0    0 -0.11505311182E+01 -0.16785776531E+03  0.53197547401E+03  0.55783104002E+03  0.10566000000E+00 0. -1.
<mgrwt>
<rscale>  1 0.64790268E+03</rscale>
<asrwt>0</asrwt>
<pdfrwt beam="2">  1       21 0.37207400E-01 0.10163168E+04</pdfrwt>
<pdfrwt beam="1">  1        4 0.25737166E+00 0.10163168E+04</pdfrwt>
<totfact> 0.66157898E+01</totfact>
</mgrwt>
</event>
<event>
 6    1  0.5391662E-005  0.1093489E+04  0.7818608E-02  0.8896631E-01
          4   -1    0    0  502    0 -0.00000000000E+00  0.00000000000E+00  0.24379562782E+04  0.24379562782E+04  0.00000000000E+00 0.  1.
         21   -1    0    0  501  502  0.00000000000E+00 -0.00000000000E+00 -0.24922189342E+03  0.24922189342E+03  0.00000000000E+00 0.  1.
    9000010    2    1    2  501    0  0.14624390230E+03 -0.43411809119E+03  0.14190070995E+04  0.17914517062E+04  0.99291100862E+03 0.  0.
        -13    1    3    3    0    0  0.74549811965E+01 -0.74808924021E+03  0.10230309689E+04  0.12673931760E+04  0.10566000000E+00 0.  1.
          4    1    3    3  501    0  0.13878892111E+03  0.31397114902E+03  0.39597613057E+03  0.52405853015E+03  0.00000000000E+00 0.  1.
         13    1    1    2    0    0 -0.14624390230E+03  0.43411809119E+03  0.76972728530E+03  0.89572646548E+03  0.10566000000E+00 0. -1.
<mgrwt>
<rscale>  1 0.87972784E+03</rscale>
<asrwt>0</asrwt>
<pdfrwt beam="2">  1       21 0.38341831E-01 0.10934889E+04</pdfrwt>
<pdfrwt beam="1">  1        4 0.37507018E+00 0.10934889E+04</pdfrwt>
<totfact> 0.28102104E+01</totfact>
</mgrwt>
</event>
<event>
 6    1  0.5391662E-005  0.1002961E+04  0.7818608E-02  0.9365799E-01
          4   -1    0    0  502    0 -0.00000000000E+00  0.00000000000E+00  0.25576308066E+03  0.25576308066E+03  0.00000000000E+00 0.  1.
         21   -1    0    0  501  502  0.00000000000E+00 -0.00000000000E+00 -0.12519357041E+04  0.12519357041E+04  0.00000000000E+00 0.  1.
    9000010    2    1    2  501    0 -0.90948550673E+02  0.22703093404E+02 -0.77505840736E+03  0.12675351384E+04  0.99857033948E+03 0.  0.
        -13    1    3    3    0    0  0.66629433387E+02 -0.47546525288E+03 -0.35436087684E+03  0.59672299293E+03  0.10566000000E+00 0.  1.
          4    1    3    3  501    0 -0.15757798406E+03  0.49816834629E+03 -0.42069753052E+03  0.67081214545E+03  0.00000000000E+00 0.  1.
         13    1    1    2    0    0  0.90948550673E+02 -0.22703093404E+02 -0.22111421605E+03  0.24016364634E+03  0.10566000000E+00 0. -1.
<mgrwt>
<rscale>  1 0.55455357E+03</rscale>
<asrwt>0</asrwt>
<pdfrwt beam="2">  1       21 0.19260550E+00 0.10029605E+04</pdfrwt>
<pdfrwt beam="1">  1        4 0.39348166E-01 0.10029605E+04</pdfrwt>
<totfact> 0.26043822E+01</totfact>
</mgrwt>
</event>
<event>
 6    1  0.5391662E-005  0.1021910E+04  0.7818608E-02  0.9111976E-01
          4   -1    0    0  502    0 -0.00000000000E+00  0.00000000000E+00  0.13393441923E+04  0.13393441923E+04  0.00000000000E+00 0.  1.
         21   -1    0    0  501  502  0.00000000000E+00 -0.00000000000E+00 -0.33935453675E+03  0.33935453675E+03  0.00000000000E+00 0.  1.
    9000010    2    1    2  501    0  0.24681760058E+01  0.23494966534E+03  0.52524572314E+03  0.11489919709E+04  0.99453106655E+03 0.  0.
        -13    1    3    3    0    0  0.92992689377E+02  0.40461490190E+03  0.74752260292E+03  0.85507362967E+03  0.10566000000E+00 0.  1.
          4    1    3    3  501    0 -0.90524513372E+02 -0.16966523656E+03 -0.22227687978E+03  0.29391834121E+03  0.00000000000E+00 0.  1.
         13    1    1    2    0    0 -0.24681760058E+01 -0.23494966534E+03  0.47474393245E+03  0.52970675821E+03  0.10566000000E+00 0. -1.
<mgrwt>
<rscale>  1 0.70763468E+03</rscale>
<asrwt>0</asrwt>
<pdfrwt beam="2">  1       21 0.52208391E-01 0.10219097E+04</pdfrwt>
<pdfrwt beam="1">  1        4 0.20605295E+00 0.10219097E+04</pdfrwt>
<totfact> 0.42398064E+01</totfact>
</mgrwt>
</event>
<event>
 6    1  0.5391662E-005  0.1071098E+04  0.7818608E-02  0.8955173E-01
          4   -1    0    0  502    0 -0.00000000000E+00  0.00000000000E+00  0.15074723950E+04  0.15074723950E+04  0.00000000000E+00 0.  1.
         21   -1    0    0  501  502  0.00000000000E+00 -0.00000000000E+00 -0.44523118900E+03  0.44523118900E+03  0.00000000000E+00 0.  1.
    9000010    2    1    2  501    0  0.37125170116E+03 -0.94407142602E+02  0.32072389173E+03  0.11180848251E+04  0.10002546312E+04 0.  0.
        -13    1    3    3    0    0  0.64426252526E+03 -0.19833536315E+03  0.43734487032E+03  0.80354319392E+03  0.10566000000E+00 0.  1.
          4    1    3    3  501    0 -0.27301082410E+03  0.10392822055E+03 -0.11662097859E+03  0.31454163119E+03  0.00000000000E+00 0.  1.
         13    1    1    2    0    0 -0.37125170116E+03  0.94407142602E+02  0.74151731430E+03  0.83461875893E+03  0.10566000000E+00 0. -1.
<mgrwt>
<rscale>  1 0.82830545E+03</rscale>
<asrwt>0</asrwt>
<pdfrwt beam="2">  1       21 0.68497107E-01 0.10710975E+04</pdfrwt>
<pdfrwt beam="1">  1        4 0.23191883E+00 0.10710975E+04</pdfrwt>
<totfact> 0.19434876E+01</totfact>
</mgrwt>
</event>
<event>
 6    1  0.5391662E-005  0.1044189E+04  0.7818608E-02  0.8990465E-01
         21   -1    0    0  501  502  0.00000000000E+00  0.00000000000E+00  0.23129190448E+03  0.23129190448E+03  0.00000000000E+00 0.  1.
          4   -1    0    0  502    0 -0.00000000000E+00 -0.00000000000E+00 -0.21959679684E+04  0.21959679684E+04  0.00000000000E+00 0.  1.
    9000010    2    1    2  501    0 -0.34946531167E+03  0.78213050855E+02 -0.12569658439E+04  0.16341034872E+04  0.98086073880E+03 0.  0.
        -13    1    3    3    0    0  0.40483281946E+02 -0.86001690160E+02 -0.12039310046E+04  0.12076775488E+04  0.10566000000E+00 0.  1.
          4    1    3    3  501    0 -0.38994859362E+03  0.16421474101E+03 -0.53034839311E+02  0.42642593849E+03  0.00000000000E+00 0.  1.
         13    1    1    2    0    0  0.34946531167E+03 -0.78213050855E+02 -0.70771022002E+03  0.79315638564E+03  0.10566000000E+00 0. -1.
<mgrwt>
<rscale>  1 0.79907718E+03</rscale>
<asrwt>0</asrwt>
<pdfrwt beam="1">  1       21 0.35583370E-01 0.10441892E+04</pdfrwt>
<pdfrwt beam="2">  1        4 0.33784122E+00 0.10441892E+04</pdfrwt>
<totfact> 0.44500415E+01</totfact>
</mgrwt>
</event>
<event>
 6    1  0.5391662E-005  0.1024345E+04  0.7818608E-02  0.9299134E-01
         21   -1    0    0  501  502  0.00000000000E+00  0.00000000000E+00  0.26531313971E+03  0.26531313971E+03  0.00000000000E+00 0.  1.
          4   -1    0    0  502    0 -0.00000000000E+00 -0.00000000000E+00 -0.14099513308E+04  0.14099513308E+04  0.00000000000E+00 0.  1.
    9000010    2    1    2  501    0  0.73655505949E+02 -0.85799868726E+02 -0.11743715030E+04  0.15583421371E+04  0.10180840035E+04 0.  0.
        -13    1    3    3    0    0  0.53517881978E+03  0.46395456885E+02 -0.71097501354E+03  0.89109729469E+03  0.10566000000E+00 0.  1.
          4    1    3    3  501    0 -0.46152331383E+03 -0.13219532561E+03 -0.46339648947E+03  0.66724484245E+03  0.00000000000E+00 0.  1.
         13    1    1    2    0    0 -0.73655505949E+02  0.85799868726E+02  0.29733311955E+02  0.11692233334E+03  0.10566000000E+00 0. -1.
<mgrwt>
<rscale>  1 0.59044531E+03</rscale>
<asrwt>0</asrwt>
<pdfrwt beam="1">  1       21 0.40817407E-01 0.10243446E+04</pdfrwt>
<pdfrwt beam="2">  1        4 0.21691558E+00 0.10243446E+04</pdfrwt>
<totfact> 0.68069189E+01</totfact>
</mgrwt>
</event>
<event>
 6    1  0.5391662E-005  0.1018893E+04  0.7818608E-02  0.9050954E-01
         21   -1    0    0  501  502  0.00000000000E+00  0.00000000000E+00  0.14175322715E+03  0.14175322715E+03  0.00000000000E+00 0.  1.
          4   -1    0    0  502    0 -0.00000000000E+00 -0.00000000000E+00 -0.32326385084E+04  0.32326385084E+04  0.00000000000E+00 0.  1.
    9000010    2    1    2  501    0 -0.28388167826E+03  0.10336996049E+03 -0.20303800537E+04  0.22716925450E+04  0.97307229980E+03 0.  0.
        -13    1    3    3    0    0  0.18374811580E+03  0.23667582792E+03 -0.15824432029E+04  0.16105605606E+04  0.10566000000E+00 0.  1.
          4    1    3    3  501    0 -0.46762979406E+03 -0.13330586743E+03 -0.44793685075E+03  0.66113198443E+03  0.00000000000E+00 0.  1.
         13    1    1    2    0    0  0.28388167826E+03 -0.10336996049E+03 -0.10605052276E+04  0.11026991906E+04  0.10566000000E+00 0. -1.
<mgrwt>
<rscale>  1 0.75186533E+03</rscale>
<asrwt>0</asrwt>
<pdfrwt beam="1">  1       21 0.21808189E-01 0.10188934E+04</pdfrwt>
<pdfrwt beam="2">  1        4 0.49732899E+00 0.10188934E+04</pdfrwt>
<totfact> 0.26399703E+01</totfact>
</mgrwt>
</event>
<event>
 6    1  0.5391662E-005  0.1260699E+04  0.7818608E-02  0.8675627E-01
          4   -1    0    0  502    0 -0.00000000000E+00  0.00000000000E+00  0.85543547299E+03  0.85543547299E+03  0.00000000000E+00 0.  1.
         21   -1    0    0  501  502  0.00000000000E+00 -0.00000000000E+00 -0.12456067902E+04  0.12456067902E+04  0.00000000000E+00 0. -1.
    9000010    2    1    2  501    0 -0.76269563702E+03 -0.47518160556E+02 -0.43992076428E+03  0.13352501054E+04  0.10026963422E+04 0.  0.
        -13    1    3    3    0    0 -0.15923771186E+03  0.36125159317E+03  0.12388004176E+03  0.41377003076E+03  0.10566000000E+00 0.  1.
          4    1    3    3  501    0 -0.60345792516E+03 -0.40876975373E+03 -0.56380080604E+03  0.92148007460E+03  0.00000000000E+00 0.  1.
         13    1    1    2    0    0  0.76269563702E+03  0.47518160556E+02  0.49749447100E+02  0.76579215781E+03  0.10566000000E+00 0. -1.
<mgrwt>
<rscale>  1 0.11123892E+04</rscale>
<asrwt>0</asrwt>
<pdfrwt beam="2">  1       21 0.19163181E+00 0.12606992E+04</pdfrwt>
<pdfrwt beam="1">  1        4 0.13160546E+00 0.12606992E+04</pdfrwt>
<totfact> 0.23218480E+00</totfact>
</mgrwt>
</event>
<event>
 6    1  0.5391662E-005  0.1104460E+04  0.7818608E-02  0.8891710E-01
          4   -1    0    0  502    0 -0.00000000000E+00  0.00000000000E+00  0.80508740795E+03  0.80508740795E+03  0.00000000000E+00 0.  1.
         21   -1    0    0  501  502  0.00000000000E+00 -0.00000000000E+00 -0.76895904284E+03  0.76895904284E+03  0.00000000000E+00 0. -1.
    9000010    2    1    2  501    0  0.39222384594E+03  0.22811513084E+03 -0.74662928936E+02  0.11069803096E+04  0.10069532237E+04 0.  0.
        -13    1    3    3    0    0 -0.17919423419E+03  0.45472770059E+03 -0.56297685983E+02  0.49199318681E+03  0.10566000000E+00 0.  1.
          4    1    3    3  501    0  0.57141808012E+03 -0.22661256975E+03 -0.18365242952E+02  0.61498712280E+03  0.00000000000E+00 0.  1.
         13    1    1    2    0    0 -0.39222384594E+03 -0.22811513084E+03  0.11079129404E+03  0.46706614118E+03  0.10566000000E+00 0. -1.
<mgrwt>
<rscale>  1 0.88422561E+03</rscale>
<asrwt>0</asrwt>
<pdfrwt beam="2">  1       21 0.11830139E+00 0.11044595E+04</pdfrwt>
<pdfrwt beam="1">  1        4 0.12385960E+00 0.11044595E+04</pdfrwt>
<totfact> 0.11658627E+01</totfact>
</mgrwt>
</event>
<event>
 6    1  0.5391662E-005  0.1006477E+04  0.7818608E-02  0.9328180E-01
         21   -1    0    0  501  502  0.00000000000E+00  0.00000000000E+00  0.60670746662E+03  0.60670746662E+03  0.00000000000E+00 0.  1.
          4   -1    0    0  502    0 -0.00000000000E+00 -0.00000000000E+00 -0.51165114665E+03  0.51165114665E+03  0.00000000000E+00 0.  1.
    9000010    2    1    2  501    0  0.23230567027E+02 -0.10426074517E+03  0.71769488719E+02  0.10090322674E+04  0.10007923336E+04 0.  0.
        -13    1    3    3    0    0  0.11861400844E+03 -0.42860913358E+03 -0.27648985716E+03  0.52366184190E+03  0.10566000000E+00 0.  1.
          4    1    3    3  501    0 -0.95383441413E+02  0.32434838841E+03  0.34825934588E+03  0.48537042550E+03  0.00000000000E+00 0.  1.
         13    1    1    2    0    0 -0.23230567027E+02  0.10426074517E+03  0.23286831254E+02  0.10932634587E+03  0.10566000000E+00 0. -1.
<mgrwt>
<rscale>  1 0.57446479E+03</rscale>
<asrwt>0</asrwt>
<pdfrwt beam="1">  1       21 0.93339610E-01 0.10064767E+04</pdfrwt>
<pdfrwt beam="2">  1        4 0.78715561E-01 0.10064767E+04</pdfrwt>
<totfact> 0.52159877E+01</totfact>
</mgrwt>
</event>
<event>
 6    1  0.5391662E-005  0.1139683E+04  0.7818608E-02  0.8829794E-01
          4   -1    0    0  502    0 -0.00000000000E+00  0.00000000000E+00  0.31762599354E+04  0.31762599354E+04  0.00000000000E+00 0.  1.
         21   -1    0    0  501  502  0.00000000000E+00 -0.00000000000E+00 -0.22091017789E+03  0.22091017789E+03  0.00000000000E+00 0.  1.
    9000010    2    1    2  501    0 -0.49555265081E+03 -0.20113109216E+03  0.20603365191E+04  0.23545412943E+04  0.10064054794E+04 0.  0.
        -13    1    3    3    0    0 -0.13114733986E+03  0.40849581352E+03  0.80684900798E+03  0.91382371783E+03  0.10566000000E+00 0.  1.
          4    1    3    3  501    0 -0.36440531095E+03 -0.60962690568E+03  0.12534875111E+04  0.14407175765E+04  0.00000000000E+00 0.  1.
         13    1    1    2    0    0  0.49555265081E+03  0.20113109216E+03  0.89501323840E+03  0.10426288189E+04  0.10566000000E+00 0. -1.
<mgrwt>
<rscale>  1 0.94327631E+03</rscale>
<asrwt>0</asrwt>
<pdfrwt beam="2">  1       21 0.33986183E-01 0.11396833E+04</pdfrwt>
<pdfrwt beam="1">  1        4 0.48865534E+00 0.11396833E+04</pdfrwt>
<totfact> 0.11578473E+01</totfact>
</mgrwt>
</event>
<event>
 6    1  0.5391662E-005  0.1529973E+04  0.7818608E-02  0.8450303E-01
          4   -1    0    0  502    0 -0.00000000000E+00  0.00000000000E+00  0.19376432298E+04  0.19376432298E+04  0.00000000000E+00 0.  1.
         21   -1    0    0  501  502  0.00000000000E+00 -0.00000000000E+00 -0.97580203295E+03  0.97580203295E+03  0.00000000000E+00 0. -1.
    9000010    2    1    2  501    0 -0.15049354535E+03 -0.11614054955E+04  0.27111808265E+03  0.15538094792E+04  0.98453433191E+03 0.  0.
        -13    1    3    3    0    0  0.22228021100E+03 -0.38680047410E+01 -0.14852063997E+03  0.26736088967E+03  0.10566000000E+00 0.  1.
          4    1    3    3  501    0 -0.37277375635E+03 -0.11575374908E+04  0.41963872262E+03  0.12864485895E+04  0.00000000000E+00 0.  1.
         13    1    1    2    0    0  0.15049354535E+03  0.11614054955E+04  0.69072311418E+03  0.13596357835E+04  0.10566000000E+00 0. -1.
<mgrwt>
<rscale>  1 0.14310765E+04</rscale>
<asrwt>0</asrwt>
<pdfrwt beam="2">  1       21 0.15012339E+00 0.15299735E+04</pdfrwt>
<pdfrwt beam="1">  1        4 0.29809896E+00 0.15299735E+04</pdfrwt>
<totfact> 0.15573405E+00</totfact>
</mgrwt>
</event>
<event>
 6    1  0.5391662E-005  0.1017868E+04  0.7818608E-02  0.9167108E-01
          4   -1    0    0  502    0 -0.00000000000E+00  0.00000000000E+00  0.23501954100E+03  0.23501954100E+03  0.00000000000E+00 0.  1.
         21   -1    0    0  501  502  0.00000000000E+00 -0.00000000000E+00 -0.18837002881E+04  0.18837002881E+04  0.00000000000E+00 0.  1.
    9000010    2    1    2  501    0  0.12277588430E+03  0.14696960246E+03 -0.16359969325E+04  0.19267956979E+04  0.99969081045E+03 0.  0.
        -13    1    3    3    0    0 -0.19318503923E+03  0.41518833010E+02 -0.15760040603E+04  0.15883428730E+04  0.10566000000E+00 0.  1.
          4    1    3    3  501    0  0.31596092353E+03  0.10545076945E+03 -0.59992872172E+02  0.33845282491E+03  0.00000000000E+00 0.  1.
         13    1    1    2    0    0 -0.12277588430E+03 -0.14696960246E+03 -0.12683814586E+02  0.19192413118E+03  0.10566000000E+00 0. -1.
<mgrwt>
<rscale>  1 0.67036825E+03</rscale>
<asrwt>0</asrwt>
<pdfrwt beam="2">  1       21 0.28980005E+00 0.10178682E+04</pdfrwt>
<pdfrwt beam="1">  1        4 0.36156852E-01 0.10178682E+04</pdfrwt>
<totfact> 0.59050145E+00</totfact>
</mgrwt>
</event>
<event>
 6    1  0.5391662E-005  0.1020824E+04  0.7818608E-02  0.9227141E-01
         21   -1    0    0  501  502  0.00000000000E+00  0.00000000000E+00  0.73698763349E+03  0.73698763349E+03  0.00000000000E+00 0.  1.
          4   -1    0    0  502    0 -0.00000000000E+00 -0.00000000000E+00 -0.47724572374E+03  0.47724572374E+03  0.00000000000E+00 0.  1.
    9000010    2    1    2  501    0  0.53510691428E+02 -0.14058987590E+03  0.15886466951E+03  0.10331114754E+04  0.10096793700E+04 0.  0.
        -13    1    3    3    0    0  0.37141063497E+03  0.19034855679E+03  0.34145315873E+03  0.53922973176E+03  0.10566000000E+00 0.  1.
          4    1    3    3  501    0 -0.31789994354E+03 -0.33093843269E+03 -0.18258848922E+03  0.49388174367E+03  0.00000000000E+00 0.  1.
         13    1    1    2    0    0 -0.53510691428E+02  0.14058987590E+03  0.10087724025E+03  0.18112188180E+03  0.10566000000E+00 0. -1.
<mgrwt>
<rscale>  1 0.63247904E+03</rscale>
<asrwt>0</asrwt>
<pdfrwt beam="1">  1       21 0.11338271E+00 0.10208239E+04</pdfrwt>
<pdfrwt beam="2">  1        4 0.73422419E-01 0.10208239E+04</pdfrwt>
<totfact> 0.35973862E+01</totfact>
</mgrwt>
</event>
<event>
 6    1  0.5391662E-005  0.1063261E+04  0.7818608E-02  0.8984791E-01
          4   -1    0    0  502    0 -0.00000000000E+00  0.00000000000E+00  0.41896790376E+04  0.41896790376E+04  0.00000000000E+00 0.  1.
         21   -1    0    0  501  502  0.00000000000E+00 -0.00000000000E+00 -0.13812159908E+03  0.13812159908E+03  0.00000000000E+00 0.  1.
    9000010    2    1    2  501    0 -0.30274708515E+03  0.16974124946E+03  0.21936360919E+04  0.24377372434E+04  0.10050152609E+04 0.  0.
        -13    1    3    3    0    0 -0.44802207937E+03  0.50136798479E+03  0.16778974132E+04  0.18076043207E+04  0.10566000000E+00 0.  1.
          4    1    3    3  501    0  0.14527499423E+03 -0.33162673533E+03  0.51573867865E+03  0.63013292264E+03  0.00000000000E+00 0.  1.
         13    1    1    2    0    0  0.30274708515E+03 -0.16974124946E+03  0.18579213466E+04  0.18900633933E+04  0.10566000000E+00 0. -1.
<mgrwt>
<rscale>  1 0.80369039E+03</rscale>
<asrwt>0</asrwt>
<pdfrwt beam="2">  1       21 0.21249480E-01 0.10632608E+04</pdfrwt>
<pdfrwt beam="1">  1        4 0.64456591E+00 0.10632608E+04</pdfrwt>
<totfact> 0.48163585E+00</totfact>
</mgrwt>
</event>
<event>
 6    1  0.5391662E-005  0.1066976E+04  0.7818608E-02  0.8986148E-01
          4   -1    0    0  502    0 -0.00000000000E+00  0.00000000000E+00  0.37616845681E+04  0.37616845681E+04  0.00000000000E+00 0.  1.
         21   -1    0    0  501  502  0.00000000000E+00 -0.00000000000E+00 -0.17132150835E+03  0.17132150835E+03  0.00000000000E+00 0.  1.
    9000010    2    1    2  501    0 -0.73455942770E+02  0.33359353625E+03  0.16647372582E+04  0.19773181766E+04  0.10108197711E+04 0.  0.
        -13    1    3    3    0    0 -0.53978686802E+03  0.11549504301E+03  0.84431910964E+03  0.10087535566E+04  0.10566000000E+00 0.  1.
          4    1    3    3  501    0  0.46633092525E+03  0.21809849324E+03  0.82041814856E+03  0.96856461999E+03  0.00000000000E+00 0.  1.
         13    1    1    2    0    0  0.73455942770E+02 -0.33359353625E+03  0.19256258015E+04  0.19556878998E+04  0.10566000000E+00 0. -1.
<mgrwt>
<rscale>  1 0.80258425E+03</rscale>
<asrwt>0</asrwt>
<pdfrwt beam="2">  1       21 0.26357158E-01 0.10669756E+04</pdfrwt>
<pdfrwt beam="1">  1        4 0.57872064E+00 0.10669756E+04</pdfrwt>
<totfact> 0.70199148E+00</totfact>
</mgrwt>
</event>
<event>
 6    1  0.5391662E-005  0.1098573E+04  0.7818608E-02  0.8894226E-01
          4   -1    0    0  502    0 -0.00000000000E+00  0.00000000000E+00  0.38070696164E+04  0.38070696164E+04  0.00000000000E+00 0.  1.
         21   -1    0    0  501  502  0.00000000000E+00 -0.00000000000E+00 -0.21544679312E+03  0.21544679312E+03  0.00000000000E+00 0.  1.
    9000010    2    1    2  501    0 -0.44647872176E+03 -0.94083270125E+02  0.13777762008E+04  0.17621377267E+04  0.99933337665E+03 0.  0.
        -13    1    3    3    0    0  0.22988662756E+03  0.45169764910E+02  0.15452614228E+02  0.23479131935E+03  0.10566000000E+00 0.  1.
          4    1    3    3  501    0 -0.67636534931E+03 -0.13925303503E+03  0.13623235866E+04  0.15273464074E+04  0.00000000000E+00 0.  1.
         13    1    1    2    0    0  0.44647872176E+03  0.94083270125E+02  0.22138466225E+04  0.22603786828E+04  0.10566000000E+00 0. -1.
<mgrwt>
<rscale>  1 0.88192243E+03</rscale>
<asrwt>0</asrwt>
<pdfrwt beam="2">  1       21 0.33145663E-01 0.10985728E+04</pdfrwt>
<pdfrwt beam="1">  1        4 0.58570297E+00 0.10985728E+04</pdfrwt>
<totfact> 0.40101263E+00</totfact>
</mgrwt>
</event>
<event>
 6    1  0.5391662E-005  0.1041049E+04  0.7818608E-02  0.9051451E-01
          4   -1    0    0  502    0 -0.00000000000E+00  0.00000000000E+00  0.14594863212E+04  0.14594863212E+04  0.00000000000E+00 0.  1.
         21   -1    0    0  501  502  0.00000000000E+00 -0.00000000000E+00 -0.36101304552E+03  0.36101304552E+03  0.00000000000E+00 0.  1.
    9000010    2    1    2  501    0  0.10543205835E+02 -0.28247588890E+03  0.49214477438E+03  0.11515165197E+04  0.10019381364E+04 0.  0.
        -13    1    3    3    0    0 -0.59709585864E+02 -0.58292653022E+03  0.18544068330E+02  0.58626996163E+03  0.10566000000E+00 0.  1.
          4    1    3    3  501    0  0.70252791699E+02  0.30045064131E+03  0.47360070605E+03  0.56524655804E+03  0.00000000000E+00 0.  1.
         13    1    1    2    0    0 -0.10543205835E+02  0.28247588890E+03  0.60632850130E+03  0.66898284706E+03  0.10566000000E+00 0. -1.
<mgrwt>
<rscale>  1 0.75149211E+03</rscale>
<asrwt>0</asrwt>
<pdfrwt beam="2">  1       21 0.55540469E-01 0.10410494E+04</pdfrwt>
<pdfrwt beam="1">  1        4 0.22453635E+00 0.10410494E+04</pdfrwt>
<totfact> 0.33022418E+01</totfact>
</mgrwt>
</event>
<event>
 6    1  0.5391662E-005  0.1103223E+04  0.7818608E-02  0.8938923E-01
          4   -1    0    0  502    0 -0.00000000000E+00  0.00000000000E+00  0.33960519597E+04  0.33960519597E+04  0.00000000000E+00 0.  1.
         21   -1    0    0  501  502  0.00000000000E+00 -0.00000000000E+00 -0.28828091623E+03  0.28828091623E+03  0.00000000000E+00 0.  1.
    9000010    2    1    2  501    0  0.35336910173E+03  0.12460003983E+03  0.84210160762E+03  0.13878893439E+04  0.10376448436E+04 0.  0.
        -13    1    3    3    0    0  0.55935816942E+03 -0.24813325020E+03  0.71991134979E+03  0.94484074545E+03  0.10566000000E+00 0.  1.
          4    1    3    3  501    0 -0.20598906769E+03  0.37273329003E+03  0.12219025784E+03  0.44304859848E+03  0.00000000000E+00 0.  1.
         13    1    1    2    0    0 -0.35336910173E+03 -0.12460003983E+03  0.22656694358E+04  0.22964435320E+04  0.10566000000E+00 0. -1.
<mgrwt>
<rscale>  1 0.84220244E+03</rscale>
<asrwt>0</asrwt>
<pdfrwt beam="2">  1       21 0.44350913E-01 0.11032233E+04</pdfrwt>
<pdfrwt beam="1">  1        4 0.52246950E+00 0.11032233E+04</pdfrwt>
<totfact> 0.45835027E+00</totfact>
</mgrwt>
</event>
<event>
 6    1  0.5391662E-005  0.1006673E+04  0.7818608E-02  0.9173318E-01
          4   -1    0    0  502    0 -0.00000000000E+00  0.00000000000E+00  0.66778374388E+03  0.66778374388E+03  0.00000000000E+00 0.  1.
         21   -1    0    0  501  502  0.00000000000E+00 -0.00000000000E+00 -0.63408539426E+03  0.63408539426E+03  0.00000000000E+00 0.  1.
    9000010    2    1    2  501    0 -0.13093059473E+03  0.14210746419E+03 -0.17019680807E+03  0.10209588348E+04  0.98795376255E+03 0.  0.
        -13    1    3    3    0    0  0.84340694338E+02  0.23976015341E+03  0.35986946793E+03  0.44057272838E+03  0.10566000000E+00 0.  1.
          4    1    3    3  501    0 -0.21527128906E+03 -0.97652689217E+02 -0.53006627600E+03  0.58038610645E+03  0.00000000000E+00 0.  1.
         13    1    1    2    0    0  0.13093059473E+03 -0.14210746419E+03  0.20389515769E+03  0.28091030331E+03  0.10566000000E+00 0. -1.
<mgrwt>
<rscale>  1 0.66632205E+03</rscale>
<asrwt>0</asrwt>
<pdfrwt beam="2">  1       21 0.97551599E-01 0.10066727E+04</pdfrwt>
<pdfrwt beam="1">  1        4 0.10273596E+00 0.10066727E+04</pdfrwt>
<totfact> 0.27406325E+01</totfact>
</mgrwt>
</event>
<event>
 6    1  0.5391662E-005  0.1511033E+04  0.7818608E-02  0.8469283E-01
          4   -1    0    0  502    0 -0.00000000000E+00  0.00000000000E+00  0.31713217538E+04  0.31713217538E+04  0.00000000000E+00 0.  1.
         21   -1    0    0  501  502  0.00000000000E+00 -0.00000000000E+00 -0.69795839631E+03  0.69795839631E+03  0.00000000000E+00 0. -1.
    9000010    2    1    2  501    0 -0.65861135581E+03  0.89908188965E+03  0.47988015160E+03  0.15854035191E+04  0.10203441558E+04 0.  0.
        -13    1    3    3    0    0 -0.43384125171E+03  0.70365913714E+03 -0.19358404601E+03  0.84901661173E+03  0.10566000000E+00 0.  1.
          4    1    3    3  501    0 -0.22477010410E+03  0.19542275251E+03  0.67346419761E+03  0.73638690738E+03  0.00000000000E+00 0.  1.
         13    1    1    2    0    0  0.65861135581E+03 -0.89908188965E+03  0.19934832059E+04  0.22838766310E+04  0.10566000000E+00 0. -1.
<mgrwt>
<rscale>  1 0.14003148E+04</rscale>
<asrwt>0</asrwt>
<pdfrwt beam="2">  1       21 0.10737822E+00 0.15110325E+04</pdfrwt>
<pdfrwt beam="1">  1        4 0.48789565E+00 0.15110325E+04</pdfrwt>
<totfact> 0.75312596E-01</totfact>
</mgrwt>
</event>
<event>
 6    1  0.5391662E-005  0.9975099E+03  0.7818608E-02  0.9372509E-01
          4   -1    0    0  502    0 -0.00000000000E+00  0.00000000000E+00  0.43939760963E+03  0.43939760963E+03  0.00000000000E+00 0.  1.
         21   -1    0    0  501  502  0.00000000000E+00 -0.00000000000E+00 -0.68784059332E+03  0.68784059332E+03  0.00000000000E+00 0.  1.
    9000010    2    1    2  501    0  0.42301445956E+00  0.92926712560E+02 -0.18448105202E+03  0.10144255586E+04  0.99317188977E+03 0.  0.
        -13    1    3    3    0    0  0.44441584681E+03  0.23777645319E+03 -0.21153942337E+03  0.54661872030E+03  0.10566000000E+00 0.  1.
          4    1    3    3  501    0 -0.44399283235E+03 -0.14484974063E+03  0.27058371347E+02  0.46780683834E+03  0.00000000000E+00 0.  1.
         13    1    1    2    0    0 -0.42301445956E+00 -0.92926712560E+02 -0.63961931666E+02  0.11281264430E+03  0.10566000000E+00 0. -1.
<mgrwt>
<rscale>  1 0.55109224E+03</rscale>
<asrwt>0</asrwt>
<pdfrwt beam="2">  1       21 0.10582163E+00 0.99750988E+03</pdfrwt>
<pdfrwt beam="1">  1        4 0.67599632E-01 0.99750988E+03</pdfrwt>
<totfact> 0.51631615E+01</totfact>
</mgrwt>
</event>
<event>
 6    1  0.5391662E-005  0.1085875E+04  0.7818608E-02  0.8953554E-01
          4   -1    0    0  502    0 -0.00000000000E+00  0.00000000000E+00  0.16255753107E+04  0.16255753107E+04  0.00000000000E+00 0.  1.
         21   -1    0    0  501  502  0.00000000000E+00 -0.00000000000E+00 -0.33641015426E+03  0.33641015426E+03  0.00000000000E+00 0.  1.
    9000010    2    1    2  501    0  0.27276512242E+03 -0.25011894326E+03  0.80073657775E+03  0.13491863254E+04  0.10208645238E+04 0.  0.
        -13    1    3    3    0    0  0.45484667261E+03 -0.53656983196E+03  0.70641320698E+03  0.99690135436E+03  0.10566000000E+00 0.  1.
          4    1    3    3  501    0 -0.18208155019E+03  0.28645088870E+03  0.94323370765E+02  0.35228497105E+03  0.00000000000E+00 0.  1.
         13    1    1    2    0    0 -0.27276512242E+03  0.25011894326E+03  0.48842857874E+03  0.61279913959E+03  0.10566000000E+00 0. -1.
<mgrwt>
<rscale>  1 0.82967736E+03</rscale>
<asrwt>0</asrwt>
<pdfrwt beam="2">  1       21 0.51755409E-01 0.10858751E+04</pdfrwt>
<pdfrwt beam="1">  1        4 0.25008851E+00 0.10858751E+04</pdfrwt>
<totfact> 0.33455328E+01</totfact>
</mgrwt>
</event>
<event>
 6    1  0.5391662E-005  0.1063903E+04  0.7818608E-02  0.8959690E-01
         21   -1    0    0  501  502  0.00000000000E+00  0.00000000000E+00  0.29305373411E+03  0.29305373411E+03  0.00000000000E+00 0.  1.
          4   -1    0    0  502    0 -0.00000000000E+00 -0.00000000000E+00 -0.19056645611E+04  0.19056645611E+04  0.00000000000E+00 0.  1.
    9000010    2    1    2  501    0 -0.72024901670E+02  0.37692333419E+03 -0.91824458377E+03  0.14053688910E+04  0.99228514943E+03 0.  0.
        -13    1    3    3    0    0 -0.16503047284E+03 -0.31171392109E+03 -0.42976813038E+03  0.55596877846E+03  0.10566000000E+00 0.  1.
          4    1    3    3  501    0  0.93005571169E+02  0.68863725528E+03 -0.48847645339E+03  0.84940011252E+03  0.00000000000E+00 0.  1.
         13    1    1    2    0    0  0.72024901670E+02 -0.37692333419E+03 -0.69436624324E+03  0.79334940426E+03  0.10566000000E+00 0. -1.
<mgrwt>
<rscale>  1 0.82449218E+03</rscale>
<asrwt>0</asrwt>
<pdfrwt beam="1">  1       21 0.45085190E-01 0.10639025E+04</pdfrwt>
<pdfrwt beam="2">  1        4 0.29317916E+00 0.10639025E+04</pdfrwt>
<totfact> 0.35627630E+01</totfact>
</mgrwt>
</event>
<event>
 6    1  0.5391662E-005  0.1012727E+04  0.7818608E-02  0.9296821E-01
         21   -1    0    0  501  502  0.00000000000E+00  0.00000000000E+00  0.22203398845E+03  0.22203398845E+03  0.00000000000E+00 0.  1.
          4   -1    0    0  502    0 -0.00000000000E+00 -0.00000000000E+00 -0.16081837407E+04  0.16081837407E+04  0.00000000000E+00 0.  1.
    9000010    2    1    2  501    0  0.10952369351E+03 -0.44037766404E+02 -0.98760944754E+03  0.14145626438E+04  0.10058231893E+04 0.  0.
        -13    1    3    3    0    0  0.11160016524E+03 -0.11435448925E+03  0.18237168610E+03  0.24246853228E+03  0.10566000000E+00 0.  1.
          4    1    3    3  501    0 -0.20764717254E+01  0.70316722847E+02 -0.11699811336E+04  0.11720941115E+04  0.00000000000E+00 0.  1.
         13    1    1    2    0    0 -0.10952369351E+03  0.44037766404E+02 -0.39854030472E+03  0.41565508533E+03  0.10566000000E+00 0. -1.
<mgrwt>
<rscale>  1 0.59174097E+03</rscale>
<asrwt>0</asrwt>
<pdfrwt beam="1">  1       21 0.34159074E-01 0.10127265E+04</pdfrwt>
<pdfrwt beam="2">  1        4 0.24741289E+00 0.10127265E+04</pdfrwt>
<totfact> 0.83687659E+01</totfact>
</mgrwt>
</event>
<event>
 6    1  0.5391662E-005  0.1197919E+04  0.7818608E-02  0.8745410E-01
         21   -1    0    0  501  502  0.00000000000E+00  0.00000000000E+00  0.46438229888E+03  0.46438229888E+03  0.00000000000E+00 0.  1.
          4   -1    0    0  502    0 -0.00000000000E+00 -0.00000000000E+00 -0.20677960223E+04  0.20677960223E+04  0.00000000000E+00 0.  1.
    9000010    2    1    2  501    0  0.63934762610E+03 -0.15948056227E+03 -0.62119567012E+03  0.13494054131E+04  0.10004056535E+04 0.  0.
        -13    1    3    3    0    0 -0.18751185013E+03 -0.22257607364E+03  0.33359298510E+02  0.29293968058E+03  0.10566000000E+00 0.  1.
          4    1    3    3  501    0  0.82685947623E+03  0.63095511369E+02 -0.65455496863E+03  0.10564657325E+04  0.00000000000E+00 0.  1.
         13    1    1    2    0    0 -0.63934762610E+03  0.15948056227E+03 -0.98221805325E+03  0.11827729081E+04  0.10566000000E+00 0. -1.
<mgrwt>
<rscale>  1 0.10316488E+04</rscale>
<asrwt>0</asrwt>
<pdfrwt beam="1">  1       21 0.71443430E-01 0.11979194E+04</pdfrwt>
<pdfrwt beam="2">  1        4 0.31812247E+00 0.11979194E+04</pdfrwt>
<totfact> 0.10510878E+01</totfact>
</mgrwt>
</event>
<event>
 6    1  0.5391662E-005  0.8871190E+03  0.7818608E-02  0.9183993E-01
          4   -1    0    0  502    0 -0.00000000000E+00  0.00000000000E+00  0.90956540060E+03  0.90956540060E+03  0.00000000000E+00 0.  1.
         21   -1    0    0  501  502  0.00000000000E+00 -0.00000000000E+00 -0.40941524806E+03  0.40941524806E+03  0.00000000000E+00 0.  1.
    9000010    2    1    2  501    0  0.21373180914E+03  0.16638776759E+03  0.19006031501E+03  0.90725028307E+03  0.84475675632E+03 0.  0.
        -13    1    3    3    0    0  0.48243690176E+03  0.17826251752E+03 -0.86415564763E+02  0.52152713289E+03  0.10566000000E+00 0.  1.
          4    1    3    3  501    0 -0.26870509263E+03 -0.11874749936E+02  0.27647587977E+03  0.38572315018E+03  0.00000000000E+00 0.  1.
         13    1    1    2    0    0 -0.21373180914E+03 -0.16638776759E+03  0.31008983754E+03  0.41173036559E+03  0.10566000000E+00 0. -1.
<mgrwt>
<rscale>  1 0.65943715E+03</rscale>
<asrwt>0</asrwt>
<pdfrwt beam="2">  1       21 0.62986962E-01 0.88711902E+03</pdfrwt>
<pdfrwt beam="1">  1        4 0.13993314E+00 0.88711902E+03</pdfrwt>
<totfact> 0.47779454E+01</totfact>
</mgrwt>
</event>
<event>
 6    1  0.5391662E-005  0.1126382E+04  0.7818608E-02  0.8850780E-01
         21   -1    0    0  501  502  0.00000000000E+00  0.00000000000E+00  0.10365746412E+04  0.10365746412E+04  0.00000000000E+00 0.  1.
          4   -1    0    0  502    0 -0.00000000000E+00 -0.00000000000E+00 -0.68975666592E+03  0.68975666592E+03  0.00000000000E+00 0.  1.
    9000010    2    1    2  501    0  0.46945358221E+03  0.19225137106E+03  0.44233666864E+03  0.12101229311E+04  0.10056781415E+04 0.  0.
        -13    1    3    3    0    0  0.14016933790E+02  0.53742959824E+03  0.32023177952E+03  0.62575989906E+03  0.10566000000E+00 0.  1.
          4    1    3    3  501    0  0.45543664842E+03 -0.34517822718E+03  0.12210488913E+03  0.58436303202E+03  0.00000000000E+00 0.  1.
         13    1    1    2    0    0 -0.46945358221E+03 -0.19225137106E+03 -0.95518693382E+02  0.51620837602E+03  0.10566000000E+00 0. -1.
<mgrwt>
<rscale>  1 0.92273956E+03</rscale>
<asrwt>0</asrwt>
<pdfrwt beam="1">  1       21 0.15947302E+00 0.11263817E+04</pdfrwt>
<pdfrwt beam="2">  1        4 0.10611641E+00 0.11263817E+04</pdfrwt>
<totfact> 0.62787825E+00</totfact>
</mgrwt>
</event>
<event>
 6    1  0.5391662E-005  0.8250695E+03  0.7818608E-02  0.9481619E-01
          4   -1    0    0  502    0 -0.00000000000E+00  0.00000000000E+00  0.29189998329E+04  0.29189998329E+04  0.00000000000E+00 0.  1.
         21   -1    0    0  501  502  0.00000000000E+00 -0.00000000000E+00 -0.75333389780E+02  0.75333389780E+02  0.00000000000E+00 0.  1.
    9000010    2    1    2  501    0 -0.10465351194E+03 -0.33244348463E+02  0.25799962933E+04  0.27087119642E+04  0.81772983736E+03 0.  0.
        -13    1    3    3    0    0  0.23526643594E+03  0.27254784458E+03  0.95500465462E+03  0.10206206567E+04  0.10566000000E+00 0.  1.
          4    1    3    3  501    0 -0.33991994788E+03 -0.30579219304E+03  0.16249916387E+04  0.16880913074E+04  0.00000000000E+00 0.  1.
         13    1    1    2    0    0  0.10465351194E+03  0.33244348463E+02  0.26367014978E+03  0.28562125852E+03  0.10566000000E+00 0. -1.
<mgrwt>
<rscale>  1 0.49833954E+03</rscale>
<asrwt>0</asrwt>
<pdfrwt beam="2">  1       21 0.11589755E-01 0.82506947E+03</pdfrwt>
<pdfrwt beam="1">  1        4 0.44907681E+00 0.82506947E+03</pdfrwt>
<totfact> 0.15271707E+02</totfact>
</mgrwt>
</event>
<event>
 6    1  0.5391662E-005  0.1064910E+04  0.7818608E-02  0.8992011E-01
         21   -1    0    0  501  502  0.00000000000E+00  0.00000000000E+00  0.20511421981E+03  0.20511421981E+03  0.00000000000E+00 0.  1.
          4   -1    0    0  502    0 -0.00000000000E+00 -0.00000000000E+00 -0.23951602212E+04  0.23951602212E+04  0.00000000000E+00 0.  1.
    9000010    2    1    2  501    0  0.12618607868E+03  0.31086742673E+03 -0.16142898719E+04  0.19338987097E+04  0.10106784580E+04 0.  0.
        -13    1    3    3    0    0  0.30305239097E+03 -0.37996677210E+02 -0.35619290059E+02  0.30749511239E+03  0.10566000000E+00 0.  1.
          4    1    3    3  501    0 -0.17686631229E+03  0.34886410394E+03 -0.15786705818E+04  0.16264035973E+04  0.00000000000E+00 0.  1.
         13    1    1    2    0    0 -0.12618607868E+03 -0.31086742673E+03 -0.57575612952E+03  0.66637573132E+03  0.10566000000E+00 0. -1.
<mgrwt>
<rscale>  1 0.79782618E+03</rscale>
<asrwt>0</asrwt>
<pdfrwt beam="1">  1       21 0.31556032E-01 0.10649096E+04</pdfrwt>
<pdfrwt beam="2">  1        4 0.36848621E+00 0.10649096E+04</pdfrwt>
<totfact> 0.44855123E+01</totfact>
</mgrwt>
</event>
<event>
 6    1  0.5391662E-005  0.1097242E+04  0.7818608E-02  0.8896728E-01
         21   -1    0    0  501  502  0.00000000000E+00  0.00000000000E+00  0.32363160448E+03  0.32363160448E+03  0.00000000000E+00 0.  1.
          4   -1    0    0  502    0 -0.00000000000E+00 -0.00000000000E+00 -0.25178407085E+04  0.25178407085E+04  0.00000000000E+00 0.  1.
    9000010    2    1    2  501    0  0.43760439576E+03 -0.11795623756E+03 -0.75323262250E+03  0.13309013902E+04  0.99926365178E+03 0.  0.
        -13    1    3    3    0    0  0.10675537278E+03 -0.39936606418E+03  0.51352398112E+02  0.41656577247E+03  0.10566000000E+00 0.  1.
          4    1    3    3  501    0  0.33084902299E+03  0.28140982662E+03 -0.80458502061E+03  0.91433561777E+03  0.00000000000E+00 0.  1.
         13    1    1    2    0    0 -0.43760439576E+03  0.11795623756E+03 -0.14409764815E+04  0.15105709227E+04  0.10566000000E+00 0. -1.
<mgrwt>
<rscale>  1 0.87963953E+03</rscale>
<asrwt>0</asrwt>
<pdfrwt beam="1">  1       21 0.49789476E-01 0.10972416E+04</pdfrwt>
<pdfrwt beam="2">  1        4 0.38736012E+00 0.10972416E+04</pdfrwt>
<totfact> 0.14319843E+01</totfact>
</mgrwt>
</event>
<event>
 6    1  0.5391662E-005  0.9924503E+03  0.7818608E-02  0.9507288E-01
         21   -1    0    0  501  502  0.00000000000E+00  0.00000000000E+00  0.29766467403E+03  0.29766467403E+03  0.00000000000E+00 0.  1.
          4   -1    0    0  502    0 -0.00000000000E+00 -0.00000000000E+00 -0.10110542124E+04  0.10110542124E+04  0.00000000000E+00 0.  1.
    9000010    2    1    2  501    0  0.44648981326E+02  0.36180247782E+02 -0.74698367483E+03  0.12421522354E+04  0.99078505417E+03 0.  0.
        -13    1    3    3    0    0  0.44611497087E+03  0.75620036252E+02 -0.70345421504E+03  0.83641186083E+03  0.10566000000E+00 0.  1.
          4    1    3    3  501    0 -0.40146598955E+03 -0.39439788470E+02 -0.43529459790E+02  0.40574037456E+03  0.00000000000E+00 0.  1.
         13    1    1    2    0    0 -0.44648981326E+02 -0.36180247782E+02  0.33594136451E+02  0.66566651042E+02  0.10566000000E+00 0. -1.
<mgrwt>
<rscale>  1 0.48684179E+03</rscale>
<asrwt>0</asrwt>
<pdfrwt beam="1">  1       21 0.45794565E-01 0.99245028E+03</pdfrwt>
<pdfrwt beam="2">  1        4 0.15554680E+00 0.99245028E+03</pdfrwt>
<totfact> 0.83049700E+01</totfact>
</mgrwt>
</event>
<event>
 6    1  0.5391662E-005  0.1159389E+04  0.7818608E-02  0.8834022E-01
         21   -1    0    0  501  502  0.00000000000E+00  0.00000000000E+00  0.14091839097E+04  0.14091839097E+04  0.00000000000E+00 0. -1.
          4   -1    0    0  502    0 -0.00000000000E+00 -0.00000000000E+00 -0.85477513476E+03  0.85477513476E+03  0.00000000000E+00 0.  1.
    9000010    2    1    2  501    0 -0.43150854207E+03 -0.25071409244E+03 -0.36699206677E+03  0.12160865807E+04  0.10464827837E+04 0.  0.
        -13    1    3    3    0    0 -0.98816452623E+02 -0.39971441976E+03 -0.63975305878E+03  0.76080240277E+03  0.10566000000E+00 0.  1.
          4    1    3    3  501    0 -0.33269208945E+03  0.14900032732E+03  0.27276099201E+03  0.45528417794E+03  0.00000000000E+00 0.  1.
         13    1    1    2    0    0  0.43150854207E+03  0.25071409244E+03  0.92140084167E+03  0.10478724637E+04  0.10566000000E+00 0. -1.
<mgrwt>
<rscale>  1 0.93909469E+03</rscale>
<asrwt>0</asrwt>
<pdfrwt beam="1">  1       21 0.21679752E+00 0.11593892E+04</pdfrwt>
<pdfrwt beam="2">  1        4 0.13150387E+00 0.11593892E+04</pdfrwt>
<totfact> 0.14977231E+00</totfact>
</mgrwt>
</event>
<event>
 6    1  0.5391662E-005  0.1208197E+04  0.7818608E-02  0.8733120E-01
         21   -1    0    0  501  502  0.00000000000E+00  0.00000000000E+00  0.98257631883E+03  0.98257631883E+03  0.00000000000E+00 0. -1.
          4   -1    0    0  502    0 -0.00000000000E+00 -0.00000000000E+00 -0.92016748022E+03  0.92016748022E+03  0.00000000000E+00 0.  1.
    9000010    2    1    2  501    0 -0.16536475412E+03  0.65653609861E+03 -0.80164539074E+02  0.12108533960E+04  0.10006769921E+04 0.  0.
        -13    1    3    3    0    0 -0.12778164229E+03 -0.19799826581E+03 -0.24480118839E+03  0.33979272266E+03  0.10566000000E+00 0.  1.
          4    1    3    3  501    0 -0.37583111826E+02  0.85453436443E+03  0.16463664932E+03  0.87106067331E+03  0.00000000000E+00 0.  1.
         13    1    1    2    0    0  0.16536475412E+03 -0.65653609861E+03  0.14257337768E+03  0.69189040308E+03  0.10566000000E+00 0. -1.
<mgrwt>
<rscale>  1 0.10453390E+04</rscale>
<asrwt>0</asrwt>
<pdfrwt beam="1">  1       21 0.15116559E+00 0.12081968E+04</pdfrwt>
<pdfrwt beam="2">  1        4 0.14156423E+00 0.12081968E+04</pdfrwt>
<totfact> 0.45530044E+00</totfact>
</mgrwt>
</event>
<event>
 6    1  0.5391662E-005  0.1008766E+04  0.7818608E-02  0.9186112E-01
         21   -1    0    0  501  502  0.00000000000E+00  0.00000000000E+00  0.14088577510E+03  0.14088577510E+03  0.00000000000E+00 0.  1.
          4   -1    0    0  502    0 -0.00000000000E+00 -0.00000000000E+00 -0.25438385413E+04  0.25438385413E+04  0.00000000000E+00 0.  1.
    9000010    2    1    2  501    0 -0.17989070848E+03  0.31933203262E+02 -0.19304564864E+04  0.21781345987E+04  0.99208250050E+03 0.  0.
        -13    1    3    3    0    0 -0.44931048393E+03  0.28352206118E+03 -0.15897368133E+04  0.16761646151E+04  0.10566000000E+00 0.  1.
          4    1    3    3  501    0  0.26941977545E+03 -0.25158885791E+03 -0.34071967310E+03  0.50196998363E+03  0.00000000000E+00 0.  1.
         13    1    1    2    0    0  0.17989070848E+03 -0.31933203262E+02 -0.47249627976E+03  0.50658971764E+03  0.10566000000E+00 0. -1.
<mgrwt>
<rscale>  1 0.65808071E+03</rscale>
<asrwt>0</asrwt>
<pdfrwt beam="1">  1       21 0.21674738E-01 0.10087656E+04</pdfrwt>
<pdfrwt beam="2">  1        4 0.39135972E+00 0.10087656E+04</pdfrwt>
<totfact> 0.79059338E+01</totfact>
</mgrwt>
</event>
<event>
 6    1  0.5391662E-005  0.9888991E+03  0.7818608E-02  0.9272047E-01
          4   -1    0    0  502    0 -0.00000000000E+00  0.00000000000E+00  0.96823707954E+03  0.96823707954E+03  0.00000000000E+00 0.  1.
         21   -1    0    0  501  502  0.00000000000E+00 -0.00000000000E+00 -0.42645323631E+03  0.42645323631E+03  0.00000000000E+00 0.  1.
    9000010    2    1    2  501    0 -0.93164420499E+02 -0.10357710191E+03  0.17753431698E+03  0.10047088370E+04  0.97903707193E+03 0.  0.
        -13    1    3    3    0    0  0.32125430239E+03  0.26811127093E+03  0.15928586412E+03  0.44772757127E+03  0.10566000000E+00 0.  1.
          4    1    3    3  501    0 -0.41441872289E+03 -0.37168837283E+03  0.18248452862E+02  0.55698126576E+03  0.00000000000E+00 0.  1.
         13    1    1    2    0    0  0.93164420499E+02  0.10357710191E+03  0.36424952625E+03  0.38998147882E+03  0.10566000000E+00 0. -1.
<mgrwt>
<rscale>  1 0.60584444E+03</rscale>
<asrwt>0</asrwt>
<pdfrwt beam="2">  1       21 0.65608190E-01 0.98889909E+03</pdfrwt>
<pdfrwt beam="1">  1        4 0.14895955E+00 0.98889909E+03</pdfrwt>
<totfact> 0.39329248E+01</totfact>
</mgrwt>
</event>
<event>
 6    1  0.5391662E-005  0.1038332E+04  0.7818608E-02  0.9036292E-01
         21   -1    0    0  501  502  0.00000000000E+00  0.00000000000E+00  0.73815217402E+03  0.73815217402E+03  0.00000000000E+00 0.  1.
          4   -1    0    0  502    0 -0.00000000000E+00 -0.00000000000E+00 -0.64299944911E+03  0.64299944911E+03  0.00000000000E+00 0.  1.
    9000010    2    1    2  501    0 -0.21814258061E+03  0.20990850895E+03  0.20635693591E+03  0.10586393671E+04  0.99322019558E+03 0.  0.
        -13    1    3    3    0    0 -0.19803812103E+03  0.59881131920E+03  0.30762186298E+02  0.63145895880E+03  0.10566000000E+00 0.  1.
          4    1    3    3  501    0 -0.20104459571E+02 -0.38890281025E+03  0.17559474961E+03  0.42718040826E+03  0.00000000000E+00 0.  1.
         13    1    1    2    0    0  0.21814258061E+03 -0.20990850895E+03 -0.11120421100E+03  0.32251225606E+03  0.10566000000E+00 0. -1.
<mgrwt>
<rscale>  1 0.76298771E+03</rscale>
<asrwt>0</asrwt>
<pdfrwt beam="1">  1       21 0.11356187E+00 0.10383324E+04</pdfrwt>
<pdfrwt beam="2">  1        4 0.98922993E-01 0.10383324E+04</pdfrwt>
<totfact> 0.19591381E+01</totfact>
</mgrwt>
</event>
<event>
 6    1  0.5391662E-005  0.1537657E+04  0.7818608E-02  0.8441236E-01
          4   -1    0    0  502    0 -0.00000000000E+00  0.00000000000E+00  0.21809558623E+04  0.21809558623E+04  0.00000000000E+00 0.  1.
         21   -1    0    0  501  502  0.00000000000E+00 -0.00000000000E+00 -0.86998164291E+03  0.86998164291E+03  0.00000000000E+00 0. -1.
    9000010    2    1    2  501    0 -0.90364817244E+03 -0.79369778738E+03  0.89011571759E+03  0.17767090771E+04  0.95804642726E+03 0.  0.
        -13    1    3    3    0    0 -0.71191713492E+03 -0.24589369685E+03  0.92787916792E+03  0.11950939204E+04  0.10566000000E+00 0.  1.
          4    1    3    3  501    0 -0.19173103752E+03 -0.54780409053E+03 -0.37763450330E+02  0.58161515672E+03  0.00000000000E+00 0.  1.
         13    1    1    2    0    0  0.90364817244E+03  0.79369778738E+03  0.42085850180E+03  0.12742284281E+04  0.10566000000E+00 0. -1.
<mgrwt>
<rscale>  1 0.14460584E+04</rscale>
<asrwt>0</asrwt>
<pdfrwt beam="2">  1       21 0.13384333E+00 0.15376570E+04</pdfrwt>
<pdfrwt beam="1">  1        4 0.33553167E+00 0.15376570E+04</pdfrwt>
<totfact> 0.17211529E+00</totfact>
</mgrwt>
</event>
<event>
 6    1  0.5391662E-005  0.1015623E+04  0.7818608E-02  0.9262862E-01
         21   -1    0    0  501  502  0.00000000000E+00  0.00000000000E+00  0.62689073357E+03  0.62689073357E+03  0.00000000000E+00 0.  1.
          4   -1    0    0  502    0 -0.00000000000E+00 -0.00000000000E+00 -0.54213203627E+03  0.54213203627E+03  0.00000000000E+00 0.  1.
    9000010    2    1    2  501    0 -0.93818084099E+02  0.94540611886E+02  0.87304811494E+01  0.10156602548E+04  0.10068514149E+04 0.  0.
        -13    1    3    3    0    0 -0.37988615526E+03  0.19875572376E+03  0.35351619044E+03  0.55568969466E+03  0.10566000000E+00 0.  1.
          4    1    3    3  501    0  0.28606807116E+03 -0.10421511187E+03 -0.34478570929E+03  0.45997056016E+03  0.00000000000E+00 0.  1.
         13    1    1    2    0    0  0.93818084099E+02 -0.94540611886E+02  0.76028216152E+02  0.15336251503E+03  0.10566000000E+00 0. -1.
<mgrwt>
<rscale>  1 0.61117822E+03</rscale>
<asrwt>0</asrwt>
<pdfrwt beam="1">  1       21 0.96444727E-01 0.10156227E+04</pdfrwt>
<pdfrwt beam="2">  1        4 0.83404930E-01 0.10156227E+04</pdfrwt>
<totfact> 0.42599059E+01</totfact>
</mgrwt>
</event>
<event>
 6    1  0.5391662E-005  0.1483035E+04  0.7818608E-02  0.8483308E-01
         21   -1    0    0  501  502  0.00000000000E+00  0.00000000000E+00  0.77941039036E+03  0.77941039036E+03  0.00000000000E+00 0. -1.
          4   -1    0    0  502    0 -0.00000000000E+00 -0.00000000000E+00 -0.21757382984E+04  0.21757382984E+04  0.00000000000E+00 0.  1.
    9000010    2    1    2  501    0  0.49165115400E+03  0.99044102244E+03 -0.95878581615E+03  0.17659736093E+04  0.98828046189E+03 0.  0.
        -13    1    3    3    0    0  0.78415972347E+03  0.74722156808E+03 -0.82910451115E+03  0.13640604258E+04  0.10566000000E+00 0.  1.
          4    1    3    3  501    0 -0.29250856947E+03  0.24321945436E+03 -0.12968130500E+03  0.40191318348E+03  0.00000000000E+00 0.  1.
         13    1    1    2    0    0 -0.49165115400E+03 -0.99044102244E+03 -0.43754209184E+03  0.11891750794E+04  0.10566000000E+00 0. -1.
<mgrwt>
<rscale>  1 0.13780923E+04</rscale>
<asrwt>0</asrwt>
<pdfrwt beam="1">  1       21 0.11990929E+00 0.14830349E+04</pdfrwt>
<pdfrwt beam="2">  1        4 0.33472897E+00 0.14830349E+04</pdfrwt>
<totfact> 0.23899185E+00</totfact>
</mgrwt>
</event>
<event>
 6    1  0.5391662E-005  0.1101982E+04  0.7818608E-02  0.8894595E-01
          4   -1    0    0  502    0 -0.00000000000E+00  0.00000000000E+00  0.19695488032E+03  0.19695488032E+03  0.00000000000E+00 0.  1.
         21   -1    0    0  501  502  0.00000000000E+00 -0.00000000000E+00 -0.31042514044E+04  0.31042514044E+04  0.00000000000E+00 0.  1.
    9000010    2    1    2  501    0 -0.11683700951E+03  0.43598807115E+03 -0.18808463583E+04  0.21798961407E+04  0.10052997941E+04 0.  0.
        -13    1    3    3    0    0  0.40070209266E+03  0.63059700691E+02 -0.41034542847E+03  0.57699399888E+03  0.10566000000E+00 0.  1.
          4    1    3    3  501    0 -0.51753910217E+03  0.37292837046E+03 -0.14705009298E+04  0.16029021418E+04  0.00000000000E+00 0.  1.
         13    1    1    2    0    0  0.11683700951E+03 -0.43598807115E+03 -0.10264501659E+04  0.11213101440E+04  0.10566000000E+00 0. -1.
<mgrwt>
<rscale>  1 0.88158565E+03</rscale>
<asrwt>0</asrwt>
<pdfrwt beam="2">  1       21 0.47757710E+00 0.11019819E+04</pdfrwt>
<pdfrwt beam="1">  1        4 0.30300753E-01 0.11019819E+04</pdfrwt>
<totfact> 0.40673110E-01</totfact>
</mgrwt>
</event>
<event>
 6    1  0.5391662E-005  0.1351244E+04  0.7818608E-02  0.8586660E-01
         21   -1    0    0  501  502  0.00000000000E+00  0.00000000000E+00  0.96602243120E+03  0.96602243120E+03  0.00000000000E+00 0. -1.
          4   -1    0    0  502    0 -0.00000000000E+00 -0.00000000000E+00 -0.13329655964E+04  0.13329655964E+04  0.00000000000E+00 0.  1.
    9000010    2    1    2  501    0  0.52541127048E+03 -0.75285354059E+03 -0.23363592323E+03  0.13712939570E+04  0.99147159069E+03 0.  0.
        -13    1    3    3    0    0 -0.47842892442E+02 -0.76294788776E+03 -0.22872175001E+03  0.79792986652E+03  0.10566000000E+00 0.  1.
          4    1    3    3  501    0  0.57325416292E+03  0.10094347168E+02 -0.49141732188E+01  0.57336409048E+03  0.00000000000E+00 0.  1.
         13    1    1    2    0    0 -0.52541127048E+03  0.75285354059E+03 -0.13330724197E+03  0.92769407061E+03  0.10566000000E+00 0. -1.
<mgrwt>
<rscale>  1 0.12267865E+04</rscale>
<asrwt>0</asrwt>
<pdfrwt beam="1">  1       21 0.14861884E+00 0.13512444E+04</pdfrwt>
<pdfrwt beam="2">  1        4 0.20507163E+00 0.13512444E+04</pdfrwt>
<totfact> 0.28165781E+00</totfact>
</mgrwt>
</event>
<event>
 6    1  0.5391662E-005  0.1044636E+04  0.7818608E-02  0.9037061E-01
         21   -1    0    0  501  502  0.00000000000E+00  0.00000000000E+00  0.50085005593E+03  0.50085005593E+03  0.00000000000E+00 0.  1.
          4   -1    0    0  502    0 -0.00000000000E+00 -0.00000000000E+00 -0.17115723777E+04  0.17115723777E+04  0.00000000000E+00 0.  1.
    9000010    2    1    2  501    0  0.25649788441E+03 -0.14847557490E+03 -0.84715437253E+02  0.10480652392E+04  0.10017124734E+04 0.  0.
        -13    1    3    3    0    0 -0.23195321326E+01 -0.55657507576E+03 -0.95396340974E+02  0.56469608483E+03  0.10566000000E+00 0.  1.
          4    1    3    3  501    0  0.25881741654E+03  0.40809950086E+03  0.10680903722E+02  0.48336915439E+03  0.00000000000E+00 0.  1.
         13    1    1    2    0    0 -0.25649788441E+03  0.14847557490E+03 -0.11260068845E+04  0.11643571944E+04  0.10566000000E+00 0. -1.
<mgrwt>
<rscale>  1 0.76239996E+03</rscale>
<asrwt>0</asrwt>
<pdfrwt beam="1">  1       21 0.77053855E-01 0.10446358E+04</pdfrwt>
<pdfrwt beam="2">  1        4 0.26331883E+00 0.10446358E+04</pdfrwt>
<totfact> 0.12408597E+01</totfact>
</mgrwt>
</event>
<event>
 6    1  0.5391662E-005  0.1067208E+04  0.7818608E-02  0.8999520E-01
          4   -1    0    0  502    0 -0.00000000000E+00  0.00000000000E+00  0.10984369185E+04  0.10984369185E+04  0.00000000000E+00 0.  1.
         21   -1    0    0  501  502  0.00000000000E+00 -0.00000000000E+00 -0.44050915816E+03  0.44050915816E+03  0.00000000000E+00 0.  1.
    9000010    2    1    2  501    0  0.32617348436E+02 -0.32170344789E+03  0.48479700046E+03  0.11721610293E+04  0.10170429426E+04 0.  0.
        -13    1    3    3    0    0 -0.23882013540E+03  0.29405744192E+03  0.27209296801E+03  0.46641122481E+03  0.10566000000E+00 0.  1.
          4    1    3    3  501    0  0.27143748384E+03 -0.61576088982E+03  0.21270403245E+03  0.70574980445E+03  0.00000000000E+00 0.  1.
         13    1    1    2    0    0 -0.32617348436E+02  0.32170344789E+03  0.17313075986E+03  0.36678504737E+03  0.10566000000E+00 0. -1.
<mgrwt>
<rscale>  1 0.79178270E+03</rscale>
<asrwt>0</asrwt>
<pdfrwt beam="2">  1       21 0.67770640E-01 0.10672082E+04</pdfrwt>
<pdfrwt beam="1">  1        4 0.16899029E+00 0.10672082E+04</pdfrwt>
<totfact> 0.30298557E+01</totfact>
</mgrwt>
</event>
<event>
 6    1  0.5391662E-005  0.1008332E+04  0.7818608E-02  0.9288377E-01
          4   -1    0    0  502    0 -0.00000000000E+00  0.00000000000E+00  0.10994716944E+04  0.10994716944E+04  0.00000000000E+00 0.  1.
         21   -1    0    0  501  502  0.00000000000E+00 -0.00000000000E+00 -0.34785866369E+03  0.34785866369E+03  0.00000000000E+00 0.  1.
    9000010    2    1    2  501    0 -0.26489158560E+02  0.12061692861E+03  0.41789998213E+03  0.10915010044E+04  0.10007416892E+04 0.  0.
        -13    1    3    3    0    0 -0.41128568474E+03  0.14416289843E+03 -0.98751944897E+02  0.44686778082E+03  0.10566000000E+00 0.  1.
          4    1    3    3  501    0  0.38479652618E+03 -0.23545969819E+02  0.51665192703E+03  0.64463322359E+03  0.00000000000E+00 0.  1.
         13    1    1    2    0    0  0.26489158560E+02 -0.12061692861E+03  0.33371304860E+03  0.35582935371E+03  0.10566000000E+00 0. -1.
<mgrwt>
<rscale>  1 0.59650207E+03</rscale>
<asrwt>0</asrwt>
<pdfrwt beam="2">  1       21 0.53516718E-01 0.10083323E+04</pdfrwt>
<pdfrwt beam="1">  1        4 0.16914949E+00 0.10083323E+04</pdfrwt>
<totfact> 0.52282750E+01</totfact>
</mgrwt>
</event>
<event>
 6    1  0.5391662E-005  0.1007901E+04  0.7818608E-02  0.9207385E-01
         21   -1    0    0  501  502  0.00000000000E+00  0.00000000000E+00  0.15266207761E+04  0.15266207761E+04  0.00000000000E+00 0.  1.
          4   -1    0    0  502    0 -0.00000000000E+00 -0.00000000000E+00 -0.26829453201E+03  0.26829453201E+03  0.00000000000E+00 0.  1.
    9000010    2    1    2  501    0 -0.13540170928E+03 -0.10058342075E+03  0.12751746149E+04  0.16254026945E+04  0.99368655692E+03 0.  0.
        -13    1    3    3    0    0 -0.24041024122E+03  0.34534595219E+03  0.21947342516E+03  0.47458350824E+03  0.10566000000E+00 0.  1.
          4    1    3    3  501    0  0.10500853194E+03 -0.44592937295E+03  0.10557011898E+04  0.11508191863E+04  0.00000000000E+00 0.  1.
         13    1    1    2    0    0  0.13540170928E+03  0.10058342075E+03 -0.16848370819E+02  0.16951261360E+03  0.10566000000E+00 0. -1.
<mgrwt>
<rscale>  1 0.64465123E+03</rscale>
<asrwt>0</asrwt>
<pdfrwt beam="1">  1       21 0.23486473E+00 0.10079006E+04</pdfrwt>
<pdfrwt beam="2">  1        4 0.41276083E-01 0.10079006E+04</pdfrwt>
<totfact> 0.11244802E+01</totfact>
</mgrwt>
</event>
<event>
 6    1  0.5391662E-005  0.1013645E+04  0.7818608E-02  0.9132548E-01
          4   -1    0    0  502    0 -0.00000000000E+00  0.00000000000E+00  0.12236150267E+04  0.12236150267E+04  0.00000000000E+00 0.  1.
         21   -1    0    0  501  502  0.00000000000E+00 -0.00000000000E+00 -0.43572353866E+03  0.43572353866E+03  0.00000000000E+00 0.  1.
    9000010    2    1    2  501    0  0.20873507715E+03 -0.75626810786E+02  0.20305966923E+03  0.10337843995E+04  0.98903347186E+03 0.  0.
        -13    1    3    3    0    0  0.40227255381E+03 -0.27372869218E+03 -0.21528837216E+03  0.53207114075E+03  0.10566000000E+00 0.  1.
          4    1    3    3  501    0 -0.19353747665E+03  0.19810188139E+03  0.41834804139E+03  0.50171325876E+03  0.00000000000E+00 0.  1.
         13    1    1    2    0    0 -0.20873507715E+03  0.75626810786E+02  0.58483181881E+03  0.62555416584E+03  0.10566000000E+00 0. -1.
<mgrwt>
<rscale>  1 0.69344037E+03</rscale>
<asrwt>0</asrwt>
<pdfrwt beam="2">  1       21 0.67034391E-01 0.10136454E+04</pdfrwt>
<pdfrwt beam="1">  1        4 0.18824846E+00 0.10136454E+04</pdfrwt>
<totfact> 0.26915710E+01</totfact>
</mgrwt>
</event>
<event>
 6    1  0.5391662E-005  0.1020248E+04  0.7818608E-02  0.9083512E-01
         21   -1    0    0  501  502  0.00000000000E+00  0.00000000000E+00  0.23162444706E+03  0.23162444706E+03  0.00000000000E+00 0.  1.
          4   -1    0    0  502    0 -0.00000000000E+00 -0.00000000000E+00 -0.18037653822E+04  0.18037653822E+04  0.00000000000E+00 0.  1.
    9000010    2    1    2  501    0 -0.20902592060E+03  0.16172998084E+03 -0.11499491815E+04  0.15372991646E+04  0.98542233554E+03 0.  0.
        -13    1    3    3    0    0 -0.58453379233E+03 -0.14314678633E+02 -0.82112123897E+03  0.10080301408E+04  0.10566000000E+00 0.  1.
          4    1    3    3  501    0  0.37550787173E+03  0.17604465947E+03 -0.32882794251E+03  0.52926902388E+03  0.00000000000E+00 0.  1.
         13    1    1    2    0    0  0.20902592060E+03 -0.16172998084E+03 -0.42219175367E+03  0.49809066465E+03  0.10566000000E+00 0. -1.
<mgrwt>
<rscale>  1 0.72786165E+03</rscale>
<asrwt>0</asrwt>
<pdfrwt beam="1">  1       21 0.35634533E-01 0.10202478E+04</pdfrwt>
<pdfrwt beam="2">  1        4 0.27750235E+00 0.10202478E+04</pdfrwt>
<totfact> 0.65017202E+01</totfact>
</mgrwt>
</event>
<event>
 6    1  0.5391662E-005  0.1074975E+04  0.7818608E-02  0.8975802E-01
          4   -1    0    0  502    0 -0.00000000000E+00  0.00000000000E+00  0.93491151793E+03  0.93491151793E+03  0.00000000000E+00 0.  1.
         21   -1    0    0  501  502  0.00000000000E+00 -0.00000000000E+00 -0.55711572761E+03  0.55711572761E+03  0.00000000000E+00 0.  1.
    9000010    2    1    2  501    0  0.31896582836E+03 -0.14005386627E+03  0.17555002450E+03  0.10892150733E+04  0.10169647879E+04 0.  0.
        -13    1    3    3    0    0  0.68298559379E+03 -0.48781678619E+01  0.15496436193E+03  0.70036210811E+03  0.10566000000E+00 0.  1.
          4    1    3    3  501    0 -0.36401976543E+03 -0.13517569841E+03  0.20585662567E+02  0.38885296523E+03  0.00000000000E+00 0.  1.
         13    1    1    2    0    0 -0.31896582836E+03  0.14005386627E+03  0.20224576582E+03  0.40281217221E+03  0.10566000000E+00 0. -1.
<mgrwt>
<rscale>  1 0.81106512E+03</rscale>
<asrwt>0</asrwt>
<pdfrwt beam="2">  1       21 0.85710112E-01 0.10749752E+04</pdfrwt>
<pdfrwt beam="1">  1        4 0.14383254E+00 0.10749752E+04</pdfrwt>
<totfact> 0.21604727E+01</totfact>
</mgrwt>
</event>
<event>
 6    1  0.5391662E-005  0.1292637E+04  0.7818608E-02  0.8641213E-01
         21   -1    0    0  501  502  0.00000000000E+00  0.00000000000E+00  0.48865098373E+03  0.48865098373E+03  0.00000000000E+00 0. -1.
          4   -1    0    0  502    0 -0.00000000000E+00 -0.00000000000E+00 -0.23286545543E+04  0.23286545543E+04  0.00000000000E+00 0.  1.
    9000010    2    1    2  501    0 -0.70634289190E+03  0.42442238170E+03 -0.94854847968E+03  0.16033257897E+04  0.99591903823E+03 0.  0.
        -13    1    3    3    0    0  0.17989009605E+03  0.56847096893E+02  0.72613591619E+02  0.20215039929E+03  0.10566000000E+00 0.  1.
          4    1    3    3  501    0 -0.88623298795E+03  0.36757528481E+03 -0.10211620713E+04  0.14011753904E+04  0.00000000000E+00 0.  1.
         13    1    1    2    0    0  0.70634289190E+03 -0.42442238170E+03 -0.89145509087E+03  0.12139797483E+04  0.10566000000E+00 0. -1.
<mgrwt>
<rscale>  1 0.11550357E+04</rscale>
<asrwt>0</asrwt>
<pdfrwt beam="1">  1       21 0.75177077E-01 0.12926366E+04</pdfrwt>
<pdfrwt beam="2">  1        4 0.35825454E+00 0.12926366E+04</pdfrwt>
<totfact> 0.68999142E+00</totfact>
</mgrwt>
</event>
<event>
 6    1  0.5391662E-005  0.1091464E+04  0.7818608E-02  0.8970830E-01
         21   -1    0    0  501  502  0.00000000000E+00  0.00000000000E+00  0.89724404996E+03  0.89724404996E+03  0.00000000000E+00 0. -1.
          4   -1    0    0  502    0 -0.00000000000E+00 -0.00000000000E+00 -0.57608467417E+03  0.57608467417E+03  0.00000000000E+00 0.  1.
    9000010    2    1    2  501    0  0.22187774190E+03  0.25711349455E+03  0.30524052290E+03  0.11333426914E+04  0.10372833739E+04 0.  0.
        -13    1    3    3    0    0 -0.16190446784E+02 -0.69058797327E+02  0.61832255773E+03  0.62237773468E+03  0.10566000000E+00 0.  1.
          4    1    3    3  501    0  0.23806818868E+03  0.32617229187E+03 -0.31308203483E+03  0.51096495671E+03  0.00000000000E+00 0.  1.
         13    1    1    2    0    0 -0.22187774190E+03 -0.25711349455E+03  0.15918852885E+02  0.33998603276E+03  0.10566000000E+00 0. -1.
<mgrwt>
<rscale>  1 0.81517944E+03</rscale>
<asrwt>0</asrwt>
<pdfrwt beam="1">  1       21 0.13803755E+00 0.10914641E+04</pdfrwt>
<pdfrwt beam="2">  1        4 0.88628412E-01 0.10914641E+04</pdfrwt>
<totfact> 0.13890774E+01</totfact>
</mgrwt>
</event>
<event>
 6    1  0.5391662E-005  0.1047378E+04  0.7818608E-02  0.9036462E-01
         21   -1    0    0  501  502  0.00000000000E+00  0.00000000000E+00  0.22205240660E+03  0.22205240660E+03  0.00000000000E+00 0.  1.
          4   -1    0    0  502    0 -0.00000000000E+00 -0.00000000000E+00 -0.20425953574E+04  0.20425953574E+04  0.00000000000E+00 0.  1.
    9000010    2    1    2  501    0  0.62206124026E+02  0.28811767609E+03 -0.13378141230E+04  0.16990431941E+04  0.10050471385E+04 0.  0.
        -13    1    3    3    0    0  0.10380346657E+03  0.66064463257E+03 -0.92519997423E+03  0.11415872694E+04  0.10566000000E+00 0.  1.
          4    1    3    3  501    0 -0.41597342543E+02 -0.37252695648E+03 -0.41261414873E+03  0.55745592466E+03  0.00000000000E+00 0.  1.
         13    1    1    2    0    0 -0.62206124026E+02 -0.28811767609E+03 -0.48272882788E+03  0.56560456997E+03  0.10566000000E+00 0. -1.
<mgrwt>
<rscale>  1 0.76285766E+03</rscale>
<asrwt>0</asrwt>
<pdfrwt beam="1">  1       21 0.34161909E-01 0.10473782E+04</pdfrwt>
<pdfrwt beam="2">  1        4 0.31424544E+00 0.10473782E+04</pdfrwt>
<totfact> 0.56526044E+01</totfact>
</mgrwt>
</event>
<event>
 6    1  0.5391662E-005  0.1119602E+04  0.7818608E-02  0.8883566E-01
          4   -1    0    0  502    0 -0.00000000000E+00  0.00000000000E+00  0.25937429545E+04  0.25937429545E+04  0.00000000000E+00 0.  1.
         21   -1    0    0  501  502  0.00000000000E+00 -0.00000000000E+00 -0.36467956622E+03  0.36467956622E+03  0.00000000000E+00 0.  1.
    9000010    2    1    2  501    0  0.15553056113E+03  0.42285489083E+03  0.60415596422E+03  0.12722077770E+04  0.10249449666E+04 0.  0.
        -13    1    3    3    0    0  0.51758413207E+03  0.92895053756E+02  0.57835421263E+03  0.78167540016E+03  0.10566000000E+00 0.  1.
          4    1    3    3  501    0 -0.36205357094E+03  0.32995983708E+03  0.25801751595E+02  0.49053237681E+03  0.00000000000E+00 0.  1.
         13    1    1    2    0    0 -0.15553056113E+03 -0.42285489083E+03  0.16249074241E+04  0.16862147438E+04  0.10566000000E+00 0. -1.
<mgrwt>
<rscale>  1 0.89173053E+03</rscale>
<asrwt>0</asrwt>
<pdfrwt beam="2">  1       21 0.56104550E-01 0.11196018E+04</pdfrwt>
<pdfrwt beam="1">  1        4 0.39903737E+00 0.11196018E+04</pdfrwt>
<totfact> 0.98329648E+00</totfact>
</mgrwt>
</event>
<event>
 6    1  0.5391662E-005  0.1371547E+04  0.7818608E-02  0.8571857E-01
          4   -1    0    0  502    0 -0.00000000000E+00  0.00000000000E+00  0.28685059475E+04  0.28685059475E+04  0.00000000000E+00 0.  1.
         21   -1    0    0  501  502  0.00000000000E+00 -0.00000000000E+00 -0.51939174842E+03  0.51939174842E+03  0.00000000000E+00 0. -1.
    9000010    2    1    2  501    0 -0.54292813988E+03  0.76458352594E+03  0.19125737832E+04  0.23535251910E+04  0.10008913103E+04 0.  0.
        -13    1    3    3    0    0 -0.19526293045E+03  0.39678598689E+03  0.76276657387E+02  0.44875925732E+03  0.10566000000E+00 0.  1.
          4    1    3    3  501    0 -0.34766520943E+03  0.36779753904E+03  0.18362971259E+04  0.19047659337E+04  0.00000000000E+00 0.  1.
         13    1    1    2    0    0  0.54292813988E+03 -0.76458352594E+03  0.43654041588E+03  0.10343725050E+04  0.10566000000E+00 0. -1.
<mgrwt>
<rscale>  1 0.12471795E+04</rscale>
<asrwt>0</asrwt>
<pdfrwt beam="2">  1       21 0.79906424E-01 0.13715474E+04</pdfrwt>
<pdfrwt beam="1">  1        4 0.44130860E+00 0.13715474E+04</pdfrwt>
<totfact> 0.27339310E+00</totfact>
</mgrwt>
</event>
<event>
 6    1  0.5391662E-005  0.1053898E+04  0.7818608E-02  0.9016778E-01
         21   -1    0    0  501  502  0.00000000000E+00  0.00000000000E+00  0.26608151735E+03  0.26608151735E+03  0.00000000000E+00 0. -1.
          4   -1    0    0  502    0 -0.00000000000E+00 -0.00000000000E+00 -0.18546319642E+04  0.18546319642E+04  0.00000000000E+00 0.  1.
    9000010    2    1    2  501    0 -0.28971439327E+03 -0.11887478649E+03 -0.14096475824E+04  0.17600586735E+04  0.10062974624E+04 0.  0.
        -13    1    3    3    0    0 -0.21577600264E+03  0.41780276662E+03 -0.41373782782E+03  0.62633652013E+03  0.10566000000E+00 0.  1.
          4    1    3    3  501    0 -0.73938390629E+02 -0.53667755311E+03 -0.99590975461E+03  0.11337221533E+04  0.00000000000E+00 0.  1.
         13    1    1    2    0    0  0.28971439327E+03  0.11887478649E+03 -0.17890286440E+03  0.36065480807E+03  0.10566000000E+00 0. -1.
<mgrwt>
<rscale>  1 0.77810552E+03</rscale>
<asrwt>0</asrwt>
<pdfrwt beam="1">  1       21 0.40935619E-01 0.10538976E+04</pdfrwt>
<pdfrwt beam="2">  1        4 0.28532799E+00 0.10538976E+04</pdfrwt>
<totfact> 0.46110179E+01</totfact>
</mgrwt>
</event>
<event>
 6    1  0.5391662E-005  0.1036904E+04  0.7818608E-02  0.9132062E-01
          4   -1    0    0  502    0 -0.00000000000E+00  0.00000000000E+00  0.13879564290E+04  0.13879564290E+04  0.00000000000E+00 0.  1.
         21   -1    0    0  501  502  0.00000000000E+00 -0.00000000000E+00 -0.49141938386E+03  0.49141938386E+03  0.00000000000E+00 0.  1.
    9000010    2    1    2  501    0 -0.15555875880E+02 -0.20721966593E+03  0.83564754689E+02  0.10402656107E+04  0.10158678542E+04 0.  0.
        -13    1    3    3    0    0  0.18289548265E+03 -0.36416667946E+03  0.44221595346E+03  0.60135105276E+03  0.10566000000E+00 0.  1.
          4    1    3    3  501    0 -0.19845135854E+03  0.15694701352E+03 -0.35865119877E+03  0.43891455790E+03  0.00000000000E+00 0.  1.
         13    1    1    2    0    0  0.15555875880E+02  0.20721966593E+03  0.81297229044E+03  0.83911020218E+03  0.10566000000E+00 0. -1.
<mgrwt>
<rscale>  1 0.69377185E+03</rscale>
<asrwt>0</asrwt>
<pdfrwt beam="2">  1       21 0.75602983E-01 0.10369038E+04</pdfrwt>
<pdfrwt beam="1">  1        4 0.21353176E+00 0.10369038E+04</pdfrwt>
<totfact> 0.17148407E+01</totfact>
</mgrwt>
</event>
<event>
 6    1  0.5391662E-005  0.1008080E+04  0.7818608E-02  0.9225133E-01
         21   -1    0    0  501  502  0.00000000000E+00  0.00000000000E+00  0.71860552535E+02  0.71860552535E+02  0.00000000000E+00 0.  1.
          4   -1    0    0  502    0 -0.00000000000E+00 -0.00000000000E+00 -0.47274080943E+04  0.47274080943E+04  0.00000000000E+00 0.  1.
    9000010    2    1    2  501    0  0.35646282278E+02 -0.15333024966E+03 -0.39957196888E+04  0.41209224007E+04  0.99571320090E+03 0.  0.
        -13    1    3    3    0    0  0.12631101050E+02  0.28100827546E+03 -0.32144976859E+04  0.32267817682E+04  0.10566000000E+00 0.  1.
          4    1    3    3  501    0  0.23015181228E+02 -0.43433852512E+03 -0.78122200289E+03  0.89414063255E+03  0.00000000000E+00 0.  1.
         13    1    1    2    0    0 -0.35646282278E+02  0.15333024966E+03 -0.65982785302E+03  0.67834624616E+03  0.10566000000E+00 0. -1.
<mgrwt>
<rscale>  1 0.63370304E+03</rscale>
<asrwt>0</asrwt>
<pdfrwt beam="1">  1       21 0.11055466E-01 0.10080802E+04</pdfrwt>
<pdfrwt beam="2">  1        4 0.72729381E+00 0.10080802E+04</pdfrwt>
<totfact> 0.67652118E+00</totfact>
</mgrwt>
</event>
<event>
 6    1  0.5391662E-005  0.8245426E+03  0.7818608E-02  0.9523572E-01
         21   -1    0    0  501  502  0.00000000000E+00  0.00000000000E+00  0.99184732118E+02  0.99184732118E+02  0.00000000000E+00 0.  1.
          4   -1    0    0  502    0 -0.00000000000E+00 -0.00000000000E+00 -0.22394549958E+04  0.22394549958E+04  0.00000000000E+00 0.  1.
    9000010    2    1    2  501    0  0.94244194218E+02 -0.65461059529E+01 -0.20426543782E+04  0.22027953614E+04  0.81911273699E+03 0.  0.
        -13    1    3    3    0    0  0.22417752563E+03 -0.37154134689E+03 -0.98228130448E+03  0.10738599107E+04  0.10566000000E+00 0.  1.
          4    1    3    3  501    0 -0.12993333141E+03  0.36499524093E+03 -0.10603730737E+04  0.11289354508E+04  0.00000000000E+00 0.  1.
         13    1    1    2    0    0 -0.94244194218E+02  0.65461059529E+01 -0.97615885511E+02  0.13584436652E+03  0.10566000000E+00 0. -1.
<mgrwt>
<rscale>  1 0.47971674E+03</rscale>
<asrwt>0</asrwt>
<pdfrwt beam="1">  1       21 0.15259190E-01 0.82454260E+03</pdfrwt>
<pdfrwt beam="2">  1        4 0.34453153E+00 0.82454260E+03</pdfrwt>
<totfact> 0.23503387E+02</totfact>
</mgrwt>
</event>
<event>
 6    1  0.5391662E-005  0.1092840E+04  0.7818608E-02  0.8903045E-01
         21   -1    0    0  501  502  0.00000000000E+00  0.00000000000E+00  0.55560402274E+03  0.55560402274E+03  0.00000000000E+00 0.  1.
          4   -1    0    0  502    0 -0.00000000000E+00 -0.00000000000E+00 -0.14017176879E+04  0.14017176879E+04  0.00000000000E+00 0.  1.
    9000010    2    1    2  501    0  0.43791732712E+03 -0.89054228737E+02 -0.11289840009E+03  0.10986559566E+04  0.99729465116E+03 0.  0.
        -13    1    3    3    0    0  0.43897757187E+03 -0.14371796006E+02  0.39173379473E+03  0.58852632415E+03  0.10566000000E+00 0.  1.
          4    1    3    3  501    0 -0.10602447533E+01 -0.74682432731E+02 -0.50463219482E+03  0.51012963247E+03  0.00000000000E+00 0.  1.
         13    1    1    2    0    0 -0.43791732712E+03  0.89054228737E+02 -0.73321526510E+03  0.85866575405E+03  0.10566000000E+00 0. -1.
<mgrwt>
<rscale>  1 0.87390707E+03</rscale>
<asrwt>0</asrwt>
<pdfrwt beam="1">  1       21 0.85477543E-01 0.10928398E+04</pdfrwt>
<pdfrwt beam="2">  1        4 0.21564887E+00 0.10928398E+04</pdfrwt>
<totfact> 0.12465093E+01</totfact>
</mgrwt>
</event>
<event>
 6    1  0.5391662E-005  0.1014736E+04  0.7818608E-02  0.9388973E-01
          4   -1    0    0  502    0 -0.00000000000E+00  0.00000000000E+00  0.20610894666E+04  0.20610894666E+04  0.00000000000E+00 0.  1.
         21   -1    0    0  501  502  0.00000000000E+00 -0.00000000000E+00 -0.15482060067E+03  0.15482060067E+03  0.00000000000E+00 0.  1.
    9000010    2    1    2  501    0  0.63919104451E+02  0.52985929581E+02  0.15687694966E+04  0.18683485675E+04  0.10113335136E+04 0.  0.
        -13    1    3    3    0    0 -0.33149620906E+02 -0.41437359972E+03  0.11852355729E+04  0.12560206018E+04  0.10566000000E+00 0.  1.
          4    1    3    3  501    0  0.97068725356E+02  0.46735952930E+03  0.38353392367E+03  0.61232796578E+03  0.00000000000E+00 0.  1.
         13    1    1    2    0    0 -0.63919104451E+02 -0.52985929581E+02  0.33749936934E+03  0.34756149976E+03  0.10566000000E+00 0. -1.
<mgrwt>
<rscale>  1 0.54270911E+03</rscale>
<asrwt>0</asrwt>
<pdfrwt beam="2">  1       21 0.23818555E-01 0.10147357E+04</pdfrwt>
<pdfrwt beam="1">  1        4 0.31709067E+00 0.10147357E+04</pdfrwt>
<totfact> 0.11625427E+02</totfact>
</mgrwt>
</event>
<event>
 6    1  0.5391662E-005  0.1016557E+04  0.7818608E-02  0.9194856E-01
          4   -1    0    0  502    0 -0.00000000000E+00  0.00000000000E+00  0.21164367088E+04  0.21164367088E+04  0.00000000000E+00 0.  1.
         21   -1    0    0  501  502  0.00000000000E+00 -0.00000000000E+00 -0.17047517655E+03  0.17047517655E+03  0.00000000000E+00 0.  1.
    9000010    2    1    2  501    0  0.31197313922E+02  0.16973224418E+03  0.17652706541E+04  0.20370488994E+04  0.10018010927E+04 0.  0.
        -13    1    3    3    0    0  0.34668182712E+03 -0.10849253334E+03  0.14916474634E+04  0.15352430053E+04  0.10566000000E+00 0.  1.
          4    1    3    3  501    0 -0.31548451320E+03  0.27822477752E+03  0.27362319064E+03  0.50180589410E+03  0.00000000000E+00 0.  1.
         13    1    1    2    0    0 -0.31197313922E+02 -0.16973224418E+03  0.18069087814E+03  0.24986298589E+03  0.10566000000E+00 0. -1.
<mgrwt>
<rscale>  1 0.65251967E+03</rscale>
<asrwt>0</asrwt>
<pdfrwt beam="2">  1       21 0.26226952E-01 0.10165568E+04</pdfrwt>
<pdfrwt beam="1">  1        4 0.32560563E+00 0.10165568E+04</pdfrwt>
<totfact> 0.90646246E+01</totfact>
</mgrwt>
</event>
<event>
 6    1  0.5391662E-005  0.1024866E+04  0.7818608E-02  0.9117087E-01
         21   -1    0    0  501  502  0.00000000000E+00  0.00000000000E+00  0.37368175668E+03  0.37368175668E+03  0.00000000000E+00 0.  1.
          4   -1    0    0  502    0 -0.00000000000E+00 -0.00000000000E+00 -0.11517899955E+04  0.11517899955E+04  0.00000000000E+00 0.  1.
    9000010    2    1    2  501    0 -0.43854411082E+01  0.22824208944E+03 -0.43500748010E+03  0.11133651819E+04  0.99911802954E+03 0.  0.
        -13    1    3    3    0    0  0.49463453181E+03  0.13027033582E+03 -0.27204478961E+03  0.57934623428E+03  0.10566000000E+00 0.  1.
          4    1    3    3  501    0 -0.49901997292E+03  0.97971753623E+02 -0.16296269049E+03  0.53401894758E+03  0.00000000000E+00 0.  1.
         13    1    1    2    0    0  0.43854411082E+01 -0.22824208944E+03 -0.34310075868E+03  0.41210657027E+03  0.10566000000E+00 0. -1.
<mgrwt>
<rscale>  1 0.70407566E+03</rscale>
<asrwt>0</asrwt>
<pdfrwt beam="1">  1       21 0.57489502E-01 0.10248661E+04</pdfrwt>
<pdfrwt beam="2">  1        4 0.17719846E+00 0.10248661E+04</pdfrwt>
<totfact> 0.41644555E+01</totfact>
</mgrwt>
</event>
<event>
 6    1  0.5391662E-005  0.9962548E+03  0.7818608E-02  0.9045674E-01
          4   -1    0    0  502    0 -0.00000000000E+00  0.00000000000E+00  0.10363668191E+04  0.10363668191E+04  0.00000000000E+00 0.  1.
         21   -1    0    0  501  502  0.00000000000E+00 -0.00000000000E+00 -0.57039284940E+03  0.57039284940E+03  0.00000000000E+00 0.  1.
    9000010    2    1    2  501    0  0.23306897683E+03  0.23374160613E+03 -0.46321702629E+02  0.99733112186E+03  0.93998264883E+03 0.  0.
        -13    1    3    3    0    0 -0.13543336217E+03 -0.14353350084E+03 -0.34042414270E+03  0.39348782643E+03  0.10566000000E+00 0.  1.
          4    1    3    3  501    0  0.36850233900E+03  0.37727510697E+03  0.29410244007E+03  0.60384329544E+03  0.00000000000E+00 0.  1.
         13    1    1    2    0    0 -0.23306897683E+03 -0.23374160613E+03  0.51229567234E+03  0.60942854664E+03  0.10566000000E+00 0. -1.
<mgrwt>
<rscale>  1 0.75584783E+03</rscale>
<asrwt>0</asrwt>
<pdfrwt beam="2">  1       21 0.87752746E-01 0.99625482E+03</pdfrwt>
<pdfrwt beam="1">  1        4 0.15944105E+00 0.99625482E+03</pdfrwt>
<totfact> 0.17622629E+01</totfact>
</mgrwt>
</event>
<event>
 6    1  0.5391662E-005  0.1070935E+04  0.7818608E-02  0.8966956E-01
         21   -1    0    0  501  502  0.00000000000E+00  0.00000000000E+00  0.18895748062E+04  0.18895748062E+04  0.00000000000E+00 0. -1.
          4   -1    0    0  502    0 -0.00000000000E+00 -0.00000000000E+00 -0.27394851162E+03  0.27394851162E+03  0.00000000000E+00 0.  1.
    9000010    2    1    2  501    0 -0.35560449286E+03  0.83345953283E+02  0.11446871364E+04  0.15675494886E+04  0.10067281935E+04 0.  0.
        -13    1    3    3    0    0 -0.25333233782E+03  0.59242472118E+02  0.13296288469E+04  0.13548430999E+04  0.10566000000E+00 0.  1.
          4    1    3    3  501    0 -0.10227215504E+03  0.24103481165E+02 -0.18494171045E+03  0.21270638864E+03  0.00000000000E+00 0.  1.
         13    1    1    2    0    0  0.35560449286E+03 -0.83345953283E+02  0.47093915817E+03  0.59597382923E+03  0.10566000000E+00 0. -1.
<mgrwt>
<rscale>  1 0.81840347E+03</rscale>
<asrwt>0</asrwt>
<pdfrwt beam="1">  1       21 0.29070381E+00 0.10709355E+04</pdfrwt>
<pdfrwt beam="2">  1        4 0.42145926E-01 0.10709355E+04</pdfrwt>
<totfact> 0.42351843E+00</totfact>
</mgrwt>
</event>
<event>
 6    1  0.5391662E-005  0.9948661E+03  0.7818608E-02  0.9259876E-01
         21   -1    0    0  501  502  0.00000000000E+00  0.00000000000E+00  0.13458825955E+03  0.13458825955E+03  0.00000000000E+00 0.  1.
          4   -1    0    0  502    0 -0.00000000000E+00 -0.00000000000E+00 -0.24066489723E+04  0.24066489723E+04  0.00000000000E+00 0.  1.
    9000010    2    1    2  501    0  0.43697900038E+00 -0.14332852564E+03 -0.19945660085E+04  0.22289127544E+04  0.98448730155E+03 0.  0.
        -13    1    3    3    0    0  0.29809300295E+03 -0.43503611411E+03 -0.14516727629E+04  0.15444965784E+04  0.10566000000E+00 0.  1.
          4    1    3    3  501    0 -0.29765602395E+03  0.29170758847E+03 -0.54289324567E+03  0.68441617599E+03  0.00000000000E+00 0.  1.
         13    1    1    2    0    0 -0.43697900038E+00  0.14332852564E+03 -0.27749470422E+03  0.31232447751E+03  0.10566000000E+00 0. -1.
<mgrwt>
<rscale>  1 0.61292483E+03</rscale>
<asrwt>0</asrwt>
<pdfrwt beam="1">  1       21 0.20705889E-01 0.99486607E+03</pdfrwt>
<pdfrwt beam="2">  1        4 0.37025363E+00 0.99486607E+03</pdfrwt>
<totfact> 0.10401092E+02</totfact>
</mgrwt>
</event>
<event>
 6    1  0.5391662E-005  0.1099803E+04  0.7818608E-02  0.8874309E-01
         21   -1    0    0  501  502  0.00000000000E+00  0.00000000000E+00  0.42676395691E+03  0.42676395691E+03  0.00000000000E+00 0.  1.
          4   -1    0    0  502    0 -0.00000000000E+00 -0.00000000000E+00 -0.14962264111E+04  0.14962264111E+04  0.00000000000E+00 0.  1.
    9000010    2    1    2  501    0  0.36663182669E+03 -0.33106017105E+03 -0.67103527991E+03  0.12883534974E+04  0.98262233544E+03 0.  0.
        -13    1    3    3    0    0 -0.12616154994E+02  0.21712795130E+02 -0.76204890439E+03  0.76246256085E+03  0.10566000000E+00 0.  1.
          4    1    3    3  501    0  0.37924798168E+03 -0.35277296618E+03  0.91013624484E+02  0.52589093652E+03  0.00000000000E+00 0.  1.
         13    1    1    2    0    0 -0.36663182669E+03  0.33106017105E+03 -0.39842717426E+03  0.63463687061E+03  0.10566000000E+00 0. -1.
<mgrwt>
<rscale>  1 0.90035600E+03</rscale>
<asrwt>0</asrwt>
<pdfrwt beam="1">  1       21 0.65655994E-01 0.10998029E+04</pdfrwt>
<pdfrwt beam="2">  1        4 0.23018868E+00 0.10998029E+04</pdfrwt>
<totfact> 0.21631187E+01</totfact>
</mgrwt>
</event>
<event>
 6    1  0.5391662E-005  0.1107182E+04  0.7818608E-02  0.8872990E-01
         21   -1    0    0  501  502  0.00000000000E+00  0.00000000000E+00  0.32908542151E+03  0.32908542151E+03  0.00000000000E+00 0.  1.
          4   -1    0    0  502    0 -0.00000000000E+00 -0.00000000000E+00 -0.21242434912E+04  0.21242434912E+04  0.00000000000E+00 0.  1.
    9000010    2    1    2  501    0  0.28725002383E+03  0.39306498209E+03 -0.87077229222E+03  0.14085793096E+04  0.99440365563E+03 0.  0.
        -13    1    3    3    0    0  0.61804973973E+03  0.38228805445E+03 -0.77849575525E+03  0.10649813564E+04  0.10566000000E+00 0.  1.
          4    1    3    3  501    0 -0.33079971590E+03  0.10776927640E+02 -0.92276536966E+02  0.34359795325E+03  0.00000000000E+00 0.  1.
         13    1    1    2    0    0 -0.28725002383E+03 -0.39306498209E+03 -0.92438577743E+03  0.10447496030E+04  0.10566000000E+00 0. -1.
<mgrwt>
<rscale>  1 0.90159317E+03</rscale>
<asrwt>0</asrwt>
<pdfrwt beam="1">  1       21 0.50628528E-01 0.11071817E+04</pdfrwt>
<pdfrwt beam="2">  1        4 0.32680668E+00 0.11071817E+04</pdfrwt>
<totfact> 0.22188865E+01</totfact>
</mgrwt>
</event>
<event>
 6    1  0.5391662E-005  0.9797158E+03  0.7818608E-02  0.9334156E-01
         21   -1    0    0  501  502  0.00000000000E+00  0.00000000000E+00  0.98053642703E+02  0.98053642703E+02  0.00000000000E+00 0.  1.
          4   -1    0    0  502    0 -0.00000000000E+00 -0.00000000000E+00 -0.31093868996E+04  0.31093868996E+04  0.00000000000E+00 0.  1.
    9000010    2    1    2  501    0  0.52679069452E+02  0.10023591799E+03 -0.25325025688E+04  0.27154027768E+04  0.97314986301E+03 0.  0.
        -13    1    3    3    0    0  0.39121664665E+03 -0.25334285073E+03 -0.15360198934E+04  0.16051760616E+04  0.10566000000E+00 0.  1.
          4    1    3    3  501    0 -0.33853757720E+03  0.35357876873E+03 -0.99648267544E+03  0.11102267153E+04  0.00000000000E+00 0.  1.
         13    1    1    2    0    0 -0.52679069452E+02 -0.10023591799E+03 -0.47883068811E+03  0.49203776547E+03  0.10566000000E+00 0. -1.
<mgrwt>
<rscale>  1 0.57124309E+03</rscale>
<asrwt>0</asrwt>
<pdfrwt beam="1">  1       21 0.15085176E-01 0.97971576E+03</pdfrwt>
<pdfrwt beam="2">  1        4 0.47836719E+00 0.97971576E+03</pdfrwt>
<totfact> 0.66310402E+01</totfact>
</mgrwt>
</event>
<event>
 6    1  0.5391662E-005  0.1045229E+04  0.7818608E-02  0.9005123E-01
         21   -1    0    0  501  502  0.00000000000E+00  0.00000000000E+00  0.14933607205E+03  0.14933607205E+03  0.00000000000E+00 0.  1.
          4   -1    0    0  502    0 -0.00000000000E+00 -0.00000000000E+00 -0.31960087362E+04  0.31960087362E+04  0.00000000000E+00 0.  1.
    9000010    2    1    2  501    0  0.42288385262E+02  0.33380441082E+03 -0.23001463288E+04  0.25264948386E+04  0.98959049284E+03 0.  0.
        -13    1    3    3    0    0 -0.73091174376E+02 -0.29830933050E+03 -0.13144590597E+04  0.13498642181E+04  0.10566000000E+00 0.  1.
          4    1    3    3  501    0  0.11537955964E+03  0.63211374133E+03 -0.98568726905E+03  0.11766306205E+04  0.00000000000E+00 0.  1.
         13    1    1    2    0    0 -0.42288385262E+02 -0.33380441082E+03 -0.74652633543E+03  0.81884996969E+03  0.10566000000E+00 0. -1.
<mgrwt>
<rscale>  1 0.78731018E+03</rscale>
<asrwt>0</asrwt>
<pdfrwt beam="1">  1       21 0.22974782E-01 0.10452287E+04</pdfrwt>
<pdfrwt beam="2">  1        4 0.49169363E+00 0.10452287E+04</pdfrwt>
<totfact> 0.25216067E+01</totfact>
</mgrwt>
</event>
<event>
 6    1  0.5391662E-005  0.1028224E+04  0.7818608E-02  0.9135519E-01
          4   -1    0    0  502    0 -0.00000000000E+00  0.00000000000E+00  0.24903725573E+03  0.24903725573E+03  0.00000000000E+00 0.  1.
         21   -1    0    0  501  502  0.00000000000E+00 -0.00000000000E+00 -0.15537157708E+04  0.15537157708E+04  0.00000000000E+00 0. -1.
    9000010    2    1    2  501    0  0.20123059716E+03  0.60866117828E+02 -0.11438034313E+04  0.15380281858E+04  0.10065018497E+04 0.  0.
        -13    1    3    3    0    0  0.26721254493E+03 -0.37336453356E+03 -0.20753853006E+03  0.50386096467E+03  0.10566000000E+00 0.  1.
          4    1    3    3  501    0 -0.65981947762E+02  0.43423065139E+03 -0.93626490126E+03  0.10341672212E+04  0.00000000000E+00 0.  1.
         13    1    1    2    0    0 -0.20123059716E+03 -0.60866117828E+02 -0.16087508370E+03  0.26472484065E+03  0.10566000000E+00 0. -1.
<mgrwt>
<rscale>  1 0.69141955E+03</rscale>
<asrwt>0</asrwt>
<pdfrwt beam="2">  1       21 0.23903321E+00 0.10282239E+04</pdfrwt>
<pdfrwt beam="1">  1        4 0.38313422E-01 0.10282239E+04</pdfrwt>
<totfact> 0.12170787E+01</totfact>
</mgrwt>
</event>
<event>
 6    1  0.5391662E-005  0.1007967E+04  0.7818608E-02  0.9218528E-01
          4   -1    0    0  502    0 -0.00000000000E+00  0.00000000000E+00  0.68565425563E+03  0.68565425563E+03  0.00000000000E+00 0.  1.
         21   -1    0    0  501  502  0.00000000000E+00 -0.00000000000E+00 -0.68873652506E+03  0.68873652506E+03  0.00000000000E+00 0.  1.
    9000010    2    1    2  501    0  0.15167600333E+03  0.55567257437E+02 -0.28674383289E+03  0.10479597408E+04  0.99493932603E+03 0.  0.
        -13    1    3    3    0    0  0.50673681263E+03  0.99433078444E+02  0.94682045927E+02  0.52500841455E+03  0.10566000000E+00 0.  1.
          4    1    3    3  501    0 -0.35506080930E+03 -0.43865821008E+02 -0.38142587882E+03  0.52295132621E+03  0.00000000000E+00 0.  1.
         13    1    1    2    0    0 -0.15167600333E+03 -0.55567257437E+02  0.28366156345E+03  0.32643103993E+03  0.10566000000E+00 0. -1.
<mgrwt>
<rscale>  1 0.63775073E+03</rscale>
<asrwt>0</asrwt>
<pdfrwt beam="2">  1       21 0.10595946E+00 0.10079671E+04</pdfrwt>
<pdfrwt beam="1">  1        4 0.10548527E+00 0.10079671E+04</pdfrwt>
<totfact> 0.20991125E+01</totfact>
</mgrwt>
</event>
<event>
 6    1  0.5391662E-005  0.1023047E+04  0.7818608E-02  0.9082886E-01
         21   -1    0    0  501  502  0.00000000000E+00  0.00000000000E+00  0.58555134680E+03  0.58555134680E+03  0.00000000000E+00 0.  1.
          4   -1    0    0  502    0 -0.00000000000E+00 -0.00000000000E+00 -0.83173724491E+03  0.83173724491E+03  0.00000000000E+00 0.  1.
    9000010    2    1    2  501    0  0.21559521330E+03 -0.15023567136E+03  0.46302653542E+02  0.10240944705E+04  0.98872316440E+03 0.  0.
        -13    1    3    3    0    0  0.11371780918E+02 -0.40202236771E+03 -0.33512252985E+03  0.52350589559E+03  0.10566000000E+00 0.  1.
          4    1    3    3  501    0  0.20422343238E+03  0.25178669635E+03  0.38142518339E+03  0.50058857490E+03  0.00000000000E+00 0.  1.
         13    1    1    2    0    0 -0.21559521330E+03  0.15023567136E+03 -0.29248855166E+03  0.39319412122E+03  0.10566000000E+00 0. -1.
<mgrwt>
<rscale>  1 0.72831429E+03</rscale>
<asrwt>0</asrwt>
<pdfrwt beam="1">  1       21 0.90084822E-01 0.10230472E+04</pdfrwt>
<pdfrwt beam="2">  1        4 0.12795958E+00 0.10230472E+04</pdfrwt>
<totfact> 0.22900904E+01</totfact>
</mgrwt>
</event>
<event>
 6    1  0.5391662E-005  0.1033123E+04  0.7818608E-02  0.9072546E-01
          4   -1    0    0  502    0 -0.00000000000E+00  0.00000000000E+00  0.14585001150E+04  0.14585001150E+04  0.00000000000E+00 0.  1.
         21   -1    0    0  501  502  0.00000000000E+00 -0.00000000000E+00 -0.30063380333E+03  0.30063380333E+03  0.00000000000E+00 0.  1.
    9000010    2    1    2  501    0 -0.13085311222E+03  0.23144760293E+03  0.10475079760E+04  0.14712632820E+04  0.99832467423E+03 0.  0.
        -13    1    3    3    0    0 -0.50244364927E+03 -0.12394487423E+03  0.56419619338E+03  0.76559082304E+03  0.10566000000E+00 0.  1.
          4    1    3    3  501    0  0.37159053705E+03  0.35539247716E+03  0.48331178263E+03  0.70567245892E+03  0.00000000000E+00 0.  1.
         13    1    1    2    0    0  0.13085311222E+03 -0.23144760293E+03  0.11035833570E+03  0.28787063640E+03  0.10566000000E+00 0. -1.
<mgrwt>
<rscale>  1 0.73584132E+03</rscale>
<asrwt>0</asrwt>
<pdfrwt beam="2">  1       21 0.46251355E-01 0.10331228E+04</pdfrwt>
<pdfrwt beam="1">  1        4 0.22438463E+00 0.10331228E+04</pdfrwt>
<totfact> 0.49684763E+01</totfact>
</mgrwt>
</event>
<event>
 6    1  0.5391662E-005  0.1041365E+04  0.7818608E-02  0.9049121E-01
          4   -1    0    0  502    0 -0.00000000000E+00  0.00000000000E+00  0.26669011618E+03  0.26669011618E+03  0.00000000000E+00 0.  1.
         21   -1    0    0  501  502  0.00000000000E+00 -0.00000000000E+00 -0.16733365329E+04  0.16733365329E+04  0.00000000000E+00 0.  1.
    9000010    2    1    2  501    0  0.28441928791E+03 -0.19105561065E+02 -0.11944302818E+04  0.15846464965E+04  0.10015894702E+04 0.  0.
        -13    1    3    3    0    0  0.26392864151E+03  0.19269315868E+03 -0.13046874312E+04  0.13449900689E+04  0.10566000000E+00 0.  1.
          4    1    3    3  501    0  0.20490646396E+02 -0.21179871974E+03  0.11025714938E+03  0.23965642755E+03  0.00000000000E+00 0.  1.
         13    1    1    2    0    0 -0.28441928791E+03  0.19105561065E+02 -0.21221613493E+03  0.35538015263E+03  0.10566000000E+00 0. -1.
<mgrwt>
<rscale>  1 0.75324520E+03</rscale>
<asrwt>0</asrwt>
<pdfrwt beam="2">  1       21 0.25743638E+00 0.10413649E+04</pdfrwt>
<pdfrwt beam="1">  1        4 0.41029250E-01 0.10413649E+04</pdfrwt>
<totfact> 0.77632222E+00</totfact>
</mgrwt>
</event>
<event>
 6    1  0.5391662E-005  0.9970950E+03  0.7818608E-02  0.9328234E-01
          4   -1    0    0  502    0 -0.00000000000E+00  0.00000000000E+00  0.22465310540E+04  0.22465310540E+04  0.00000000000E+00 0.  1.
         21   -1    0    0  501  502  0.00000000000E+00 -0.00000000000E+00 -0.14524611614E+03  0.14524611614E+03  0.00000000000E+00 0.  1.
    9000010    2    1    2  501    0 -0.10905402467E+03  0.13105686735E+02  0.16548326311E+04  0.19320117814E+04  0.99102671366E+03 0.  0.
        -13    1    3    3    0    0  0.53496966553E+02  0.78248275522E+02  0.17362899511E+04  0.17388753617E+04  0.10566000000E+00 0.  1.
          4    1    3    3  501    0 -0.16255099122E+03 -0.65142588787E+02 -0.81457320025E+02  0.19313641968E+03  0.00000000000E+00 0.  1.
         13    1    1    2    0    0  0.10905402467E+03 -0.13105686735E+02  0.44645230678E+03  0.45976538878E+03  0.10566000000E+00 0. -1.
<mgrwt>
<rscale>  1 0.57443554E+03</rscale>
<asrwt>0</asrwt>
<pdfrwt beam="2">  1       21 0.22345558E-01 0.99709502E+03</pdfrwt>
<pdfrwt beam="1">  1        4 0.34562014E+00 0.99709502E+03</pdfrwt>
<totfact> 0.10928575E+02</totfact>
</mgrwt>
</event>
<event>
 6    1  0.5391662E-005  0.1247782E+04  0.7818608E-02  0.8680687E-01
          4   -1    0    0  502    0 -0.00000000000E+00  0.00000000000E+00  0.11836668490E+04  0.11836668490E+04  0.00000000000E+00 0.  1.
         21   -1    0    0  501  502  0.00000000000E+00 -0.00000000000E+00 -0.94237686194E+03  0.94237686194E+03  0.00000000000E+00 0. -1.
    9000010    2    1    2  501    0 -0.71989997083E+03 -0.27597414493E+03 -0.15808949993E+03  0.12577570748E+04  0.98109269315E+03 0.  0.
        -13    1    3    3    0    0  0.80660437832E+02  0.26029151738E+03 -0.10722638335E+03  0.29284003944E+03  0.10566000000E+00 0.  1.
          4    1    3    3  501    0 -0.80056040867E+03 -0.53626566231E+03 -0.50863116576E+02  0.96491703536E+03  0.00000000000E+00 0.  1.
         13    1    1    2    0    0  0.71989997083E+03  0.27597414493E+03  0.39937948697E+03  0.86828663611E+03  0.10566000000E+00 0. -1.
<mgrwt>
<rscale>  1 0.11062813E+04</rscale>
<asrwt>0</asrwt>
<pdfrwt beam="2">  1       21 0.14498106E+00 0.12477823E+04</pdfrwt>
<pdfrwt beam="1">  1        4 0.18210259E+00 0.12477823E+04</pdfrwt>
<totfact> 0.35945465E+00</totfact>
</mgrwt>
</event>
<event>
 6    1  0.5391662E-005  0.9967128E+03  0.7818608E-02  0.9287257E-01
          4   -1    0    0  502    0 -0.00000000000E+00  0.00000000000E+00  0.76540965438E+03  0.76540965438E+03  0.00000000000E+00 0.  1.
         21   -1    0    0  501  502  0.00000000000E+00 -0.00000000000E+00 -0.41362378404E+03  0.41362378404E+03  0.00000000000E+00 0.  1.
    9000010    2    1    2  501    0  0.31378345827E+02  0.12451352493E+03  0.30433815992E+03  0.10421410907E+04  0.98840685896E+03 0.  0.
        -13    1    3    3    0    0 -0.27395410603E+03  0.25215712287E+03  0.52554862466E+03  0.64407719636E+03  0.10566000000E+00 0.  1.
          4    1    3    3  501    0  0.30533245186E+03 -0.12764359794E+03 -0.22121046475E+03  0.39806389433E+03  0.00000000000E+00 0.  1.
         13    1    1    2    0    0 -0.31378345827E+02 -0.12451352493E+03  0.47447710429E+02  0.13689234773E+03  0.10566000000E+00 0. -1.
<mgrwt>
<rscale>  1 0.59713739E+03</rscale>
<asrwt>0</asrwt>
<pdfrwt beam="2">  1       21 0.63634428E-01 0.99671277E+03</pdfrwt>
<pdfrwt beam="1">  1        4 0.11775533E+00 0.99671277E+03</pdfrwt>
<totfact> 0.61166952E+01</totfact>
</mgrwt>
</event>
<event>
 6    1  0.5391662E-005  0.1031586E+04  0.7818608E-02  0.9106824E-01
         21   -1    0    0  501  502  0.00000000000E+00  0.00000000000E+00  0.28171286472E+03  0.28171286472E+03  0.00000000000E+00 0.  1.
          4   -1    0    0  502    0 -0.00000000000E+00 -0.00000000000E+00 -0.19101375206E+04  0.19101375206E+04  0.00000000000E+00 0.  1.
    9000010    2    1    2  501    0 -0.80999379774E+02  0.21858477938E+03 -0.73019378861E+03  0.12638639051E+04  0.10049023816E+04 0.  0.
        -13    1    3    3    0    0  0.41682083806E+03 -0.11377235993E+03 -0.33293017728E+03  0.54545969148E+03  0.10566000000E+00 0.  1.
          4    1    3    3  501    0 -0.49782021783E+03  0.33235713930E+03 -0.39726361133E+03  0.71840421367E+03  0.00000000000E+00 0.  1.
         13    1    1    2    0    0  0.80999379774E+02 -0.21858477938E+03 -0.89823086732E+03  0.92798648022E+03  0.10566000000E+00 0. -1.
<mgrwt>
<rscale>  1 0.71124487E+03</rscale>
<asrwt>0</asrwt>
<pdfrwt beam="1">  1       21 0.43340439E-01 0.10315857E+04</pdfrwt>
<pdfrwt beam="2">  1        4 0.29386732E+00 0.10315857E+04</pdfrwt>
<totfact> 0.38788971E+01</totfact>
</mgrwt>
</event>
<event>
 6    1  0.5391662E-005  0.1333350E+04  0.7818608E-02  0.8605405E-01
         21   -1    0    0  501  502  0.00000000000E+00  0.00000000000E+00  0.26284396184E+03  0.26284396184E+03  0.00000000000E+00 0. -1.
          4   -1    0    0  502    0 -0.00000000000E+00 -0.00000000000E+00 -0.46582592182E+04  0.46582592182E+04  0.00000000000E+00 0.  1.
    9000010    2    1    2  501    0  0.68864885257E+03 -0.54668546371E+03 -0.26963408185E+04  0.30080019817E+04  0.10023571591E+04 0.  0.
        -13    1    3    3    0    0 -0.93685051602E+02 -0.54270249677E+03 -0.11441915734E+04  0.12698335547E+04  0.10566000000E+00 0.  1.
          4    1    3    3  501    0  0.78233390417E+03 -0.39829669380E+01 -0.15521492451E+04  0.17381684270E+04  0.00000000000E+00 0.  1.
         13    1    1    2    0    0 -0.68864885257E+03  0.54668546371E+03 -0.16990744379E+04  0.19131011983E+04  0.10566000000E+00 0. -1.
<mgrwt>
<rscale>  1 0.12015388E+04</rscale>
<asrwt>0</asrwt>
<pdfrwt beam="1">  1       21 0.40437538E-01 0.13333500E+04</pdfrwt>
<pdfrwt beam="2">  1        4 0.71665517E+00 0.13333500E+04</pdfrwt>
<totfact> 0.55818375E-01</totfact>
</mgrwt>
</event>
<event>
 6    1  0.5391662E-005  0.1004624E+04  0.7818608E-02  0.9380898E-01
          4   -1    0    0  502    0 -0.00000000000E+00  0.00000000000E+00  0.33728909693E+04  0.33728909693E+04  0.00000000000E+00 0.  1.
         21   -1    0    0  501  502  0.00000000000E+00 -0.00000000000E+00 -0.92061893383E+02  0.92061893383E+02  0.00000000000E+00 0.  1.
    9000010    2    1    2  501    0  0.66797380349E+02  0.57546154649E+02  0.27695846694E+04  0.29461616674E+04  0.10007476603E+04 0.  0.
        -13    1    3    3    0    0  0.88872652285E+02 -0.16961561952E+03  0.26168454333E+02  0.19326822262E+03  0.10566000000E+00 0.  1.
          4    1    3    3  501    0 -0.22075271936E+02  0.22716177416E+03  0.27434162151E+04  0.27528934448E+04  0.00000000000E+00 0.  1.
         13    1    1    2    0    0 -0.66797380349E+02 -0.57546154649E+02  0.51124440652E+03  0.51879119528E+03  0.10566000000E+00 0. -1.
<mgrwt>
<rscale>  1 0.54680120E+03</rscale>
<asrwt>0</asrwt>
<pdfrwt beam="2">  1       21 0.14163371E-01 0.10046240E+04</pdfrwt>
<pdfrwt beam="1">  1        4 0.51890621E+00 0.10046240E+04</pdfrwt>
<totfact> 0.48222836E+01</totfact>
</mgrwt>
</event>
<event>
 6    1  0.5391662E-005  0.1046932E+04  0.7818608E-02  0.9029368E-01
         21   -1    0    0  501  502  0.00000000000E+00  0.00000000000E+00  0.26306334375E+03  0.26306334375E+03  0.00000000000E+00 0.  1.
          4   -1    0    0  502    0 -0.00000000000E+00 -0.00000000000E+00 -0.17355348971E+04  0.17355348971E+04  0.00000000000E+00 0.  1.
    9000010    2    1    2  501    0 -0.19739419336E+03  0.23075190749E+03 -0.11125147879E+04  0.15276632193E+04  0.10019255700E+04 0.  0.
        -13    1    3    3    0    0 -0.16176166148E+03  0.61535551586E+03 -0.52673088943E+03  0.82599920525E+03  0.10566000000E+00 0.  1.
          4    1    3    3  501    0 -0.35632531880E+02 -0.38460360837E+03 -0.58578389846E+03  0.70166401404E+03  0.00000000000E+00 0.  1.
         13    1    1    2    0    0  0.19739419336E+03 -0.23075190749E+03 -0.35995676550E+03  0.47093502161E+03  0.10566000000E+00 0. -1.
<mgrwt>
<rscale>  1 0.76831007E+03</rscale>
<asrwt>0</asrwt>
<pdfrwt beam="1">  1       21 0.40471284E-01 0.10469316E+04</pdfrwt>
<pdfrwt beam="2">  1        4 0.26700537E+00 0.10469316E+04</pdfrwt>
<totfact> 0.52501215E+01</totfact>
</mgrwt>
</event>
<event>
 6    1  0.5391662E-005  0.9635305E+03  0.7818608E-02  0.9077665E-01
         21   -1    0    0  501  502  0.00000000000E+00  0.00000000000E+00  0.10628390648E+04  0.10628390648E+04  0.00000000000E+00 0.  1.
          4   -1    0    0  502    0 -0.00000000000E+00 -0.00000000000E+00 -0.40113248886E+03  0.40113248886E+03  0.00000000000E+00 0.  1.
    9000010    2    1    2  501    0  0.29576700133E+03 -0.12510652619E+03  0.37652824636E+03  0.10344876159E+04  0.90843896064E+03 0.  0.
        -13    1    3    3    0    0  0.48600768662E+03  0.17651841955E+03  0.43175600850E+03  0.67362859643E+03  0.10566000000E+00 0.  1.
          4    1    3    3  501    0 -0.19024068529E+03 -0.30162494574E+03 -0.55227762134E+02  0.36085901949E+03  0.00000000000E+00 0.  1.
         13    1    1    2    0    0 -0.29576700133E+03  0.12510652619E+03  0.28517832961E+03  0.42948393778E+03  0.10566000000E+00 0. -1.
<mgrwt>
<rscale>  1 0.73210298E+03</rscale>
<asrwt>0</asrwt>
<pdfrwt beam="1">  1       21 0.16351370E+00 0.96353054E+03</pdfrwt>
<pdfrwt beam="2">  1        4 0.61712691E-01 0.96353054E+03</pdfrwt>
<totfact> 0.17676306E+01</totfact>
</mgrwt>
</event>
<event>
 6    1  0.5391662E-005  0.1003409E+04  0.7818608E-02  0.9443558E-01
          4   -1    0    0  502    0 -0.00000000000E+00  0.00000000000E+00  0.21944556198E+03  0.21944556198E+03  0.00000000000E+00 0.  1.
         21   -1    0    0  501  502  0.00000000000E+00 -0.00000000000E+00 -0.19842822594E+04  0.19842822594E+04  0.00000000000E+00 0.  1.
    9000010    2    1    2  501    0  0.11307660211E+02  0.69259935140E+02 -0.18431459561E+04  0.20985748236E+04  0.10009517835E+04 0.  0.
        -13    1    3    3    0    0 -0.82836156130E+02 -0.31892097670E+03 -0.15942396010E+04  0.16279349909E+04  0.10566000000E+00 0.  1.
          4    1    3    3  501    0  0.94143816341E+02  0.38818091184E+03 -0.24890635516E+03  0.47063983269E+03  0.00000000000E+00 0.  1.
         13    1    1    2    0    0 -0.11307660211E+02 -0.69259935140E+02  0.78309258667E+02  0.10515299783E+03  0.10566000000E+00 0. -1.
<mgrwt>
<rscale>  1 0.51600886E+03</rscale>
<asrwt>0</asrwt>
<pdfrwt beam="2">  1       21 0.30527418E+00 0.10034088E+04</pdfrwt>
<pdfrwt beam="1">  1        4 0.33760857E-01 0.10034088E+04</pdfrwt>
<totfact> 0.52749845E+00</totfact>
</mgrwt>
</event>
<event>
 6    1  0.5391662E-005  0.9883730E+03  0.7818608E-02  0.9317409E-01
         21   -1    0    0  501  502  0.00000000000E+00  0.00000000000E+00  0.25655253047E+03  0.25655253047E+03  0.00000000000E+00 0.  1.
          4   -1    0    0  502    0 -0.00000000000E+00 -0.00000000000E+00 -0.14321166344E+04  0.14321166344E+04  0.00000000000E+00 0.  1.
    9000010    2    1    2  501    0 -0.11617367682E+03  0.17409768445E+02 -0.73228895142E+03  0.12300927860E+04  0.98136727613E+03 0.  0.
        -13    1    3    3    0    0 -0.85671250559E+02 -0.45447554795E+03 -0.16377044780E+03  0.49062038033E+03  0.10566000000E+00 0.  1.
          4    1    3    3  501    0 -0.30502426261E+02  0.47188531640E+03 -0.56851850362E+03  0.73947240570E+03  0.00000000000E+00 0.  1.
         13    1    1    2    0    0  0.11617367682E+03 -0.17409768445E+02 -0.44327515253E+03  0.45857637885E+03  0.10566000000E+00 0. -1.
<mgrwt>
<rscale>  1 0.58032771E+03</rscale>
<asrwt>0</asrwt>
<pdfrwt beam="1">  1       21 0.39469620E-01 0.98837298E+03</pdfrwt>
<pdfrwt beam="2">  1        4 0.22032563E+00 0.98837298E+03</pdfrwt>
<totfact> 0.71911462E+01</totfact>
</mgrwt>
</event>
<event>
 6    1  0.5391662E-005  0.1025044E+04  0.7818608E-02  0.9110569E-01
         21   -1    0    0  501  502  0.00000000000E+00  0.00000000000E+00  0.57171854234E+03  0.57171854234E+03  0.00000000000E+00 0.  1.
          4   -1    0    0  502    0 -0.00000000000E+00 -0.00000000000E+00 -0.74712589690E+03  0.74712589690E+03  0.00000000000E+00 0.  1.
    9000010    2    1    2  501    0 -0.22194900129E+03  0.74476191580E+02 -0.27975135459E+03  0.10625326295E+04  0.99795125440E+03 0.  0.
        -13    1    3    3    0    0  0.16640316170E+03 -0.38189991534E+03 -0.18512605623E+03  0.45586097159E+03  0.10566000000E+00 0.  1.
          4    1    3    3  501    0 -0.38835216299E+03  0.45637610692E+03 -0.94625298359E+02  0.60667165795E+03  0.00000000000E+00 0.  1.
         13    1    1    2    0    0  0.22194900129E+03 -0.74476191580E+02  0.10434400004E+03  0.25631180970E+03  0.10566000000E+00 0. -1.
<mgrwt>
<rscale>  1 0.70861842E+03</rscale>
<asrwt>0</asrwt>
<pdfrwt beam="1">  1       21 0.87956699E-01 0.10250438E+04</pdfrwt>
<pdfrwt beam="2">  1        4 0.11494245E+00 0.10250438E+04</pdfrwt>
<totfact> 0.29133003E+01</totfact>
</mgrwt>
</event>
<event>
 6    1  0.5391662E-005  0.1026243E+04  0.7818608E-02  0.9108892E-01
          4   -1    0    0  502    0 -0.00000000000E+00  0.00000000000E+00  0.18191940651E+04  0.18191940651E+04  0.00000000000E+00 0.  1.
         21   -1    0    0  501  502  0.00000000000E+00 -0.00000000000E+00 -0.21864284169E+03  0.21864284169E+03  0.00000000000E+00 0.  1.
    9000010    2    1    2  501    0 -0.38137739994E+02 -0.23172476391E+03  0.12858872787E+04  0.16451993351E+04  0.99901146406E+03 0.  0.
        -13    1    3    3    0    0 -0.20107960827E+03 -0.47375669281E+03  0.25607112042E+03  0.57484853894E+03  0.10566000000E+00 0.  1.
          4    1    3    3  501    0  0.16294186827E+03  0.24203192889E+03  0.10298161583E+04  0.10703507962E+04  0.00000000000E+00 0.  1.
         13    1    1    2    0    0  0.38137739994E+02  0.23172476391E+03  0.31466394472E+03  0.39263757168E+03  0.10566000000E+00 0. -1.
<mgrwt>
<rscale>  1 0.70979299E+03</rscale>
<asrwt>0</asrwt>
<pdfrwt beam="2">  1       21 0.33637361E-01 0.10262430E+04</pdfrwt>
<pdfrwt beam="1">  1        4 0.27987600E+00 0.10262430E+04</pdfrwt>
<totfact> 0.72302010E+01</totfact>
</mgrwt>
</event>
<event>
 6    1  0.5391662E-005  0.1031873E+04  0.7818608E-02  0.9086388E-01
         21   -1    0    0  501  502  0.00000000000E+00  0.00000000000E+00  0.98001525078E+03  0.98001525078E+03  0.00000000000E+00 0.  1.
          4   -1    0    0  502    0 -0.00000000000E+00 -0.00000000000E+00 -0.42084988917E+03  0.42084988917E+03  0.00000000000E+00 0.  1.
    9000010    2    1    2  501    0 -0.98683343216E+02  0.23247773183E+03  0.44948616687E+03  0.11255220177E+04  0.10004887307E+04 0.  0.
        -13    1    3    3    0    0 -0.21849727701E+03  0.58334294965E+03  0.13053692715E+03  0.63645106448E+03  0.10566000000E+00 0.  1.
          4    1    3    3  501    0  0.11981393379E+03 -0.35086521781E+03  0.31894923972E+03  0.48907095326E+03  0.00000000000E+00 0.  1.
         13    1    1    2    0    0  0.98683343216E+02 -0.23247773183E+03  0.10967919474E+03  0.27534312221E+03  0.10566000000E+00 0. -1.
<mgrwt>
<rscale>  1 0.72578658E+03</rscale>
<asrwt>0</asrwt>
<pdfrwt beam="1">  1       21 0.15077158E+00 0.10318731E+04</pdfrwt>
<pdfrwt beam="2">  1        4 0.64746137E-01 0.10318731E+04</pdfrwt>
<totfact> 0.20488479E+01</totfact>
</mgrwt>
</event>
<event>
 6    1  0.5391662E-005  0.1121090E+04  0.7818608E-02  0.8861951E-01
          4   -1    0    0  502    0 -0.00000000000E+00  0.00000000000E+00  0.17958344901E+04  0.17958344901E+04  0.00000000000E+00 0.  1.
         21   -1    0    0  501  502  0.00000000000E+00 -0.00000000000E+00 -0.53387905496E+03  0.53387905496E+03  0.00000000000E+00 0.  1.
    9000010    2    1    2  501    0  0.49047009725E+03  0.23535687299E+02  0.17193631537E+03  0.11341983684E+04  0.10078338145E+04 0.  0.
        -13    1    3    3    0    0  0.35081443139E+03 -0.45673778233E+03  0.25025166965E+03  0.62793795586E+03  0.10566000000E+00 0.  1.
          4    1    3    3  501    0  0.13965566586E+03  0.48027346963E+03 -0.78315354280E+02  0.50626041259E+03  0.00000000000E+00 0.  1.
         13    1    1    2    0    0 -0.49047009725E+03 -0.23535687299E+02  0.10900191198E+04  0.11955151766E+04  0.10566000000E+00 0. -1.
<mgrwt>
<rscale>  1 0.91202867E+03</rscale>
<asrwt>0</asrwt>
<pdfrwt beam="2">  1       21 0.82135240E-01 0.11210905E+04</pdfrwt>
<pdfrwt beam="1">  1        4 0.27628223E+00 0.11210905E+04</pdfrwt>
<totfact> 0.98071405E+00</totfact>
</mgrwt>
</event>
<event>
 6    1  0.5391662E-005  0.9971339E+03  0.7818608E-02  0.9290474E-01
         21   -1    0    0  501  502  0.00000000000E+00  0.00000000000E+00  0.26257922669E+03  0.26257922669E+03  0.00000000000E+00 0.  1.
          4   -1    0    0  502    0 -0.00000000000E+00 -0.00000000000E+00 -0.12789123986E+04  0.12789123986E+04  0.00000000000E+00 0.  1.
    9000010    2    1    2  501    0  0.27049469243E+01 -0.12665701456E+03 -0.75381965902E+03  0.12500080551E+04  0.98905345831E+03 0.  0.
        -13    1    3    3    0    0  0.14593955778E+03 -0.51527686242E+03 -0.60962350958E+03  0.81144897195E+03  0.10566000000E+00 0.  1.
          4    1    3    3  501    0 -0.14323461086E+03  0.38861984786E+03 -0.14419614944E+03  0.43855908315E+03  0.00000000000E+00 0.  1.
         13    1    1    2    0    0 -0.27049469243E+01  0.12665701456E+03 -0.26251351287E+03  0.29148357017E+03  0.10566000000E+00 0. -1.
<mgrwt>
<rscale>  1 0.59531554E+03</rscale>
<asrwt>0</asrwt>
<pdfrwt beam="1">  1       21 0.40396805E-01 0.99713392E+03</pdfrwt>
<pdfrwt beam="2">  1        4 0.19675575E+00 0.99713392E+03</pdfrwt>
<totfact> 0.78957475E+01</totfact>
</mgrwt>
</event>
<event>
 6    1  0.5391662E-005  0.9681042E+03  0.7818608E-02  0.9243820E-01
         21   -1    0    0  501  502  0.00000000000E+00  0.00000000000E+00  0.24245283103E+03  0.24245283103E+03  0.00000000000E+00 0.  1.
          4   -1    0    0  502    0 -0.00000000000E+00 -0.00000000000E+00 -0.14743697218E+04  0.14743697218E+04  0.00000000000E+00 0.  1.
    9000010    2    1    2  501    0  0.32481780347E+02  0.16219353866E+03 -0.80529860364E+03  0.12592583671E+04  0.95386790696E+03 0.  0.
        -13    1    3    3    0    0  0.47648167395E+03 -0.37737315698E+02 -0.45002520116E+03  0.65649187615E+03  0.10566000000E+00 0.  1.
          4    1    3    3  501    0 -0.44399989361E+03  0.19993085435E+03 -0.35527340248E+03  0.60276649090E+03  0.00000000000E+00 0.  1.
         13    1    1    2    0    0 -0.32481780347E+02 -0.16219353866E+03 -0.42661828713E+03  0.45756418578E+03  0.10566000000E+00 0. -1.
<mgrwt>
<rscale>  1 0.62242168E+03</rscale>
<asrwt>0</asrwt>
<pdfrwt beam="1">  1       21 0.37300435E-01 0.96810423E+03</pdfrwt>
<pdfrwt beam="2">  1        4 0.22682611E+00 0.96810423E+03</pdfrwt>
<totfact> 0.78169996E+01</totfact>
</mgrwt>
</event>
<event>
 6    1  0.5391662E-005  0.1015885E+04  0.7818608E-02  0.9192641E-01
          4   -1    0    0  502    0 -0.00000000000E+00  0.00000000000E+00  0.18493059298E+04  0.18493059298E+04  0.00000000000E+00 0.  1.
         21   -1    0    0  501  502  0.00000000000E+00 -0.00000000000E+00 -0.19172726765E+03  0.19172726765E+03  0.00000000000E+00 0.  1.
    9000010    2    1    2  501    0 -0.17032461635E+03  0.37528698207E+02  0.13910277094E+04  0.17224923057E+04  0.10008010676E+04 0.  0.
        -13    1    3    3    0    0 -0.50729692500E+03  0.22166298683E+03  0.47583014871E+03  0.72999930920E+03  0.10566000000E+00 0.  1.
          4    1    3    3  501    0  0.33697230865E+03 -0.18413428863E+03  0.91519756070E+03  0.99249299653E+03  0.00000000000E+00 0.  1.
         13    1    1    2    0    0  0.17032461635E+03 -0.37528698207E+02  0.26655095277E+03  0.31854089174E+03  0.10566000000E+00 0. -1.
<mgrwt>
<rscale>  1 0.65392241E+03</rscale>
<asrwt>0</asrwt>
<pdfrwt beam="2">  1       21 0.29496504E-01 0.10158847E+04</pdfrwt>
<pdfrwt beam="1">  1        4 0.28450859E+00 0.10158847E+04</pdfrwt>
<totfact> 0.92372059E+01</totfact>
</mgrwt>
</event>
<event>
 6    1  0.5391662E-005  0.1183761E+04  0.7818608E-02  0.8785205E-01
          4   -1    0    0  502    0 -0.00000000000E+00  0.00000000000E+00  0.18208362037E+04  0.18208362037E+04  0.00000000000E+00 0.  1.
         21   -1    0    0  501  502  0.00000000000E+00 -0.00000000000E+00 -0.58227601102E+03  0.58227601102E+03  0.00000000000E+00 0.  1.
    9000010    2    1    2  501    0 -0.47919655299E+03  0.32004471945E+03  0.17931065819E+03  0.11972649830E+04  0.10340373148E+04 0.  0.
        -13    1    3    3    0    0 -0.79864282442E+03  0.12924846399E+03  0.15981237799E+03  0.82466692292E+03  0.10566000000E+00 0.  1.
          4    1    3    3  501    0  0.31944627142E+03  0.19079625547E+03  0.19498280199E+02  0.37259806005E+03  0.00000000000E+00 0.  1.
         13    1    1    2    0    0  0.47919655299E+03 -0.32004471945E+03  0.10592495345E+04  0.12058472318E+04  0.10566000000E+00 0. -1.
<mgrwt>
<rscale>  1 0.98878047E+03</rscale>
<asrwt>0</asrwt>
<pdfrwt beam="2">  1       21 0.89580926E-01 0.11837614E+04</pdfrwt>
<pdfrwt beam="1">  1        4 0.28012864E+00 0.11837614E+04</pdfrwt>
<totfact> 0.76393246E+00</totfact>
</mgrwt>
</event>
<event>
 6    1  0.5391662E-005  0.1010118E+04  0.7818608E-02  0.9336278E-01
         21   -1    0    0  501  502  0.00000000000E+00  0.00000000000E+00  0.23859863605E+03  0.23859863605E+03  0.00000000000E+00 0.  1.
          4   -1    0    0  502    0 -0.00000000000E+00 -0.00000000000E+00 -0.13642182637E+04  0.13642182637E+04  0.00000000000E+00 0.  1.
    9000010    2    1    2  501    0  0.83048975364E+02  0.60067399096E+02 -0.89156363855E+03  0.13473028259E+04  0.10049049499E+04 0.  0.
        -13    1    3    3    0    0  0.19795766987E+03  0.50906065068E+03 -0.46205190874E+03  0.71541733462E+03  0.10566000000E+00 0.  1.
          4    1    3    3  501    0 -0.11490869451E+03 -0.44899325158E+03 -0.42951172981E+03  0.63188549128E+03  0.00000000000E+00 0.  1.
         13    1    1    2    0    0 -0.83048975364E+02 -0.60067399096E+02 -0.23405598912E+03  0.25551407388E+03  0.10566000000E+00 0. -1.
<mgrwt>
<rscale>  1 0.57010512E+03</rscale>
<asrwt>0</asrwt>
<pdfrwt beam="1">  1       21 0.36707482E-01 0.10101184E+04</pdfrwt>
<pdfrwt beam="2">  1        4 0.20987973E+00 0.10101184E+04</pdfrwt>
<totfact> 0.88955779E+01</totfact>
</mgrwt>
</event>
<event>
 6    1  0.5391662E-005  0.1000530E+04  0.7818608E-02  0.9632523E-01
         21   -1    0    0  501  502  0.00000000000E+00  0.00000000000E+00  0.27583853130E+03  0.27583853130E+03  0.00000000000E+00 0.  1.
          4   -1    0    0  502    0 -0.00000000000E+00 -0.00000000000E+00 -0.10586101406E+04  0.10586101406E+04  0.00000000000E+00 0.  1.
    9000010    2    1    2  501    0 -0.27004076362E+02  0.23535663505E+02 -0.64106823075E+03  0.11882877802E+04  0.99988810603E+03 0.  0.
        -13    1    3    3    0    0  0.44225665301E+03  0.68378742738E+02 -0.54848107740E+03  0.70788283142E+03  0.10566000000E+00 0.  1.
          4    1    3    3  501    0 -0.46926072937E+03 -0.44843079234E+02 -0.92587153345E+02  0.48040494882E+03  0.00000000000E+00 0.  1.
         13    1    1    2    0    0  0.27004076362E+02 -0.23535663505E+02 -0.14170337858E+03  0.14616089169E+03  0.10566000000E+00 0. -1.
<mgrwt>
<rscale>  1 0.43521864E+03</rscale>
<asrwt>0</asrwt>
<pdfrwt beam="1">  1       21 0.42436696E-01 0.10005295E+04</pdfrwt>
<pdfrwt beam="2">  1        4 0.16286310E+00 0.10005295E+04</pdfrwt>
<totfact> 0.91752668E+01</totfact>
</mgrwt>
</event>
<event>
 6    1  0.5391662E-005  0.1068391E+04  0.7818608E-02  0.8974155E-01
         21   -1    0    0  501  502  0.00000000000E+00  0.00000000000E+00  0.24142687401E+03  0.24142687401E+03  0.00000000000E+00 0. -1.
          4   -1    0    0  502    0 -0.00000000000E+00 -0.00000000000E+00 -0.24696567904E+04  0.24696567904E+04  0.00000000000E+00 0.  1.
    9000010    2    1    2  501    0 -0.34857650937E+03  0.78131769523E+02 -0.11250784212E+04  0.15515348777E+04  0.10069006239E+04 0.  0.
        -13    1    3    3    0    0 -0.40531720187E+03 -0.13816384798E+03 -0.12315449294E+04  0.13038689379E+04  0.10566000000E+00 0.  1.
          4    1    3    3  501    0  0.56740692504E+02  0.21629561751E+03  0.10646650820E+03  0.24766593974E+03  0.00000000000E+00 0.  1.
         13    1    1    2    0    0  0.34857650937E+03 -0.78131769523E+02 -0.11031514952E+04  0.11595487868E+04  0.10566000000E+00 0. -1.
<mgrwt>
<rscale>  1 0.81242501E+03</rscale>
<asrwt>0</asrwt>
<pdfrwt beam="1">  1       21 0.37142596E-01 0.10683909E+04</pdfrwt>
<pdfrwt beam="2">  1        4 0.37994719E+00 0.10683909E+04</pdfrwt>
<totfact> 0.28917403E+01</totfact>
</mgrwt>
</event>
<event>
 6    1  0.5391662E-005  0.1027014E+04  0.7818608E-02  0.9110920E-01
          4   -1    0    0  502    0 -0.00000000000E+00  0.00000000000E+00  0.26939918491E+04  0.26939918491E+04  0.00000000000E+00 0.  1.
         21   -1    0    0  501  502  0.00000000000E+00 -0.00000000000E+00 -0.15551060981E+03  0.15551060981E+03  0.00000000000E+00 0.  1.
    9000010    2    1    2  501    0 -0.80859090784E+02 -0.21792714410E+03  0.22871981929E+04  0.25071961439E+04  0.10003631830E+04 0.  0.
        -13    1    3    3    0    0 -0.26995519942E+03  0.63110618283E+02  0.10122793575E+03  0.29513702915E+03  0.10566000000E+00 0.  1.
          4    1    3    3  501    0  0.18909610863E+03 -0.28103776238E+03  0.21859702572E+04  0.22120591148E+04  0.00000000000E+00 0.  1.
         13    1    1    2    0    0  0.80859090784E+02  0.21792714410E+03  0.25128304635E+03  0.34230631493E+03  0.10566000000E+00 0. -1.
<mgrwt>
<rscale>  1 0.70837303E+03</rscale>
<asrwt>0</asrwt>
<pdfrwt beam="2">  1       21 0.23924711E-01 0.10270136E+04</pdfrwt>
<pdfrwt beam="1">  1        4 0.41446025E+00 0.10270136E+04</pdfrwt>
<totfact> 0.52459556E+01</totfact>
</mgrwt>
</event>
<event>
 6    1  0.5391662E-005  0.1005326E+04  0.7818608E-02  0.9307818E-01
         21   -1    0    0  501  502  0.00000000000E+00  0.00000000000E+00  0.36785571683E+03  0.36785571683E+03  0.00000000000E+00 0.  1.
          4   -1    0    0  502    0 -0.00000000000E+00 -0.00000000000E+00 -0.10477866114E+04  0.10477866114E+04  0.00000000000E+00 0.  1.
    9000010    2    1    2  501    0  0.85115203795E+01 -0.11543497062E+03 -0.34758624186E+03  0.10637181066E+04  0.99864024371E+03 0.  0.
        -13    1    3    3    0    0 -0.49125648068E+03 -0.77925837764E+02 -0.23468983228E+03  0.54998608577E+03  0.10566000000E+00 0.  1.
          4    1    3    3  501    0  0.49976800106E+03 -0.37509132851E+02 -0.11289640959E+03  0.51373202083E+03  0.00000000000E+00 0.  1.
         13    1    1    2    0    0 -0.85115203795E+01  0.11543497062E+03 -0.33234465275E+03  0.35192422167E+03  0.10566000000E+00 0. -1.
<mgrwt>
<rscale>  1 0.58561052E+03</rscale>
<asrwt>0</asrwt>
<pdfrwt beam="1">  1       21 0.56593189E-01 0.10053258E+04</pdfrwt>
<pdfrwt beam="2">  1        4 0.16119794E+00 0.10053258E+04</pdfrwt>
<totfact> 0.49255444E+01</totfact>
</mgrwt>
</event>
<event>
 6    1  0.5391662E-005  0.9961215E+03  0.7818608E-02  0.9184486E-01
          4   -1    0    0  502    0 -0.00000000000E+00  0.00000000000E+00  0.48073722809E+03  0.48073722809E+03  0.00000000000E+00 0.  1.
         21   -1    0    0  501  502  0.00000000000E+00 -0.00000000000E+00 -0.80239304893E+03  0.80239304893E+03  0.00000000000E+00 0.  1.
    9000010    2    1    2  501    0 -0.10519638143E+03 -0.15936247399E+03 -0.40432402654E+03  0.10750516376E+04  0.97764790609E+03 0.  0.
        -13    1    3    3    0    0  0.27871201467E+03 -0.38805697266E+03 -0.81291590251E+01  0.47784379826E+03  0.10566000000E+00 0.  1.
          4    1    3    3  501    0 -0.38390839610E+03  0.22869449867E+03 -0.39619486752E+03  0.59720783934E+03  0.00000000000E+00 0.  1.
         13    1    1    2    0    0  0.10519638143E+03  0.15936247399E+03  0.82668205699E+02  0.20807863941E+03  0.10566000000E+00 0. -1.
<mgrwt>
<rscale>  1 0.65912128E+03</rscale>
<asrwt>0</asrwt>
<pdfrwt beam="2">  1       21 0.12344508E+00 0.99612153E+03</pdfrwt>
<pdfrwt beam="1">  1        4 0.73959573E-01 0.99612153E+03</pdfrwt>
<totfact> 0.28027937E+01</totfact>
</mgrwt>
</event>
<event>
 6    1  0.5391662E-005  0.1039157E+04  0.7818608E-02  0.8930206E-01
         21   -1    0    0  501  502  0.00000000000E+00  0.00000000000E+00  0.21820922806E+03  0.21820922806E+03  0.00000000000E+00 0. -1.
          4   -1    0    0  502    0 -0.00000000000E+00 -0.00000000000E+00 -0.25955448889E+04  0.25955448889E+04  0.00000000000E+00 0.  1.
    9000010    2    1    2  501    0  0.43374324285E+03 -0.16676908120E+03 -0.16959344260E+04  0.19889797350E+04  0.92946311478E+03 0.  0.
        -13    1    3    3    0    0  0.16959170635E+03 -0.54331312465E+03 -0.79913119732E+03  0.98110202322E+03  0.10566000000E+00 0.  1.
          4    1    3    3  501    0  0.26415153650E+03  0.37654404345E+03 -0.89680322871E+03  0.10078777118E+04  0.00000000000E+00 0.  1.
         13    1    1    2    0    0 -0.43374324285E+03  0.16676908120E+03 -0.68140123485E+03  0.82477438198E+03  0.10566000000E+00 0. -1.
<mgrwt>
<rscale>  1 0.84977468E+03</rscale>
<asrwt>0</asrwt>
<pdfrwt beam="1">  1       21 0.33570653E-01 0.10391568E+04</pdfrwt>
<pdfrwt beam="2">  1        4 0.39931457E+00 0.10391568E+04</pdfrwt>
<totfact> 0.30230019E+01</totfact>
</mgrwt>
</event>
<event>
 6    1  0.5391662E-005  0.1043778E+04  0.7818608E-02  0.9061995E-01
         21   -1    0    0  501  502  0.00000000000E+00  0.00000000000E+00  0.20426941282E+03  0.20426941282E+03  0.00000000000E+00 0.  1.
          4   -1    0    0  502    0 -0.00000000000E+00 -0.00000000000E+00 -0.23474213318E+04  0.23474213318E+04  0.00000000000E+00 0.  1.
    9000010    2    1    2  501    0 -0.26550566656E+03  0.42541959770E+02 -0.13027534662E+04  0.16693231070E+04  0.10085484443E+04 0.  0.
        -13    1    3    3    0    0 -0.14997242361E+03 -0.74898715247E+02  0.13925776741E+03  0.21793182957E+03  0.10566000000E+00 0.  1.
          4    1    3    3  501    0 -0.11553324295E+03  0.11744067502E+03 -0.14420112336E+04  0.14513912774E+04  0.00000000000E+00 0.  1.
         13    1    1    2    0    0  0.26550566656E+03 -0.42541959770E+02 -0.84039845281E+03  0.88236763764E+03  0.10566000000E+00 0. -1.
<mgrwt>
<rscale>  1 0.74361953E+03</rscale>
<asrwt>0</asrwt>
<pdfrwt beam="1">  1       21 0.31426064E-01 0.10437783E+04</pdfrwt>
<pdfrwt beam="2">  1        4 0.36114174E+00 0.10437783E+04</pdfrwt>
<totfact> 0.48236736E+01</totfact>
</mgrwt>
</event>
<event>
 6    1  0.5391662E-005  0.1079129E+04  0.7818608E-02  0.8990203E-01
          4   -1    0    0  502    0 -0.00000000000E+00  0.00000000000E+00  0.12767138851E+04  0.12767138851E+04  0.00000000000E+00 0.  1.
         21   -1    0    0  501  502  0.00000000000E+00 -0.00000000000E+00 -0.39979672068E+03  0.39979672068E+03  0.00000000000E+00 0. -1.
    9000010    2    1    2  501    0 -0.98195750190E+02  0.30958467624E+03  0.53338181919E+03  0.12037510245E+04  0.10290944013E+04 0.  0.
        -13    1    3    3    0    0  0.29073435861E+03  0.41900079496E+03  0.60728305026E+03  0.79302008029E+03  0.10566000000E+00 0.  1.
          4    1    3    3  501    0 -0.38893010880E+03 -0.10941611873E+03 -0.73901231068E+02  0.41073094419E+03  0.00000000000E+00 0.  1.
         13    1    1    2    0    0  0.98195750190E+02 -0.30958467624E+03  0.34353534519E+03  0.47275958126E+03  0.10566000000E+00 0. -1.
<mgrwt>
<rscale>  1 0.79928938E+03</rscale>
<asrwt>0</asrwt>
<pdfrwt beam="2">  1       21 0.61507188E-01 0.10791294E+04</pdfrwt>
<pdfrwt beam="1">  1        4 0.19641752E+00 0.10791294E+04</pdfrwt>
<totfact> 0.30945669E+01</totfact>
</mgrwt>
</event>
<event>
 6    1  0.5391662E-005  0.1021550E+04  0.7818608E-02  0.9117718E-01
          4   -1    0    0  502    0 -0.00000000000E+00  0.00000000000E+00  0.12512125156E+04  0.12512125156E+04  0.00000000000E+00 0.  1.
         21   -1    0    0  501  502  0.00000000000E+00 -0.00000000000E+00 -0.32608275151E+03  0.32608275151E+03  0.00000000000E+00 0.  1.
    9000010    2    1    2  501    0  0.19230493068E+03 -0.12606347501E+03  0.86761813534E+03  0.13402704062E+04  0.99533428899E+03 0.  0.
        -13    1    3    3    0    0  0.43490911274E+03  0.30086559138E+03  0.48810610445E+03  0.71966215740E+03  0.10566000000E+00 0.  1.
          4    1    3    3  501    0 -0.24260418206E+03 -0.42692906638E+03  0.37951203088E+03  0.62060824879E+03  0.00000000000E+00 0.  1.
         13    1    1    2    0    0 -0.19230493068E+03  0.12606347501E+03  0.57511628750E+02  0.23702486093E+03  0.10566000000E+00 0. -1.
<mgrwt>
<rscale>  1 0.70363768E+03</rscale>
<asrwt>0</asrwt>
<pdfrwt beam="2">  1       21 0.50166578E-01 0.10215496E+04</pdfrwt>
<pdfrwt beam="1">  1        4 0.19249423E+00 0.10215496E+04</pdfrwt>
<totfact> 0.50600636E+01</totfact>
</mgrwt>
</event>
<event>
 6    1  0.5391662E-005  0.1104580E+04  0.7818608E-02  0.8884740E-01
          4   -1    0    0  502    0 -0.00000000000E+00  0.00000000000E+00  0.29718388847E+04  0.29718388847E+04  0.00000000000E+00 0.  1.
         21   -1    0    0  501  502  0.00000000000E+00 -0.00000000000E+00 -0.22237217510E+03  0.22237217510E+03  0.00000000000E+00 0. -1.
    9000010    2    1    2  501    0 -0.10164930978E+03 -0.45570127153E+03  0.22726649448E+04  0.25268759377E+04  0.10010493606E+04 0.  0.
        -13    1    3    3    0    0 -0.29859398802E+03 -0.27142921228E+03  0.22597180928E+03  0.46248833144E+03  0.10566000000E+00 0.  1.
          4    1    3    3  501    0  0.19694467823E+03 -0.18427205925E+03  0.20466931355E+04  0.20643876063E+04  0.00000000000E+00 0.  1.
         13    1    1    2    0    0  0.10164930978E+03  0.45570127153E+03  0.47680176483E+03  0.66733512208E+03  0.10566000000E+00 0. -1.
<mgrwt>
<rscale>  1 0.89064357E+03</rscale>
<asrwt>0</asrwt>
<pdfrwt beam="2">  1       21 0.34211106E-01 0.11045796E+04</pdfrwt>
<pdfrwt beam="1">  1        4 0.45720596E+00 0.11045796E+04</pdfrwt>
<totfact> 0.16129433E+01</totfact>
</mgrwt>
</event>
<event>
 6    1  0.5391662E-005  0.1077345E+04  0.7818608E-02  0.9010908E-01
         21   -1    0    0  501  502  0.00000000000E+00  0.00000000000E+00  0.22452659630E+03  0.22452659630E+03  0.00000000000E+00 0.  1.
          4   -1    0    0  502    0 -0.00000000000E+00 -0.00000000000E+00 -0.22531691699E+04  0.22531691699E+04  0.00000000000E+00 0.  1.
    9000010    2    1    2  501    0  0.25760186020E+03  0.15409484696E+03 -0.12919944614E+04  0.16822371609E+04  0.10346826747E+04 0.  0.
        -13    1    3    3    0    0 -0.50593639157E+02 -0.29493329810E+03 -0.10399060524E+04  0.10821044200E+04  0.10566000000E+00 0.  1.
          4    1    3    3  501    0  0.30819549935E+03  0.44902814506E+03 -0.25208840892E+03  0.60013274097E+03  0.00000000000E+00 0.  1.
         13    1    1    2    0    0 -0.25760186020E+03 -0.15409484696E+03 -0.73664811226E+03  0.79545860527E+03  0.10566000000E+00 0. -1.
<mgrwt>
<rscale>  1 0.78272476E+03</rscale>
<asrwt>0</asrwt>
<pdfrwt beam="1">  1       21 0.34542554E-01 0.10773450E+04</pdfrwt>
<pdfrwt beam="2">  1        4 0.34664141E+00 0.10773450E+04</pdfrwt>
<totfact> 0.44317123E+01</totfact>
</mgrwt>
</event>
<event>
 6    1  0.5391662E-005  0.1058189E+04  0.7818608E-02  0.8985687E-01
         21   -1    0    0  501  502  0.00000000000E+00  0.00000000000E+00  0.20691026264E+03  0.20691026264E+03  0.00000000000E+00 0.  1.
          4   -1    0    0  502    0 -0.00000000000E+00 -0.00000000000E+00 -0.25779962111E+04  0.25779962111E+04  0.00000000000E+00 0.  1.
    9000010    2    1    2  501    0 -0.22870811252E+03 -0.26602163208E+03 -0.20605812017E+04  0.23164108832E+04  0.99834341855E+03 0.  0.
        -13    1    3    3    0    0 -0.88847486282E+02 -0.53307031508E+03 -0.53183510267E+03  0.75822583986E+03  0.10566000000E+00 0.  1.
          4    1    3    3  501    0 -0.13986062624E+03  0.26704868300E+03 -0.15287460990E+04  0.15581850433E+04  0.00000000000E+00 0.  1.
         13    1    1    2    0    0  0.22870811252E+03  0.26602163208E+03 -0.31050474676E+03  0.46849559058E+03  0.10566000000E+00 0. -1.
<mgrwt>
<rscale>  1 0.80295972E+03</rscale>
<asrwt>0</asrwt>
<pdfrwt beam="1">  1       21 0.31832348E-01 0.10581893E+04</pdfrwt>
<pdfrwt beam="2">  1        4 0.39661481E+00 0.10581893E+04</pdfrwt>
<totfact> 0.34509214E+01</totfact>
</mgrwt>
</event>
<event>
 6    1  0.5391662E-005  0.1009147E+04  0.7818608E-02  0.9187408E-01
         21   -1    0    0  501  502  0.00000000000E+00  0.00000000000E+00  0.18908106165E+03  0.18908106165E+03  0.00000000000E+00 0.  1.
          4   -1    0    0  502    0 -0.00000000000E+00 -0.00000000000E+00 -0.20272929347E+04  0.20272929347E+04  0.00000000000E+00 0.  1.
    9000010    2    1    2  501    0  0.10796824435E+03 -0.14599280631E+03 -0.12835797408E+04  0.16327749434E+04  0.99267619272E+03 0.  0.
        -13    1    3    3    0    0  0.39252809697E+03 -0.19115989122E+03 -0.14767621391E+03  0.46089986574E+03  0.10566000000E+00 0.  1.
          4    1    3    3  501    0 -0.28455985262E+03  0.45167084910E+02 -0.11359035269E+04  0.11718750777E+04  0.00000000000E+00 0.  1.
         13    1    1    2    0    0 -0.10796824435E+03  0.14599280631E+03 -0.55463213228E+03  0.58359905295E+03  0.10566000000E+00 0. -1.
<mgrwt>
<rscale>  1 0.65725263E+03</rscale>
<asrwt>0</asrwt>
<pdfrwt beam="1">  1       21 0.29089395E-01 0.10091467E+04</pdfrwt>
<pdfrwt beam="2">  1        4 0.31189121E+00 0.10091467E+04</pdfrwt>
<totfact> 0.80284010E+01</totfact>
</mgrwt>
</event>
<event>
 6    1  0.5391662E-005  0.1028374E+04  0.7818608E-02  0.9108582E-01
         21   -1    0    0  501  502  0.00000000000E+00  0.00000000000E+00  0.21314902778E+03  0.21314902778E+03  0.00000000000E+00 0. -1.
          4   -1    0    0  502    0 -0.00000000000E+00 -0.00000000000E+00 -0.18750358928E+04  0.18750358928E+04  0.00000000000E+00 0.  1.
    9000010    2    1    2  501    0 -0.62604447149E+02 -0.22512852187E+03 -0.13029662710E+04  0.16599021027E+04  0.10014747719E+04 0.  0.
        -13    1    3    3    0    0  0.37700931038E+03 -0.17404450990E+03 -0.17945108302E+03  0.45236071216E+03  0.10566000000E+00 0.  1.
          4    1    3    3  501    0 -0.43961375753E+03 -0.51084011972E+02 -0.11235151880E+04  0.12075413905E+04  0.00000000000E+00 0.  1.
         13    1    1    2    0    0  0.62604447149E+02  0.22512852187E+03 -0.35892059395E+03  0.42828281788E+03  0.10566000000E+00 0. -1.
<mgrwt>
<rscale>  1 0.71001036E+03</rscale>
<asrwt>0</asrwt>
<pdfrwt beam="1">  1       21 0.32792157E-01 0.10283744E+04</pdfrwt>
<pdfrwt beam="2">  1        4 0.28846707E+00 0.10283744E+04</pdfrwt>
<totfact> 0.72417777E+01</totfact>
</mgrwt>
</event>
<event>
 6    1  0.5391662E-005  0.1019711E+04  0.7818608E-02  0.9168508E-01
         21   -1    0    0  501  502  0.00000000000E+00  0.00000000000E+00  0.19488421829E+04  0.19488421829E+04  0.00000000000E+00 0.  1.
          4   -1    0    0  502    0 -0.00000000000E+00 -0.00000000000E+00 -0.21641026819E+03  0.21641026819E+03  0.00000000000E+00 0.  1.
    9000010    2    1    2  501    0  0.11023585988E+03  0.15405130357E+03  0.16857281646E+04  0.19701499130E+04  0.10019618185E+04 0.  0.
        -13    1    3    3    0    0  0.51212969531E+03  0.11580046076E+03  0.13379850343E+04  0.14373206095E+04  0.10566000000E+00 0.  1.
          4    1    3    3  501    0 -0.40189383543E+03  0.38250842806E+02  0.34774313038E+03  0.53282930349E+03  0.00000000000E+00 0.  1.
         13    1    1    2    0    0 -0.11023585988E+03 -0.15405130357E+03  0.46703750116E+02  0.19510253810E+03  0.10566000000E+00 0. -1.
<mgrwt>
<rscale>  1 0.66945314E+03</rscale>
<asrwt>0</asrwt>
<pdfrwt beam="1">  1       21 0.29982186E+00 0.10197113E+04</pdfrwt>
<pdfrwt beam="2">  1        4 0.33293889E-01 0.10197113E+04</pdfrwt>
<totfact> 0.59176674E+00</totfact>
</mgrwt>
</event>
<event>
 6    1  0.5391662E-005  0.1340174E+04  0.7818608E-02  0.8590511E-01
         21   -1    0    0  501  502  0.00000000000E+00  0.00000000000E+00  0.18641792860E+04  0.18641792860E+04  0.00000000000E+00 0.  1.
          4   -1    0    0  502    0 -0.00000000000E+00 -0.00000000000E+00 -0.77549744729E+03  0.77549744729E+03  0.00000000000E+00 0.  1.
    9000010    2    1    2  501    0  0.90182757525E+03 -0.20589849931E+03  0.10692210409E+04  0.17144384390E+04  0.96973107574E+03 0.  0.
        -13    1    3    3    0    0  0.61872945434E+03 -0.23146592397E+03  0.56998862997E+02  0.66306220913E+03  0.10566000000E+00 0.  1.
          4    1    3    3  501    0  0.28309812090E+03  0.25567424659E+02  0.10122221779E+04  0.10513762298E+04  0.00000000000E+00 0.  1.
         13    1    1    2    0    0 -0.90182757525E+03  0.20589849931E+03  0.19460797855E+02  0.92523829434E+03  0.10566000000E+00 0. -1.
<mgrwt>
<rscale>  1 0.12215470E+04</rscale>
<asrwt>0</asrwt>
<pdfrwt beam="1">  1       21 0.28679681E+00 0.13401737E+04</pdfrwt>
<pdfrwt beam="2">  1        4 0.11930730E+00 0.13401737E+04</pdfrwt>
<totfact> 0.53154768E-01</totfact>
</mgrwt>
</event>
<event>
 6    1  0.5391662E-005  0.1008196E+04  0.7818608E-02  0.9173571E-01
          4   -1    0    0  502    0 -0.00000000000E+00  0.00000000000E+00  0.13717130009E+04  0.13717130009E+04  0.00000000000E+00 0.  1.
         21   -1    0    0  501  502  0.00000000000E+00 -0.00000000000E+00 -0.32711244291E+03  0.32711244291E+03  0.00000000000E+00 0.  1.
    9000010    2    1    2  501    0 -0.16841406826E+03 -0.92542019951E+02  0.50819030796E+03  0.11290331208E+04  0.98971262241E+03 0.  0.
        -13    1    3    3    0    0  0.11217508631E+03  0.30476106674E+03 -0.10960159076E+03  0.34274637511E+03  0.10566000000E+00 0.  1.
          4    1    3    3  501    0 -0.28058915457E+03 -0.39730308669E+03  0.61779189872E+03  0.78628674571E+03  0.00000000000E+00 0.  1.
         13    1    1    2    0    0  0.16841406826E+03  0.92542019951E+02  0.53641025000E+03  0.56979232297E+03  0.10566000000E+00 0. -1.
<mgrwt>
<rscale>  1 0.66615777E+03</rscale>
<asrwt>0</asrwt>
<pdfrwt beam="2">  1       21 0.50324992E-01 0.10081956E+04</pdfrwt>
<pdfrwt beam="1">  1        4 0.21103277E+00 0.10081956E+04</pdfrwt>
<totfact> 0.44684316E+01</totfact>
</mgrwt>
</event>
<event>
 6    1  0.5391662E-005  0.1081827E+04  0.7818608E-02  0.9607812E-01
          4   -1    0    0  502    0 -0.00000000000E+00  0.00000000000E+00  0.24417034304E+04  0.24417034304E+04  0.00000000000E+00 0.  1.
         21   -1    0    0  501  502  0.00000000000E+00 -0.00000000000E+00 -0.12679391726E+03  0.12679391726E+03  0.00000000000E+00 0.  1.
    9000010    2    1    2  501    0  0.68369165051E+01  0.30163927000E+02  0.22550372858E+04  0.25011081742E+04  0.10813844521E+04 0.  0.
        -13    1    3    3    0    0 -0.42034939459E+03  0.22804094750E+03  0.53397670517E+03  0.71681756403E+03  0.10566000000E+00 0.  1.
          4    1    3    3  501    0  0.42718631110E+03 -0.19787702050E+03  0.17210605806E+04  0.17842906102E+04  0.00000000000E+00 0.  1.
         13    1    1    2    0    0 -0.68369165051E+01 -0.30163927000E+02  0.59872227338E+02  0.67389173387E+02  0.10566000000E+00 0. -1.
<mgrwt>
<rscale>  1 0.44484691E+03</rscale>
<asrwt>0</asrwt>
<pdfrwt beam="2">  1       21 0.19506758E-01 0.10818267E+04</pdfrwt>
<pdfrwt beam="1">  1        4 0.37564665E+00 0.10818267E+04</pdfrwt>
<totfact> 0.11056074E+02</totfact>
</mgrwt>
</event>
<event>
 6    1  0.5391662E-005  0.1330912E+04  0.7818608E-02  0.8605541E-01
         21   -1    0    0  501  502  0.00000000000E+00  0.00000000000E+00  0.33279144539E+03  0.33279144539E+03  0.00000000000E+00 0. -1.
          4   -1    0    0  502    0 -0.00000000000E+00 -0.00000000000E+00 -0.36881756351E+04  0.36881756351E+04  0.00000000000E+00 0.  1.
    9000010    2    1    2  501    0  0.79345228279E+03 -0.38875459509E+03 -0.19494772207E+04  0.23604638203E+04  0.99530465330E+03 0.  0.
        -13    1    3    3    0    0  0.80320778066E+03  0.95675867348E+02 -0.93580514634E+03  0.12369429629E+04  0.10566000000E+00 0.  1.
          4    1    3    3  501    0 -0.97554978698E+01 -0.48443046244E+03 -0.10136720744E+04  0.11235208574E+04  0.00000000000E+00 0.  1.
         13    1    1    2    0    0 -0.79345228279E+03  0.38875459509E+03 -0.14059069691E+04  0.16605032602E+04  0.10566000000E+00 0. -1.
<mgrwt>
<rscale>  1 0.12013579E+04</rscale>
<asrwt>0</asrwt>
<pdfrwt beam="1">  1       21 0.51198682E-01 0.13309125E+04</pdfrwt>
<pdfrwt beam="2">  1        4 0.56741165E+00 0.13309125E+04</pdfrwt>
<totfact> 0.19059113E+00</totfact>
</mgrwt>
</event>
<event>
 6    1  0.5391662E-005  0.1022087E+04  0.7818608E-02  0.9210194E-01
          4   -1    0    0  502    0 -0.00000000000E+00  0.00000000000E+00  0.54866143373E+03  0.54866143373E+03  0.00000000000E+00 0.  1.
         21   -1    0    0  501  502  0.00000000000E+00 -0.00000000000E+00 -0.83190426119E+03  0.83190426119E+03  0.00000000000E+00 0.  1.
    9000010    2    1    2  501    0 -0.14729414152E+03  0.62483860139E+02 -0.47814749576E+03  0.11283998015E+04  0.10094856549E+04 0.  0.
        -13    1    3    3    0    0  0.42314147986E+03  0.14015794306E+03 -0.18894027187E+03  0.48413985426E+03  0.10566000000E+00 0.  1.
          4    1    3    3  501    0 -0.57043562138E+03 -0.77674082920E+02 -0.28920722389E+03  0.64425994726E+03  0.00000000000E+00 0.  1.
         13    1    1    2    0    0  0.14729414152E+03 -0.62483860139E+02  0.19490466830E+03  0.25216589340E+03  0.10566000000E+00 0. -1.
<mgrwt>
<rscale>  1 0.64290288E+03</rscale>
<asrwt>0</asrwt>
<pdfrwt beam="2">  1       21 0.12798527E+00 0.10220866E+04</pdfrwt>
<pdfrwt beam="1">  1        4 0.84409452E-01 0.10220866E+04</pdfrwt>
<totfact> 0.19248049E+01</totfact>
</mgrwt>
</event>
<event>
 6    1  0.5391662E-005  0.1038736E+04  0.7818608E-02  0.9051704E-01
          4   -1    0    0  502    0 -0.00000000000E+00  0.00000000000E+00  0.15881514787E+04  0.15881514787E+04  0.00000000000E+00 0.  1.
         21   -1    0    0  501  502  0.00000000000E+00 -0.00000000000E+00 -0.27713423819E+03  0.27713423819E+03  0.00000000000E+00 0.  1.
    9000010    2    1    2  501    0  0.28237354567E+03  0.32838176096E+02  0.96887337010E+03  0.14204536089E+04  0.99907941754E+03 0.  0.
        -13    1    3    3    0    0  0.58287761787E+03  0.27885343855E+03  0.66616818599E+03  0.92805475097E+03  0.10566000000E+00 0.  1.
          4    1    3    3  501    0 -0.30050407220E+03 -0.24601526246E+03  0.30270518411E+03  0.49239885790E+03  0.00000000000E+00 0.  1.
         13    1    1    2    0    0 -0.28237354567E+03 -0.32838176096E+02  0.34214387039E+03  0.44483210801E+03  0.10566000000E+00 0. -1.
<mgrwt>
<rscale>  1 0.75130143E+03</rscale>
<asrwt>0</asrwt>
<pdfrwt beam="2">  1       21 0.42636038E-01 0.10387362E+04</pdfrwt>
<pdfrwt beam="1">  1        4 0.24433099E+00 0.10387362E+04</pdfrwt>
<totfact> 0.53056321E+01</totfact>
</mgrwt>
</event>
<event>
 6    1  0.5391662E-005  0.1031095E+04  0.7818608E-02  0.9337368E-01
          4   -1    0    0  502    0 -0.00000000000E+00  0.00000000000E+00  0.66665447169E+03  0.66665447169E+03  0.00000000000E+00 0.  1.
         21   -1    0    0  501  502  0.00000000000E+00 -0.00000000000E+00 -0.71427744862E+03  0.71427744862E+03  0.00000000000E+00 0.  1.
    9000010    2    1    2  501    0 -0.51527160844E+02 -0.80966378356E+02 -0.33006057920E+03  0.10826340607E+04  0.10266186832E+04 0.  0.
        -13    1    3    3    0    0  0.27894782396E+03 -0.35035965566E+03  0.11902360158E+03  0.46339012258E+03  0.10566000000E+00 0.  1.
          4    1    3    3  501    0 -0.33047498481E+03  0.26939327730E+03 -0.44908418078E+03  0.61924393809E+03  0.00000000000E+00 0.  1.
         13    1    1    2    0    0  0.51527160844E+02  0.80966378356E+02  0.28243760227E+03  0.29829785964E+03  0.10566000000E+00 0. -1.
<mgrwt>
<rscale>  1 0.56952137E+03</rscale>
<asrwt>0</asrwt>
<pdfrwt beam="2">  1       21 0.10988884E+00 0.10310948E+04</pdfrwt>
<pdfrwt beam="1">  1        4 0.10256223E+00 0.10310948E+04</pdfrwt>
<totfact> 0.20019734E+01</totfact>
</mgrwt>
</event>
<event>
 6    1  0.5391662E-005  0.9620674E+03  0.7818608E-02  0.9152732E-01
         21   -1    0    0  501  502  0.00000000000E+00  0.00000000000E+00  0.88837972057E+02  0.88837972057E+02  0.00000000000E+00 0.  1.
          4   -1    0    0  502    0 -0.00000000000E+00 -0.00000000000E+00 -0.41197141570E+04  0.41197141570E+04  0.00000000000E+00 0.  1.
    9000010    2    1    2  501    0 -0.18206119603E+03  0.15622772992E+03 -0.34038858546E+04  0.35372323333E+04  0.93167606266E+03 0.  0.
        -13    1    3    3    0    0  0.13808004747E+03 -0.28957955343E+03 -0.60252238107E+03  0.68260944041E+03  0.10566000000E+00 0.  1.
          4    1    3    3  501    0 -0.32014124351E+03  0.44580728335E+03 -0.28013634735E+04  0.28546228928E+04  0.00000000000E+00 0.  1.
         13    1    1    2    0    0  0.18206119603E+03 -0.15622772992E+03 -0.62699033031E+03  0.67131979575E+03  0.10566000000E+00 0. -1.
<mgrwt>
<rscale>  1 0.67984991E+03</rscale>
<asrwt>0</asrwt>
<pdfrwt beam="1">  1       21 0.13667380E-01 0.96206739E+03</pdfrwt>
<pdfrwt beam="2">  1        4 0.63380219E+00 0.96206739E+03</pdfrwt>
<totfact> 0.13026750E+01</totfact>
</mgrwt>
</event>
<event>
 6    1  0.5391662E-005  0.1001014E+04  0.7818608E-02  0.9058402E-01
          4   -1    0    0  502    0 -0.00000000000E+00  0.00000000000E+00  0.10578155763E+04  0.10578155763E+04  0.00000000000E+00 0.  1.
         21   -1    0    0  501  502  0.00000000000E+00 -0.00000000000E+00 -0.41966260249E+03  0.41966260249E+03  0.00000000000E+00 0.  1.
    9000010    2    1    2  501    0  0.77578644861E+02  0.29936292237E+03  0.36694599573E+03  0.10661512509E+04  0.95204649082E+03 0.  0.
        -13    1    3    3    0    0 -0.19628611830E+03 -0.31180647200E+02  0.56092950392E+03  0.59509864100E+03  0.10566000000E+00 0.  1.
          4    1    3    3  501    0  0.27386476316E+03  0.33054356957E+03 -0.19398350819E+03  0.47105260994E+03  0.00000000000E+00 0.  1.
         13    1    1    2    0    0 -0.77578644861E+02 -0.29936292237E+03  0.27120697804E+03  0.41132692780E+03  0.10566000000E+00 0. -1.
<mgrwt>
<rscale>  1 0.74629092E+03</rscale>
<asrwt>0</asrwt>
<pdfrwt beam="2">  1       21 0.64563478E-01 0.10010140E+04</pdfrwt>
<pdfrwt beam="1">  1        4 0.16274086E+00 0.10010140E+04</pdfrwt>
<totfact> 0.35930778E+01</totfact>
</mgrwt>
</event>
<event>
 6    1  0.5391662E-005  0.1087334E+04  0.7818608E-02  0.9030307E-01
          4   -1    0    0  502    0 -0.00000000000E+00  0.00000000000E+00  0.25886218254E+03  0.25886218254E+03  0.00000000000E+00 0.  1.
         21   -1    0    0  501  502  0.00000000000E+00 -0.00000000000E+00 -0.17876333945E+04  0.17876333945E+04  0.00000000000E+00 0. -1.
    9000010    2    1    2  501    0 -0.49449629321E+01 -0.26998961870E+03 -0.12781168881E+04  0.16780577287E+04  0.10532692507E+04 0.  0.
        -13    1    3    3    0    0  0.38018848509E+03 -0.29838972796E+03 -0.18290165479E+03  0.51675210733E+03  0.10566000000E+00 0.  1.
          4    1    3    3  501    0 -0.38513344802E+03  0.28400109265E+02 -0.10952152333E+04  0.11613056213E+04  0.00000000000E+00 0.  1.
         13    1    1    2    0    0  0.49449629321E+01  0.26998961870E+03 -0.25065432395E+03  0.36843784841E+03  0.10566000000E+00 0. -1.
<mgrwt>
<rscale>  1 0.76758622E+03</rscale>
<asrwt>0</asrwt>
<pdfrwt beam="2">  1       21 0.27502053E+00 0.10873339E+04</pdfrwt>
<pdfrwt beam="1">  1        4 0.39824950E-01 0.10873339E+04</pdfrwt>
<totfact> 0.61395642E+00</totfact>
</mgrwt>
</event>
<event>
 6    1  0.5391662E-005  0.1290933E+04  0.7818608E-02  0.8642095E-01
          4   -1    0    0  502    0 -0.00000000000E+00  0.00000000000E+00  0.26600158336E+04  0.26600158336E+04  0.00000000000E+00 0.  1.
         21   -1    0    0  501  502  0.00000000000E+00 -0.00000000000E+00 -0.42074290863E+03  0.42074290863E+03  0.00000000000E+00 0. -1.
    9000010    2    1    2  501    0  0.61556381953E+03  0.54795156315E+03  0.13258198030E+04  0.18504878986E+04  0.99364862064E+03 0.  0.
        -13    1    3    3    0    0  0.75356459632E+03  0.43899158277E+03  0.49816342744E+03  0.10043605041E+04  0.10566000000E+00 0.  1.
          4    1    3    3  501    0 -0.13800077678E+03  0.10895998038E+03  0.82765637555E+03  0.84612739449E+03  0.00000000000E+00 0.  1.
         13    1    1    2    0    0 -0.61556381953E+03 -0.54795156315E+03  0.91345312195E+03  0.12302708436E+04  0.10566000000E+00 0. -1.
<mgrwt>
<rscale>  1 0.11539181E+04</rscale>
<asrwt>0</asrwt>
<pdfrwt beam="2">  1       21 0.64729680E-01 0.12909327E+04</pdfrwt>
<pdfrwt beam="1">  1        4 0.40923320E+00 0.12909327E+04</pdfrwt>
<totfact> 0.62868652E+00</totfact>
</mgrwt>
</event>
<event>
 6    1  0.5391662E-005  0.1028277E+04  0.7818608E-02  0.9160107E-01
          4   -1    0    0  502    0 -0.00000000000E+00  0.00000000000E+00  0.14718192566E+04  0.14718192566E+04  0.00000000000E+00 0.  1.
         21   -1    0    0  501  502  0.00000000000E+00 -0.00000000000E+00 -0.33106308315E+03  0.33106308315E+03  0.00000000000E+00 0.  1.
    9000010    2    1    2  501    0  0.13533832094E+03  0.13462717390E+03  0.51771557181E+03  0.11512531971E+04  0.10104026789E+04 0.  0.
        -13    1    3    3    0    0 -0.28839723590E+03 -0.15221937066E+03 -0.10747439342E+03  0.34335762535E+03  0.10566000000E+00 0.  1.
          4    1    3    3  501    0  0.42373555684E+03  0.28684654456E+03  0.62518996523E+03  0.80789557177E+03  0.00000000000E+00 0.  1.
         13    1    1    2    0    0 -0.13533832094E+03 -0.13462717390E+03  0.62304060159E+03  0.65162914258E+03  0.10566000000E+00 0. -1.
<mgrwt>
<rscale>  1 0.67496529E+03</rscale>
<asrwt>0</asrwt>
<pdfrwt beam="2">  1       21 0.50932783E-01 0.10282774E+04</pdfrwt>
<pdfrwt beam="1">  1        4 0.22643373E+00 0.10282774E+04</pdfrwt>
<totfact> 0.39712354E+01</totfact>
</mgrwt>
</event>
<event>
 6    1  0.5391662E-005  0.1039004E+04  0.7818608E-02  0.9087947E-01
         21   -1    0    0  501  502  0.00000000000E+00  0.00000000000E+00  0.26169429407E+03  0.26169429407E+03  0.00000000000E+00 0.  1.
          4   -1    0    0  502    0 -0.00000000000E+00 -0.00000000000E+00 -0.16308373398E+04  0.16308373398E+04  0.00000000000E+00 0.  1.
    9000010    2    1    2  501    0 -0.24569111214E+03 -0.92262246261E+01 -0.12297150115E+04  0.16098844444E+04  0.10094947593E+04 0.  0.
        -13    1    3    3    0    0 -0.61055173097E+02  0.49520997606E+03 -0.65215346203E+03  0.82113628818E+03  0.10566000000E+00 0.  1.
          4    1    3    3  501    0 -0.18463593904E+03 -0.50443620069E+03 -0.57756154948E+03  0.78874815625E+03  0.00000000000E+00 0.  1.
         13    1    1    2    0    0  0.24569111214E+03  0.92262246261E+01 -0.13942803418E+03  0.28264718941E+03  0.10566000000E+00 0. -1.
<mgrwt>
<rscale>  1 0.72466416E+03</rscale>
<asrwt>0</asrwt>
<pdfrwt beam="1">  1       21 0.40260661E-01 0.10390038E+04</pdfrwt>
<pdfrwt beam="2">  1        4 0.25089805E+00 0.10390038E+04</pdfrwt>
<totfact> 0.57886194E+01</totfact>
</mgrwt>
</event>
<event>
 6    1  0.5391662E-005  0.1044306E+04  0.7818608E-02  0.9019863E-01
         21   -1    0    0  501  502  0.00000000000E+00  0.00000000000E+00  0.22540342221E+03  0.22540342221E+03  0.00000000000E+00 0. -1.
          4   -1    0    0  502    0 -0.00000000000E+00 -0.00000000000E+00 -0.23125247935E+04  0.23125247935E+04  0.00000000000E+00 0.  1.
    9000010    2    1    2  501    0 -0.55702730892E+02 -0.31296730651E+03 -0.19026251302E+04  0.21703820236E+04  0.99474841709E+03 0.  0.
        -13    1    3    3    0    0  0.44147454221E+03 -0.31282310484E+03 -0.87445186929E+03  0.10283113095E+04  0.10566000000E+00 0.  1.
          4    1    3    3  501    0 -0.49717727310E+03 -0.14420167044E+00 -0.10281732609E+04  0.11420707141E+04  0.00000000000E+00 0.  1.
         13    1    1    2    0    0  0.55702730892E+02  0.31296730651E+03 -0.18449624112E+03  0.36754619210E+03  0.10566000000E+00 0. -1.
<mgrwt>
<rscale>  1 0.77569100E+03</rscale>
<asrwt>0</asrwt>
<pdfrwt beam="1">  1       21 0.34677451E-01 0.10443063E+04</pdfrwt>
<pdfrwt beam="2">  1        4 0.35577303E+00 0.10443063E+04</pdfrwt>
<totfact> 0.41063025E+01</totfact>
</mgrwt>
</event>
<event>
 6    1  0.5391662E-005  0.1030359E+04  0.7818608E-02  0.9099193E-01
          4   -1    0    0  502    0 -0.00000000000E+00  0.00000000000E+00  0.19186787724E+04  0.19186787724E+04  0.00000000000E+00 0.  1.
         21   -1    0    0  501  502  0.00000000000E+00 -0.00000000000E+00 -0.27676618786E+03  0.27676618786E+03  0.00000000000E+00 0.  1.
    9000010    2    1    2  501    0 -0.13701998631E+02 -0.24072301503E+03  0.75774485825E+03  0.12789909821E+04  0.10017511404E+04 0.  0.
        -13    1    3    3    0    0  0.84493296972E+02 -0.29597614968E+03  0.98141155172E+03  0.10285473462E+04  0.10566000000E+00 0.  1.
          4    1    3    3  501    0 -0.98195295603E+02  0.55253134654E+02 -0.22366669348E+03  0.25044363585E+03  0.00000000000E+00 0.  1.
         13    1    1    2    0    0  0.13701998631E+02  0.24072301503E+03  0.88416772631E+03  0.91645397819E+03  0.10566000000E+00 0. -1.
<mgrwt>
<rscale>  1 0.71663265E+03</rscale>
<asrwt>0</asrwt>
<pdfrwt beam="2">  1       21 0.42579415E-01 0.10303595E+04</pdfrwt>
<pdfrwt beam="1">  1        4 0.29518134E+00 0.10303595E+04</pdfrwt>
<totfact> 0.39985946E+01</totfact>
</mgrwt>
</event>
<event>
 6    1  0.5391662E-005  0.1184967E+04  0.7818608E-02  0.8759859E-01
         21   -1    0    0  501  502  0.00000000000E+00  0.00000000000E+00  0.35929456059E+03  0.35929456059E+03  0.00000000000E+00 0.  1.
          4   -1    0    0  502    0 -0.00000000000E+00 -0.00000000000E+00 -0.31802148909E+04  0.31802148909E+04  0.00000000000E+00 0.  1.
    9000010    2    1    2  501    0  0.45827974050E+03  0.44671222048E+03 -0.82599154349E+03  0.14444407166E+04  0.99728372354E+03 0.  0.
        -13    1    3    3    0    0 -0.20796477642E+03  0.41808472064E+03 -0.13942527451E+03  0.48732289111E+03  0.10566000000E+00 0.  1.
          4    1    3    3  501    0  0.66624451692E+03  0.28627499841E+02 -0.68656626898E+03  0.95711782544E+03  0.00000000000E+00 0.  1.
         13    1    1    2    0    0 -0.45827974050E+03 -0.44671222048E+03 -0.19949287869E+04  0.20950687350E+04  0.10566000000E+00 0. -1.
<mgrwt>
<rscale>  1 0.10158299E+04</rscale>
<asrwt>0</asrwt>
<pdfrwt beam="1">  1       21 0.55276085E-01 0.11849671E+04</pdfrwt>
<pdfrwt beam="2">  1        4 0.48926384E+00 0.11849671E+04</pdfrwt>
<totfact> 0.39739422E+00</totfact>
</mgrwt>
</event>
<event>
 6    1  0.5391662E-005  0.1028126E+04  0.7818608E-02  0.9039162E-01
         21   -1    0    0  501  502  0.00000000000E+00  0.00000000000E+00  0.47350891818E+03  0.47350891818E+03  0.00000000000E+00 0.  1.
          4   -1    0    0  502    0 -0.00000000000E+00 -0.00000000000E+00 -0.95799083299E+03  0.95799083299E+03  0.00000000000E+00 0.  1.
    9000010    2    1    2  501    0 -0.30781932825E+03 -0.16656433286E+02 -0.29483616928E+03  0.10695664761E+04  0.98082307505E+03 0.  0.
        -13    1    3    3    0    0 -0.37150970235E+03  0.22423192962E+03  0.22815085644E+03  0.49025732188E+03  0.10566000000E+00 0.  1.
          4    1    3    3  501    0  0.63690374100E+02 -0.24088836290E+03 -0.52298702572E+03  0.57930915426E+03  0.00000000000E+00 0.  1.
         13    1    1    2    0    0  0.30781932825E+03  0.16656433286E+02 -0.18964574553E+03  0.36193327503E+03  0.10566000000E+00 0. -1.
<mgrwt>
<rscale>  1 0.76079493E+03</rscale>
<asrwt>0</asrwt>
<pdfrwt beam="1">  1       21 0.72847528E-01 0.10281265E+04</pdfrwt>
<pdfrwt beam="2">  1        4 0.14738320E+00 0.10281265E+04</pdfrwt>
<totfact> 0.31095107E+01</totfact>
</mgrwt>
</event>
<event>
 6    1  0.5391662E-005  0.1019992E+04  0.7818608E-02  0.9185939E-01
          4   -1    0    0  502    0 -0.00000000000E+00  0.00000000000E+00  0.12085682029E+04  0.12085682029E+04  0.00000000000E+00 0.  1.
         21   -1    0    0  501  502  0.00000000000E+00 -0.00000000000E+00 -0.33237408090E+03  0.33237408090E+03  0.00000000000E+00 0.  1.
    9000010    2    1    2  501    0 -0.11919269264E+03 -0.13065577574E+03  0.52372314344E+03  0.11465901168E+04  0.10045422516E+04 0.  0.
        -13    1    3    3    0    0 -0.18982913813E+03  0.30220207654E+03 -0.11219359277E+03  0.37409705982E+03  0.10566000000E+00 0.  1.
          4    1    3    3  501    0  0.70636445493E+02 -0.43285785228E+03  0.63591673621E+03  0.77249305699E+03  0.00000000000E+00 0.  1.
         13    1    1    2    0    0  0.11919269264E+03  0.13065577574E+03  0.35247097857E+03  0.39435216699E+03  0.10566000000E+00 0. -1.
<mgrwt>
<rscale>  1 0.65819118E+03</rscale>
<asrwt>0</asrwt>
<pdfrwt beam="2">  1       21 0.51134474E-01 0.10199916E+04</pdfrwt>
<pdfrwt beam="1">  1        4 0.18593357E+00 0.10199916E+04</pdfrwt>
<totfact> 0.50766541E+01</totfact>
</mgrwt>
</event>
<event>
 6    1  0.5391662E-005  0.1267625E+04  0.7818608E-02  0.8672279E-01
          4   -1    0    0  502    0 -0.00000000000E+00  0.00000000000E+00  0.24439362052E+04  0.24439362052E+04  0.00000000000E+00 0.  1.
         21   -1    0    0  501  502  0.00000000000E+00 -0.00000000000E+00 -0.43558136786E+03  0.43558136786E+03  0.00000000000E+00 0. -1.
    9000010    2    1    2  501    0  0.16472372141E+03 -0.74476373520E+03  0.14950878663E+04  0.19601428288E+04  0.10124550636E+04 0.  0.
        -13    1    3    3    0    0  0.49447997640E+03 -0.79225093957E+03  0.11274247538E+04  0.14639872216E+04  0.10566000000E+00 0.  1.
          4    1    3    3  501    0 -0.32975625499E+03  0.47487204380E+02  0.36766311248E+03  0.49615560721E+03  0.00000000000E+00 0.  1.
         13    1    1    2    0    0 -0.16472372141E+03  0.74476373520E+03  0.51326697108E+03  0.91937474428E+03  0.10566000000E+00 0. -1.
<mgrwt>
<rscale>  1 0.11164529E+04</rscale>
<asrwt>0</asrwt>
<pdfrwt beam="2">  1       21 0.67012520E-01 0.12676246E+04</pdfrwt>
<pdfrwt beam="1">  1        4 0.37599018E+00 0.12676246E+04</pdfrwt>
<totfact> 0.78400153E+00</totfact>
</mgrwt>
</event>
<event>
 6    1  0.5391662E-005  0.1016079E+04  0.7818608E-02  0.9158450E-01
         21   -1    0    0  501  502  0.00000000000E+00  0.00000000000E+00  0.55945484352E+03  0.55945484352E+03  0.00000000000E+00 0.  1.
          4   -1    0    0  502    0 -0.00000000000E+00 -0.00000000000E+00 -0.77695611968E+03  0.77695611968E+03  0.00000000000E+00 0.  1.
    9000010    2    1    2  501    0  0.11042004980E+03  0.16572192321E+03 -0.37442645007E+03  0.10828722786E+04  0.99637385653E+03 0.  0.
        -13    1    3    3    0    0 -0.96046137957E+02 -0.38119209662E+03 -0.84922491867E+01  0.39319766607E+03  0.10566000000E+00 0.  1.
          4    1    3    3  501    0  0.20646618776E+03  0.54691401982E+03 -0.36593420088E+03  0.68967461251E+03  0.00000000000E+00 0.  1.
         13    1    1    2    0    0 -0.11042004980E+03 -0.16572192321E+03  0.15692517391E+03  0.25353868462E+03  0.10566000000E+00 0. -1.
<mgrwt>
<rscale>  1 0.67605941E+03</rscale>
<asrwt>0</asrwt>
<pdfrwt beam="1">  1       21 0.86069976E-01 0.10160793E+04</pdfrwt>
<pdfrwt beam="2">  1        4 0.11953171E+00 0.10160793E+04</pdfrwt>
<totfact> 0.28819284E+01</totfact>
</mgrwt>
</event>
<event>
 6    1  0.5391662E-005  0.1056093E+04  0.7818608E-02  0.9096154E-01
         21   -1    0    0  501  502  0.00000000000E+00  0.00000000000E+00  0.98914454990E+03  0.98914454990E+03  0.00000000000E+00 0.  1.
          4   -1    0    0  502    0 -0.00000000000E+00 -0.00000000000E+00 -0.47657139049E+03  0.47657139049E+03  0.00000000000E+00 0.  1.
    9000010    2    1    2  501    0  0.18233686588E+03 -0.13458108682E+03  0.60936594731E+03  0.12192861197E+04  0.10314906603E+04 0.  0.
        -13    1    3    3    0    0  0.16633620099E+03 -0.21406395930E+03 -0.24240583874E+03  0.36366428509E+03  0.10566000000E+00 0.  1.
          4    1    3    3  501    0  0.16000664890E+02  0.79482872485E+02  0.85177178605E+03  0.85562183458E+03  0.00000000000E+00 0.  1.
         13    1    1    2    0    0 -0.18233686588E+03  0.13458108682E+03 -0.96792787904E+02  0.24642982072E+03  0.10566000000E+00 0. -1.
<mgrwt>
<rscale>  1 0.71879228E+03</rscale>
<asrwt>0</asrwt>
<pdfrwt beam="1">  1       21 0.15217608E+00 0.10560927E+04</pdfrwt>
<pdfrwt beam="2">  1        4 0.73318675E-01 0.10560927E+04</pdfrwt>
<totfact> 0.15294723E+01</totfact>
</mgrwt>
</event>
<event>
 6    1  0.5391662E-005  0.1102020E+04  0.7818608E-02  0.8915946E-01
          4   -1    0    0  502    0 -0.00000000000E+00  0.00000000000E+00  0.34643030714E+03  0.34643030714E+03  0.00000000000E+00 0.  1.
         21   -1    0    0  501  502  0.00000000000E+00 -0.00000000000E+00 -0.17551299612E+04  0.17551299612E+04  0.00000000000E+00 0.  1.
    9000010    2    1    2  501    0  0.40922154923E+03  0.57126080314E+02 -0.12297547858E+04  0.16512859714E+04  0.10216275548E+04 0.  0.
        -13    1    3    3    0    0  0.54737440179E+03  0.24049024098E+03 -0.25521492225E+03  0.65006842674E+03  0.10566000000E+00 0.  1.
          4    1    3    3  501    0 -0.13815285255E+03 -0.18336416067E+03 -0.97453986356E+03  0.10012175447E+04  0.00000000000E+00 0.  1.
         13    1    1    2    0    0 -0.40922154923E+03 -0.57126080314E+02 -0.17894486820E+03  0.45027429688E+03  0.10566000000E+00 0. -1.
<mgrwt>
<rscale>  1 0.86234197E+03</rscale>
<asrwt>0</asrwt>
<pdfrwt beam="2">  1       21 0.27002000E+00 0.11020202E+04</pdfrwt>
<pdfrwt beam="1">  1        4 0.53296970E-01 0.11020202E+04</pdfrwt>
<totfact> 0.36299497E+00</totfact>
</mgrwt>
</event>
<event>
 6    1  0.5391662E-005  0.9937605E+03  0.7818608E-02  0.9095462E-01
          4   -1    0    0  502    0 -0.00000000000E+00  0.00000000000E+00  0.14116943730E+04  0.14116943730E+04  0.00000000000E+00 0.  1.
         21   -1    0    0  501  502  0.00000000000E+00 -0.00000000000E+00 -0.31980897057E+03  0.31980897057E+03  0.00000000000E+00 0.  1.
    9000010    2    1    2  501    0  0.27183360589E+03  0.22293171850E+02  0.57775062093E+03  0.11495024162E+04  0.95559904247E+03 0.  0.
        -13    1    3    3    0    0 -0.26561828790E+03 -0.22447051921E+02 -0.98811708691E+02  0.28428983441E+03  0.10566000000E+00 0.  1.
          4    1    3    3  501    0  0.53745189379E+03  0.44740223771E+02  0.67656232962E+03  0.86521258175E+03  0.00000000000E+00 0.  1.
         13    1    1    2    0    0 -0.27183360589E+03 -0.22293171850E+02  0.51413478154E+03  0.58200092745E+03  0.10566000000E+00 0. -1.
<mgrwt>
<rscale>  1 0.71928500E+03</rscale>
<asrwt>0</asrwt>
<pdfrwt beam="2">  1       21 0.49201381E-01 0.99376055E+03</pdfrwt>
<pdfrwt beam="1">  1        4 0.21718375E+00 0.99376055E+03</pdfrwt>
<totfact> 0.45376700E+01</totfact>
</mgrwt>
</event>
<event>
 6    1  0.5391662E-005  0.1001160E+04  0.7818608E-02  0.9066390E-01
         21   -1    0    0  501  502  0.00000000000E+00  0.00000000000E+00  0.33025073363E+03  0.33025073363E+03  0.00000000000E+00 0.  1.
          4   -1    0    0  502    0 -0.00000000000E+00 -0.00000000000E+00 -0.15514263549E+04  0.15514263549E+04  0.00000000000E+00 0.  1.
    9000010    2    1    2  501    0 -0.26174553861E+03 -0.14539773815E+03 -0.53978995964E+03  0.11374072045E+04  0.95533801299E+03 0.  0.
        -13    1    3    3    0    0 -0.31033844897E+03 -0.27399986657E+03 -0.76714404073E+03  0.87172006412E+03  0.10566000000E+00 0.  1.
          4    1    3    3  501    0  0.48592910359E+02  0.12860212842E+03  0.22735408109E+03  0.26568714038E+03  0.00000000000E+00 0.  1.
         13    1    1    2    0    0  0.26174553861E+03  0.14539773815E+03 -0.68138566167E+03  0.74426988407E+03  0.10566000000E+00 0. -1.
<mgrwt>
<rscale>  1 0.74036734E+03</rscale>
<asrwt>0</asrwt>
<pdfrwt beam="1">  1       21 0.50807806E-01 0.10011603E+04</pdfrwt>
<pdfrwt beam="2">  1        4 0.23868097E+00 0.10011603E+04</pdfrwt>
<totfact> 0.37369253E+01</totfact>
</mgrwt>
</event>
<event>
 6    1  0.5391662E-005  0.9778931E+03  0.7818608E-02  0.9210957E-01
         21   -1    0    0  501  502  0.00000000000E+00  0.00000000000E+00  0.16493984663E+03  0.16493984663E+03  0.00000000000E+00 0.  1.
          4   -1    0    0  502    0 -0.00000000000E+00 -0.00000000000E+00 -0.23662542066E+04  0.23662542066E+04  0.00000000000E+00 0.  1.
    9000010    2    1    2  501    0  0.16763327116E+03 -0.71256298396E+02 -0.13889756775E+04  0.16986842816E+04  0.96077910169E+03 0.  0.
        -13    1    3    3    0    0 -0.88692022625E+02 -0.46578302454E+03 -0.47738354445E+03  0.67284111089E+03  0.10566000000E+00 0.  1.
          4    1    3    3  501    0  0.25632529379E+03  0.39452672614E+03 -0.91159213306E+03  0.10258431707E+04  0.00000000000E+00 0.  1.
         13    1    1    2    0    0 -0.16763327116E+03  0.71256298396E+02 -0.81233868240E+03  0.83250977157E+03  0.10566000000E+00 0. -1.
<mgrwt>
<rscale>  1 0.64242943E+03</rscale>
<asrwt>0</asrwt>
<pdfrwt beam="1">  1       21 0.25375362E-01 0.97789307E+03</pdfrwt>
<pdfrwt beam="2">  1        4 0.36403909E+00 0.97789307E+03</pdfrwt>
<totfact> 0.73364018E+01</totfact>
</mgrwt>
</event>
<event>
 6    1  0.5391662E-005  0.9972115E+03  0.7818608E-02  0.9218473E-01
         21   -1    0    0  501  502  0.00000000000E+00  0.00000000000E+00  0.22316696324E+03  0.22316696324E+03  0.00000000000E+00 0.  1.
          4   -1    0    0  502    0 -0.00000000000E+00 -0.00000000000E+00 -0.15841738763E+04  0.15841738763E+04  0.00000000000E+00 0.  1.
    9000010    2    1    2  501    0 -0.16537095430E+03  0.22186539411E+02 -0.10134013191E+04  0.14217640571E+04  0.98315360213E+03 0.  0.
        -13    1    3    3    0    0  0.36661175880E+03 -0.79896614840E+02 -0.15335571241E+03  0.40534631668E+03  0.10566000000E+00 0.  1.
          4    1    3    3  501    0 -0.53198271310E+03  0.10208315425E+03 -0.86004560667E+03  0.10164177404E+04  0.00000000000E+00 0.  1.
         13    1    1    2    0    0  0.16537095430E+03 -0.22186539411E+02 -0.34760559396E+03  0.38557678247E+03  0.10566000000E+00 0. -1.
<mgrwt>
<rscale>  1 0.63778417E+03</rscale>
<asrwt>0</asrwt>
<pdfrwt beam="1">  1       21 0.34333381E-01 0.99721151E+03</pdfrwt>
<pdfrwt beam="2">  1        4 0.24371905E+00 0.99721151E+03</pdfrwt>
<totfact> 0.84581761E+01</totfact>
</mgrwt>
</event>
<event>
 6    1  0.5391662E-005  0.1031575E+04  0.7818608E-02  0.9088526E-01
          4   -1    0    0  502    0 -0.00000000000E+00  0.00000000000E+00  0.16396468347E+04  0.16396468347E+04  0.00000000000E+00 0.  1.
         21   -1    0    0  501  502  0.00000000000E+00 -0.00000000000E+00 -0.42610085423E+03  0.42610085423E+03  0.00000000000E+00 0.  1.
    9000010    2    1    2  501    0 -0.25794027184E+02  0.24930751250E+03  0.23820805794E+03  0.10587205582E+04  0.10006630672E+04 0.  0.
        -13    1    3    3    0    0  0.38227998068E+03  0.33915096630E+03 -0.10051039801E+03  0.52082983098E+03  0.10566000000E+00 0.  1.
          4    1    3    3  501    0 -0.40807400786E+03 -0.89843453795E+02  0.33871845595E+03  0.53789072727E+03  0.00000000000E+00 0.  1.
         13    1    1    2    0    0  0.25794027184E+02 -0.24930751250E+03  0.97533792250E+03  0.10070271306E+04  0.10566000000E+00 0. -1.
<mgrwt>
<rscale>  1 0.72424808E+03</rscale>
<asrwt>0</asrwt>
<pdfrwt beam="2">  1       21 0.65553978E-01 0.10315746E+04</pdfrwt>
<pdfrwt beam="1">  1        4 0.25225336E+00 0.10315746E+04</pdfrwt>
<totfact> 0.19369974E+01</totfact>
</mgrwt>
</event>
<event>
 6    1  0.5391662E-005  0.9768003E+03  0.7818608E-02  0.9028410E-01
          4   -1    0    0  502    0 -0.00000000000E+00  0.00000000000E+00  0.41913332129E+04  0.41913332129E+04  0.00000000000E+00 0.  1.
         21   -1    0    0  501  502  0.00000000000E+00 -0.00000000000E+00 -0.11580892096E+03  0.11580892096E+03  0.00000000000E+00 0.  1.
    9000010    2    1    2  501    0  0.29661653236E+03  0.22996590387E+03  0.24219673146E+04  0.26115253220E+04  0.90181658344E+03 0.  0.
        -13    1    3    3    0    0  0.31016045014E+03  0.54071778922E+03  0.12208241169E+04  0.13707613826E+04  0.10566000000E+00 0.  1.
          4    1    3    3  501    0 -0.13543917771E+02 -0.31075188534E+03  0.12011431977E+04  0.12407639394E+04  0.00000000000E+00 0.  1.
         13    1    1    2    0    0 -0.29661653236E+03 -0.22996590387E+03  0.16535569774E+04  0.16956168119E+04  0.10566000000E+00 0. -1.
<mgrwt>
<rscale>  1 0.76905074E+03</rscale>
<asrwt>0</asrwt>
<pdfrwt beam="2">  1       21 0.17816760E-01 0.97680030E+03</pdfrwt>
<pdfrwt beam="1">  1        4 0.64482038E+00 0.97680030E+03</pdfrwt>
<totfact> 0.68681909E+00</totfact>
</mgrwt>
</event>
<event>
 6    1  0.5391662E-005  0.1007625E+04  0.7818608E-02  0.9225505E-01
         21   -1    0    0  501  502  0.00000000000E+00  0.00000000000E+00  0.49047154946E+03  0.49047154946E+03  0.00000000000E+00 0.  1.
          4   -1    0    0  502    0 -0.00000000000E+00 -0.00000000000E+00 -0.87471171294E+03  0.87471171294E+03  0.00000000000E+00 0.  1.
    9000010    2    1    2  501    0 -0.32106391682E+02  0.15409777937E+03 -0.65569209121E+02  0.10097565691E+04  0.99525477224E+03 0.  0.
        -13    1    3    3    0    0  0.25423235122E+03  0.11716566721E+01 -0.44371496905E+03  0.51138874265E+03  0.10566000000E+00 0.  1.
          4    1    3    3  501    0 -0.28633874290E+03  0.15292612270E+03  0.37814575993E+03  0.49836782645E+03  0.00000000000E+00 0.  1.
         13    1    1    2    0    0  0.32106391682E+02 -0.15409777937E+03 -0.31867095436E+03  0.35542669330E+03  0.10566000000E+00 0. -1.
<mgrwt>
<rscale>  1 0.63347625E+03</rscale>
<asrwt>0</asrwt>
<pdfrwt beam="1">  1       21 0.75457161E-01 0.10076254E+04</pdfrwt>
<pdfrwt beam="2">  1        4 0.13457103E+00 0.10076254E+04</pdfrwt>
<totfact> 0.32848951E+01</totfact>
</mgrwt>
</event>
<event>
 6    1  0.5391662E-005  0.1022359E+04  0.7818608E-02  0.9137873E-01
         21   -1    0    0  501  502  0.00000000000E+00  0.00000000000E+00  0.47042492941E+03  0.47042492941E+03  0.00000000000E+00 0.  1.
          4   -1    0    0  502    0 -0.00000000000E+00 -0.00000000000E+00 -0.16460318418E+04  0.16460318418E+04  0.00000000000E+00 0.  1.
    9000010    2    1    2  501    0  0.21176755059E+03  0.76412105486E+01 -0.10802787884E+03  0.10280501893E+04  0.10001566305E+04 0.  0.
        -13    1    3    3    0    0 -0.14196106419E+03 -0.19551476745E+03 -0.44009661145E+03  0.50205976398E+03  0.10566000000E+00 0.  1.
          4    1    3    3  501    0  0.35372861478E+03  0.20315597800E+03  0.33206873261E+03  0.52599042528E+03  0.00000000000E+00 0.  1.
         13    1    1    2    0    0 -0.21176755059E+03 -0.76412105486E+01 -0.10675790336E+04  0.10884065820E+04  0.10566000000E+00 0. -1.
<mgrwt>
<rscale>  1 0.68982345E+03</rscale>
<asrwt>0</asrwt>
<pdfrwt beam="1">  1       21 0.72373065E-01 0.10223586E+04</pdfrwt>
<pdfrwt beam="2">  1        4 0.25323567E+00 0.10223586E+04</pdfrwt>
<totfact> 0.15256100E+01</totfact>
</mgrwt>
</event>
<event>
 6    1  0.5391662E-005  0.1031922E+04  0.7818608E-02  0.9198989E-01
          4   -1    0    0  502    0 -0.00000000000E+00  0.00000000000E+00  0.43579365751E+03  0.43579365751E+03  0.00000000000E+00 0.  1.
         21   -1    0    0  501  502  0.00000000000E+00 -0.00000000000E+00 -0.96332322840E+03  0.96332322840E+03  0.00000000000E+00 0.  1.
    9000010    2    1    2  501    0  0.15205592631E+03  0.56913659971E+02 -0.62818480636E+03  0.12080889900E+04  0.10190695204E+04 0.  0.
        -13    1    3    3    0    0 -0.43844899409E+03  0.22380866978E+01 -0.24969493480E+03  0.50456922328E+03  0.10566000000E+00 0.  1.
          4    1    3    3  501    0  0.59050492040E+03  0.54675573273E+02 -0.37848987156E+03  0.70351976675E+03  0.00000000000E+00 0.  1.
         13    1    1    2    0    0 -0.15205592631E+03 -0.56913659971E+02  0.10065523546E+03  0.19102789589E+03  0.10566000000E+00 0. -1.
<mgrwt>
<rscale>  1 0.64991069E+03</rscale>
<asrwt>0</asrwt>
<pdfrwt beam="2">  1       21 0.14820357E+00 0.10319219E+04</pdfrwt>
<pdfrwt beam="1">  1        4 0.67045178E-01 0.10319219E+04</pdfrwt>
<totfact> 0.20062419E+01</totfact>
</mgrwt>
</event>
<event>
 6    1  0.5490055E-005  0.8536780E+03  0.7818608E-02  0.9203071E-01
          4   -1    0    0  502    0 -0.00000000000E+00  0.00000000000E+00  0.18917429821E+04  0.18917429821E+04  0.00000000000E+00 0.  1.
         21   -1    0    0  501  502  0.00000000000E+00 -0.00000000000E+00 -0.17222933175E+03  0.17222933175E+03  0.00000000000E+00 0.  1.
    9000010    2    1    2  501    0  0.37329862853E+02 -0.27979157972E+03  0.11991626562E+04  0.14719908826E+04  0.80566074465E+03 0.  0.
        -13    1    3    3    0    0  0.40379318592E+03 -0.27107596894E+03  0.71450237529E+03  0.86431751885E+03  0.10566000000E+00 0.  1.
          4    1    3    3  501    0 -0.36646332307E+03 -0.87156107790E+01  0.48466028095E+03  0.60767336371E+03  0.00000000000E+00 0.  1.
         13    1    1    2    0    0 -0.37329862853E+02  0.27979157972E+03  0.52035099406E+03  0.59198143123E+03  0.10566000000E+00 0. -1.
<mgrwt>
<rscale>  1 0.64734691E+03</rscale>
<asrwt>0</asrwt>
<pdfrwt beam="2">  1       21 0.26496822E-01 0.85367797E+03</pdfrwt>
<pdfrwt beam="1">  1        4 0.29103737E+00 0.85367797E+03</pdfrwt>
<totfact> 0.11224850E+02</totfact>
</mgrwt>
</event>
<event>
 6    1  0.5391662E-005  0.1012744E+04  0.7818608E-02  0.9226305E-01
          4   -1    0    0  502    0 -0.00000000000E+00  0.00000000000E+00  0.20925401943E+04  0.20925401943E+04  0.00000000000E+00 0.  1.
         21   -1    0    0  501  502  0.00000000000E+00 -0.00000000000E+00 -0.17770704332E+03  0.17770704332E+03  0.00000000000E+00 0.  1.
    9000010    2    1    2  501    0  0.15398581133E+03 -0.13256162922E+02  0.13685511685E+04  0.17025225055E+04  0.10008812242E+04 0.  0.
        -13    1    3    3    0    0  0.80678034639E+02  0.41096317026E+03  0.11413030793E+04  0.12157188830E+04  0.10566000000E+00 0.  1.
          4    1    3    3  501    0  0.73307776691E+02 -0.42421933318E+03  0.22724808919E+03  0.48680362243E+03  0.00000000000E+00 0.  1.
         13    1    1    2    0    0 -0.15398581133E+03  0.13256162922E+02  0.54628198249E+03  0.56772473216E+03  0.10566000000E+00 0. -1.
<mgrwt>
<rscale>  1 0.63298850E+03</rscale>
<asrwt>0</asrwt>
<pdfrwt beam="2">  1       21 0.27339547E-01 0.10127441E+04</pdfrwt>
<pdfrwt beam="1">  1        4 0.32192924E+00 0.10127441E+04</pdfrwt>
<totfact> 0.85415908E+01</totfact>
</mgrwt>
</event>
<event>
 6    1  0.5391662E-005  0.1039690E+04  0.7818608E-02  0.9008432E-01
         21   -1    0    0  501  502  0.00000000000E+00  0.00000000000E+00  0.17998861835E+03  0.17998861835E+03  0.00000000000E+00 0.  1.
          4   -1    0    0  502    0 -0.00000000000E+00 -0.00000000000E+00 -0.26939250597E+04  0.26939250597E+04  0.00000000000E+00 0.  1.
    9000010    2    1    2  501    0  0.32505380042E+03  0.90207189074E+02 -0.16983828545E+04  0.19913464147E+04  0.98344237898E+03 0.  0.
        -13    1    3    3    0    0  0.57534656792E+03  0.10074884386E+03 -0.16302527187E+04  0.17317326413E+04  0.10566000000E+00 0.  1.
          4    1    3    3  501    0 -0.25029276750E+03 -0.10541654782E+02 -0.68130135742E+02  0.25961377341E+03  0.00000000000E+00 0.  1.
         13    1    1    2    0    0 -0.32505380042E+03 -0.90207189074E+02 -0.81555358683E+03  0.88256726332E+03  0.10566000000E+00 0. -1.
<mgrwt>
<rscale>  1 0.78468354E+03</rscale>
<asrwt>0</asrwt>
<pdfrwt beam="1">  1       21 0.27690558E-01 0.10396904E+04</pdfrwt>
<pdfrwt beam="2">  1        4 0.41444999E+00 0.10396904E+04</pdfrwt>
<totfact> 0.39018673E+01</totfact>
</mgrwt>
</event>
<event>
 6    1  0.5391662E-005  0.1016282E+04  0.7818608E-02  0.9200794E-01
         21   -1    0    0  501  502  0.00000000000E+00  0.00000000000E+00  0.26450864336E+03  0.26450864336E+03  0.00000000000E+00 0.  1.
          4   -1    0    0  502    0 -0.00000000000E+00 -0.00000000000E+00 -0.16684641660E+04  0.16684641660E+04  0.00000000000E+00 0.  1.
    9000010    2    1    2  501    0 -0.42160941639E+02 -0.16343520509E+03 -0.76480136253E+03  0.12719080146E+04  0.10021677815E+04 0.  0.
        -13    1    3    3    0    0 -0.39021590068E+03 -0.40720704841E+03 -0.28812652331E+03  0.63332687770E+03  0.10566000000E+00 0.  1.
          4    1    3    3  501    0  0.34805495904E+03  0.24377184332E+03 -0.47667483922E+03  0.63858113694E+03  0.00000000000E+00 0.  1.
         13    1    1    2    0    0  0.42160941639E+02  0.16343520509E+03 -0.63915416011E+03  0.66106479472E+03  0.10566000000E+00 0. -1.
<mgrwt>
<rscale>  1 0.64877569E+03</rscale>
<asrwt>0</asrwt>
<pdfrwt beam="1">  1       21 0.40693639E-01 0.10162819E+04</pdfrwt>
<pdfrwt beam="2">  1        4 0.25668679E+00 0.10162819E+04</pdfrwt>
<totfact> 0.54893187E+01</totfact>
</mgrwt>
</event>
<event>
 6    1  0.5391662E-005  0.1001360E+04  0.7818608E-02  0.9440295E-01
          4   -1    0    0  502    0 -0.00000000000E+00  0.00000000000E+00  0.13571971348E+04  0.13571971348E+04  0.00000000000E+00 0.  1.
         21   -1    0    0  501  502  0.00000000000E+00 -0.00000000000E+00 -0.24210868044E+03  0.24210868044E+03  0.00000000000E+00 0.  1.
    9000010    2    1    2  501    0  0.11850436321E+02 -0.70471500597E+02  0.81581088532E+03  0.12916148343E+04  0.99880669522E+03 0.  0.
        -13    1    3    3    0    0  0.13462806177E+03 -0.51195543492E+03  0.54290416384E+03  0.75826646019E+03  0.10566000000E+00 0.  1.
          4    1    3    3  501    0 -0.12277762545E+03  0.44148393432E+03  0.27290672147E+03  0.53334837414E+03  0.00000000000E+00 0.  1.
         13    1    1    2    0    0 -0.11850436321E+02  0.70471500597E+02  0.29927756904E+03  0.30769098091E+03  0.10566000000E+00 0. -1.
<mgrwt>
<rscale>  1 0.51755906E+03</rscale>
<asrwt>0</asrwt>
<pdfrwt beam="2">  1       21 0.37247490E-01 0.10013598E+04</pdfrwt>
<pdfrwt beam="1">  1        4 0.20879955E+00 0.10013598E+04</pdfrwt>
<totfact> 0.86879490E+01</totfact>
</mgrwt>
</event>
<event>
 6    1  0.5391662E-005  0.1269397E+04  0.7818608E-02  0.8674795E-01
          4   -1    0    0  502    0 -0.00000000000E+00  0.00000000000E+00  0.20798288841E+04  0.20798288841E+04  0.00000000000E+00 0.  1.
         21   -1    0    0  501  502  0.00000000000E+00 -0.00000000000E+00 -0.49087887403E+03  0.49087887403E+03  0.00000000000E+00 0. -1.
    9000010    2    1    2  501    0  0.36692468048E+03  0.65559347334E+03  0.98308565182E+03  0.16055610568E+04  0.10231971387E+04 0.  0.
        -13    1    3    3    0    0  0.50456406996E+03 -0.88032804613E+02  0.36656828144E+03  0.62984680003E+03  0.10566000000E+00 0.  1.
          4    1    3    3  501    0 -0.13763938948E+03  0.74362627796E+03  0.61651737038E+03  0.97571425673E+03  0.00000000000E+00 0.  1.
         13    1    1    2    0    0 -0.36692468048E+03 -0.65559347334E+03  0.60586435827E+03  0.96514670140E+03  0.10566000000E+00 0. -1.
<mgrwt>
<rscale>  1 0.11133969E+04</rscale>
<asrwt>0</asrwt>
<pdfrwt beam="2">  1       21 0.75519828E-01 0.12693971E+04</pdfrwt>
<pdfrwt beam="1">  1        4 0.31997367E+00 0.12693971E+04</pdfrwt>
<totfact> 0.90153873E+00</totfact>
</mgrwt>
</event>
<event>
 6    1  0.5391662E-005  0.7218418E+03  0.7818608E-02  0.9715094E-01
         21   -1    0    0  501  502  0.00000000000E+00  0.00000000000E+00  0.10142026838E+03  0.10142026838E+03  0.00000000000E+00 0.  1.
          4   -1    0    0  502    0 -0.00000000000E+00 -0.00000000000E+00 -0.16756114665E+04  0.16756114665E+04  0.00000000000E+00 0.  1.
    9000010    2    1    2  501    0  0.37275090576E+02 -0.60941027312E+02 -0.12357228357E+04  0.14311067651E+04  0.71829827044E+03 0.  0.
        -13    1    3    3    0    0  0.32342059458E+03 -0.21903661406E+03 -0.59424372856E+03  0.71112835648E+03  0.10566000000E+00 0.  1.
          4    1    3    3  501    0 -0.28614550400E+03  0.15809558675E+03 -0.64147910717E+03  0.71997840866E+03  0.00000000000E+00 0.  1.
         13    1    1    2    0    0 -0.37275090576E+02  0.60941027312E+02 -0.33846836237E+03  0.34592496972E+03  0.10566000000E+00 0. -1.
<mgrwt>
<rscale>  1 0.40486704E+03</rscale>
<asrwt>0</asrwt>
<pdfrwt beam="1">  1       21 0.15603118E-01 0.72184184E+03</pdfrwt>
<pdfrwt beam="2">  1        4 0.25778638E+00 0.72184184E+03</pdfrwt>
<totfact> 0.38314233E+02</totfact>
</mgrwt>
</event>
<event>
 6    1  0.5391662E-005  0.1044008E+04  0.7818608E-02  0.9136470E-01
         21   -1    0    0  501  502  0.00000000000E+00  0.00000000000E+00  0.73192599974E+03  0.73192599974E+03  0.00000000000E+00 0.  1.
          4   -1    0    0  502    0 -0.00000000000E+00 -0.00000000000E+00 -0.72525681489E+03  0.72525681489E+03  0.00000000000E+00 0.  1.
    9000010    2    1    2  501    0 -0.40879178235E+01  0.20005135788E+03  0.31422118275E+03  0.10902693379E+04  0.10246536100E+04 0.  0.
        -13    1    3    3    0    0  0.32906353635E+03  0.49782760490E+03  0.19496374493E+03  0.62779455888E+03  0.10566000000E+00 0.  1.
          4    1    3    3  501    0 -0.33315145418E+03 -0.29777624703E+03  0.11925743782E+03  0.46247477898E+03  0.00000000000E+00 0.  1.
         13    1    1    2    0    0  0.40879178235E+01 -0.20005135788E+03 -0.30755199790E+03  0.36691347677E+03  0.10566000000E+00 0. -1.
<mgrwt>
<rscale>  1 0.69077381E+03</rscale>
<asrwt>0</asrwt>
<pdfrwt beam="1">  1       21 0.11260400E+00 0.10440078E+04</pdfrwt>
<pdfrwt beam="2">  1        4 0.11157797E+00 0.10440078E+04</pdfrwt>
<totfact> 0.16045904E+01</totfact>
</mgrwt>
</event>
<event>
 6    1  0.5391662E-005  0.1532218E+04  0.7818608E-02  0.8475364E-01
         21   -1    0    0  501  502  0.00000000000E+00  0.00000000000E+00  0.92122605599E+03  0.92122605599E+03  0.00000000000E+00 0. -1.
          4   -1    0    0  502    0 -0.00000000000E+00 -0.00000000000E+00 -0.19001506305E+04  0.19001506305E+04  0.00000000000E+00 0.  1.
    9000010    2    1    2  501    0 -0.10196412412E+04 -0.20290266371E+03 -0.25197862776E+03  0.15527994628E+04  0.11255466188E+04 0.  0.
        -13    1    3    3    0    0 -0.99763070513E+02  0.35388943133E+03 -0.30282554922E+03  0.47633362706E+03  0.10566000000E+00 0.  1.
          4    1    3    3  501    0 -0.91987817072E+03 -0.55679209505E+03  0.50846921456E+02  0.10764658357E+04  0.00000000000E+00 0.  1.
         13    1    1    2    0    0  0.10196412412E+04  0.20290266371E+03 -0.72694594670E+03  0.12685772236E+04  0.10566000000E+00 0. -1.
<mgrwt>
<rscale>  1 0.13906267E+04</rscale>
<asrwt>0</asrwt>
<pdfrwt beam="1">  1       21 0.14172709E+00 0.15322183E+04</pdfrwt>
<pdfrwt beam="2">  1        4 0.29233086E+00 0.15322183E+04</pdfrwt>
<totfact> 0.19260836E+00</totfact>
</mgrwt>
</event>
<event>
 6    1  0.5391662E-005  0.9919181E+03  0.7818608E-02  0.9253667E-01
         21   -1    0    0  501  502  0.00000000000E+00  0.00000000000E+00  0.10680387268E+04  0.10680387268E+04  0.00000000000E+00 0.  1.
          4   -1    0    0  502    0 -0.00000000000E+00 -0.00000000000E+00 -0.43690439650E+03  0.43690439650E+03  0.00000000000E+00 0.  1.
    9000010    2    1    2  501    0 -0.14511296844E+03 -0.29533037464E+02  0.80434585629E+03  0.12770567091E+04  0.98080151289E+03 0.  0.
        -13    1    3    3    0    0 -0.38328411512E+03 -0.26689715962E+03  0.81643075019E+03  0.94058491788E+03  0.10566000000E+00 0.  1.
          4    1    3    3  501    0  0.23817114668E+03  0.23736412215E+03 -0.12084893902E+02  0.33647179118E+03  0.00000000000E+00 0.  1.
         13    1    1    2    0    0  0.14511296844E+03  0.29533037464E+02 -0.17321152597E+03  0.22788641426E+03  0.10566000000E+00 0. -1.
<mgrwt>
<rscale>  1 0.61657607E+03</rscale>
<asrwt>0</asrwt>
<pdfrwt beam="1">  1       21 0.16431365E+00 0.99191813E+03</pdfrwt>
<pdfrwt beam="2">  1        4 0.67216061E-01 0.99191813E+03</pdfrwt>
<totfact> 0.14482662E+01</totfact>
</mgrwt>
</event>
<event>
 6    1  0.5391662E-005  0.1000438E+04  0.7818608E-02  0.9758535E-01
         21   -1    0    0  501  502  0.00000000000E+00  0.00000000000E+00  0.60611129405E+03  0.60611129405E+03  0.00000000000E+00 0.  1.
          4   -1    0    0  502    0 -0.00000000000E+00 -0.00000000000E+00 -0.43557758754E+03  0.43557758754E+03  0.00000000000E+00 0.  1.
    9000010    2    1    2  501    0  0.18789965295E+02 -0.13421889879E+02  0.15166547423E+03  0.10118689004E+04  0.10001715081E+04 0.  0.
        -13    1    3    3    0    0  0.42573491446E+03 -0.28396442333E+03  0.74307873777E+02  0.51711476713E+03  0.10566000000E+00 0.  1.
          4    1    3    3  501    0 -0.40694494917E+03  0.27054253346E+03  0.77357600454E+02  0.49475413329E+03  0.00000000000E+00 0.  1.
         13    1    1    2    0    0 -0.18789965295E+02  0.13421889879E+02  0.18868232275E+02  0.29819981169E+02  0.10566000000E+00 0. -1.
<mgrwt>
<rscale>  1 0.38994748E+03</rscale>
<asrwt>0</asrwt>
<pdfrwt beam="1">  1       21 0.93247891E-01 0.10004380E+04</pdfrwt>
<pdfrwt beam="2">  1        4 0.67011937E-01 0.10004380E+04</pdfrwt>
<totfact> 0.73116647E+01</totfact>
</mgrwt>
</event>
<event>
 6    1  0.5391662E-005  0.1001979E+04  0.7818608E-02  0.9391946E-01
         21   -1    0    0  501  502  0.00000000000E+00  0.00000000000E+00  0.14975980935E+03  0.14975980935E+03  0.00000000000E+00 0.  1.
          4   -1    0    0  502    0 -0.00000000000E+00 -0.00000000000E+00 -0.20233715704E+04  0.20233715704E+04  0.00000000000E+00 0.  1.
    9000010    2    1    2  501    0 -0.34091980470E+02  0.78179467280E+02 -0.16125810271E+04  0.18985201137E+04  0.99834200591E+03 0.  0.
        -13    1    3    3    0    0 -0.14259363913E+03 -0.41403959853E+03 -0.43332139949E+03  0.61605939770E+03  0.10566000000E+00 0.  1.
          4    1    3    3  501    0  0.10850165866E+03  0.49221906581E+03 -0.11792596276E+04  0.12824607160E+04  0.00000000000E+00 0.  1.
         13    1    1    2    0    0  0.34091980470E+02 -0.78179467280E+02 -0.26103073392E+03  0.27461126607E+03  0.10566000000E+00 0. -1.
<mgrwt>
<rscale>  1 0.54121242E+03</rscale>
<asrwt>0</asrwt>
<pdfrwt beam="1">  1       21 0.23039972E-01 0.10019786E+04</pdfrwt>
<pdfrwt beam="2">  1        4 0.31128792E+00 0.10019786E+04</pdfrwt>
<totfact> 0.12895525E+02</totfact>
</mgrwt>
</event>
<event>
 6    1  0.5391662E-005  0.9565979E+03  0.7818608E-02  0.9278289E-01
         21   -1    0    0  501  502  0.00000000000E+00  0.00000000000E+00  0.50234661103E+03  0.50234661103E+03  0.00000000000E+00 0.  1.
          4   -1    0    0  502    0 -0.00000000000E+00 -0.00000000000E+00 -0.71263031560E+03  0.71263031560E+03  0.00000000000E+00 0.  1.
    9000010    2    1    2  501    0 -0.13024401501E+01  0.15028266819E+03 -0.10962829313E+00  0.95659788294E+03  0.94471843473E+03 0.  0.
        -13    1    3    3    0    0  0.25739250580E+03  0.34523664625E+03  0.29209784034E+03  0.52034642639E+03  0.10566000000E+00 0.  1.
          4    1    3    3  501    0 -0.25869494595E+03 -0.19495397806E+03 -0.29220746863E+03  0.43625145656E+03  0.00000000000E+00 0.  1.
         13    1    1    2    0    0  0.13024401501E+01 -0.15028266819E+03 -0.21017407628E+03  0.25837904368E+03  0.10566000000E+00 0. -1.
<mgrwt>
<rscale>  1 0.60225219E+03</rscale>
<asrwt>0</asrwt>
<pdfrwt beam="1">  1       21 0.77284094E-01 0.95659788E+03</pdfrwt>
<pdfrwt beam="2">  1        4 0.10963543E+00 0.95659788E+03</pdfrwt>
<totfact> 0.43841031E+01</totfact>
</mgrwt>
</event>
<event>
 6    1  0.5391662E-005  0.1031747E+04  0.7818608E-02  0.9171141E-01
         21   -1    0    0  501  502  0.00000000000E+00  0.00000000000E+00  0.17535331634E+03  0.17535331634E+03  0.00000000000E+00 0.  1.
          4   -1    0    0  502    0 -0.00000000000E+00 -0.00000000000E+00 -0.23123447754E+04  0.23123447754E+04  0.00000000000E+00 0.  1.
    9000010    2    1    2  501    0  0.13469890392E+03 -0.12091617790E+03 -0.14656450255E+04  0.17923776176E+04  0.10157448825E+04 0.  0.
        -13    1    3    3    0    0  0.20223764263E+03  0.23904600748E+03 -0.13815696541E+04  0.14166078420E+04  0.10566000000E+00 0.  1.
          4    1    3    3  501    0 -0.67538738711E+02 -0.35996218539E+03 -0.84075371397E+02  0.37576977554E+03  0.00000000000E+00 0.  1.
         13    1    1    2    0    0 -0.13469890392E+03  0.12091617790E+03 -0.67134643359E+03  0.69532047421E+03  0.10566000000E+00 0. -1.
<mgrwt>
<rscale>  1 0.66773701E+03</rscale>
<asrwt>0</asrwt>
<pdfrwt beam="1">  1       21 0.26977433E-01 0.10317472E+04</pdfrwt>
<pdfrwt beam="2">  1        4 0.35574535E+00 0.10317472E+04</pdfrwt>
<totfact> 0.68960609E+01</totfact>
</mgrwt>
</event>
<event>
 6    1  0.5391662E-005  0.9870909E+03  0.7818608E-02  0.8946465E-01
          4   -1    0    0  502    0 -0.00000000000E+00  0.00000000000E+00  0.16638820297E+04  0.16638820297E+04  0.00000000000E+00 0.  1.
         21   -1    0    0  501  502  0.00000000000E+00 -0.00000000000E+00 -0.34746463235E+03  0.34746463235E+03  0.00000000000E+00 0. -1.
    9000010    2    1    2  501    0 -0.56677448557E+02  0.50400796236E+03  0.10394741298E+04  0.14334764830E+04  0.84682465797E+03 0.  0.
        -13    1    3    3    0    0  0.71834698686E+02  0.59583030002E+03  0.11089471312E+04  0.12609273259E+04  0.10566000000E+00 0.  1.
          4    1    3    3  501    0 -0.12851214724E+03 -0.91822337659E+02 -0.69473001346E+02  0.17254915705E+03  0.00000000000E+00 0.  1.
         13    1    1    2    0    0  0.56677448557E+02 -0.50400796236E+03  0.27694326756E+03  0.57787017912E+03  0.10566000000E+00 0. -1.
<mgrwt>
<rscale>  1 0.83571741E+03</rscale>
<asrwt>0</asrwt>
<pdfrwt beam="2">  1       21 0.53456098E-01 0.98709086E+03</pdfrwt>
<pdfrwt beam="1">  1        4 0.25598185E+00 0.98709086E+03</pdfrwt>
<totfact> 0.30403780E+01</totfact>
</mgrwt>
</event>
<event>
 6    1  0.5391662E-005  0.9937676E+03  0.7818608E-02  0.9156339E-01
         21   -1    0    0  501  502  0.00000000000E+00  0.00000000000E+00  0.24080708940E+03  0.24080708940E+03  0.00000000000E+00 0.  1.
          4   -1    0    0  502    0 -0.00000000000E+00 -0.00000000000E+00 -0.18444729906E+04  0.18444729906E+04  0.00000000000E+00 0.  1.
    9000010    2    1    2  501    0  0.15898719304E+03 -0.14416810560E+03 -0.86972829912E+03  0.13206064338E+04  0.97031575715E+03 0.  0.
        -13    1    3    3    0    0  0.35132759065E+03  0.21864510217E+03 -0.67350422753E+02  0.41925272481E+03  0.10566000000E+00 0.  1.
          4    1    3    3  501    0 -0.19234039762E+03 -0.36281320777E+03 -0.80237787637E+03  0.90135370903E+03  0.00000000000E+00 0.  1.
         13    1    1    2    0    0 -0.15898719304E+03  0.14416810560E+03 -0.73393760203E+03  0.76467364611E+03  0.10566000000E+00 0. -1.
<mgrwt>
<rscale>  1 0.67745545E+03</rscale>
<asrwt>0</asrwt>
<pdfrwt beam="1">  1       21 0.37047246E-01 0.99376760E+03</pdfrwt>
<pdfrwt beam="2">  1        4 0.28376506E+00 0.99376760E+03</pdfrwt>
<totfact> 0.57902898E+01</totfact>
</mgrwt>
</event>
<event>
 6    1  0.5391662E-005  0.1149840E+04  0.7818608E-02  0.8955365E-01
          4   -1    0    0  502    0 -0.00000000000E+00  0.00000000000E+00  0.17877525923E+04  0.17877525923E+04  0.00000000000E+00 0.  1.
         21   -1    0    0  501  502  0.00000000000E+00 -0.00000000000E+00 -0.34169741716E+03  0.34169741716E+03  0.00000000000E+00 0.  1.
    9000010    2    1    2  501    0 -0.98733379013E+02 -0.29321430319E+03  0.76404208170E+03  0.13805409505E+04  0.11074340187E+04 0.  0.
        -13    1    3    3    0    0 -0.54585756834E+03 -0.82793054881E+02  0.68548423348E+03  0.88017260828E+03  0.10566000000E+00 0.  1.
          4    1    3    3  501    0  0.44712418933E+03 -0.21042124831E+03  0.78557848216E+02  0.50036834226E+03  0.00000000000E+00 0.  1.
         13    1    1    2    0    0  0.98733379013E+02  0.29321430319E+03  0.68201309345E+03  0.74890905891E+03  0.10566000000E+00 0. -1.
<mgrwt>
<rscale>  1 0.82814269E+03</rscale>
<asrwt>0</asrwt>
<pdfrwt beam="2">  1       21 0.52568835E-01 0.11498404E+04</pdfrwt>
<pdfrwt beam="1">  1        4 0.27503885E+00 0.11498404E+04</pdfrwt>
<totfact> 0.28049647E+01</totfact>
</mgrwt>
</event>
<event>
 6    1  0.5391662E-005  0.1055026E+04  0.7818608E-02  0.9000297E-01
         21   -1    0    0  501  502  0.00000000000E+00  0.00000000000E+00  0.10139638496E+04  0.10139638496E+04  0.00000000000E+00 0.  1.
          4   -1    0    0  502    0 -0.00000000000E+00 -0.00000000000E+00 -0.49453996832E+03  0.49453996832E+03  0.00000000000E+00 0.  1.
    9000010    2    1    2  501    0  0.27212430163E+03 -0.19302853046E+03  0.51693163628E+03  0.11748604881E+04  0.10008832103E+04 0.  0.
        -13    1    3    3    0    0  0.48468326839E+03 -0.48389492271E+03  0.41356756900E+03  0.80006894214E+03  0.10566000000E+00 0.  1.
          4    1    3    3  501    0 -0.21255896676E+03  0.29086639225E+03  0.10336406727E+03  0.37479154592E+03  0.00000000000E+00 0.  1.
         13    1    1    2    0    0 -0.27212430163E+03  0.19302853046E+03  0.24922449956E+01  0.33364332986E+03  0.10566000000E+00 0. -1.
<mgrwt>
<rscale>  1 0.79116088E+03</rscale>
<asrwt>0</asrwt>
<pdfrwt beam="1">  1       21 0.15599444E+00 0.10550255E+04</pdfrwt>
<pdfrwt beam="2">  1        4 0.76083072E-01 0.10550255E+04</pdfrwt>
<totfact> 0.13116545E+01</totfact>
</mgrwt>
</event>
<event>
 6    1  0.5391662E-005  0.9040094E+03  0.7818608E-02  0.9232774E-01
          4   -1    0    0  502    0 -0.00000000000E+00  0.00000000000E+00  0.10102076174E+04  0.10102076174E+04  0.00000000000E+00 0.  1.
         21   -1    0    0  501  502  0.00000000000E+00 -0.00000000000E+00 -0.34776576832E+03  0.34776576832E+03  0.00000000000E+00 0.  1.
    9000010    2    1    2  501    0  0.21166599083E+03  0.11122948824E+02  0.32731000694E+03  0.96143893016E+03  0.87880985663E+03 0.  0.
        -13    1    3    3    0    0 -0.13697114866E+03  0.24386222400E+03 -0.15713409602E+03  0.32081305328E+03  0.10566000000E+00 0.  1.
          4    1    3    3  501    0  0.34863713949E+03 -0.23273927517E+03  0.48444410296E+03  0.64062587688E+03  0.00000000000E+00 0.  1.
         13    1    1    2    0    0 -0.21166599083E+03 -0.11122948824E+02  0.33513184211E+03  0.39653445553E+03  0.10566000000E+00 0. -1.
<mgrwt>
<rscale>  1 0.62906018E+03</rscale>
<asrwt>0</asrwt>
<pdfrwt beam="2">  1       21 0.53502427E-01 0.90400939E+03</pdfrwt>
<pdfrwt beam="1">  1        4 0.15541655E+00 0.90400939E+03</pdfrwt>
<totfact> 0.59300351E+01</totfact>
</mgrwt>
</event>
<event>
 6    1  0.7572978E-005  0.7498862E+03  0.7818608E-02  0.9325597E-01
         21   -1    0    0  501  502  0.00000000000E+00  0.00000000000E+00  0.15297761459E+03  0.15297761459E+03  0.00000000000E+00 0.  1.
          4   -1    0    0  502    0 -0.00000000000E+00 -0.00000000000E+00 -0.20182672978E+04  0.20182672978E+04  0.00000000000E+00 0.  1.
    9000010    2    1    2  501    0 -0.71775367884E+01  0.26069232196E+03 -0.90059801053E+03  0.11719241239E+04  0.70307707393E+03 0.  0.
        -13    1    3    3    0    0 -0.27782446117E+03  0.12466397549E+03 -0.10746761997E+03  0.32291924457E+03  0.10566000000E+00 0.  1.
          4    1    3    3  501    0  0.27064692438E+03  0.13602834647E+03 -0.79313039057E+03  0.84900487935E+03  0.00000000000E+00 0.  1.
         13    1    1    2    0    0  0.71775367884E+01 -0.26069232196E+03 -0.96469167271E+03  0.99932078850E+03  0.10566000000E+00 0. -1.
<mgrwt>
<rscale>  1 0.57586375E+03</rscale>
<asrwt>0</asrwt>
<pdfrwt beam="1">  1       21 0.23535018E-01 0.74988624E+03</pdfrwt>
<pdfrwt beam="2">  1        4 0.31050266E+00 0.74988624E+03</pdfrwt>
<totfact> 0.12783197E+02</totfact>
</mgrwt>
</event>
<event>
 6    1  0.5391662E-005  0.1380880E+04  0.7818608E-02  0.8569390E-01
          4   -1    0    0  502    0 -0.00000000000E+00  0.00000000000E+00  0.22375019624E+04  0.22375019624E+04  0.00000000000E+00 0.  1.
         21   -1    0    0  501  502  0.00000000000E+00 -0.00000000000E+00 -0.13299261305E+04  0.13299261305E+04  0.00000000000E+00 0.  1.
    9000010    2    1    2  501    0 -0.87973670340E+03 -0.29861099347E+03 -0.81992412778E+03  0.16059589203E+04  0.10216277628E+04 0.  0.
        -13    1    3    3    0    0 -0.73159321300E+03 -0.66129304640E+03 -0.63328808486E+03  0.11720029574E+04  0.10566000000E+00 0.  1.
          4    1    3    3  501    0 -0.14814349040E+03  0.36268205293E+03 -0.18663604293E+03  0.43395596296E+03  0.00000000000E+00 0.  1.
         13    1    1    2    0    0  0.87973670340E+03  0.29861099347E+03  0.17274999597E+04  0.19614691725E+04  0.10566000000E+00 0. -1.
<mgrwt>
<rscale>  1 0.12506184E+04</rscale>
<asrwt>0</asrwt>
<pdfrwt beam="2">  1       21 0.20460402E+00 0.13808796E+04</pdfrwt>
<pdfrwt beam="1">  1        4 0.34423107E+00 0.13808796E+04</pdfrwt>
<totfact> 0.41262633E-01</totfact>
</mgrwt>
</event>
<event>
 6    1  0.5391662E-005  0.1040220E+04  0.7818608E-02  0.9037608E-01
         21   -1    0    0  501  502  0.00000000000E+00  0.00000000000E+00  0.49417166174E+03  0.49417166174E+03  0.00000000000E+00 0.  1.
          4   -1    0    0  502    0 -0.00000000000E+00 -0.00000000000E+00 -0.98050318611E+03  0.98050318611E+03  0.00000000000E+00 0.  1.
    9000010    2    1    2  501    0 -0.20963369369E+03 -0.21390654474E+03 -0.53742053168E+03  0.11708453015E+04  0.99617046571E+03 0.  0.
        -13    1    3    3    0    0 -0.38396516287E+03  0.11286350805E+03 -0.66751579140E+03  0.77829606236E+03  0.10566000000E+00 0.  1.
          4    1    3    3  501    0  0.17433146918E+03 -0.32677005279E+03  0.13009525972E+03  0.39254923914E+03  0.00000000000E+00 0.  1.
         13    1    1    2    0    0  0.20963369369E+03  0.21390654474E+03  0.51089007309E+02  0.30382954636E+03  0.10566000000E+00 0. -1.
<mgrwt>
<rscale>  1 0.76198153E+03</rscale>
<asrwt>0</asrwt>
<pdfrwt beam="1">  1       21 0.76026411E-01 0.10402201E+04</pdfrwt>
<pdfrwt beam="2">  1        4 0.15084664E+00 0.10402201E+04</pdfrwt>
<totfact> 0.27104051E+01</totfact>
</mgrwt>
</event>
<event>
 6    1  0.5391662E-005  0.1158418E+04  0.7818608E-02  0.8854525E-01
          4   -1    0    0  502    0 -0.00000000000E+00  0.00000000000E+00  0.33144339911E+04  0.33144339911E+04  0.00000000000E+00 0.  1.
         21   -1    0    0  501  502  0.00000000000E+00 -0.00000000000E+00 -0.21403486846E+03  0.21403486846E+03  0.00000000000E+00 0.  1.
    9000010    2    1    2  501    0  0.36995318370E+03  0.27187248494E+03  0.17199976527E+04  0.20737220652E+04  0.10635559564E+04 0.  0.
        -13    1    3    3    0    0  0.46365475085E+03  0.47810503163E+03  0.17229394548E+04  0.18471817792E+04  0.10566000000E+00 0.  1.
          4    1    3    3  501    0 -0.93701567150E+02 -0.20623254668E+03 -0.29418021325E+01  0.22654028604E+03  0.00000000000E+00 0.  1.
         13    1    1    2    0    0 -0.36995318370E+03 -0.27187248494E+03  0.13804014700E+04  0.14547467943E+04  0.10566000000E+00 0. -1.
<mgrwt>
<rscale>  1 0.91913125E+03</rscale>
<asrwt>0</asrwt>
<pdfrwt beam="2">  1       21 0.32928444E-01 0.11584176E+04</pdfrwt>
<pdfrwt beam="1">  1        4 0.50991288E+00 0.11584176E+04</pdfrwt>
<totfact> 0.98186138E+00</totfact>
</mgrwt>
</event>
<event>
 6    1  0.5391662E-005  0.1044489E+04  0.7818608E-02  0.9056480E-01
          4   -1    0    0  502    0 -0.00000000000E+00  0.00000000000E+00  0.45532448919E+04  0.45532448919E+04  0.00000000000E+00 0.  1.
         21   -1    0    0  501  502  0.00000000000E+00 -0.00000000000E+00 -0.96344574789E+02  0.96344574789E+02  0.00000000000E+00 0.  1.
    9000010    2    1    2  501    0  0.15935803277E+03  0.22328293452E+03  0.33407700428E+04  0.35002431081E+04  0.10078229437E+04 0.  0.
        -13    1    3    3    0    0  0.43469514448E+03 -0.70272162738E+02  0.68618342063E+03  0.81531941189E+03  0.10566000000E+00 0.  1.
          4    1    3    3  501    0 -0.27533711171E+03  0.29355509726E+03  0.26545866221E+04  0.26849236962E+04  0.00000000000E+00 0.  1.
         13    1    1    2    0    0 -0.15935803277E+03 -0.22328293452E+03  0.11161302744E+04  0.11493463586E+04  0.10566000000E+00 0. -1.
<mgrwt>
<rscale>  1 0.74772416E+03</rscale>
<asrwt>0</asrwt>
<pdfrwt beam="2">  1       21 0.14822246E-01 0.10444890E+04</pdfrwt>
<pdfrwt beam="1">  1        4 0.70049904E+00 0.10444890E+04</pdfrwt>
<totfact> 0.50657185E+00</totfact>
</mgrwt>
</event>
<event>
 6    1  0.5391662E-005  0.1311995E+04  0.7818608E-02  0.8622605E-01
          4   -1    0    0  502    0 -0.00000000000E+00  0.00000000000E+00  0.11833175244E+04  0.11833175244E+04  0.00000000000E+00 0.  1.
         21   -1    0    0  501  502  0.00000000000E+00 -0.00000000000E+00 -0.10642538607E+04  0.10642538607E+04  0.00000000000E+00 0. -1.
    9000010    2    1    2  501    0  0.54289988251E+03 -0.66097513916E+03  0.35708121301E+03  0.13597196058E+04  0.99483767359E+03 0.  0.
        -13    1    3    3    0    0  0.16283515839E+03 -0.29462947403E+03  0.66732199375E+03  0.74742255136E+03  0.10566000000E+00 0.  1.
          4    1    3    3  501    0  0.38006472412E+03 -0.36634566512E+03 -0.31024078074E+03  0.61229705447E+03  0.00000000000E+00 0.  1.
         13    1    1    2    0    0 -0.54289988251E+03  0.66097513916E+03 -0.23801754937E+03  0.88785177928E+03  0.10566000000E+00 0. -1.
<mgrwt>
<rscale>  1 0.11789231E+04</rscale>
<asrwt>0</asrwt>
<pdfrwt beam="2">  1       21 0.16373136E+00 0.13119948E+04</pdfrwt>
<pdfrwt beam="1">  1        4 0.18204885E+00 0.13119948E+04</pdfrwt>
<totfact> 0.24407728E+00</totfact>
</mgrwt>
</event>
<event>
 6    1  0.5391662E-005  0.1075802E+04  0.7818608E-02  0.8947985E-01
         21   -1    0    0  501  502  0.00000000000E+00  0.00000000000E+00  0.26547806179E+03  0.26547806179E+03  0.00000000000E+00 0.  1.
          4   -1    0    0  502    0 -0.00000000000E+00 -0.00000000000E+00 -0.29629877502E+04  0.29629877502E+04  0.00000000000E+00 0.  1.
    9000010    2    1    2  501    0  0.14592023289E+02  0.38907344058E+03 -0.94085645697E+03  0.14291821612E+04  0.10028757191E+04 0.  0.
        -13    1    3    3    0    0 -0.14518590699E+03  0.35389198108E+03  0.83765777085E+02  0.39158038566E+03  0.10566000000E+00 0.  1.
          4    1    3    3  501    0  0.15977793028E+03  0.35181459508E+02 -0.10246222341E+04  0.10376017755E+04  0.00000000000E+00 0.  1.
         13    1    1    2    0    0 -0.14592023289E+02 -0.38907344058E+03 -0.17566532314E+04  0.17992836507E+04  0.10566000000E+00 0. -1.
<mgrwt>
<rscale>  1 0.83441785E+03</rscale>
<asrwt>0</asrwt>
<pdfrwt beam="1">  1       21 0.40842779E-01 0.10758024E+04</pdfrwt>
<pdfrwt beam="2">  1        4 0.45584426E+00 0.10758024E+04</pdfrwt>
<totfact> 0.11305414E+01</totfact>
</mgrwt>
</event>
<event>
 6    1  0.5391662E-005  0.1022557E+04  0.7818608E-02  0.9223379E-01
          4   -1    0    0  502    0 -0.00000000000E+00  0.00000000000E+00  0.22772235118E+04  0.22772235118E+04  0.00000000000E+00 0.  1.
         21   -1    0    0  501  502  0.00000000000E+00 -0.00000000000E+00 -0.15817070109E+03  0.15817070109E+03  0.00000000000E+00 0.  1.
    9000010    2    1    2  501    0  0.54879609041E+02 -0.14158714969E+03  0.16383029719E+04  0.19312324223E+04  0.10112187442E+04 0.  0.
        -13    1    3    3    0    0  0.30081626751E+03 -0.44591922617E+03  0.52691390968E+03  0.75297587109E+03  0.10566000000E+00 0.  1.
          4    1    3    3  501    0 -0.24593665847E+03  0.30433207648E+03  0.11113890622E+04  0.11782565512E+04  0.00000000000E+00 0.  1.
         13    1    1    2    0    0 -0.54879609041E+02  0.14158714969E+03  0.48074983883E+03  0.50416179064E+03  0.10566000000E+00 0. -1.
<mgrwt>
<rscale>  1 0.63477510E+03</rscale>
<asrwt>0</asrwt>
<pdfrwt beam="2">  1       21 0.24333956E-01 0.10225566E+04</pdfrwt>
<pdfrwt beam="1">  1        4 0.35034205E+00 0.10225566E+04</pdfrwt>
<totfact> 0.88704251E+01</totfact>
</mgrwt>
</event>
<event>
 6    1  0.5391662E-005  0.1022345E+04  0.7818608E-02  0.9106304E-01
          4   -1    0    0  502    0 -0.00000000000E+00  0.00000000000E+00  0.29025383171E+03  0.29025383171E+03  0.00000000000E+00 0.  1.
         21   -1    0    0  501  502  0.00000000000E+00 -0.00000000000E+00 -0.14633966196E+04  0.14633966196E+04  0.00000000000E+00 0.  1.
    9000010    2    1    2  501    0  0.29205675535E+02  0.23819671978E+03 -0.11023394110E+04  0.15034429811E+04  0.99377963933E+03 0.  0.
        -13    1    3    3    0    0  0.45638542777E+03  0.19991505957E+00 -0.82089102852E+03  0.93922829520E+03  0.10566000000E+00 0.  1.
          4    1    3    3  501    0 -0.42717975223E+03  0.23799680472E+03 -0.28144838251E+03  0.56421468591E+03  0.00000000000E+00 0.  1.
         13    1    1    2    0    0 -0.29205675535E+02 -0.23819671978E+03 -0.70803376842E+02  0.25020747018E+03  0.10566000000E+00 0. -1.
<mgrwt>
<rscale>  1 0.71160995E+03</rscale>
<asrwt>0</asrwt>
<pdfrwt beam="2">  1       21 0.22513794E+00 0.10223447E+04</pdfrwt>
<pdfrwt beam="1">  1        4 0.44654436E-01 0.10223447E+04</pdfrwt>
<totfact> 0.11273851E+01</totfact>
</mgrwt>
</event>
<event>
 6    1  0.5391662E-005  0.1031086E+04  0.7818608E-02  0.9093404E-01
         21   -1    0    0  501  502  0.00000000000E+00  0.00000000000E+00  0.25301449739E+03  0.25301449739E+03  0.00000000000E+00 0.  1.
          4   -1    0    0  502    0 -0.00000000000E+00 -0.00000000000E+00 -0.18125960329E+04  0.18125960329E+04  0.00000000000E+00 0.  1.
    9000010    2    1    2  501    0 -0.21566053186E+03  0.11873381393E+03 -0.14859646678E+04  0.18086540399E+04  0.10012648294E+04 0.  0.
        -13    1    3    3    0    0 -0.14970326922E+03  0.27521864527E+03 -0.28371989266E+00  0.31329931883E+03  0.10566000000E+00 0.  1.
          4    1    3    3  501    0 -0.65957262648E+02 -0.15648483134E+03 -0.14856809479E+04  0.14953547211E+04  0.00000000000E+00 0.  1.
         13    1    1    2    0    0  0.21566053186E+03 -0.11873381393E+03 -0.73616867751E+02  0.25695649039E+03  0.10566000000E+00 0. -1.
<mgrwt>
<rscale>  1 0.72075350E+03</rscale>
<asrwt>0</asrwt>
<pdfrwt beam="1">  1       21 0.38925306E-01 0.10310860E+04</pdfrwt>
<pdfrwt beam="2">  1        4 0.27886094E+00 0.10310860E+04</pdfrwt>
<totfact> 0.53472913E+01</totfact>
</mgrwt>
</event>
<event>
 6    1  0.5391662E-005  0.1082612E+04  0.7818608E-02  0.9056371E-01
          4   -1    0    0  502    0 -0.00000000000E+00  0.00000000000E+00  0.20414138684E+04  0.20414138684E+04  0.00000000000E+00 0.  1.
         21   -1    0    0  501  502  0.00000000000E+00 -0.00000000000E+00 -0.21958061410E+03  0.21958061410E+03  0.00000000000E+00 0.  1.
    9000010    2    1    2  501    0 -0.21227853069E+03  0.12520987321E+03  0.13679481198E+04  0.17445146539E+04  0.10541867159E+04 0.  0.
        -13    1    3    3    0    0  0.26582202345E+03 -0.30824591492E+03  0.73731309770E+03  0.84220395832E+03  0.10566000000E+00 0.  1.
          4    1    3    3  501    0 -0.47810055414E+03  0.43345578813E+03  0.63063502213E+03  0.90231069553E+03  0.00000000000E+00 0.  1.
         13    1    1    2    0    0  0.21227853069E+03 -0.12520987321E+03  0.45388513448E+03  0.51647982865E+03  0.10566000000E+00 0. -1.
<mgrwt>
<rscale>  1 0.74780573E+03</rscale>
<asrwt>0</asrwt>
<pdfrwt beam="2">  1       21 0.33781634E-01 0.10826123E+04</pdfrwt>
<pdfrwt beam="1">  1        4 0.31406366E+00 0.10826123E+04</pdfrwt>
<totfact> 0.57714994E+01</totfact>
</mgrwt>
</event>
<event>
 6    1  0.5391662E-005  0.1006713E+04  0.7818608E-02  0.9481735E-01
          4   -1    0    0  502    0 -0.00000000000E+00  0.00000000000E+00  0.33777518333E+03  0.33777518333E+03  0.00000000000E+00 0.  1.
         21   -1    0    0  501  502  0.00000000000E+00 -0.00000000000E+00 -0.85947654427E+03  0.85947654427E+03  0.00000000000E+00 0.  1.
    9000010    2    1    2  501    0  0.59723056512E+02 -0.91676710945E+01 -0.44785847540E+03  0.11018385598E+04  0.10048980587E+04 0.  0.
        -13    1    3    3    0    0 -0.23021416366E+02 -0.46794100213E+03 -0.19768010574E+02  0.46892382377E+03  0.10566000000E+00 0.  1.
          4    1    3    3  501    0  0.82744472878E+02  0.45877333104E+03 -0.42809046482E+03  0.63291473607E+03  0.00000000000E+00 0.  1.
         13    1    1    2    0    0 -0.59723056512E+02  0.91676710945E+01 -0.73842885544E+02  0.95413167760E+02  0.10566000000E+00 0. -1.
<mgrwt>
<rscale>  1 0.49828671E+03</rscale>
<asrwt>0</asrwt>
<pdfrwt beam="2">  1       21 0.13222716E+00 0.10067130E+04</pdfrwt>
<pdfrwt beam="1">  1        4 0.51965413E-01 0.10067130E+04</pdfrwt>
<totfact> 0.48452033E+01</totfact>
</mgrwt>
</event>
<event>
 6    1  0.5391662E-005  0.1000956E+04  0.7818608E-02  0.9321048E-01
         21   -1    0    0  501  502  0.00000000000E+00  0.00000000000E+00  0.94687464934E+03  0.94687464934E+03  0.00000000000E+00 0.  1.
          4   -1    0    0  502    0 -0.00000000000E+00 -0.00000000000E+00 -0.76051893418E+03  0.76051893418E+03  0.00000000000E+00 0.  1.
    9000010    2    1    2  501    0 -0.27725739448E+02  0.10805331197E+03  0.67427780230E+03  0.12068816365E+04  0.99472030989E+03 0.  0.
        -13    1    3    3    0    0  0.68074620375E+02  0.98583501163E+02  0.92790094106E+03  0.93560302919E+03  0.10566000000E+00 0.  1.
          4    1    3    3  501    0 -0.95800359823E+02  0.94698108019E+01 -0.25362313875E+03  0.27127860728E+03  0.00000000000E+00 0.  1.
         13    1    1    2    0    0  0.27725739448E+02 -0.10805331197E+03 -0.48792208714E+03  0.50051194705E+03  0.10566000000E+00 0. -1.
<mgrwt>
<rscale>  1 0.57833874E+03</rscale>
<asrwt>0</asrwt>
<pdfrwt beam="1">  1       21 0.14567302E+00 0.10009559E+04</pdfrwt>
<pdfrwt beam="2">  1        4 0.11700291E+00 0.10009559E+04</pdfrwt>
<totfact> 0.70739778E+00</totfact>
</mgrwt>
</event>
<event>
 6    1  0.5391662E-005  0.1037759E+04  0.7818608E-02  0.9025505E-01
          4   -1    0    0  502    0 -0.00000000000E+00  0.00000000000E+00  0.88092439499E+03  0.88092439499E+03  0.00000000000E+00 0.  1.
         21   -1    0    0  501  502  0.00000000000E+00 -0.00000000000E+00 -0.52094625829E+03  0.52094625829E+03  0.00000000000E+00 0.  1.
    9000010    2    1    2  501    0 -0.25538475632E+03  0.18723465526E+03  0.26067197984E+03  0.10699973132E+04  0.98826422546E+03 0.  0.
        -13    1    3    3    0    0 -0.36278003033E+03 -0.27928329732E+03  0.35836990283E+03  0.58140993197E+03  0.10566000000E+00 0.  1.
          4    1    3    3  501    0  0.10739527401E+03  0.46651795258E+03 -0.97697922991E+02  0.48858738125E+03  0.00000000000E+00 0.  1.
         13    1    1    2    0    0  0.25538475632E+03 -0.18723465526E+03  0.99306156858E+02  0.33187334007E+03  0.10566000000E+00 0. -1.
<mgrwt>
<rscale>  1 0.77129993E+03</rscale>
<asrwt>0</asrwt>
<pdfrwt beam="2">  1       21 0.80145578E-01 0.10377593E+04</pdfrwt>
<pdfrwt beam="1">  1        4 0.13552683E+00 0.10377593E+04</pdfrwt>
<totfact> 0.28018279E+01</totfact>
</mgrwt>
</event>
<event>
 6    1  0.5391662E-005  0.1277079E+04  0.7818608E-02  0.8665554E-01
          4   -1    0    0  502    0 -0.00000000000E+00  0.00000000000E+00  0.36829481449E+04  0.36829481449E+04  0.00000000000E+00 0.  1.
         21   -1    0    0  501  502  0.00000000000E+00 -0.00000000000E+00 -0.30326981613E+03  0.30326981613E+03  0.00000000000E+00 0. -1.
    9000010    2    1    2  501    0  0.68752341147E+03  0.34259323696E+03  0.25718927138E+04  0.28715089504E+04  0.10202318138E+04 0.  0.
        -13    1    3    3    0    0  0.40736723321E+03  0.34382059868E+02  0.18531075774E+03  0.44885440494E+03  0.10566000000E+00 0.  1.
          4    1    3    3  501    0  0.28015617826E+03  0.30821117709E+03  0.23865819560E+04  0.24226545455E+04  0.00000000000E+00 0.  1.
         13    1    1    2    0    0 -0.68752341147E+03 -0.34259323696E+03  0.80778561495E+03  0.11147090106E+04  0.10566000000E+00 0. -1.
<mgrwt>
<rscale>  1 0.11246706E+04</rscale>
<asrwt>0</asrwt>
<pdfrwt beam="2">  1       21 0.46656898E-01 0.12770793E+04</pdfrwt>
<pdfrwt beam="1">  1        4 0.56660737E+00 0.12770793E+04</pdfrwt>
<totfact> 0.23846830E+00</totfact>
</mgrwt>
</event>
<event>
 6    1  0.5391662E-005  0.1028119E+04  0.7818608E-02  0.9100393E-01
         21   -1    0    0  501  502  0.00000000000E+00  0.00000000000E+00  0.21003968913E+03  0.21003968913E+03  0.00000000000E+00 0.  1.
          4   -1    0    0  502    0 -0.00000000000E+00 -0.00000000000E+00 -0.21199120057E+04  0.21199120057E+04  0.00000000000E+00 0.  1.
    9000010    2    1    2  501    0  0.14821007437E+03  0.19072627585E+03 -0.12004707667E+04  0.15805563996E+04  0.99934264996E+03 0.  0.
        -13    1    3    3    0    0 -0.51936726469E+02 -0.37261668728E+03 -0.23071233062E+03  0.44132619440E+03  0.10566000000E+00 0.  1.
          4    1    3    3  501    0  0.20014680084E+03  0.56334296313E+03 -0.96975843608E+03  0.11392302052E+04  0.00000000000E+00 0.  1.
         13    1    1    2    0    0 -0.14821007437E+03 -0.19072627585E+03 -0.70940154989E+03  0.74939529528E+03  0.10566000000E+00 0. -1.
<mgrwt>
<rscale>  1 0.71578216E+03</rscale>
<asrwt>0</asrwt>
<pdfrwt beam="1">  1       21 0.32313798E-01 0.10281189E+04</pdfrwt>
<pdfrwt beam="2">  1        4 0.32614031E+00 0.10281189E+04</pdfrwt>
<totfact> 0.58895256E+01</totfact>
</mgrwt>
</event>
<event>
 6    1  0.5391662E-005  0.1021756E+04  0.7818608E-02  0.9176715E-01
          4   -1    0    0  502    0 -0.00000000000E+00  0.00000000000E+00  0.42816272157E+03  0.42816272157E+03  0.00000000000E+00 0.  1.
         21   -1    0    0  501  502  0.00000000000E+00 -0.00000000000E+00 -0.87200880309E+03  0.87200880309E+03  0.00000000000E+00 0. -1.
    9000010    2    1    2  501    0 -0.12675332364E+03 -0.13111776904E+03 -0.29144957774E+03  0.10625100428E+04  0.10053489247E+04 0.  0.
        -13    1    3    3    0    0 -0.40836549649E+02 -0.69522819839E+02  0.37711550303E+03  0.38563863922E+03  0.10566000000E+00 0.  1.
          4    1    3    3  501    0 -0.85916773993E+02 -0.61594949203E+02 -0.66856508077E+03  0.67687140362E+03  0.00000000000E+00 0.  1.
         13    1    1    2    0    0  0.12675332364E+03  0.13111776904E+03 -0.15239650378E+03  0.23766148182E+03  0.10566000000E+00 0. -1.
<mgrwt>
<rscale>  1 0.66412196E+03</rscale>
<asrwt>0</asrwt>
<pdfrwt beam="2">  1       21 0.13415520E+00 0.10217557E+04</pdfrwt>
<pdfrwt beam="1">  1        4 0.65871189E-01 0.10217557E+04</pdfrwt>
<totfact> 0.28081468E+01</totfact>
</mgrwt>
</event>
<event>
 6    1  0.5391662E-005  0.1000791E+04  0.7818608E-02  0.9127949E-01
         21   -1    0    0  501  502  0.00000000000E+00  0.00000000000E+00  0.24682415110E+03  0.24682415110E+03  0.00000000000E+00 0.  1.
          4   -1    0    0  502    0 -0.00000000000E+00 -0.00000000000E+00 -0.15772630368E+04  0.15772630368E+04  0.00000000000E+00 0.  1.
    9000010    2    1    2  501    0 -0.17719748677E+03 -0.15418709722E+03 -0.96903265980E+03  0.13930569319E+04  0.97283642490E+03 0.  0.
        -13    1    3    3    0    0 -0.19445014407E+03 -0.55666268960E+03 -0.48626450237E+03  0.76428881056E+03  0.10566000000E+00 0.  1.
          4    1    3    3  501    0  0.17252657297E+02  0.40247559238E+03 -0.48276815743E+03  0.62876812139E+03  0.00000000000E+00 0.  1.
         13    1    1    2    0    0  0.17719748677E+03  0.15418709722E+03 -0.36140622590E+03  0.43103025596E+03  0.10566000000E+00 0. -1.
<mgrwt>
<rscale>  1 0.69658338E+03</rscale>
<asrwt>0</asrwt>
<pdfrwt beam="1">  1       21 0.37972947E-01 0.10007913E+04</pdfrwt>
<pdfrwt beam="2">  1        4 0.24265585E+00 0.10007913E+04</pdfrwt>
<totfact> 0.68806774E+01</totfact>
</mgrwt>
</event>
<event>
 6    1  0.5391662E-005  0.1099450E+04  0.7818608E-02  0.8878072E-01
         21   -1    0    0  501  502  0.00000000000E+00  0.00000000000E+00  0.36730445339E+03  0.36730445339E+03  0.00000000000E+00 0.  1.
          4   -1    0    0  502    0 -0.00000000000E+00 -0.00000000000E+00 -0.25822193823E+04  0.25822193823E+04  0.00000000000E+00 0.  1.
    9000010    2    1    2  501    0 -0.38897686247E+03  0.29265432329E+03 -0.57873031994E+03  0.12424650674E+04  0.98582001812E+03 0.  0.
        -13    1    3    3    0    0 -0.20973372867E+02 -0.35116620676E+03 -0.12631818477E+03  0.37378320201E+03  0.10566000000E+00 0.  1.
          4    1    3    3  501    0 -0.36800348960E+03  0.64382053005E+03 -0.45241213517E+03  0.86868186543E+03  0.00000000000E+00 0.  1.
         13    1    1    2    0    0  0.38897686247E+03 -0.29265432329E+03 -0.16361846090E+04  0.17070587682E+04  0.10566000000E+00 0. -1.
<mgrwt>
<rscale>  1 0.89683727E+03</rscale>
<asrwt>0</asrwt>
<pdfrwt beam="1">  1       21 0.56508380E-01 0.10994502E+04</pdfrwt>
<pdfrwt beam="2">  1        4 0.39726451E+00 0.10994502E+04</pdfrwt>
<totfact> 0.98599896E+00</totfact>
</mgrwt>
</event>
<event>
 6    1  0.5391662E-005  0.1009933E+04  0.7818608E-02  0.9222023E-01
          4   -1    0    0  502    0 -0.00000000000E+00  0.00000000000E+00  0.27939744122E+04  0.27939744122E+04  0.00000000000E+00 0.  1.
         21   -1    0    0  501  502  0.00000000000E+00 -0.00000000000E+00 -0.14395245564E+03  0.14395245564E+03  0.00000000000E+00 0.  1.
    9000010    2    1    2  501    0 -0.14966124343E+03  0.52015412560E+02  0.17206384907E+04  0.19951343516E+04  0.99742677641E+03 0.  0.
        -13    1    3    3    0    0 -0.29062588731E+02  0.28882772919E+03  0.39313327019E+02  0.29293623890E+03  0.10566000000E+00 0.  1.
          4    1    3    3  501    0 -0.12059865470E+03 -0.23681231663E+03  0.16813251637E+04  0.17021981127E+04  0.00000000000E+00 0.  1.
         13    1    1    2    0    0  0.14966124343E+03 -0.52015412560E+02  0.92938346588E+03  0.94279251627E+03  0.10566000000E+00 0. -1.
<mgrwt>
<rscale>  1 0.63560521E+03</rscale>
<asrwt>0</asrwt>
<pdfrwt beam="2">  1       21 0.22146534E-01 0.10099328E+04</pdfrwt>
<pdfrwt beam="1">  1        4 0.42984218E+00 0.10099328E+04</pdfrwt>
<totfact> 0.52812499E+01</totfact>
</mgrwt>
</event>
<event>
 6    1  0.5391662E-005  0.1162023E+04  0.7818608E-02  0.9137817E-01
          4   -1    0    0  502    0 -0.00000000000E+00  0.00000000000E+00  0.90770490231E+03  0.90770490231E+03  0.00000000000E+00 0.  1.
         21   -1    0    0  501  502  0.00000000000E+00 -0.00000000000E+00 -0.61963330502E+03  0.61963330502E+03  0.00000000000E+00 0.  1.
    9000010    2    1    2  501    0 -0.55855779094E+01 -0.14423720480E+03 -0.46504476443E+02  0.11629527930E+04  0.11530225333E+04 0.  0.
        -13    1    3    3    0    0 -0.76526183491E+02 -0.64699897667E+03  0.13706549357E+02  0.65165313874E+03  0.10566000000E+00 0.  1.
          4    1    3    3  501    0  0.70940605581E+02  0.50276177187E+03 -0.60211025800E+02  0.51129965422E+03  0.00000000000E+00 0.  1.
         13    1    1    2    0    0  0.55855779094E+01  0.14423720480E+03  0.33457607373E+03  0.36438541437E+03  0.10566000000E+00 0. -1.
<mgrwt>
<rscale>  1 0.68986106E+03</rscale>
<asrwt>0</asrwt>
<pdfrwt beam="2">  1       21 0.95328201E-01 0.11620226E+04</pdfrwt>
<pdfrwt beam="1">  1        4 0.13964691E+00 0.11620226E+04</pdfrwt>
<totfact> 0.17093533E+01</totfact>
</mgrwt>
</event>
<event>
 6    1  0.5391662E-005  0.1032989E+04  0.7818608E-02  0.9082135E-01
         21   -1    0    0  501  502  0.00000000000E+00  0.00000000000E+00  0.16800893435E+04  0.16800893435E+04  0.00000000000E+00 0.  1.
          4   -1    0    0  502    0 -0.00000000000E+00 -0.00000000000E+00 -0.25345209761E+03  0.25345209761E+03  0.00000000000E+00 0.  1.
    9000010    2    1    2  501    0  0.18655766545E+03 -0.17534427321E+03  0.12543259362E+04  0.16249307231E+04  0.10007581745E+04 0.  0.
        -13    1    3    3    0    0  0.47657547220E+02  0.36106097218E+03  0.15891872791E+03  0.39735555953E+03  0.10566000000E+00 0.  1.
          4    1    3    3  501    0  0.13890011823E+03 -0.53640524540E+03  0.10954072083E+04  0.12275751635E+04  0.00000000000E+00 0.  1.
         13    1    1    2    0    0 -0.18655766545E+03  0.17534427321E+03  0.17231130968E+03  0.30861071805E+03  0.10566000000E+00 0. -1.
<mgrwt>
<rscale>  1 0.72885789E+03</rscale>
<asrwt>0</asrwt>
<pdfrwt beam="1">  1       21 0.25847528E+00 0.10329890E+04</pdfrwt>
<pdfrwt beam="2">  1        4 0.38992631E-01 0.10329890E+04</pdfrwt>
<totfact> 0.84728474E+00</totfact>
</mgrwt>
</event>
<event>
 6    1  0.5391662E-005  0.1042860E+04  0.7818608E-02  0.9187687E-01
          4   -1    0    0  502    0 -0.00000000000E+00  0.00000000000E+00  0.17602317937E+04  0.17602317937E+04  0.00000000000E+00 0.  1.
         21   -1    0    0  501  502  0.00000000000E+00 -0.00000000000E+00 -0.20714533580E+03  0.20714533580E+03  0.00000000000E+00 0.  1.
    9000010    2    1    2  501    0 -0.16272461171E+03 -0.23085580010E+02  0.13224196720E+04  0.16841467983E+04  0.10298273670E+04 0.  0.
        -13    1    3    3    0    0  0.47522842518E+02  0.13344550793E+03 -0.13956050937E+03  0.19885489958E+03  0.10566000000E+00 0.  1.
          4    1    3    3  501    0 -0.21024745422E+03 -0.15653108794E+03  0.14619801814E+04  0.14852918987E+04  0.00000000000E+00 0.  1.
         13    1    1    2    0    0  0.16272461171E+03  0.23085580010E+02  0.23066678591E+03  0.28323033126E+03  0.10566000000E+00 0. -1.
<mgrwt>
<rscale>  1 0.65707442E+03</rscale>
<asrwt>0</asrwt>
<pdfrwt beam="2">  1       21 0.31868514E-01 0.10428598E+04</pdfrwt>
<pdfrwt beam="1">  1        4 0.27080488E+00 0.10428598E+04</pdfrwt>
<totfact> 0.85083628E+01</totfact>
</mgrwt>
</event>
<event>
 6    1  0.5391662E-005  0.1015451E+04  0.7818608E-02  0.9214599E-01
          4   -1    0    0  502    0 -0.00000000000E+00  0.00000000000E+00  0.38835670960E+03  0.38835670960E+03  0.00000000000E+00 0.  1.
         21   -1    0    0  501  502  0.00000000000E+00 -0.00000000000E+00 -0.13219398327E+04  0.13219398327E+04  0.00000000000E+00 0.  1.
    9000010    2    1    2  501    0  0.15828306075E+03  0.25996268109E+02 -0.10875756759E+04  0.14879386084E+04  0.10027019091E+04 0.  0.
        -13    1    3    3    0    0  0.49950658740E+02  0.36136478290E+03 -0.10750785360E+04  0.11352856224E+04  0.10566000000E+00 0.  1.
          4    1    3    3  501    0  0.10833240201E+03 -0.33536851480E+03 -0.12497139821E+02  0.35265298601E+03  0.00000000000E+00 0.  1.
         13    1    1    2    0    0 -0.15828306075E+03 -0.25996268109E+02  0.15399255278E+03  0.22235793386E+03  0.10566000000E+00 0. -1.
<mgrwt>
<rscale>  1 0.64017362E+03</rscale>
<asrwt>0</asrwt>
<pdfrwt beam="2">  1       21 0.20337536E+00 0.10154509E+04</pdfrwt>
<pdfrwt beam="1">  1        4 0.59747186E-01 0.10154509E+04</pdfrwt>
<totfact> 0.89536957E+00</totfact>
</mgrwt>
</event>
<event>
 6    1  0.5391662E-005  0.1277641E+04  0.7818608E-02  0.8660624E-01
          4   -1    0    0  502    0 -0.00000000000E+00  0.00000000000E+00  0.11552785318E+04  0.11552785318E+04  0.00000000000E+00 0.  1.
         21   -1    0    0  501  502  0.00000000000E+00 -0.00000000000E+00 -0.92339997490E+03  0.92339997490E+03  0.00000000000E+00 0. -1.
    9000010    2    1    2  501    0  0.78287563657E+03 -0.38843440658E+02  0.20811491942E+03  0.12944796819E+04  0.10089414016E+04 0.  0.
        -13    1    3    3    0    0  0.74219772107E+02 -0.28451472095E+03 -0.27477654222E+03  0.40244174774E+03  0.10566000000E+00 0.  1.
          4    1    3    3  501    0  0.70865586446E+03  0.24567128029E+03  0.48289146164E+03  0.89203793413E+03  0.00000000000E+00 0.  1.
         13    1    1    2    0    0 -0.78287563657E+03  0.38843440658E+02  0.23763637459E+02  0.78419882482E+03  0.10566000000E+00 0. -1.
<mgrwt>
<rscale>  1 0.11307414E+04</rscale>
<asrwt>0</asrwt>
<pdfrwt beam="2">  1       21 0.14206154E+00 0.12776407E+04</pdfrwt>
<pdfrwt beam="1">  1        4 0.17773516E+00 0.12776407E+04</pdfrwt>
<totfact> 0.39437046E+00</totfact>
</mgrwt>
</event>
<event>
 6    1  0.5391662E-005  0.1012299E+04  0.7818608E-02  0.9168483E-01
          4   -1    0    0  502    0 -0.00000000000E+00  0.00000000000E+00  0.36649256602E+04  0.36649256602E+04  0.00000000000E+00 0.  1.
         21   -1    0    0  501  502  0.00000000000E+00 -0.00000000000E+00 -0.99890699872E+02  0.99890699872E+02  0.00000000000E+00 0.  1.
    9000010    2    1    2  501    0  0.47314511302E+02  0.18777170642E+03  0.28692683743E+04  0.30426058436E+04  0.99360577646E+03 0.  0.
        -13    1    3    3    0    0  0.43936108331E+03 -0.42264979532E+02  0.71004063190E+03  0.83605155351E+03  0.10566000000E+00 0.  1.
          4    1    3    3  501    0 -0.39204657201E+03  0.23003668595E+03  0.21592277424E+04  0.22065542901E+04  0.00000000000E+00 0.  1.
         13    1    1    2    0    0 -0.47314511302E+02 -0.18777170642E+03  0.69576658599E+03  0.72221051644E+03  0.10566000000E+00 0. -1.
<mgrwt>
<rscale>  1 0.66946984E+03</rscale>
<asrwt>0</asrwt>
<pdfrwt beam="2">  1       21 0.15367803E-01 0.10122990E+04</pdfrwt>
<pdfrwt beam="1">  1        4 0.56383461E+00 0.10122990E+04</pdfrwt>
<totfact> 0.24611475E+01</totfact>
</mgrwt>
</event>
<event>
 6    1  0.5391662E-005  0.1006266E+04  0.7818608E-02  0.9384156E-01
          4   -1    0    0  502    0 -0.00000000000E+00  0.00000000000E+00  0.42189778873E+03  0.42189778873E+03  0.00000000000E+00 0.  1.
         21   -1    0    0  501  502  0.00000000000E+00 -0.00000000000E+00 -0.11015081026E+04  0.11015081026E+04  0.00000000000E+00 0.  1.
    9000010    2    1    2  501    0  0.49401160398E+02 -0.71222983363E+02 -0.85972629773E+03  0.13235185060E+04  0.10025261796E+04 0.  0.
        -13    1    3    3    0    0 -0.46210701093E+03  0.83862223249E+02 -0.35947916809E+03  0.59143980716E+03  0.10566000000E+00 0.  1.
          4    1    3    3  501    0  0.51150817133E+03 -0.15508520661E+03 -0.50024712964E+03  0.73207869888E+03  0.00000000000E+00 0.  1.
         13    1    1    2    0    0 -0.49401160398E+02  0.71222983363E+02  0.18011598383E+03  0.19988738531E+03  0.10566000000E+00 0. -1.
<mgrwt>
<rscale>  1 0.54514599E+03</rscale>
<asrwt>0</asrwt>
<pdfrwt beam="2">  1       21 0.16946278E+00 0.10062663E+04</pdfrwt>
<pdfrwt beam="1">  1        4 0.64907354E-01 0.10062663E+04</pdfrwt>
<totfact> 0.14090848E+01</totfact>
</mgrwt>
</event>
<event>
 6    1  0.5391662E-005  0.1019529E+04  0.7818608E-02  0.9199994E-01
         21   -1    0    0  501  502  0.00000000000E+00  0.00000000000E+00  0.13429681808E+04  0.13429681808E+04  0.00000000000E+00 0.  1.
          4   -1    0    0  502    0 -0.00000000000E+00 -0.00000000000E+00 -0.37468867606E+03  0.37468867606E+03  0.00000000000E+00 0.  1.
    9000010    2    1    2  501    0 -0.13949219522E+03 -0.93082599183E+02  0.11033914515E+04  0.15023020517E+04  0.10056422409E+04 0.  0.
        -13    1    3    3    0    0  0.28062056677E+02 -0.42372507267E+03  0.10437911920E+04  0.11268675521E+04  0.10566000000E+00 0.  1.
          4    1    3    3  501    0 -0.16755425190E+03  0.33064247349E+03  0.59600259472E+02  0.37543449966E+03  0.00000000000E+00 0.  1.
         13    1    1    2    0    0  0.13949219522E+03  0.93082599183E+02 -0.13511194671E+03  0.21535480516E+03  0.10566000000E+00 0. -1.
<mgrwt>
<rscale>  1 0.64927883E+03</rscale>
<asrwt>0</asrwt>
<pdfrwt beam="1">  1       21 0.20661049E+00 0.10195287E+04</pdfrwt>
<pdfrwt beam="2">  1        4 0.57644412E-01 0.10195287E+04</pdfrwt>
<totfact> 0.91168882E+00</totfact>
</mgrwt>
</event>
<event>
 6    1  0.5391662E-005  0.1009187E+04  0.7818608E-02  0.9290602E-01
          4   -1    0    0  502    0 -0.00000000000E+00  0.00000000000E+00  0.19660022717E+04  0.19660022717E+04  0.00000000000E+00 0.  1.
         21   -1    0    0  501  502  0.00000000000E+00 -0.00000000000E+00 -0.18833347232E+03  0.18833347232E+03  0.00000000000E+00 0.  1.
    9000010    2    1    2  501    0  0.71395994922E+02 -0.99101466481E+02  0.12193125742E+04  0.15827763209E+04  0.10017680569E+04 0.  0.
        -13    1    3    3    0    0  0.76458987624E+02 -0.26499977902E+03  0.13460052960E+04  0.13739727536E+04  0.10566000000E+00 0.  1.
          4    1    3    3  501    0 -0.50629927021E+01  0.16589831254E+03 -0.12669272175E+03  0.20880356737E+03  0.00000000000E+00 0.  1.
         13    1    1    2    0    0 -0.71395994922E+02  0.99101466481E+02  0.55835622518E+03  0.57155942308E+03  0.10566000000E+00 0. -1.
<mgrwt>
<rscale>  1 0.59524297E+03</rscale>
<asrwt>0</asrwt>
<pdfrwt beam="2">  1       21 0.28974382E-01 0.10091867E+04</pdfrwt>
<pdfrwt beam="1">  1        4 0.30246187E+00 0.10091867E+04</pdfrwt>
<totfact> 0.85849504E+01</totfact>
</mgrwt>
</event>
<event>
 6    1  0.5391662E-005  0.1016339E+04  0.7818608E-02  0.9271320E-01
         21   -1    0    0  501  502  0.00000000000E+00  0.00000000000E+00  0.81365896986E+03  0.81365896986E+03  0.00000000000E+00 0.  1.
          4   -1    0    0  502    0 -0.00000000000E+00 -0.00000000000E+00 -0.49483882942E+03  0.49483882942E+03  0.00000000000E+00 0.  1.
    9000010    2    1    2  501    0 -0.76758494292E+02 -0.10328766284E+03  0.46162654215E+03  0.11162638604E+04  0.10081595775E+04 0.  0.
        -13    1    3    3    0    0 -0.50562514243E+03 -0.11110256357E+03  0.47213371599E+02  0.51983620297E+03  0.10566000000E+00 0.  1.
          4    1    3    3  501    0  0.42886664814E+03  0.78149007372E+01  0.41441317056E+03  0.59642765738E+03  0.00000000000E+00 0.  1.
         13    1    1    2    0    0  0.76758494292E+02  0.10328766284E+03 -0.14280640172E+03  0.19223393893E+03  0.10566000000E+00 0. -1.
<mgrwt>
<rscale>  1 0.60626480E+03</rscale>
<asrwt>0</asrwt>
<pdfrwt beam="1">  1       21 0.12517830E+00 0.10163395E+04</pdfrwt>
<pdfrwt beam="2">  1        4 0.76129051E-01 0.10163395E+04</pdfrwt>
<totfact> 0.25341075E+01</totfact>
</mgrwt>
</event>
<event>
 6    1  0.5391662E-005  0.1421147E+04  0.7818608E-02  0.8535299E-01
          4   -1    0    0  502    0 -0.00000000000E+00  0.00000000000E+00  0.28752390275E+04  0.28752390275E+04  0.00000000000E+00 0.  1.
         21   -1    0    0  501  502  0.00000000000E+00 -0.00000000000E+00 -0.58011586335E+03  0.58011586335E+03  0.00000000000E+00 0. -1.
    9000010    2    1    2  501    0 -0.55354427973E+03 -0.82442120290E+03  0.19312124208E+04  0.23977573163E+04  0.10166499615E+04 0.  0.
        -13    1    3    3    0    0 -0.22400006321E+03  0.20361321345E+03  0.68540624849E+03  0.74927705533E+03  0.10566000000E+00 0.  1.
          4    1    3    3  501    0 -0.32954421652E+03 -0.10280344164E+04  0.12458061723E+04  0.16484802610E+04  0.00000000000E+00 0.  1.
         13    1    1    2    0    0  0.55354427973E+03  0.82442120290E+03  0.36391074336E+03  0.10575975746E+04  0.10566000000E+00 0. -1.
<mgrwt>
<rscale>  1 0.12993268E+04</rscale>
<asrwt>0</asrwt>
<pdfrwt beam="2">  1       21 0.89248596E-01 0.14211470E+04</pdfrwt>
<pdfrwt beam="1">  1        4 0.44234446E+00 0.14211470E+04</pdfrwt>
<totfact> 0.20320979E+00</totfact>
</mgrwt>
</event>
<event>
 6    1  0.5391662E-005  0.1039494E+04  0.7818608E-02  0.9118537E-01
          4   -1    0    0  502    0 -0.00000000000E+00  0.00000000000E+00  0.12195216689E+04  0.12195216689E+04  0.00000000000E+00 0.  1.
         21   -1    0    0  501  502  0.00000000000E+00 -0.00000000000E+00 -0.32402007662E+03  0.32402007662E+03  0.00000000000E+00 0.  1.
    9000010    2    1    2  501    0  0.73682292882E+02  0.20467525469E+03  0.75061572017E+03  0.12821742508E+04  0.10164771566E+04 0.  0.
        -13    1    3    3    0    0 -0.87695392929E+02  0.32934967814E+03  0.94245815003E+03  0.10021921314E+04  0.10566000000E+00 0.  1.
          4    1    3    3  501    0  0.16137768581E+03 -0.12467442345E+03 -0.19184242986E+03  0.27998211949E+03  0.00000000000E+00 0.  1.
         13    1    1    2    0    0 -0.73682292882E+02 -0.20467525469E+03  0.14488587210E+03  0.26136749466E+03  0.10566000000E+00 0. -1.
<mgrwt>
<rscale>  1 0.70306941E+03</rscale>
<asrwt>0</asrwt>
<pdfrwt beam="2">  1       21 0.49849243E-01 0.10394936E+04</pdfrwt>
<pdfrwt beam="1">  1        4 0.18761872E+00 0.10394936E+04</pdfrwt>
<totfact> 0.53001903E+01</totfact>
</mgrwt>
</event>
<event>
 6    1  0.5391662E-005  0.1033453E+04  0.7818608E-02  0.9133442E-01
         21   -1    0    0  501  502  0.00000000000E+00  0.00000000000E+00  0.19076752244E+03  0.19076752244E+03  0.00000000000E+00 0.  1.
          4   -1    0    0  502    0 -0.00000000000E+00 -0.00000000000E+00 -0.23146294811E+04  0.23146294811E+04  0.00000000000E+00 0.  1.
    9000010    2    1    2  501    0  0.20656553877E+03  0.30160834717E+02 -0.13287122373E+04  0.16833008484E+04  0.10121494647E+04 0.  0.
        -13    1    3    3    0    0 -0.14859984795E+03 -0.60104832189E+02  0.11275604798E+03  0.19598072146E+03  0.10566000000E+00 0.  1.
          4    1    3    3  501    0  0.35516538672E+03  0.90265666906E+02 -0.14414682853E+04  0.14873201269E+04  0.00000000000E+00 0.  1.
         13    1    1    2    0    0 -0.20656553877E+03 -0.30160834717E+02 -0.79514972139E+03  0.82209615517E+03  0.10566000000E+00 0. -1.
<mgrwt>
<rscale>  1 0.69283175E+03</rscale>
<asrwt>0</asrwt>
<pdfrwt beam="1">  1       21 0.29348848E-01 0.10334532E+04</pdfrwt>
<pdfrwt beam="2">  1        4 0.35609686E+00 0.10334532E+04</pdfrwt>
<totfact> 0.57926768E+01</totfact>
</mgrwt>
</event>
<event>
 6    1  0.5391662E-005  0.1734095E+04  0.7818608E-02  0.8331697E-01
          4   -1    0    0  502    0 -0.00000000000E+00  0.00000000000E+00  0.82481942709E+03  0.82481942709E+03  0.00000000000E+00 0.  1.
         21   -1    0    0  501  502  0.00000000000E+00 -0.00000000000E+00 -0.30513959310E+04  0.30513959310E+04  0.00000000000E+00 0. -1.
    9000010    2    1    2  501    0 -0.14971821174E+03  0.13890358230E+04 -0.91841844561E+03  0.19622891377E+04  0.10272536970E+04 0.  0.
        -13    1    3    3    0    0 -0.13959981648E+03  0.96669332561E+03 -0.28445026065E+02  0.97713521337E+03  0.10566000000E+00 0.  1.
          4    1    3    3  501    0 -0.10118395253E+02  0.42234249743E+03 -0.88997341954E+03  0.98515392430E+03  0.00000000000E+00 0.  1.
         13    1    1    2    0    0  0.14971821174E+03 -0.13890358230E+04 -0.13081580583E+04  0.19139262205E+04  0.10566000000E+00 0. -1.
<mgrwt>
<rscale>  1 0.16428964E+04</rscale>
<asrwt>0</asrwt>
<pdfrwt beam="2">  1       21 0.46944553E+00 0.17340952E+04</pdfrwt>
<pdfrwt beam="1">  1        4 0.12689530E+00 0.17340952E+04</pdfrwt>
<totfact> 0.24412225E-02</totfact>
</mgrwt>
</event>
<event>
 6    1  0.5391662E-005  0.1067735E+04  0.7818608E-02  0.8969614E-01
         21   -1    0    0  501  502  0.00000000000E+00  0.00000000000E+00  0.35377535478E+03  0.35377535478E+03  0.00000000000E+00 0. -1.
          4   -1    0    0  502    0 -0.00000000000E+00 -0.00000000000E+00 -0.14497265289E+04  0.14497265289E+04  0.00000000000E+00 0.  1.
    9000010    2    1    2  501    0  0.61537617970E+02  0.35933300176E+03 -0.81404836976E+03  0.13426588661E+04  0.10035691296E+04 0.  0.
        -13    1    3    3    0    0 -0.13501320223E+03  0.67869735228E+03 -0.50395301408E+03  0.85605333498E+03  0.10566000000E+00 0.  1.
          4    1    3    3  501    0  0.19655082020E+03 -0.31936435052E+03 -0.31009535568E+03  0.48660553112E+03  0.00000000000E+00 0.  1.
         13    1    1    2    0    0 -0.61537617970E+02 -0.35933300176E+03 -0.28190280433E+03  0.46084301756E+03  0.10566000000E+00 0. -1.
<mgrwt>
<rscale>  1 0.81618975E+03</rscale>
<asrwt>0</asrwt>
<pdfrwt beam="1">  1       21 0.54426976E-01 0.10677350E+04</pdfrwt>
<pdfrwt beam="2">  1        4 0.22303486E+00 0.10677350E+04</pdfrwt>
<totfact> 0.34796182E+01</totfact>
</mgrwt>
</event>
<event>
 6    1  0.5391662E-005  0.9594492E+03  0.7818608E-02  0.9285377E-01
         21   -1    0    0  501  502  0.00000000000E+00  0.00000000000E+00  0.80164947215E+03  0.80164947215E+03  0.00000000000E+00 0.  1.
          4   -1    0    0  502    0 -0.00000000000E+00 -0.00000000000E+00 -0.41729291000E+03  0.41729291000E+03  0.00000000000E+00 0.  1.
    9000010    2    1    2  501    0  0.12703655623E+03 -0.69882157908E+02  0.45005791869E+03  0.10597617237E+04  0.94843079778E+03 0.  0.
        -13    1    3    3    0    0  0.25863744396E+03  0.39561524779E+03  0.18022484068E+03  0.50585151583E+03  0.10566000000E+00 0.  1.
          4    1    3    3  501    0 -0.13160088773E+03 -0.46549740570E+03  0.26983307801E+03  0.55391020785E+03  0.00000000000E+00 0.  1.
         13    1    1    2    0    0 -0.12703655623E+03  0.69882157908E+02 -0.65701356545E+02  0.15918065847E+03  0.10566000000E+00 0. -1.
<mgrwt>
<rscale>  1 0.59820531E+03</rscale>
<asrwt>0</asrwt>
<pdfrwt beam="1">  1       21 0.12333069E+00 0.95944921E+03</pdfrwt>
<pdfrwt beam="2">  1        4 0.64198909E-01 0.95944921E+03</pdfrwt>
<totfact> 0.37943442E+01</totfact>
</mgrwt>
</event>
<event>
 6    1  0.5391662E-005  0.1030875E+04  0.7818608E-02  0.9056607E-01
         21   -1    0    0  501  502  0.00000000000E+00  0.00000000000E+00  0.23876304872E+03  0.23876304872E+03  0.00000000000E+00 0.  1.
          4   -1    0    0  502    0 -0.00000000000E+00 -0.00000000000E+00 -0.18829329446E+04  0.18829329446E+04  0.00000000000E+00 0.  1.
    9000010    2    1    2  501    0 -0.12117546688E+03 -0.25816162133E+03 -0.11014390962E+04  0.15085992240E+04  0.99064252860E+03 0.  0.
        -13    1    3    3    0    0 -0.19906587957E+03  0.34890989730E+03 -0.57424828003E+03  0.70080413749E+03  0.10566000000E+00 0.  1.
          4    1    3    3  501    0  0.77890412695E+02 -0.60707151862E+03 -0.52719081618E+03  0.80779508650E+03  0.00000000000E+00 0.  1.
         13    1    1    2    0    0  0.12117546688E+03  0.25816162133E+03 -0.54273079970E+03  0.61309676936E+03  0.10566000000E+00 0. -1.
<mgrwt>
<rscale>  1 0.74762964E+03</rscale>
<asrwt>0</asrwt>
<pdfrwt beam="1">  1       21 0.36732776E-01 0.10308751E+04</pdfrwt>
<pdfrwt beam="2">  1        4 0.28968200E+00 0.10308751E+04</pdfrwt>
<totfact> 0.56671963E+01</totfact>
</mgrwt>
</event>
<event>
 6    1  0.5391662E-005  0.1016898E+04  0.7818608E-02  0.9105480E-01
          4   -1    0    0  502    0 -0.00000000000E+00  0.00000000000E+00  0.49877641822E+03  0.49877641822E+03  0.00000000000E+00 0.  1.
         21   -1    0    0  501  502  0.00000000000E+00 -0.00000000000E+00 -0.88185263739E+03  0.88185263739E+03  0.00000000000E+00 0.  1.
    9000010    2    1    2  501    0 -0.15572082957E+03  0.18869623104E+03 -0.47096953686E+03  0.11206665760E+04  0.98702888785E+03 0.  0.
        -13    1    3    3    0    0 -0.57242624830E+03  0.72273757643E+02 -0.33484049592E+03  0.66709330282E+03  0.10566000000E+00 0.  1.
          4    1    3    3  501    0  0.41670541874E+03  0.11642247340E+03 -0.13612904093E+03  0.45357327314E+03  0.00000000000E+00 0.  1.
         13    1    1    2    0    0  0.15572082957E+03 -0.18869623104E+03  0.87893317687E+02  0.25996247965E+03  0.10566000000E+00 0. -1.
<mgrwt>
<rscale>  1 0.71218986E+03</rscale>
<asrwt>0</asrwt>
<pdfrwt beam="2">  1       21 0.13566963E+00 0.10168979E+04</pdfrwt>
<pdfrwt beam="1">  1        4 0.76734835E-01 0.10168979E+04</pdfrwt>
<totfact> 0.19757103E+01</totfact>
</mgrwt>
</event>
<event>
 6    1  0.5391662E-005  0.1173630E+04  0.7818608E-02  0.8777039E-01
          4   -1    0    0  502    0 -0.00000000000E+00  0.00000000000E+00  0.11458793203E+04  0.11458793203E+04  0.00000000000E+00 0.  1.
         21   -1    0    0  501  502  0.00000000000E+00 -0.00000000000E+00 -0.98996201129E+03  0.98996201129E+03  0.00000000000E+00 0.  1.
    9000010    2    1    2  501    0 -0.46205656136E+03  0.40158836457E+03 -0.46638083770E+03  0.12629011990E+04  0.10013185668E+04 0.  0.
        -13    1    3    3    0    0  0.29788263243E+03  0.11678859518E+03  0.13210461553E+02  0.32023142589E+03  0.10566000000E+00 0.  1.
          4    1    3    3  501    0 -0.75993919379E+03  0.28479976939E+03 -0.47959129925E+03  0.94266977315E+03  0.00000000000E+00 0.  1.
         13    1    1    2    0    0  0.46205656136E+03 -0.40158836457E+03  0.62229814673E+03  0.87294013256E+03  0.10566000000E+00 0. -1.
<mgrwt>
<rscale>  1 0.99739927E+03</rscale>
<asrwt>0</asrwt>
<pdfrwt beam="2">  1       21 0.15230185E+00 0.11736304E+04</pdfrwt>
<pdfrwt beam="1">  1        4 0.17628913E+00 0.11736304E+04</pdfrwt>
<totfact> 0.32570965E+00</totfact>
</mgrwt>
</event>
<event>
 6    1  0.5391662E-005  0.1002792E+04  0.7818608E-02  0.9379656E-01
         21   -1    0    0  501  502  0.00000000000E+00  0.00000000000E+00  0.64600466845E+03  0.64600466845E+03  0.00000000000E+00 0.  1.
          4   -1    0    0  502    0 -0.00000000000E+00 -0.00000000000E+00 -0.58247316597E+03  0.58247316597E+03  0.00000000000E+00 0.  1.
    9000010    2    1    2  501    0 -0.33620810620E+02 -0.82472578419E+02  0.23973034421E+03  0.10310490420E+04  0.99882901635E+03 0.  0.
        -13    1    3    3    0    0  0.22654811831E+03  0.38279835859E+03 -0.41648554284E+01  0.44483254201E+03  0.10566000000E+00 0.  1.
          4    1    3    3  501    0 -0.26016892893E+03 -0.46527093701E+03  0.24389519964E+03  0.58621649995E+03  0.00000000000E+00 0.  1.
         13    1    1    2    0    0  0.33620810620E+02  0.82472578419E+02 -0.17619884173E+03  0.19742879245E+03  0.10566000000E+00 0. -1.
<mgrwt>
<rscale>  1 0.54743378E+03</rscale>
<asrwt>0</asrwt>
<pdfrwt beam="1">  1       21 0.99385334E-01 0.10027918E+04</pdfrwt>
<pdfrwt beam="2">  1        4 0.89611256E-01 0.10027918E+04</pdfrwt>
<totfact> 0.34052988E+01</totfact>
</mgrwt>
</event>
<event>
 6    1  0.5391662E-005  0.1108393E+04  0.7818608E-02  0.8860739E-01
         21   -1    0    0  501  502  0.00000000000E+00  0.00000000000E+00  0.23967551484E+03  0.23967551484E+03  0.00000000000E+00 0. -1.
          4   -1    0    0  502    0 -0.00000000000E+00 -0.00000000000E+00 -0.31440420750E+04  0.31440420750E+04  0.00000000000E+00 0.  1.
    9000010    2    1    2  501    0 -0.21260988966E+02  0.51024016408E+03 -0.13450106797E+04  0.17428678625E+04  0.98373655157E+03 0.  0.
        -13    1    3    3    0    0 -0.28104111343E+03  0.17366016747E+03 -0.12685652211E+04  0.13108774513E+04  0.10566000000E+00 0.  1.
          4    1    3    3  501    0  0.25978012446E+03  0.33657999661E+03 -0.76445458665E+02  0.43199041116E+03  0.00000000000E+00 0.  1.
         13    1    1    2    0    0  0.21260988966E+02 -0.51024016408E+03 -0.15593558805E+04  0.16408497274E+04  0.10566000000E+00 0. -1.
<mgrwt>
<rscale>  1 0.91318363E+03</rscale>
<asrwt>0</asrwt>
<pdfrwt beam="1">  1       21 0.36873154E-01 0.11083928E+04</pdfrwt>
<pdfrwt beam="2">  1        4 0.48369881E+00 0.11083928E+04</pdfrwt>
<totfact> 0.10332116E+01</totfact>
</mgrwt>
</event>
<event>
 6    1  0.5391662E-005  0.1027685E+04  0.7818608E-02  0.9059989E-01
          4   -1    0    0  502    0 -0.00000000000E+00  0.00000000000E+00  0.18558358270E+04  0.18558358270E+04  0.00000000000E+00 0.  1.
         21   -1    0    0  501  502  0.00000000000E+00 -0.00000000000E+00 -0.38196636936E+03  0.38196636936E+03  0.00000000000E+00 0.  1.
    9000010    2    1    2  501    0 -0.27489753367E+03 -0.71280149850E+02  0.36096336391E+03  0.10892337402E+04  0.98766698689E+03 0.  0.
        -13    1    3    3    0    0 -0.27600677987E+03  0.34759717469E+03  0.48000828881E+03  0.65376716564E+03  0.10566000000E+00 0.  1.
          4    1    3    3  501    0  0.11092461980E+01 -0.41887732454E+03 -0.11904492489E+03  0.43546657459E+03  0.00000000000E+00 0.  1.
         13    1    1    2    0    0  0.27489753367E+03  0.71280149850E+02  0.11129060937E+04  0.11485684561E+04  0.10566000000E+00 0. -1.
<mgrwt>
<rscale>  1 0.74510951E+03</rscale>
<asrwt>0</asrwt>
<pdfrwt beam="2">  1       21 0.58764058E-01 0.10276846E+04</pdfrwt>
<pdfrwt beam="1">  1        4 0.28551320E+00 0.10276846E+04</pdfrwt>
<totfact> 0.20757747E+01</totfact>
</mgrwt>
</event>
<event>
 6    1  0.5391662E-005  0.9821495E+03  0.7818608E-02  0.9394818E-01
         21   -1    0    0  501  502  0.00000000000E+00  0.00000000000E+00  0.10821529668E+04  0.10821529668E+04  0.00000000000E+00 0.  1.
          4   -1    0    0  502    0 -0.00000000000E+00 -0.00000000000E+00 -0.50924418271E+03  0.50924418271E+03  0.00000000000E+00 0.  1.
    9000010    2    1    2  501    0 -0.78690712208E+02  0.42846319997E+02  0.85080237965E+03  0.12994161622E+04  0.97805400570E+03 0.  0.
        -13    1    3    3    0    0  0.25765489519E+03  0.35939888594E+03  0.16378380520E+03  0.47157051460E+03  0.10566000000E+00 0.  1.
          4    1    3    3  501    0 -0.33634560740E+03 -0.31655256594E+03  0.68701857445E+03  0.82784564761E+03  0.00000000000E+00 0.  1.
         13    1    1    2    0    0  0.78690712208E+02 -0.42846319997E+02 -0.27789359557E+03  0.29198098730E+03  0.10566000000E+00 0. -1.
<mgrwt>
<rscale>  1 0.53977087E+03</rscale>
<asrwt>0</asrwt>
<pdfrwt beam="1">  1       21 0.16648507E+00 0.98214952E+03</pdfrwt>
<pdfrwt beam="2">  1        4 0.78345259E-01 0.98214952E+03</pdfrwt>
<totfact> 0.10102280E+01</totfact>
</mgrwt>
</event>
<event>
 6    1  0.5391662E-005  0.1026315E+04  0.7818608E-02  0.9207971E-01
         21   -1    0    0  501  502  0.00000000000E+00  0.00000000000E+00  0.42573202492E+03  0.42573202492E+03  0.00000000000E+00 0.  1.
          4   -1    0    0  502    0 -0.00000000000E+00 -0.00000000000E+00 -0.88144759466E+03  0.88144759466E+03  0.00000000000E+00 0.  1.
    9000010    2    1    2  501    0 -0.13775909356E+03 -0.80181343730E+02 -0.26762545925E+03  0.10606344583E+04  0.10138616532E+04 0.  0.
        -13    1    3    3    0    0  0.10742706414E+03 -0.27633379302E+03  0.29378283317E+03  0.41738388026E+03  0.10566000000E+00 0.  1.
          4    1    3    3  501    0 -0.24518615770E+03  0.19615244929E+03 -0.56140829242E+03  0.64325057799E+03  0.00000000000E+00 0.  1.
         13    1    1    2    0    0  0.13775909356E+03  0.80181343730E+02 -0.18809011049E+03  0.24654516132E+03  0.10566000000E+00 0. -1.
<mgrwt>
<rscale>  1 0.64428619E+03</rscale>
<asrwt>0</asrwt>
<pdfrwt beam="1">  1       21 0.65497236E-01 0.10263148E+04</pdfrwt>
<pdfrwt beam="2">  1        4 0.13560732E+00 0.10263148E+04</pdfrwt>
<totfact> 0.45365926E+01</totfact>
</mgrwt>
</event>
<event>
 6    1  0.5391662E-005  0.1025171E+04  0.7818608E-02  0.8930881E-01
          4   -1    0    0  502    0 -0.00000000000E+00  0.00000000000E+00  0.23377469255E+04  0.23377469255E+04  0.00000000000E+00 0.  1.
         21   -1    0    0  501  502  0.00000000000E+00 -0.00000000000E+00 -0.30928255784E+03  0.30928255784E+03  0.00000000000E+00 0.  1.
    9000010    2    1    2  501    0  0.41526256704E+03  0.24595803827E+03  0.72098099579E+03  0.12533110272E+04  0.90445374585E+03 0.  0.
        -13    1    3    3    0    0  0.10738527736E+03  0.45379632297E+03  0.28145800602E+02  0.46717758699E+03  0.10566000000E+00 0.  1.
          4    1    3    3  501    0  0.30787728968E+03 -0.20783828470E+03  0.69283519519E+03  0.78613344019E+03  0.00000000000E+00 0.  1.
         13    1    1    2    0    0 -0.41526256704E+03 -0.24595803827E+03  0.13074833719E+04  0.13937184562E+04  0.10566000000E+00 0. -1.
<mgrwt>
<rscale>  1 0.84918490E+03</rscale>
<asrwt>0</asrwt>
<pdfrwt beam="2">  1       21 0.47581933E-01 0.10251707E+04</pdfrwt>
<pdfrwt beam="1">  1        4 0.35965336E+00 0.10251707E+04</pdfrwt>
<totfact> 0.20250865E+01</totfact>
</mgrwt>
</event>
<event>
 6    1  0.5391662E-005  0.9939782E+03  0.7818608E-02  0.9878711E-01
         21   -1    0    0  501  502  0.00000000000E+00  0.00000000000E+00  0.23013115440E+03  0.23013115440E+03  0.00000000000E+00 0.  1.
          4   -1    0    0  502    0 -0.00000000000E+00 -0.00000000000E+00 -0.11253549009E+04  0.11253549009E+04  0.00000000000E+00 0.  1.
    9000010    2    1    2  501    0 -0.12550434964E+02 -0.93405873058E+01 -0.89805378517E+03  0.13395869901E+04  0.99385509158E+03 0.  0.
        -13    1    3    3    0    0  0.38888988433E+03 -0.16619124023E+03 -0.10307391314E+03  0.43529198614E+03  0.10566000000E+00 0.  1.
          4    1    3    3  501    0 -0.40144031930E+03  0.15685065293E+03 -0.79497987203E+03  0.90429500398E+03  0.00000000000E+00 0.  1.
         13    1    1    2    0    0  0.12550434964E+02  0.93405873058E+01  0.28300387166E+01  0.15899065135E+02  0.10566000000E+00 0. -1.
<mgrwt>
<rscale>  1 0.35206896E+03</rscale>
<asrwt>0</asrwt>
<pdfrwt beam="1">  1       21 0.35404792E-01 0.99397822E+03</pdfrwt>
<pdfrwt beam="2">  1        4 0.17313153E+00 0.99397822E+03</pdfrwt>
<totfact> 0.12401987E+02</totfact>
</mgrwt>
</event>
<event>
 6    1  0.5391662E-005  0.1051902E+04  0.7818608E-02  0.8985138E-01
         21   -1    0    0  501  502  0.00000000000E+00  0.00000000000E+00  0.35076410325E+03  0.35076410325E+03  0.00000000000E+00 0.  1.
          4   -1    0    0  502    0 -0.00000000000E+00 -0.00000000000E+00 -0.14809930502E+04  0.14809930502E+04  0.00000000000E+00 0.  1.
    9000010    2    1    2  501    0 -0.23362130569E+03  0.27119495074E+03 -0.66389854293E+03  0.12438883988E+04  0.98912661359E+03 0.  0.
        -13    1    3    3    0    0 -0.46951882598E+03 -0.16128427010E+03 -0.12136789403E+03  0.51106821521E+03  0.10566000000E+00 0.  1.
          4    1    3    3  501    0  0.23589752030E+03  0.43247922084E+03 -0.54253064890E+03  0.73282018364E+03  0.00000000000E+00 0.  1.
         13    1    1    2    0    0  0.23362130569E+03 -0.27119495074E+03 -0.46633040406E+03  0.58786875465E+03  0.10566000000E+00 0. -1.
<mgrwt>
<rscale>  1 0.80340744E+03</rscale>
<asrwt>0</asrwt>
<pdfrwt beam="1">  1       21 0.53963709E-01 0.10519016E+04</pdfrwt>
<pdfrwt beam="2">  1        4 0.22784508E+00 0.10519016E+04</pdfrwt>
<totfact> 0.34530635E+01</totfact>
</mgrwt>
</event>
<event>
 6    1  0.5391662E-005  0.1009018E+04  0.7818608E-02  0.9246513E-01
         21   -1    0    0  501  502  0.00000000000E+00  0.00000000000E+00  0.92637096550E+03  0.92637096550E+03  0.00000000000E+00 0.  1.
          4   -1    0    0  502    0 -0.00000000000E+00 -0.00000000000E+00 -0.41171613263E+03  0.41171613263E+03  0.00000000000E+00 0.  1.
    9000010    2    1    2  501    0  0.13790870316E+03  0.43464220690E+02  0.59628794697E+03  0.11720391371E+04  0.99860326168E+03 0.  0.
        -13    1    3    3    0    0 -0.10848088191E+03  0.37432203759E+03 -0.62546953829E+02  0.39471156831E+03  0.10566000000E+00 0.  1.
          4    1    3    3  501    0  0.24638958507E+03 -0.33085781690E+03  0.65883490080E+03  0.77732756876E+03  0.00000000000E+00 0.  1.
         13    1    1    2    0    0 -0.13790870316E+03 -0.43464220690E+02 -0.81633114105E+02  0.16604796106E+03  0.10566000000E+00 0. -1.
<mgrwt>
<rscale>  1 0.62081614E+03</rscale>
<asrwt>0</asrwt>
<pdfrwt beam="1">  1       21 0.14251861E+00 0.10090176E+04</pdfrwt>
<pdfrwt beam="2">  1        4 0.63340944E-01 0.10090176E+04</pdfrwt>
<totfact> 0.25526910E+01</totfact>
</mgrwt>
</event>
<event>
 6    1  0.5391662E-005  0.1028813E+04  0.7818608E-02  0.9219910E-01
         21   -1    0    0  501  502  0.00000000000E+00  0.00000000000E+00  0.40869145903E+03  0.40869145903E+03  0.00000000000E+00 0.  1.
          4   -1    0    0  502    0 -0.00000000000E+00 -0.00000000000E+00 -0.14698613418E+04  0.14698613418E+04  0.00000000000E+00 0.  1.
    9000010    2    1    2  501    0  0.23185222299E+02 -0.14931596111E+03 -0.25715790456E+03  0.10604647352E+04  0.10176553719E+04 0.  0.
        -13    1    3    3    0    0  0.16902364521E+03  0.95386303010E+02 -0.59073827942E+03  0.62180323687E+03  0.10566000000E+00 0.  1.
          4    1    3    3  501    0 -0.14583842291E+03 -0.24470226412E+03  0.33358037486E+03  0.43866149837E+03  0.00000000000E+00 0.  1.
         13    1    1    2    0    0 -0.23185222299E+02  0.14931596111E+03 -0.80401197819E+03  0.81808806556E+03  0.10566000000E+00 0. -1.
<mgrwt>
<rscale>  1 0.63690131E+03</rscale>
<asrwt>0</asrwt>
<pdfrwt beam="1">  1       21 0.62875610E-01 0.10288126E+04</pdfrwt>
<pdfrwt beam="2">  1        4 0.22613251E+00 0.10288126E+04</pdfrwt>
<totfact> 0.24662145E+01</totfact>
</mgrwt>
</event>
<event>
 6    1  0.5391662E-005  0.1135867E+04  0.7818608E-02  0.8781526E-01
         21   -1    0    0  501  502  0.00000000000E+00  0.00000000000E+00  0.30323656428E+03  0.30323656428E+03  0.00000000000E+00 0.  1.
          4   -1    0    0  502    0 -0.00000000000E+00 -0.00000000000E+00 -0.26939035275E+04  0.26939035275E+04  0.00000000000E+00 0.  1.
    9000010    2    1    2  501    0 -0.26859355939E+03 -0.60564211323E+03 -0.16528055290E+04  0.20054827030E+04  0.92263204249E+03 0.  0.
        -13    1    3    3    0    0 -0.59975139338E+03 -0.33158630983E+03 -0.11945784260E+04  0.13771960071E+04  0.10566000000E+00 0.  1.
          4    1    3    3  501    0  0.33115783399E+03 -0.27405580340E+03 -0.45822710293E+03  0.62828669590E+03  0.00000000000E+00 0.  1.
         13    1    1    2    0    0  0.26859355939E+03  0.60564211323E+03 -0.73786143422E+03  0.99165738879E+03  0.10566000000E+00 0. -1.
<mgrwt>
<rscale>  1 0.99265202E+03</rscale>
<asrwt>0</asrwt>
<pdfrwt beam="1">  1       21 0.46651782E-01 0.11358674E+04</pdfrwt>
<pdfrwt beam="2">  1        4 0.41444667E+00 0.11358674E+04</pdfrwt>
<totfact> 0.12825311E+01</totfact>
</mgrwt>
</event>
<event>
 6    1  0.5391662E-005  0.1067783E+04  0.7818608E-02  0.9036981E-01
         21   -1    0    0  501  502  0.00000000000E+00  0.00000000000E+00  0.26614940874E+03  0.26614940874E+03  0.00000000000E+00 0.  1.
          4   -1    0    0  502    0 -0.00000000000E+00 -0.00000000000E+00 -0.19099958267E+04  0.19099958267E+04  0.00000000000E+00 0.  1.
    9000010    2    1    2  501    0 -0.55620040749E+01 -0.27754518522E+03 -0.95148218761E+03  0.14302025404E+04  0.10310667715E+04 0.  0.
        -13    1    3    3    0    0 -0.44684750205E+03 -0.35645443279E+03 -0.73856740081E+03  0.93392412403E+03  0.10566000000E+00 0.  1.
          4    1    3    3  501    0  0.44128549797E+03  0.78909247568E+02 -0.21291478680E+03  0.49627841632E+03  0.00000000000E+00 0.  1.
         13    1    1    2    0    0  0.55620040749E+01  0.27754518522E+03 -0.69236423038E+03  0.74594269512E+03  0.10566000000E+00 0. -1.
<mgrwt>
<rscale>  1 0.76246084E+03</rscale>
<asrwt>0</asrwt>
<pdfrwt beam="1">  1       21 0.40946062E-01 0.10677832E+04</pdfrwt>
<pdfrwt beam="2">  1        4 0.29384552E+00 0.10677832E+04</pdfrwt>
<totfact> 0.43689571E+01</totfact>
</mgrwt>
</event>
<event>
 6    1  0.5391662E-005  0.1081373E+04  0.7818608E-02  0.8958570E-01
         21   -1    0    0  501  502  0.00000000000E+00  0.00000000000E+00  0.22743412235E+03  0.22743412235E+03  0.00000000000E+00 0.  1.
          4   -1    0    0  502    0 -0.00000000000E+00 -0.00000000000E+00 -0.29233936822E+04  0.29233936822E+04  0.00000000000E+00 0.  1.
    9000010    2    1    2  501    0  0.21389541721E+03 -0.29836918934E+03 -0.12216676729E+04  0.16315148013E+04  0.10171495570E+04 0.  0.
        -13    1    3    3    0    0  0.89701259253E+02 -0.47432802799E+03 -0.10468246699E+03  0.49395528554E+03  0.10566000000E+00 0.  1.
          4    1    3    3  501    0  0.12419415795E+03  0.17595883866E+03 -0.11169852059E+04  0.11375595158E+04  0.00000000000E+00 0.  1.
         13    1    1    2    0    0 -0.21389541721E+03  0.29836918934E+03 -0.14742918870E+04  0.15193130032E+04  0.10566000000E+00 0. -1.
<mgrwt>
<rscale>  1 0.82543548E+03</rscale>
<asrwt>0</asrwt>
<pdfrwt beam="1">  1       21 0.34989866E-01 0.10813735E+04</pdfrwt>
<pdfrwt beam="2">  1        4 0.44975286E+00 0.10813735E+04</pdfrwt>
<totfact> 0.16761109E+01</totfact>
</mgrwt>
</event>
<event>
 6    1  0.5391662E-005  0.1137606E+04  0.7818608E-02  0.8833291E-01
          4   -1    0    0  502    0 -0.00000000000E+00  0.00000000000E+00  0.42009454780E+04  0.42009454780E+04  0.00000000000E+00 0.  1.
         21   -1    0    0  501  502  0.00000000000E+00 -0.00000000000E+00 -0.22103274710E+03  0.22103274710E+03  0.00000000000E+00 0.  1.
    9000010    2    1    2  501    0  0.52442948425E+03  0.75949805806E+02  0.14809329607E+04  0.18674343206E+04  0.10066547823E+04 0.  0.
        -13    1    3    3    0    0 -0.18785319185E+03 -0.20428423487E+03  0.78616653113E+03  0.83371379750E+03  0.10566000000E+00 0.  1.
          4    1    3    3  501    0  0.71228267611E+03  0.28023404068E+03  0.69476642959E+03  0.10337205231E+04  0.00000000000E+00 0.  1.
         13    1    1    2    0    0 -0.52442948425E+03 -0.75949805806E+02  0.24989797702E+04  0.25545439045E+04  0.10566000000E+00 0. -1.
<mgrwt>
<rscale>  1 0.93981560E+03</rscale>
<asrwt>0</asrwt>
<pdfrwt beam="2">  1       21 0.34005041E-01 0.11376065E+04</pdfrwt>
<pdfrwt beam="1">  1        4 0.64629924E+00 0.11376065E+04</pdfrwt>
<totfact> 0.17960511E+00</totfact>
</mgrwt>
</event>
<event>
 6    1  0.5391662E-005  0.9686449E+03  0.7818608E-02  0.9774088E-01
         21   -1    0    0  501  502  0.00000000000E+00  0.00000000000E+00  0.40960734503E+03  0.40960734503E+03  0.00000000000E+00 0.  1.
          4   -1    0    0  502    0 -0.00000000000E+00 -0.00000000000E+00 -0.68475981662E+03  0.68475981662E+03  0.00000000000E+00 0.  1.
    9000010    2    1    2  501    0 -0.16861614260E+02  0.17241809404E+02 -0.16622755797E+03  0.98280443491E+03  0.96834465054E+03 0.  0.
        -13    1    3    3    0    0 -0.48236732540E+03 -0.41841398418E+02  0.24003240281E+01  0.48418458459E+03  0.10566000000E+00 0.  1.
          4    1    3    3  501    0  0.46550571114E+03  0.59083207822E+02 -0.16862788200E+03  0.49861985032E+03  0.00000000000E+00 0.  1.
         13    1    1    2    0    0  0.16861614260E+02 -0.17241809404E+02 -0.10892491363E+03  0.11156272675E+03  0.10566000000E+00 0. -1.
<mgrwt>
<rscale>  1 0.38477069E+03</rscale>
<asrwt>0</asrwt>
<pdfrwt beam="1">  1       21 0.63016515E-01 0.96864491E+03</pdfrwt>
<pdfrwt beam="2">  1        4 0.10534766E+00 0.96864491E+03</pdfrwt>
<totfact> 0.76344243E+01</totfact>
</mgrwt>
</event>
<event>
 6    1  0.5391662E-005  0.1336262E+04  0.7818608E-02  0.8605254E-01
          4   -1    0    0  502    0 -0.00000000000E+00  0.00000000000E+00  0.36488162739E+03  0.36488162739E+03  0.00000000000E+00 0.  1.
         21   -1    0    0  501  502  0.00000000000E+00 -0.00000000000E+00 -0.33914222814E+04  0.33914222814E+04  0.00000000000E+00 0. -1.
    9000010    2    1    2  501    0 -0.87388122545E+03  0.19925356019E+02 -0.16164539086E+04  0.20972650133E+04  0.10107086036E+04 0.  0.
        -13    1    3    3    0    0 -0.65510305167E+03  0.29130806049E+03 -0.37761412469E+03  0.81031650159E+03  0.10566000000E+00 0.  1.
          4    1    3    3  501    0 -0.21877817378E+03 -0.27138270447E+03 -0.12388397839E+04  0.12869485117E+04  0.00000000000E+00 0.  1.
         13    1    1    2    0    0  0.87388122545E+03 -0.19925356019E+02 -0.14100867454E+04  0.16590388955E+04  0.10566000000E+00 0. -1.
<mgrwt>
<rscale>  1 0.12017391E+04</rscale>
<asrwt>0</asrwt>
<pdfrwt beam="2">  1       21 0.52175724E+00 0.13362624E+04</pdfrwt>
<pdfrwt beam="1">  1        4 0.56135638E-01 0.13362624E+04</pdfrwt>
<totfact> 0.54924917E-02</totfact>
</mgrwt>
</event>
<event>
 6    1  0.5391662E-005  0.1102798E+04  0.7818608E-02  0.8934138E-01
          4   -1    0    0  502    0 -0.00000000000E+00  0.00000000000E+00  0.19760088181E+04  0.19760088181E+04  0.00000000000E+00 0.  1.
         21   -1    0    0  501  502  0.00000000000E+00 -0.00000000000E+00 -0.45491982772E+03  0.45491982772E+03  0.00000000000E+00 0. -1.
    9000010    2    1    2  501    0  0.38078982888E+03 -0.36841559263E+02  0.28789693926E+03  0.11397583083E+04  0.10343143427E+04 0.  0.
        -13    1    3    3    0    0  0.38469944748E+03 -0.45689075614E+03 -0.51806652044E+02  0.59952211661E+03  0.10566000000E+00 0.  1.
          4    1    3    3  501    0 -0.39096185994E+01  0.42004919688E+03  0.33970359131E+03  0.54023619174E+03  0.00000000000E+00 0.  1.
         13    1    1    2    0    0 -0.38078982888E+03  0.36841559263E+02  0.12331920511E+04  0.12911703375E+04  0.10566000000E+00 0. -1.
<mgrwt>
<rscale>  1 0.84634851E+03</rscale>
<asrwt>0</asrwt>
<pdfrwt beam="2">  1       21 0.69987667E-01 0.11027984E+04</pdfrwt>
<pdfrwt beam="1">  1        4 0.30400135E+00 0.11027984E+04</pdfrwt>
<totfact> 0.12210426E+01</totfact>
</mgrwt>
</event>
<event>
 6    1  0.5391662E-005  0.1258476E+04  0.7818608E-02  0.9181517E-01
         21   -1    0    0  501  502  0.00000000000E+00  0.00000000000E+00  0.14597659978E+04  0.14597659978E+04  0.00000000000E+00 0.  1.
          4   -1    0    0  502    0 -0.00000000000E+00 -0.00000000000E+00 -0.43296630994E+03  0.43296630994E+03  0.00000000000E+00 0.  1.
    9000010    2    1    2  501    0  0.65928287189E+02 -0.69498418188E+02  0.11713968317E+04  0.17192822736E+04  0.12548244617E+04 0.  0.
        -13    1    3    3    0    0 -0.54710332981E+03  0.10662696031E+03  0.81869138025E+03  0.99042765986E+03  0.10566000000E+00 0.  1.
          4    1    3    3  501    0  0.61303161700E+03 -0.17612537850E+03  0.35270545149E+03  0.72885461370E+03  0.00000000000E+00 0.  1.
         13    1    1    2    0    0 -0.65928287189E+02  0.69498418188E+02 -0.14459714388E+03  0.17345003420E+03  0.10566000000E+00 0. -1.
<mgrwt>
<rscale>  1 0.66102628E+03</rscale>
<asrwt>0</asrwt>
<pdfrwt beam="1">  1       21 0.22457938E+00 0.12584757E+04</pdfrwt>
<pdfrwt beam="2">  1        4 0.66610202E-01 0.12584757E+04</pdfrwt>
<totfact> 0.47899982E+00</totfact>
</mgrwt>
</event>
<event>
 6    1  0.5391662E-005  0.1119224E+04  0.7818608E-02  0.8849786E-01
          4   -1    0    0  502    0 -0.00000000000E+00  0.00000000000E+00  0.81733915066E+03  0.81733915066E+03  0.00000000000E+00 0.  1.
         21   -1    0    0  501  502  0.00000000000E+00 -0.00000000000E+00 -0.91615456943E+03  0.91615456943E+03  0.00000000000E+00 0.  1.
    9000010    2    1    2  501    0 -0.29237666576E+02 -0.51842060867E+03 -0.32744992736E+03  0.11661415206E+04  0.99148768141E+03 0.  0.
        -13    1    3    3    0    0 -0.49015235519E+03 -0.11368736002E+03 -0.10760863478E+03  0.51454229813E+03  0.10566000000E+00 0.  1.
          4    1    3    3  501    0  0.46091468861E+03 -0.40473324864E+03 -0.21984129258E+03  0.65159922242E+03  0.00000000000E+00 0.  1.
         13    1    1    2    0    0  0.29237666576E+02  0.51842060867E+03  0.22863450860E+03  0.56735219954E+03  0.10566000000E+00 0. -1.
<mgrwt>
<rscale>  1 0.92369959E+03</rscale>
<asrwt>0</asrwt>
<pdfrwt beam="2">  1       21 0.14094686E+00 0.11192241E+04</pdfrwt>
<pdfrwt beam="1">  1        4 0.12574448E+00 0.11192241E+04</pdfrwt>
<totfact> 0.68498724E+00</totfact>
</mgrwt>
</event>
<event>
 6    1  0.5391662E-005  0.9744177E+03  0.7818608E-02  0.9343586E-01
         21   -1    0    0  501  502  0.00000000000E+00  0.00000000000E+00  0.42290281852E+03  0.42290281852E+03  0.00000000000E+00 0.  1.
          4   -1    0    0  502    0 -0.00000000000E+00 -0.00000000000E+00 -0.10674232367E+04  0.10674232367E+04  0.00000000000E+00 0.  1.
    9000010    2    1    2  501    0  0.46689573176E+02  0.10079795937E+03 -0.15293588152E+03  0.98634638034E+03  0.96806490138E+03 0.  0.
        -13    1    3    3    0    0 -0.31417789529E+03  0.17597419909E+03 -0.40335764459E+03  0.54071440636E+03  0.10566000000E+00 0.  1.
          4    1    3    3  501    0  0.36086746847E+03 -0.75176239715E+02  0.25042176306E+03  0.44563197398E+03  0.00000000000E+00 0.  1.
         13    1    1    2    0    0 -0.46689573176E+02 -0.10079795937E+03 -0.49158453663E+03  0.50397967486E+03  0.10566000000E+00 0. -1.
<mgrwt>
<rscale>  1 0.56620532E+03</rscale>
<asrwt>0</asrwt>
<pdfrwt beam="1">  1       21 0.65061972E-01 0.97441767E+03</pdfrwt>
<pdfrwt beam="2">  1        4 0.16421896E+00 0.97441767E+03</pdfrwt>
<totfact> 0.34923587E+01</totfact>
</mgrwt>
</event>
<event>
 6    1  0.5391662E-005  0.1196721E+04  0.7818608E-02  0.8742820E-01
          4   -1    0    0  502    0 -0.00000000000E+00  0.00000000000E+00  0.21292633323E+04  0.21292633323E+04  0.00000000000E+00 0.  1.
         21   -1    0    0  501  502  0.00000000000E+00 -0.00000000000E+00 -0.10705526338E+04  0.10705526338E+04  0.00000000000E+00 0. -1.
    9000010    2    1    2  501    0  0.12099958321E+03 -0.65725314552E+03 -0.65227877716E+03  0.13629415574E+04  0.99273334250E+03 0.  0.
        -13    1    3    3    0    0  0.41077817909E+03  0.65535015748E+02 -0.18959394693E+03  0.45714267640E+03  0.10566000000E+00 0.  1.
          4    1    3    3  501    0 -0.28977859588E+03 -0.72278816127E+03 -0.46268483023E+03  0.90579888100E+03  0.00000000000E+00 0.  1.
         13    1    1    2    0    0 -0.12099958321E+03  0.65725314552E+03  0.17109894756E+04  0.18368744087E+04  0.10566000000E+00 0. -1.
<mgrwt>
<rscale>  1 0.10345164E+04</rscale>
<asrwt>0</asrwt>
<pdfrwt beam="2">  1       21 0.16470041E+00 0.11967214E+04</pdfrwt>
<pdfrwt beam="1">  1        4 0.32757897E+00 0.11967214E+04</pdfrwt>
<totfact> 0.10027175E+00</totfact>
</mgrwt>
</event>
<event>
 6    1  0.5391662E-005  0.9860567E+03  0.7818608E-02  0.9133485E-01
          4   -1    0    0  502    0 -0.00000000000E+00  0.00000000000E+00  0.15625154849E+04  0.15625154849E+04  0.00000000000E+00 0.  1.
         21   -1    0    0  501  502  0.00000000000E+00 -0.00000000000E+00 -0.54958003704E+03  0.54958003704E+03  0.00000000000E+00 0.  1.
    9000010    2    1    2  501    0  0.20133274233E+03 -0.13116237863E+03 -0.83549960989E+02  0.98958997376E+03  0.95633115472E+03 0.  0.
        -13    1    3    3    0    0 -0.31709943364E+03  0.64047518111E+02 -0.25256010509E+03  0.41041534235E+03  0.10566000000E+00 0.  1.
          4    1    3    3  501    0  0.51843217596E+03 -0.19520989675E+03  0.16901014410E+03  0.57917463141E+03  0.00000000000E+00 0.  1.
         13    1    1    2    0    0 -0.20133274233E+03  0.13116237863E+03  0.10964854088E+04  0.11225055482E+04  0.10566000000E+00 0. -1.
<mgrwt>
<rscale>  1 0.69280266E+03</rscale>
<asrwt>0</asrwt>
<pdfrwt beam="2">  1       21 0.84550775E-01 0.98605665E+03</pdfrwt>
<pdfrwt beam="1">  1        4 0.24038700E+00 0.98605665E+03</pdfrwt>
<totfact> 0.11261463E+01</totfact>
</mgrwt>
</event>
<event>
 6    1  0.5391662E-005  0.1001636E+04  0.7818608E-02  0.9262799E-01
          4   -1    0    0  502    0 -0.00000000000E+00  0.00000000000E+00  0.40658844208E+04  0.40658844208E+04  0.00000000000E+00 0.  1.
         21   -1    0    0  501  502  0.00000000000E+00 -0.00000000000E+00 -0.10728707595E+03  0.10728707595E+03  0.00000000000E+00 0.  1.
    9000010    2    1    2  501    0 -0.41044141944E+02  0.13267862974E+03  0.38926028630E+04  0.40194069912E+04  0.99196132559E+03 0.  0.
        -13    1    3    3    0    0  0.50630163192E+02  0.30184063768E+03  0.37881179484E+04  0.38004616543E+04  0.10566000000E+00 0.  1.
          4    1    3    3  501    0 -0.91674305136E+02 -0.16916200794E+03  0.10448491461E+03  0.21894533686E+03  0.00000000000E+00 0.  1.
         13    1    1    2    0    0  0.41044141944E+02 -0.13267862974E+03  0.65994481888E+02  0.15376450560E+03  0.10566000000E+00 0. -1.
<mgrwt>
<rscale>  1 0.61121533E+03</rscale>
<asrwt>0</asrwt>
<pdfrwt beam="2">  1       21 0.16505707E-01 0.10016364E+04</pdfrwt>
<pdfrwt beam="1">  1        4 0.62552056E+00 0.10016364E+04</pdfrwt>
<totfact> 0.10059495E+01</totfact>
</mgrwt>
</event>
<event>
 6    1  0.5391662E-005  0.1071927E+04  0.7818608E-02  0.8955486E-01
          4   -1    0    0  502    0 -0.00000000000E+00  0.00000000000E+00  0.22834324251E+04  0.22834324251E+04  0.00000000000E+00 0.  1.
         21   -1    0    0  501  502  0.00000000000E+00 -0.00000000000E+00 -0.23577081697E+03  0.23577081697E+03  0.00000000000E+00 0.  1.
    9000010    2    1    2  501    0 -0.33252075633E+03 -0.18739544478E+03  0.13484802704E+04  0.17226220093E+04  0.10016688282E+04 0.  0.
        -13    1    3    3    0    0 -0.25740453860E+03 -0.45939095504E+03  0.23984375944E+03  0.57863821699E+03  0.10566000000E+00 0.  1.
          4    1    3    3  501    0 -0.75116217738E+02  0.27199551026E+03  0.11086365109E+04  0.11439837923E+04  0.00000000000E+00 0.  1.
         13    1    1    2    0    0  0.33252075633E+03  0.18739544478E+03  0.69918133774E+03  0.79658123272E+03  0.10566000000E+00 0. -1.
<mgrwt>
<rscale>  1 0.82804046E+03</rscale>
<asrwt>0</asrwt>
<pdfrwt beam="2">  1       21 0.36272435E-01 0.10719270E+04</pdfrwt>
<pdfrwt beam="1">  1        4 0.35129728E+00 0.10719270E+04</pdfrwt>
<totfact> 0.38593972E+01</totfact>
</mgrwt>
</event>
<event>
 6    1  0.5391662E-005  0.1068549E+04  0.7818608E-02  0.8935526E-01
         21   -1    0    0  501  502  0.00000000000E+00  0.00000000000E+00  0.88508120447E+03  0.88508120447E+03  0.00000000000E+00 0. -1.
          4   -1    0    0  502    0 -0.00000000000E+00 -0.00000000000E+00 -0.65781613764E+03  0.65781613764E+03  0.00000000000E+00 0.  1.
    9000010    2    1    2  501    0 -0.27913816188E+03 -0.31134663189E+03  0.33300539708E+01  0.10685538592E+04  0.98333179661E+03 0.  0.
        -13    1    3    3    0    0 -0.15676430922E+03 -0.67068005733E+03 -0.75383882230E+01  0.68879868351E+03  0.10566000000E+00 0.  1.
          4    1    3    3  501    0 -0.12237385266E+03  0.35933342544E+03  0.10868442194E+02  0.37975517572E+03  0.00000000000E+00 0.  1.
         13    1    1    2    0    0  0.27913816188E+03  0.31134663189E+03  0.22393501285E+03  0.47434348288E+03  0.10566000000E+00 0. -1.
<mgrwt>
<rscale>  1 0.84514358E+03</rscale>
<asrwt>0</asrwt>
<pdfrwt beam="1">  1       21 0.13616634E+00 0.10685487E+04</pdfrwt>
<pdfrwt beam="2">  1        4 0.10120248E+00 0.10685487E+04</pdfrwt>
<totfact> 0.11177229E+01</totfact>
</mgrwt>
</event>
<event>
 6    1  0.5391662E-005  0.1064381E+04  0.7818608E-02  0.8967817E-01
         21   -1    0    0  501  502  0.00000000000E+00  0.00000000000E+00  0.39285597124E+03  0.39285597124E+03  0.00000000000E+00 0.  1.
          4   -1    0    0  502    0 -0.00000000000E+00 -0.00000000000E+00 -0.19731787168E+04  0.19731787168E+04  0.00000000000E+00 0.  1.
    9000010    2    1    2  501    0  0.36929650604E+03  0.32531910824E+02 -0.41374786338E+03  0.11419696565E+04  0.99773201176E+03 0.  0.
        -13    1    3    3    0    0  0.14364864959E+03  0.45178860137E+03 -0.46380604458E+03  0.66322238579E+03  0.10566000000E+00 0.  1.
          4    1    3    3  501    0  0.22564785645E+03 -0.41925669055E+03  0.50058181206E+02  0.47874727069E+03  0.00000000000E+00 0.  1.
         13    1    1    2    0    0 -0.36929650604E+03 -0.32531910824E+02 -0.11665748821E+04  0.12240650315E+04  0.10566000000E+00 0. -1.
<mgrwt>
<rscale>  1 0.81768561E+03</rscale>
<asrwt>0</asrwt>
<pdfrwt beam="1">  1       21 0.60439380E-01 0.10643812E+04</pdfrwt>
<pdfrwt beam="2">  1        4 0.30356596E+00 0.10643812E+04</pdfrwt>
<totfact> 0.17333275E+01</totfact>
</mgrwt>
</event>
<event>
 6    1  0.5391662E-005  0.1001791E+04  0.7818608E-02  0.9269033E-01
          4   -1    0    0  502    0 -0.00000000000E+00  0.00000000000E+00  0.11488077361E+04  0.11488077361E+04  0.00000000000E+00 0.  1.
         21   -1    0    0  501  502  0.00000000000E+00 -0.00000000000E+00 -0.28328589798E+03  0.28328589798E+03  0.00000000000E+00 0.  1.
    9000010    2    1    2  501    0 -0.42225215829E+02  0.12880778652E+03  0.72326498981E+03  0.12355957033E+04  0.99257749416E+03 0.  0.
        -13    1    3    3    0    0 -0.21581131281E+03  0.42618987730E+03  0.75108598684E+03  0.89013622836E+03  0.10566000000E+00 0.  1.
          4    1    3    3  501    0  0.17358609698E+03 -0.29738209078E+03 -0.27820997031E+02  0.34545947498E+03  0.00000000000E+00 0.  1.
         13    1    1    2    0    0  0.42225215829E+02 -0.12880778652E+03  0.14225684828E+03  0.19649793069E+03  0.10566000000E+00 0. -1.
<mgrwt>
<rscale>  1 0.60758837E+03</rscale>
<asrwt>0</asrwt>
<pdfrwt beam="2">  1       21 0.43582446E-01 0.10017906E+04</pdfrwt>
<pdfrwt beam="1">  1        4 0.17673965E+00 0.10017906E+04</pdfrwt>
<totfact> 0.77376129E+01</totfact>
</mgrwt>
</event>
<event>
 6    1  0.5391662E-005  0.1036938E+04  0.7818608E-02  0.9069293E-01
          4   -1    0    0  502    0 -0.00000000000E+00  0.00000000000E+00  0.22212799752E+04  0.22212799752E+04  0.00000000000E+00 0.  1.
         21   -1    0    0  501  502  0.00000000000E+00 -0.00000000000E+00 -0.19194279823E+03  0.19194279823E+03  0.00000000000E+00 0.  1.
    9000010    2    1    2  501    0 -0.65385584281E+02  0.25823243036E+03  0.15506999638E+04  0.18654519676E+04  0.10021384151E+04 0.  0.
        -13    1    3    3    0    0  0.29360737199E+03 -0.26770762039E+03  0.52983915037E+03  0.66227048502E+03  0.10566000000E+00 0.  1.
          4    1    3    3  501    0 -0.35899295627E+03  0.52594005075E+03  0.10208608134E+04  0.12031814826E+04  0.00000000000E+00 0.  1.
         13    1    1    2    0    0  0.65385584281E+02 -0.25823243036E+03  0.47863721313E+03  0.54777080580E+03  0.10566000000E+00 0. -1.
<mgrwt>
<rscale>  1 0.73822845E+03</rscale>
<asrwt>0</asrwt>
<pdfrwt beam="2">  1       21 0.29529663E-01 0.10369381E+04</pdfrwt>
<pdfrwt beam="1">  1        4 0.34173536E+00 0.10369381E+04</pdfrwt>
<totfact> 0.63865058E+01</totfact>
</mgrwt>
</event>
<event>
 6    1  0.5391662E-005  0.1234078E+04  0.7818608E-02  0.8707458E-01
          4   -1    0    0  502    0 -0.00000000000E+00  0.00000000000E+00  0.95507989898E+03  0.95507989898E+03  0.00000000000E+00 0.  1.
         21   -1    0    0  501  502  0.00000000000E+00 -0.00000000000E+00 -0.10672434452E+04  0.10672434452E+04  0.00000000000E+00 0.  1.
    9000010    2    1    2  501    0  0.66091192487E+03  0.25835827725E+03  0.19444305959E+03  0.12493025205E+04  0.10096509855E+04 0.  0.
        -13    1    3    3    0    0  0.84612226411E+03 -0.50436049354E+02  0.16806054528E+02  0.84779073805E+03  0.10566000000E+00 0.  1.
          4    1    3    3  501    0 -0.18521033924E+03  0.30879432661E+03  0.17763700506E+03  0.40151178248E+03  0.00000000000E+00 0.  1.
         13    1    1    2    0    0 -0.66091192487E+03 -0.25835827725E+03 -0.30660660579E+03  0.77302082361E+03  0.10566000000E+00 0. -1.
<mgrwt>
<rscale>  1 0.10746394E+04</rscale>
<asrwt>0</asrwt>
<pdfrwt beam="2">  1       21 0.16419130E+00 0.12340781E+04</pdfrwt>
<pdfrwt beam="1">  1        4 0.14693537E+00 0.12340781E+04</pdfrwt>
<totfact> 0.33070791E+00</totfact>
</mgrwt>
</event>
<event>
 6    1  0.5391662E-005  0.1045285E+04  0.7818608E-02  0.9105071E-01
         21   -1    0    0  501  502  0.00000000000E+00  0.00000000000E+00  0.89167477263E+03  0.89167477263E+03  0.00000000000E+00 0.  1.
          4   -1    0    0  502    0 -0.00000000000E+00 -0.00000000000E+00 -0.11728883325E+04  0.11728883325E+04  0.00000000000E+00 0.  1.
    9000010    2    1    2  501    0 -0.82285670454E+01 -0.22547222671E+03  0.56539976180E+03  0.11884012697E+04  0.10206445281E+04 0.  0.
        -13    1    3    3    0    0  0.77950771555E+02  0.35221662422E+03  0.47641230863E+03  0.59757976216E+03  0.10566000000E+00 0.  1.
          4    1    3    3  501    0 -0.86179338600E+02 -0.57768885094E+03  0.88987453178E+02  0.59082150750E+03  0.00000000000E+00 0.  1.
         13    1    1    2    0    0  0.82285670454E+01  0.22547222671E+03 -0.84661332173E+03  0.87616183552E+03  0.10566000000E+00 0. -1.
<mgrwt>
<rscale>  1 0.71247817E+03</rscale>
<asrwt>0</asrwt>
<pdfrwt beam="1">  1       21 0.13718073E+00 0.10452850E+04</pdfrwt>
<pdfrwt beam="2">  1        4 0.18044436E+00 0.10452850E+04</pdfrwt>
<totfact> 0.43900851E+00</totfact>
</mgrwt>
</event>
<event>
 6    1  0.5391662E-005  0.1029695E+04  0.7818608E-02  0.9204271E-01
         21   -1    0    0  501  502  0.00000000000E+00  0.00000000000E+00  0.18601438915E+03  0.18601438915E+03  0.00000000000E+00 0.  1.
          4   -1    0    0  502    0 -0.00000000000E+00 -0.00000000000E+00 -0.19153378965E+04  0.19153378965E+04  0.00000000000E+00 0.  1.
    9000010    2    1    2  501    0  0.15999344674E+03  0.59901790957E+01 -0.14336413005E+04  0.17651057037E+04  0.10171710680E+04 0.  0.
        -13    1    3    3    0    0  0.42258546899E+01  0.30888123425E+03 -0.13874114845E+04  0.14213852796E+04  0.10566000000E+00 0.  1.
          4    1    3    3  501    0  0.15576759205E+03 -0.30289105515E+03 -0.46229815963E+02  0.34372042405E+03  0.00000000000E+00 0.  1.
         13    1    1    2    0    0 -0.15999344674E+03 -0.59901790957E+01 -0.29568220692E+03  0.33624658199E+03  0.10566000000E+00 0. -1.
<mgrwt>
<rscale>  1 0.64659585E+03</rscale>
<asrwt>0</asrwt>
<pdfrwt beam="1">  1       21 0.28617598E-01 0.10296945E+04</pdfrwt>
<pdfrwt beam="2">  1        4 0.29466737E+00 0.10296945E+04</pdfrwt>
<totfact> 0.92247378E+01</totfact>
</mgrwt>
</event>
<event>
 6    1  0.5391662E-005  0.1014795E+04  0.7818608E-02  0.9144135E-01
          4   -1    0    0  502    0 -0.00000000000E+00  0.00000000000E+00  0.14787690723E+04  0.14787690723E+04  0.00000000000E+00 0.  1.
         21   -1    0    0  501  502  0.00000000000E+00 -0.00000000000E+00 -0.36496813442E+03  0.36496813442E+03  0.00000000000E+00 0.  1.
    9000010    2    1    2  501    0  0.21576465833E+02 -0.21031551387E+03  0.38579759162E+03  0.10856560484E+04  0.99252763916E+03 0.  0.
        -13    1    3    3    0    0 -0.23577372250E+03 -0.45627387401E+03  0.49499666327E+03  0.71329993981E+03  0.10566000000E+00 0.  1.
          4    1    3    3  501    0  0.25735018833E+03  0.24595836014E+03 -0.10919907165E+03  0.37235610860E+03  0.00000000000E+00 0.  1.
         13    1    1    2    0    0 -0.21576465833E+02  0.21031551387E+03  0.72800334627E+03  0.75808115832E+03  0.10566000000E+00 0. -1.
<mgrwt>
<rscale>  1 0.68559875E+03</rscale>
<asrwt>0</asrwt>
<pdfrwt beam="2">  1       21 0.56148944E-01 0.10147952E+04</pdfrwt>
<pdfrwt beam="1">  1        4 0.22750293E+00 0.10147952E+04</pdfrwt>
<totfact> 0.31735402E+01</totfact>
</mgrwt>
</event>
<event>
 6    1  0.5391662E-005  0.1051208E+04  0.7818608E-02  0.9007493E-01
          4   -1    0    0  502    0 -0.00000000000E+00  0.00000000000E+00  0.19907151797E+04  0.19907151797E+04  0.00000000000E+00 0.  1.
         21   -1    0    0  501  502  0.00000000000E+00 -0.00000000000E+00 -0.29567437274E+03  0.29567437274E+03  0.00000000000E+00 0.  1.
    9000010    2    1    2  501    0  0.49505123749E+02  0.32384916502E+03  0.76434401588E+03  0.12997155602E+04  0.99885420545E+03 0.  0.
        -13    1    3    3    0    0  0.45512763296E+02 -0.26083045338E+03 -0.76466539703E+02  0.27559223482E+03  0.10566000000E+00 0.  1.
          4    1    3    3  501    0  0.39923604528E+01  0.58467961840E+03  0.84081055559E+03  0.10241233253E+04  0.00000000000E+00 0.  1.
         13    1    1    2    0    0 -0.49505123749E+02 -0.32384916502E+03  0.93069679107E+03  0.98667399228E+03  0.10566000000E+00 0. -1.
<mgrwt>
<rscale>  1 0.78542773E+03</rscale>
<asrwt>0</asrwt>
<pdfrwt beam="2">  1       21 0.45488366E-01 0.10512082E+04</pdfrwt>
<pdfrwt beam="1">  1        4 0.30626387E+00 0.10512082E+04</pdfrwt>
<totfact> 0.32241987E+01</totfact>
</mgrwt>
</event>
<event>
 6    1  0.5391662E-005  0.1233313E+04  0.7818608E-02  0.8706793E-01
          4   -1    0    0  502    0 -0.00000000000E+00  0.00000000000E+00  0.14363196497E+04  0.14363196497E+04  0.00000000000E+00 0.  1.
         21   -1    0    0  501  502  0.00000000000E+00 -0.00000000000E+00 -0.12433650879E+04  0.12433650879E+04  0.00000000000E+00 0.  1.
    9000010    2    1    2  501    0  0.70888242711E+03 -0.76352637954E+02 -0.79054823901E+03  0.14649329971E+04  0.10063389822E+04 0.  0.
        -13    1    3    3    0    0  0.22579759272E+03  0.45548190188E+03 -0.40201645449E+03  0.64812464593E+03  0.10566000000E+00 0.  1.
          4    1    3    3  501    0  0.48308483439E+03 -0.53183453983E+03 -0.38853178452E+03  0.81680835118E+03  0.00000000000E+00 0.  1.
         13    1    1    2    0    0 -0.70888242711E+03  0.76352637954E+02  0.98350280084E+03  0.12147517406E+04  0.10566000000E+00 0. -1.
<mgrwt>
<rscale>  1 0.10754119E+04</rscale>
<asrwt>0</asrwt>
<pdfrwt beam="2">  1       21 0.19128694E+00 0.12333135E+04</pdfrwt>
<pdfrwt beam="1">  1        4 0.22097225E+00 0.12333135E+04</pdfrwt>
<totfact> 0.11317175E+00</totfact>
</mgrwt>
</event>
<event>
 6    1  0.5391662E-005  0.1011584E+04  0.7818608E-02  0.9179433E-01
         21   -1    0    0  501  502  0.00000000000E+00  0.00000000000E+00  0.95955485956E+03  0.95955485956E+03  0.00000000000E+00 0.  1.
          4   -1    0    0  502    0 -0.00000000000E+00 -0.00000000000E+00 -0.37388606264E+03  0.37388606264E+03  0.00000000000E+00 0.  1.
    9000010    2    1    2  501    0 -0.18220895104E+03 -0.37096741501E+02  0.50719103567E+03  0.11316116868E+04  0.99434701844E+03 0.  0.
        -13    1    3    3    0    0 -0.25618378920E+03 -0.40407761500E+03  0.57829581740E+03  0.75055640453E+03  0.10566000000E+00 0.  1.
          4    1    3    3  501    0  0.73974838163E+02  0.36698087350E+03 -0.71104781731E+02  0.38105528232E+03  0.00000000000E+00 0.  1.
         13    1    1    2    0    0  0.18220895104E+03  0.37096741501E+02  0.78477761257E+02  0.20182923536E+03  0.10566000000E+00 0. -1.
<mgrwt>
<rscale>  1 0.66236711E+03</rscale>
<asrwt>0</asrwt>
<pdfrwt beam="1">  1       21 0.14762382E+00 0.10115840E+04</pdfrwt>
<pdfrwt beam="2">  1        4 0.57520933E-01 0.10115840E+04</pdfrwt>
<totfact> 0.28144889E+01</totfact>
</mgrwt>
</event>
<event>
 6    1  0.5391662E-005  0.1011036E+04  0.7818608E-02  0.9353511E-01
          4   -1    0    0  502    0 -0.00000000000E+00  0.00000000000E+00  0.16533727680E+04  0.16533727680E+04  0.00000000000E+00 0.  1.
         21   -1    0    0  501  502  0.00000000000E+00 -0.00000000000E+00 -0.19494344528E+03  0.19494344528E+03  0.00000000000E+00 0.  1.
    9000010    2    1    2  501    0  0.23938730982E+02  0.92776433555E+02  0.11801862485E+04  0.15540378604E+04  0.10064857480E+04 0.  0.
        -13    1    3    3    0    0  0.11689049696E+03  0.52898005793E+03  0.80978683279E+03  0.97428846637E+03  0.10566000000E+00 0.  1.
          4    1    3    3  501    0 -0.92951765976E+02 -0.43620362438E+03  0.37039941570E+03  0.57974939402E+03  0.00000000000E+00 0.  1.
         13    1    1    2    0    0 -0.23938730982E+02 -0.92776433555E+02  0.27824307423E+03  0.29427835290E+03  0.10566000000E+00 0. -1.
<mgrwt>
<rscale>  1 0.56096213E+03</rscale>
<asrwt>0</asrwt>
<pdfrwt beam="2">  1       21 0.29991300E-01 0.10110361E+04</pdfrwt>
<pdfrwt beam="1">  1        4 0.25436503E+00 0.10110361E+04</pdfrwt>
<totfact> 0.10540289E+02</totfact>
</mgrwt>
</event>
<event>
 6    1  0.5391662E-005  0.9939045E+03  0.7818608E-02  0.9317373E-01
         21   -1    0    0  501  502  0.00000000000E+00  0.00000000000E+00  0.22847357193E+03  0.22847357193E+03  0.00000000000E+00 0.  1.
          4   -1    0    0  502    0 -0.00000000000E+00 -0.00000000000E+00 -0.16405175704E+04  0.16405175704E+04  0.00000000000E+00 0.  1.
    9000010    2    1    2  501    0  0.11157774656E+03  0.29983073135E+02 -0.88945437492E+03  0.13337823009E+04  0.98716643115E+03 0.  0.
        -13    1    3    3    0    0  0.50178986439E+03 -0.12420366622E+03 -0.26349543728E+03  0.58021502509E+03  0.10566000000E+00 0.  1.
          4    1    3    3  501    0 -0.39021211783E+03  0.15418673935E+03 -0.62595893764E+03  0.75356727577E+03  0.00000000000E+00 0.  1.
         13    1    1    2    0    0 -0.11157774656E+03 -0.29983073135E+02 -0.52258962354E+03  0.53520884148E+03  0.10566000000E+00 0. -1.
<mgrwt>
<rscale>  1 0.58034722E+03</rscale>
<asrwt>0</asrwt>
<pdfrwt beam="1">  1       21 0.35149780E-01 0.99390449E+03</pdfrwt>
<pdfrwt beam="2">  1        4 0.25238732E+00 0.99390449E+03</pdfrwt>
<totfact> 0.76793856E+01</totfact>
</mgrwt>
</event>
<event>
 6    1  0.5391662E-005  0.1016765E+04  0.7818608E-02  0.9175283E-01
          4   -1    0    0  502    0 -0.00000000000E+00  0.00000000000E+00  0.15468533541E+04  0.15468533541E+04  0.00000000000E+00 0.  1.
         21   -1    0    0  501  502  0.00000000000E+00 -0.00000000000E+00 -0.26917635514E+03  0.26917635514E+03  0.00000000000E+00 0.  1.
    9000010    2    1    2  501    0  0.14566543615E+03 -0.11582566040E+03  0.77032422221E+03  0.12756216651E+04  0.99958852651E+03 0.  0.
        -13    1    3    3    0    0 -0.18401383634E+03 -0.15554502327E+03 -0.15904872911E+03  0.28870721436E+03  0.10566000000E+00 0.  1.
          4    1    3    3  501    0  0.32967927249E+03  0.39719362873E+02  0.92937295132E+03  0.98691445077E+03  0.00000000000E+00 0.  1.
         13    1    1    2    0    0 -0.14566543615E+03  0.11582566040E+03  0.50735277675E+03  0.54040804411E+03  0.10566000000E+00 0. -1.
<mgrwt>
<rscale>  1 0.66504850E+03</rscale>
<asrwt>0</asrwt>
<pdfrwt beam="2">  1       21 0.41411748E-01 0.10167651E+04</pdfrwt>
<pdfrwt beam="1">  1        4 0.23797743E+00 0.10167651E+04</pdfrwt>
<totfact> 0.58538375E+01</totfact>
</mgrwt>
</event>
<event>
 6    1  0.5391662E-005  0.1090029E+04  0.7818608E-02  0.8789382E-01
          4   -1    0    0  502    0 -0.00000000000E+00  0.00000000000E+00  0.22230351906E+04  0.22230351906E+04  0.00000000000E+00 0.  1.
         21   -1    0    0  501  502  0.00000000000E+00 -0.00000000000E+00 -0.74950302332E+03  0.74950302332E+03  0.00000000000E+00 0.  1.
    9000010    2    1    2  501    0  0.72104098626E+03  0.76411921449E+02 -0.23627449381E+03  0.11153420167E+04  0.81389390717E+03 0.  0.
        -13    1    3    3    0    0  0.87262051765E+03 -0.63348209317E+02 -0.13375333919E+03  0.88508165180E+03  0.10566000000E+00 0.  1.
          4    1    3    3  501    0 -0.15157953139E+03  0.13976013077E+03 -0.10252115462E+03  0.23026036488E+03  0.00000000000E+00 0.  1.
         13    1    1    2    0    0 -0.72104098626E+03 -0.76411921449E+02  0.17098066611E+04  0.18571961973E+04  0.10566000000E+00 0. -1.
<mgrwt>
<rscale>  1 0.98440692E+03</rscale>
<asrwt>0</asrwt>
<pdfrwt beam="2">  1       21 0.11530816E+00 0.10900285E+04</pdfrwt>
<pdfrwt beam="1">  1        4 0.34200541E+00 0.10900285E+04</pdfrwt>
<totfact> 0.26770261E+00</totfact>
</mgrwt>
</event>
<event>
 6    1  0.5391662E-005  0.7637047E+03  0.7818608E-02  0.9765504E-01
         21   -1    0    0  501  502  0.00000000000E+00  0.00000000000E+00  0.30780482704E+03  0.30780482704E+03  0.00000000000E+00 0.  1.
          4   -1    0    0  502    0 -0.00000000000E+00 -0.00000000000E+00 -0.76435455954E+03  0.76435455954E+03  0.00000000000E+00 0.  1.
    9000010    2    1    2  501    0 -0.36435674705E+02  0.35226291058E+02 -0.17161068856E+03  0.78274839871E+03  0.76202124464E+03 0.  0.
        -13    1    3    3    0    0 -0.37182640471E+03 -0.50357974079E+02  0.39526847886E+02  0.37729720866E+03  0.10566000000E+00 0.  1.
          4    1    3    3  501    0  0.33539073001E+03  0.85584265137E+02 -0.21113753645E+03  0.40545119005E+03  0.00000000000E+00 0.  1.
         13    1    1    2    0    0  0.36435674705E+02 -0.35226291058E+02 -0.28493904394E+03  0.28941098787E+03  0.10566000000E+00 0. -1.
<mgrwt>
<rscale>  1 0.38761735E+03</rscale>
<asrwt>0</asrwt>
<pdfrwt beam="1">  1       21 0.47354589E-01 0.76370467E+03</pdfrwt>
<pdfrwt beam="2">  1        4 0.11759301E+00 0.76370467E+03</pdfrwt>
<totfact> 0.12072462E+02</totfact>
</mgrwt>
</event>
<event>
 6    1  0.5391662E-005  0.1028892E+04  0.7818608E-02  0.9093194E-01
         21   -1    0    0  501  502  0.00000000000E+00  0.00000000000E+00  0.17866339175E+03  0.17866339175E+03  0.00000000000E+00 0.  1.
          4   -1    0    0  502    0 -0.00000000000E+00 -0.00000000000E+00 -0.23170287732E+04  0.23170287732E+04  0.00000000000E+00 0.  1.
    9000010    2    1    2  501    0 -0.23825422740E+03 -0.68730169316E+02 -0.15899520995E+04  0.18938233653E+04  0.99856414271E+03 0.  0.
        -13    1    3    3    0    0 -0.37848142281E+03  0.10852028010E+03 -0.12728129642E+03  0.41379388370E+03  0.10566000000E+00 0.  1.
          4    1    3    3  501    0  0.14022719541E+03 -0.17725044941E+03 -0.14626708031E+04  0.14800294816E+04  0.00000000000E+00 0.  1.
         13    1    1    2    0    0  0.23825422740E+03  0.68730169316E+02 -0.54841328196E+03  0.60186879969E+03  0.10566000000E+00 0. -1.
<mgrwt>
<rscale>  1 0.72090333E+03</rscale>
<asrwt>0</asrwt>
<pdfrwt beam="1">  1       21 0.27486679E-01 0.10288922E+04</pdfrwt>
<pdfrwt beam="2">  1        4 0.35646593E+00 0.10288922E+04</pdfrwt>
<totfact> 0.66035025E+01</totfact>
</mgrwt>
</event>
<event>
 6    1  0.5391662E-005  0.1032587E+04  0.7818608E-02  0.9207495E-01
          4   -1    0    0  502    0 -0.00000000000E+00  0.00000000000E+00  0.19548901059E+03  0.19548901059E+03  0.00000000000E+00 0.  1.
         21   -1    0    0  501  502  0.00000000000E+00 -0.00000000000E+00 -0.18126535087E+04  0.18126535087E+04  0.00000000000E+00 0.  1.
    9000010    2    1    2  501    0 -0.15478830450E+03  0.25010490122E+02 -0.14329456223E+04  0.17662302434E+04  0.10206131356E+04 0.  0.
        -13    1    3    3    0    0 -0.14974698282E+03 -0.34715436391E+03 -0.11268720597E+03  0.39451074612E+03  0.10566000000E+00 0.  1.
          4    1    3    3  501    0 -0.50413216844E+01  0.37216485404E+03 -0.13202584163E+04  0.13717194973E+04  0.00000000000E+00 0.  1.
         13    1    1    2    0    0  0.15478830450E+03 -0.25010490122E+02 -0.18421887583E+03  0.24191227584E+03  0.10566000000E+00 0. -1.
<mgrwt>
<rscale>  1 0.64458278E+03</rscale>
<asrwt>0</asrwt>
<pdfrwt beam="2">  1       21 0.27886977E+00 0.10325871E+04</pdfrwt>
<pdfrwt beam="1">  1        4 0.30075233E-01 0.10325871E+04</pdfrwt>
<totfact> 0.10193233E+01</totfact>
</mgrwt>
</event>
<event>
 6    1  0.5391662E-005  0.9981755E+03  0.7818608E-02  0.9238818E-01
         21   -1    0    0  501  502  0.00000000000E+00  0.00000000000E+00  0.86639202007E+03  0.86639202007E+03  0.00000000000E+00 0.  1.
          4   -1    0    0  502    0 -0.00000000000E+00 -0.00000000000E+00 -0.44300145371E+03  0.44300145371E+03  0.00000000000E+00 0.  1.
    9000010    2    1    2  501    0  0.88315816693E+02 -0.12595958008E+03  0.52223789039E+03  0.11265375088E+04  0.98624988988E+03 0.  0.
        -13    1    3    3    0    0  0.27870704420E+03 -0.27712114915E+03  0.71525539368E+03  0.81612746379E+03  0.10566000000E+00 0.  1.
          4    1    3    3  501    0 -0.19039122751E+03  0.15116156907E+03 -0.19301750329E+03  0.31041004502E+03  0.00000000000E+00 0.  1.
         13    1    1    2    0    0 -0.88315816693E+02  0.12595958008E+03 -0.98847324036E+02  0.18285596497E+03  0.10566000000E+00 0. -1.
<mgrwt>
<rscale>  1 0.62541698E+03</rscale>
<asrwt>0</asrwt>
<pdfrwt beam="1">  1       21 0.13329108E+00 0.99817551E+03</pdfrwt>
<pdfrwt beam="2">  1        4 0.68154070E-01 0.99817551E+03</pdfrwt>
<totfact> 0.26675802E+01</totfact>
</mgrwt>
</event>
<event>
 6    1  0.5391662E-005  0.1043030E+04  0.7818608E-02  0.9050980E-01
         21   -1    0    0  501  502  0.00000000000E+00  0.00000000000E+00  0.30885673428E+03  0.30885673428E+03  0.00000000000E+00 0.  1.
          4   -1    0    0  502    0 -0.00000000000E+00 -0.00000000000E+00 -0.14332952812E+04  0.14332952812E+04  0.00000000000E+00 0.  1.
    9000010    2    1    2  501    0 -0.25512629301E+02 -0.28043742178E+03 -0.81434327345E+03  0.13232783692E+04  0.10042980800E+04 0.  0.
        -13    1    3    3    0    0  0.36379982033E+03  0.12242318947E+03 -0.67614566154E+02  0.38975567643E+03  0.10566000000E+00 0.  1.
          4    1    3    3  501    0 -0.38931244963E+03 -0.40286061124E+03 -0.74672870730E+03  0.93352269273E+03  0.00000000000E+00 0.  1.
         13    1    1    2    0    0  0.25512629301E+02  0.28043742178E+03 -0.31009527348E+03  0.41887364632E+03  0.10566000000E+00 0. -1.
<mgrwt>
<rscale>  1 0.75184603E+03</rscale>
<asrwt>0</asrwt>
<pdfrwt beam="1">  1       21 0.47516421E-01 0.10430296E+04</pdfrwt>
<pdfrwt beam="2">  1        4 0.22050697E+00 0.10430296E+04</pdfrwt>
<totfact> 0.47868522E+01</totfact>
</mgrwt>
</event>
<event>
 6    1  0.5391662E-005  0.1071645E+04  0.7818608E-02  0.8967972E-01
         21   -1    0    0  501  502  0.00000000000E+00  0.00000000000E+00  0.18742160503E+03  0.18742160503E+03  0.00000000000E+00 0.  1.
          4   -1    0    0  502    0 -0.00000000000E+00 -0.00000000000E+00 -0.28449287300E+04  0.28449287300E+04  0.00000000000E+00 0.  1.
    9000010    2    1    2  501    0 -0.24442865032E+03 -0.26838495448E+03 -0.17142412468E+04  0.20216444545E+04  0.10082893430E+04 0.  0.
        -13    1    3    3    0    0 -0.45331977788E+03 -0.20529862249E+03 -0.28021285061E+03  0.57110909485E+03  0.10566000000E+00 0.  1.
          4    1    3    3  501    0  0.20889112756E+03 -0.63086331993E+02 -0.14340283962E+04  0.14505353596E+04  0.00000000000E+00 0.  1.
         13    1    1    2    0    0  0.24442865032E+03  0.26838495448E+03 -0.94326587818E+03  0.10107058806E+04  0.10566000000E+00 0. -1.
<mgrwt>
<rscale>  1 0.81755640E+03</rscale>
<asrwt>0</asrwt>
<pdfrwt beam="1">  1       21 0.28834091E-01 0.10716451E+04</pdfrwt>
<pdfrwt beam="2">  1        4 0.43768137E+00 0.10716451E+04</pdfrwt>
<totfact> 0.28476449E+01</totfact>
</mgrwt>
</event>
<event>
 6    1  0.5391662E-005  0.1012670E+04  0.7818608E-02  0.9248575E-01
          4   -1    0    0  502    0 -0.00000000000E+00  0.00000000000E+00  0.87880541777E+03  0.87880541777E+03  0.00000000000E+00 0.  1.
         21   -1    0    0  501  502  0.00000000000E+00 -0.00000000000E+00 -0.37925936103E+03  0.37925936103E+03  0.00000000000E+00 0.  1.
    9000010    2    1    2  501    0 -0.14079928477E+03 -0.17722796940E+02  0.44211345983E+03  0.11049731380E+04  0.10026778088E+04 0.  0.
        -13    1    3    3    0    0 -0.32225439759E+03 -0.39462261158E+03  0.18775550148E+02  0.50983079034E+03  0.10566000000E+00 0.  1.
          4    1    3    3  501    0  0.18145511282E+03  0.37689981464E+03  0.42333790969E+03  0.59514234769E+03  0.00000000000E+00 0.  1.
         13    1    1    2    0    0  0.14079928477E+03  0.17722796940E+02  0.57432596906E+02  0.15309164077E+03  0.10566000000E+00 0. -1.
<mgrwt>
<rscale>  1 0.61959037E+03</rscale>
<asrwt>0</asrwt>
<pdfrwt beam="2">  1       21 0.58347594E-01 0.10126704E+04</pdfrwt>
<pdfrwt beam="1">  1        4 0.13520083E+00 0.10126704E+04</pdfrwt>
<totfact> 0.59549859E+01</totfact>
</mgrwt>
</event>
<event>
 6    1  0.5391662E-005  0.1177680E+04  0.7818608E-02  0.8763876E-01
          4   -1    0    0  502    0 -0.00000000000E+00  0.00000000000E+00  0.17930890157E+04  0.17930890157E+04  0.00000000000E+00 0.  1.
         21   -1    0    0  501  502  0.00000000000E+00 -0.00000000000E+00 -0.48288097519E+03  0.48288097519E+03  0.00000000000E+00 0. -1.
    9000010    2    1    2  501    0 -0.63589046128E+03  0.79551240792E+02  0.60824789428E+03  0.13254789932E+04  0.98805059681E+03 0.  0.
        -13    1    3    3    0    0 -0.54616601200E+03  0.43993724617E+03  0.11916055024E+03  0.71136582792E+03  0.10566000000E+00 0.  1.
          4    1    3    3  501    0 -0.89724449277E+02 -0.36038600538E+03  0.48908734404E+03  0.61411316528E+03  0.00000000000E+00 0.  1.
         13    1    1    2    0    0  0.63589046128E+03 -0.79551240792E+02  0.70196014626E+03  0.95049099773E+03  0.10566000000E+00 0. -1.
<mgrwt>
<rscale>  1 0.10114839E+04</rscale>
<asrwt>0</asrwt>
<pdfrwt beam="2">  1       21 0.74289382E-01 0.11776795E+04</pdfrwt>
<pdfrwt beam="1">  1        4 0.27585985E+00 0.11776795E+04</pdfrwt>
<totfact> 0.12468826E+01</totfact>
</mgrwt>
</event>
<event>
 6    1  0.5391662E-005  0.1205868E+04  0.7818608E-02  0.8746411E-01
         21   -1    0    0  501  502  0.00000000000E+00  0.00000000000E+00  0.44336371461E+03  0.44336371461E+03  0.00000000000E+00 0. -1.
          4   -1    0    0  502    0 -0.00000000000E+00 -0.00000000000E+00 -0.19328614968E+04  0.19328614968E+04  0.00000000000E+00 0.  1.
    9000010    2    1    2  501    0 -0.29139352396E+03  0.57343946636E+03 -0.10277623972E+04  0.15844281514E+04  0.10199872619E+04 0.  0.
        -13    1    3    3    0    0  0.26229420942E+03 -0.12219611173E+03 -0.11839291732E+03  0.31264522394E+03  0.10566000000E+00 0.  1.
          4    1    3    3  501    0 -0.55368773338E+03  0.69563557809E+03 -0.90936947992E+03  0.12717829275E+04  0.00000000000E+00 0.  1.
         13    1    1    2    0    0  0.29139352396E+03 -0.57343946636E+03 -0.46173538499E+03  0.79179706005E+03  0.10566000000E+00 0. -1.
<mgrwt>
<rscale>  1 0.10305431E+04</rscale>
<asrwt>0</asrwt>
<pdfrwt beam="1">  1       21 0.68209802E-01 0.12058677E+04</pdfrwt>
<pdfrwt beam="2">  1        4 0.29736331E+00 0.12058677E+04</pdfrwt>
<totfact> 0.13375818E+01</totfact>
</mgrwt>
</event>
<event>
 6    1  0.5391662E-005  0.1006538E+04  0.7818608E-02  0.9387888E-01
          4   -1    0    0  502    0 -0.00000000000E+00  0.00000000000E+00  0.10260150370E+04  0.10260150370E+04  0.00000000000E+00 0.  1.
         21   -1    0    0  501  502  0.00000000000E+00 -0.00000000000E+00 -0.29078278412E+03  0.29078278412E+03  0.00000000000E+00 0.  1.
    9000010    2    1    2  501    0  0.61036758011E+02  0.59750227981E+02  0.66705611403E+03  0.12075111676E+04  0.10029076652E+04 0.  0.
        -13    1    3    3    0    0  0.66966277060E+02 -0.42930783012E+03  0.55657938831E+03  0.70609512243E+03  0.10566000000E+00 0.  1.
          4    1    3    3  501    0 -0.59295190491E+01  0.48905805810E+03  0.11047672572E+03  0.50141604513E+03  0.00000000000E+00 0.  1.
         13    1    1    2    0    0 -0.61036758011E+02 -0.59750227981E+02  0.68176138841E+02  0.10928665355E+03  0.10566000000E+00 0. -1.
<mgrwt>
<rscale>  1 0.54325691E+03</rscale>
<asrwt>0</asrwt>
<pdfrwt beam="2">  1       21 0.44735813E-01 0.10065383E+04</pdfrwt>
<pdfrwt beam="1">  1        4 0.15784847E+00 0.10065383E+04</pdfrwt>
<totfact> 0.85502896E+01</totfact>
</mgrwt>
</event>
<event>
 6    1  0.5391662E-005  0.1071308E+04  0.7818608E-02  0.8919536E-01
         21   -1    0    0  501  502  0.00000000000E+00  0.00000000000E+00  0.51768274963E+03  0.51768274963E+03  0.00000000000E+00 0.  1.
          4   -1    0    0  502    0 -0.00000000000E+00 -0.00000000000E+00 -0.11159105301E+04  0.11159105301E+04  0.00000000000E+00 0.  1.
    9000010    2    1    2  501    0  0.37829318139E+03 -0.23080928446E+03 -0.35812482541E+03  0.11295812788E+04  0.97535727714E+03 0.  0.
        -13    1    3    3    0    0  0.13496157300E+03  0.32343920155E+03 -0.38886290355E+03  0.52349012618E+03  0.10566000000E+00 0.  1.
          4    1    3    3  501    0  0.24333160838E+03 -0.55424848601E+03  0.30738078145E+02  0.60609115266E+03  0.00000000000E+00 0.  1.
         13    1    1    2    0    0 -0.37829318139E+03  0.23080928446E+03 -0.24010295511E+03  0.50401200094E+03  0.10566000000E+00 0. -1.
<mgrwt>
<rscale>  1 0.85915693E+03</rscale>
<asrwt>0</asrwt>
<pdfrwt beam="1">  1       21 0.79643501E-01 0.10713078E+04</pdfrwt>
<pdfrwt beam="2">  1        4 0.17167854E+00 0.10713078E+04</pdfrwt>
<totfact> 0.20130773E+01</totfact>
</mgrwt>
</event>
<event>
 6    1  0.5391662E-005  0.1052735E+04  0.7818608E-02  0.9702373E-01
          4   -1    0    0  502    0 -0.00000000000E+00  0.00000000000E+00  0.37238556053E+03  0.37238556053E+03  0.00000000000E+00 0.  1.
         21   -1    0    0  501  502  0.00000000000E+00 -0.00000000000E+00 -0.77940716557E+03  0.77940716557E+03  0.00000000000E+00 0.  1.
    9000010    2    1    2  501    0 -0.20735287319E+02  0.12225557071E+02 -0.40373191810E+03  0.11274976733E+04  0.10524600350E+04 0.  0.
        -13    1    3    3    0    0 -0.89358149155E+02 -0.14622765832E+03  0.33100896129E+03  0.37273898441E+03  0.10566000000E+00 0.  1.
          4    1    3    3  501    0  0.68622861836E+02  0.15845321539E+03 -0.73474087939E+03  0.75475868891E+03  0.00000000000E+00 0.  1.
         13    1    1    2    0    0  0.20735287319E+02 -0.12225557071E+02 -0.32896869450E+01  0.24295052791E+02  0.10566000000E+00 0. -1.
<mgrwt>
<rscale>  1 0.40936836E+03</rscale>
<asrwt>0</asrwt>
<pdfrwt beam="2">  1       21 0.11990879E+00 0.10527353E+04</pdfrwt>
<pdfrwt beam="1">  1        4 0.57290086E-01 0.10527353E+04</pdfrwt>
<totfact> 0.51934820E+01</totfact>
</mgrwt>
</event>
<event>
 6    1  0.5391662E-005  0.1125697E+04  0.7818608E-02  0.8846479E-01
          4   -1    0    0  502    0 -0.00000000000E+00  0.00000000000E+00  0.26244429769E+04  0.26244429769E+04  0.00000000000E+00 0.  1.
         21   -1    0    0  501  502  0.00000000000E+00 -0.00000000000E+00 -0.33053437008E+03  0.33053437008E+03  0.00000000000E+00 0.  1.
    9000010    2    1    2  501    0  0.24183734507E+03 -0.45746664180E+03  0.81949026971E+03  0.13923927976E+04  0.99971614519E+03 0.  0.
        -13    1    3    3    0    0 -0.31529984440E+03 -0.13483755968E+03  0.63663703604E+03  0.72311955181E+03  0.10566000000E+00 0.  1.
          4    1    3    3  501    0  0.55713718948E+03 -0.32262908212E+03  0.18285323366E+03  0.66927324583E+03  0.00000000000E+00 0.  1.
         13    1    1    2    0    0 -0.24183734507E+03  0.45746664180E+03  0.14744183371E+04  0.15625845493E+04  0.10566000000E+00 0. -1.
<mgrwt>
<rscale>  1 0.92690348E+03</rscale>
<asrwt>0</asrwt>
<pdfrwt beam="2">  1       21 0.50851443E-01 0.11256969E+04</pdfrwt>
<pdfrwt beam="1">  1        4 0.40376044E+00 0.11256969E+04</pdfrwt>
<totfact> 0.11739058E+01</totfact>
</mgrwt>
</event>
<event>
 6    1  0.5391662E-005  0.7179352E+03  0.7818608E-02  0.9703641E-01
         21   -1    0    0  501  502  0.00000000000E+00  0.00000000000E+00  0.11736795350E+03  0.11736795350E+03  0.00000000000E+00 0.  1.
          4   -1    0    0  502    0 -0.00000000000E+00 -0.00000000000E+00 -0.14335947635E+04  0.14335947635E+04  0.00000000000E+00 0.  1.
    9000010    2    1    2  501    0  0.50825924664E+02 -0.55909127128E+02 -0.10340501025E+04  0.12588449145E+04  0.71394803675E+03 0.  0.
        -13    1    3    3    0    0  0.29265976221E+03 -0.11157202697E+03 -0.94441389476E+03  0.99499531124E+03  0.10566000000E+00 0.  1.
          4    1    3    3  501    0 -0.24183383755E+03  0.55662899840E+02 -0.89636207743E+02  0.26384960326E+03  0.00000000000E+00 0.  1.
         13    1    1    2    0    0 -0.50825924664E+02  0.55909127128E+02 -0.28217670748E+03  0.29211780248E+03  0.10566000000E+00 0. -1.
<mgrwt>
<rscale>  1 0.40891687E+03</rscale>
<asrwt>0</asrwt>
<pdfrwt beam="1">  1       21 0.18056608E-01 0.71793517E+03</pdfrwt>
<pdfrwt beam="2">  1        4 0.22055305E+00 0.71793517E+03</pdfrwt>
<totfact> 0.35504654E+02</totfact>
</mgrwt>
</event>
<event>
 6    1  0.5391662E-005  0.1000820E+04  0.7818608E-02  0.9284807E-01
          4   -1    0    0  502    0 -0.00000000000E+00  0.00000000000E+00  0.12985437610E+04  0.12985437610E+04  0.00000000000E+00 0.  1.
         21   -1    0    0  501  502  0.00000000000E+00 -0.00000000000E+00 -0.25591755497E+03  0.25591755497E+03  0.00000000000E+00 0.  1.
    9000010    2    1    2  501    0  0.15407023923E+02 -0.12708802017E+03  0.80440370510E+03  0.12840196173E+04  0.99259876869E+03 0.  0.
        -13    1    3    3    0    0  0.34655861595E+03  0.11403234657E+03  0.79450228601E+03  0.87426548828E+03  0.10566000000E+00 0.  1.
          4    1    3    3  501    0 -0.33115159203E+03 -0.24112036675E+03  0.99014190931E+01  0.40975412904E+03  0.00000000000E+00 0.  1.
         13    1    1    2    0    0 -0.15407023923E+02  0.12708802017E+03  0.23822250088E+03  0.27044169861E+03  0.10566000000E+00 0. -1.
<mgrwt>
<rscale>  1 0.59852911E+03</rscale>
<asrwt>0</asrwt>
<pdfrwt beam="2">  1       21 0.39371932E-01 0.10008202E+04</pdfrwt>
<pdfrwt beam="1">  1        4 0.19977596E+00 0.10008202E+04</pdfrwt>
<totfact> 0.81757490E+01</totfact>
</mgrwt>
</event>
<event>
 6    1  0.5391662E-005  0.9679665E+03  0.7818608E-02  0.9397154E-01
          4   -1    0    0  502    0 -0.00000000000E+00  0.00000000000E+00  0.38463090634E+03  0.38463090634E+03  0.00000000000E+00 0.  1.
         21   -1    0    0  501  502  0.00000000000E+00 -0.00000000000E+00 -0.10153020396E+04  0.10153020396E+04  0.00000000000E+00 0.  1.
    9000010    2    1    2  501    0 -0.88033316051E+02  0.29319702469E+02 -0.76700987185E+03  0.12350154742E+04  0.96350898709E+03 0.  0.
        -13    1    3    3    0    0  0.43083153159E+03  0.49451583038E+02 -0.24207380977E+03  0.49664978427E+03  0.10566000000E+00 0.  1.
          4    1    3    3  501    0 -0.51886484764E+03 -0.20131880569E+02 -0.52493606208E+03  0.73836568988E+03  0.00000000000E+00 0.  1.
         13    1    1    2    0    0  0.88033316051E+02 -0.29319702469E+02  0.13633873860E+03  0.16491747177E+03  0.10566000000E+00 0. -1.
<mgrwt>
<rscale>  1 0.53860156E+03</rscale>
<asrwt>0</asrwt>
<pdfrwt beam="2">  1       21 0.15620031E+00 0.96796647E+03</pdfrwt>
<pdfrwt beam="1">  1        4 0.59173987E-01 0.96796647E+03</pdfrwt>
<totfact> 0.22335289E+01</totfact>
</mgrwt>
</event>
<event>
 6    1  0.5391662E-005  0.1006954E+04  0.7818608E-02  0.9319506E-01
         21   -1    0    0  501  502  0.00000000000E+00  0.00000000000E+00  0.52188848328E+03  0.52188848328E+03  0.00000000000E+00 0.  1.
          4   -1    0    0  502    0 -0.00000000000E+00 -0.00000000000E+00 -0.64243262254E+03  0.64243262254E+03  0.00000000000E+00 0.  1.
    9000010    2    1    2  501    0  0.11646848852E+02 -0.10959426442E+03 -0.82626109423E+01  0.10069880049E+04  0.10009046005E+04 0.  0.
        -13    1    3    3    0    0 -0.47119225588E+03 -0.17565094032E+03  0.87248747644E+02  0.51038000545E+03  0.10566000000E+00 0.  1.
          4    1    3    3  501    0  0.48283910473E+03  0.66056675903E+02 -0.95511358586E+02  0.49660799944E+03  0.00000000000E+00 0.  1.
         13    1    1    2    0    0 -0.11646848852E+02  0.10959426442E+03 -0.11228152832E+03  0.15733310093E+03  0.10566000000E+00 0. -1.
<mgrwt>
<rscale>  1 0.57918050E+03</rscale>
<asrwt>0</asrwt>
<pdfrwt beam="1">  1       21 0.80290536E-01 0.10069541E+04</pdfrwt>
<pdfrwt beam="2">  1        4 0.98835788E-01 0.10069541E+04</pdfrwt>
<totfact> 0.48292268E+01</totfact>
</mgrwt>
</event>
<event>
 6    1  0.5391662E-005  0.1052429E+04  0.7818608E-02  0.8994123E-01
         21   -1    0    0  501  502  0.00000000000E+00  0.00000000000E+00  0.35582290915E+03  0.35582290915E+03  0.00000000000E+00 0.  1.
          4   -1    0    0  502    0 -0.00000000000E+00 -0.00000000000E+00 -0.16701498478E+04  0.16701498478E+04  0.00000000000E+00 0.  1.
    9000010    2    1    2  501    0 -0.33830020115E+03  0.65680123762E+02 -0.13112217358E+04  0.16813417104E+04  0.99440766394E+03 0.  0.
        -13    1    3    3    0    0 -0.21148966121E+03 -0.23642631719E+03 -0.13159728819E+04  0.13536653639E+04  0.10566000000E+00 0.  1.
          4    1    3    3  501    0 -0.12681053994E+03  0.30210644095E+03  0.47511461345E+01  0.32767634656E+03  0.00000000000E+00 0.  1.
         13    1    1    2    0    0  0.33830020115E+03 -0.65680123762E+02 -0.31052028357E+01  0.34463104648E+03  0.10566000000E+00 0. -1.
<mgrwt>
<rscale>  1 0.79612077E+03</rscale>
<asrwt>0</asrwt>
<pdfrwt beam="1">  1       21 0.54741986E-01 0.10524293E+04</pdfrwt>
<pdfrwt beam="2">  1        4 0.25694613E+00 0.10524293E+04</pdfrwt>
<totfact> 0.28473719E+01</totfact>
</mgrwt>
</event>
<event>
 6    1  0.5391662E-005  0.1037707E+04  0.7818608E-02  0.9177376E-01
         21   -1    0    0  501  502  0.00000000000E+00  0.00000000000E+00  0.20929713592E+03  0.20929713592E+03  0.00000000000E+00 0.  1.
          4   -1    0    0  502    0 -0.00000000000E+00 -0.00000000000E+00 -0.20028373849E+04  0.20028373849E+04  0.00000000000E+00 0.  1.
    9000010    2    1    2  501    0 -0.27214972476E+02 -0.17149381318E+03 -0.11654481675E+04  0.15604824230E+04  0.10230763307E+04 0.  0.
        -13    1    3    3    0    0 -0.28208462531E+02 -0.43340908873E+03 -0.77168218254E+02  0.44112821336E+03  0.10566000000E+00 0.  1.
          4    1    3    3  501    0  0.99349005535E+00  0.26191527554E+03 -0.10882799493E+04  0.11193542096E+04  0.00000000000E+00 0.  1.
         13    1    1    2    0    0  0.27214972476E+02  0.17149381318E+03 -0.62809208145E+03  0.65165209785E+03  0.10566000000E+00 0. -1.
<mgrwt>
<rscale>  1 0.66369482E+03</rscale>
<asrwt>0</asrwt>
<pdfrwt beam="1">  1       21 0.32199559E-01 0.10377071E+04</pdfrwt>
<pdfrwt beam="2">  1        4 0.30812883E+00 0.10377071E+04</pdfrwt>
<totfact> 0.66498424E+01</totfact>
</mgrwt>
</event>
<event>
 6    1  0.5391662E-005  0.1023474E+04  0.7818608E-02  0.9135665E-01
          4   -1    0    0  502    0 -0.00000000000E+00  0.00000000000E+00  0.20794817093E+04  0.20794817093E+04  0.00000000000E+00 0.  1.
         21   -1    0    0  501  502  0.00000000000E+00 -0.00000000000E+00 -0.18409312044E+03  0.18409312044E+03  0.00000000000E+00 0.  1.
    9000010    2    1    2  501    0  0.73451325806E+02 -0.19999075484E+03  0.15349309112E+04  0.18448611473E+04  0.10010536207E+04 0.  0.
        -13    1    3    3    0    0  0.41836107365E+03  0.42603264761E+02  0.12908793904E+04  0.13576489376E+04  0.10566000000E+00 0.  1.
          4    1    3    3  501    0 -0.34490974785E+03 -0.24259401960E+03  0.24405152083E+03  0.48721220975E+03  0.00000000000E+00 0.  1.
         13    1    1    2    0    0 -0.73451325806E+02  0.19999075484E+03  0.36045767771E+03  0.41871368245E+03  0.10566000000E+00 0. -1.
<mgrwt>
<rscale>  1 0.69132050E+03</rscale>
<asrwt>0</asrwt>
<pdfrwt beam="2">  1       21 0.28322020E-01 0.10234744E+04</pdfrwt>
<pdfrwt beam="1">  1        4 0.31992025E+00 0.10234744E+04</pdfrwt>
<totfact> 0.80460700E+01</totfact>
</mgrwt>
</event>
<event>
 6    1  0.5391662E-005  0.1010617E+04  0.7818608E-02  0.9318816E-01
          4   -1    0    0  502    0 -0.00000000000E+00  0.00000000000E+00  0.14583119230E+04  0.14583119230E+04  0.00000000000E+00 0.  1.
         21   -1    0    0  501  502  0.00000000000E+00 -0.00000000000E+00 -0.28516199779E+03  0.28516199779E+03  0.00000000000E+00 0.  1.
    9000010    2    1    2  501    0  0.10912388018E+03  0.62267842998E+01  0.63325739598E+03  0.11926284358E+04  0.10046894357E+04 0.  0.
        -13    1    3    3    0    0  0.45505621807E+03  0.20298905899E+03  0.61868285619E+03  0.79438605689E+03  0.10566000000E+00 0.  1.
          4    1    3    3  501    0 -0.34593233789E+03 -0.19676227469E+03  0.14574539789E+02  0.39824237889E+03  0.00000000000E+00 0.  1.
         13    1    1    2    0    0 -0.10912388018E+03 -0.62267842998E+01  0.53989252920E+03  0.55084548498E+03  0.10566000000E+00 0. -1.
<mgrwt>
<rscale>  1 0.57955756E+03</rscale>
<asrwt>0</asrwt>
<pdfrwt beam="2">  1       21 0.43871077E-01 0.10106175E+04</pdfrwt>
<pdfrwt beam="1">  1        4 0.22435568E+00 0.10106175E+04</pdfrwt>
<totfact> 0.55852764E+01</totfact>
</mgrwt>
</event>
<event>
 6    1  0.5391662E-005  0.1002535E+04  0.7818608E-02  0.9085075E-01
         21   -1    0    0  501  502  0.00000000000E+00  0.00000000000E+00  0.19791236448E+03  0.19791236448E+03  0.00000000000E+00 0.  1.
          4   -1    0    0  502    0 -0.00000000000E+00 -0.00000000000E+00 -0.26203225119E+04  0.26203225119E+04  0.00000000000E+00 0.  1.
    9000010    2    1    2  501    0  0.17591866677E+03 -0.21373598648E+03 -0.11942596014E+04  0.15592733106E+04  0.96355944933E+03 0.  0.
        -13    1    3    3    0    0  0.18568319692E+02  0.36181506380E+03 -0.68464124384E+03  0.77458928912E+03  0.10566000000E+00 0.  1.
          4    1    3    3  501    0  0.15735034708E+03 -0.57555105029E+03 -0.50961835755E+03  0.78468402147E+03  0.00000000000E+00 0.  1.
         13    1    1    2    0    0 -0.17591866677E+03  0.21373598648E+03 -0.12281505460E+04  0.12589615658E+04  0.10566000000E+00 0. -1.
<mgrwt>
<rscale>  1 0.72673315E+03</rscale>
<asrwt>0</asrwt>
<pdfrwt beam="1">  1       21 0.30448056E-01 0.10025354E+04</pdfrwt>
<pdfrwt beam="2">  1        4 0.40312654E+00 0.10025354E+04</pdfrwt>
<totfact> 0.35922775E+01</totfact>
</mgrwt>
</event>
<event>
 6    1  0.5391662E-005  0.1047684E+04  0.7818608E-02  0.8995237E-01
         21   -1    0    0  501  502  0.00000000000E+00  0.00000000000E+00  0.16239881775E+04  0.16239881775E+04  0.00000000000E+00 0.  1.
          4   -1    0    0  502    0 -0.00000000000E+00 -0.00000000000E+00 -0.75786991895E+03  0.75786991895E+03  0.00000000000E+00 0.  1.
    9000010    2    1    2  501    0  0.32765658140E+03 -0.11649065637E+03  0.13976173239E+04  0.17467044332E+04  0.98828805747E+03 0.  0.
        -13    1    3    3    0    0  0.61326161674E+03  0.10232129901E+03  0.11582211167E+04  0.13145476884E+04  0.10566000000E+00 0.  1.
          4    1    3    3  501    0 -0.28560503534E+03 -0.21881195538E+03  0.23939620717E+03  0.43215674475E+03  0.00000000000E+00 0.  1.
         13    1    1    2    0    0 -0.32765658140E+03  0.11649065637E+03 -0.53149906533E+03  0.63515366327E+03  0.10566000000E+00 0. -1.
<mgrwt>
<rscale>  1 0.79522325E+03</rscale>
<asrwt>0</asrwt>
<pdfrwt beam="1">  1       21 0.24984433E+00 0.10476842E+04</pdfrwt>
<pdfrwt beam="2">  1        4 0.11659537E+00 0.10476842E+04</pdfrwt>
<totfact> 0.10530362E+00</totfact>
</mgrwt>
</event>
<event>
 6    1  0.5391662E-005  0.1067957E+04  0.7818608E-02  0.8928343E-01
          4   -1    0    0  502    0 -0.00000000000E+00  0.00000000000E+00  0.14674714746E+04  0.14674714746E+04  0.00000000000E+00 0.  1.
         21   -1    0    0  501  502  0.00000000000E+00 -0.00000000000E+00 -0.43457650305E+03  0.43457650305E+03  0.00000000000E+00 0.  1.
    9000010    2    1    2  501    0  0.26987548521E+03 -0.33656143190E+03  0.40914620482E+03  0.11436490654E+04  0.97694738490E+03 0.  0.
        -13    1    3    3    0    0  0.43766159714E+01 -0.48660924813E+03  0.60861484218E+03  0.77924306376E+03  0.10566000000E+00 0.  1.
          4    1    3    3  501    0  0.26549886924E+03  0.15004781623E+03 -0.19946863736E+03  0.36440600162E+03  0.00000000000E+00 0.  1.
         13    1    1    2    0    0 -0.26987548521E+03  0.33656143190E+03  0.62374876674E+03  0.75839891227E+03  0.10566000000E+00 0. -1.
<mgrwt>
<rscale>  1 0.85140372E+03</rscale>
<asrwt>0</asrwt>
<pdfrwt beam="2">  1       21 0.66857924E-01 0.10679572E+04</pdfrwt>
<pdfrwt beam="1">  1        4 0.22576484E+00 0.10679572E+04</pdfrwt>
<totfact> 0.21337843E+01</totfact>
</mgrwt>
</event>
<event>
 6    1  0.5391662E-005  0.1088245E+04  0.7818608E-02  0.9135474E-01
          4   -1    0    0  502    0 -0.00000000000E+00  0.00000000000E+00  0.71347477384E+03  0.71347477384E+03  0.00000000000E+00 0.  1.
         21   -1    0    0  501  502  0.00000000000E+00 -0.00000000000E+00 -0.90989626318E+03  0.90989626318E+03  0.00000000000E+00 0.  1.
    9000010    2    1    2  501    0  0.99443766356E+02 -0.14686263858E+03 -0.55627847155E+03  0.12221793670E+04  0.10736940765E+04 0.  0.
        -13    1    3    3    0    0  0.19542014620E+03  0.17822932249E+03  0.23975442194E+03  0.35698307935E+03  0.10566000000E+00 0.  1.
          4    1    3    3  501    0 -0.95976379847E+02 -0.32509196107E+03 -0.79603289349E+03  0.86519628765E+03  0.00000000000E+00 0.  1.
         13    1    1    2    0    0 -0.99443766356E+02  0.14686263858E+03  0.35985698221E+03  0.40119167001E+03  0.10566000000E+00 0. -1.
<mgrwt>
<rscale>  1 0.69145007E+03</rscale>
<asrwt>0</asrwt>
<pdfrwt beam="2">  1       21 0.13998404E+00 0.10882448E+04</pdfrwt>
<pdfrwt beam="1">  1        4 0.10976535E+00 0.10882448E+04</pdfrwt>
<totfact> 0.88494979E+00</totfact>
</mgrwt>
</event>
<event>
 6    1  0.5391662E-005  0.1228591E+04  0.7818608E-02  0.8712375E-01
          4   -1    0    0  502    0 -0.00000000000E+00  0.00000000000E+00  0.46393375576E+04  0.46393375576E+04  0.00000000000E+00 0.  1.
         21   -1    0    0  501  502  0.00000000000E+00 -0.00000000000E+00 -0.21377924649E+03  0.21377924649E+03  0.00000000000E+00 0.  1.
    9000010    2    1    2  501    0 -0.53513795155E+03  0.45751264283E+03  0.22120468950E+04  0.25303332916E+04  0.10068488741E+04 0.  0.
        -13    1    3    3    0    0 -0.51266371348E+03  0.38155120691E+03  0.48702026656E+03  0.80348874156E+03  0.10566000000E+00 0.  1.
          4    1    3    3  501    0 -0.22474238077E+02  0.75961435918E+02  0.17250266284E+04  0.17268445500E+04  0.00000000000E+00 0.  1.
         13    1    1    2    0    0  0.53513795155E+03 -0.45751264283E+03  0.22135114161E+04  0.23227835125E+04  0.10566000000E+00 0. -1.
<mgrwt>
<rscale>  1 0.10689484E+04</rscale>
<asrwt>0</asrwt>
<pdfrwt beam="2">  1       21 0.32889118E-01 0.12285907E+04</pdfrwt>
<pdfrwt beam="1">  1        4 0.71374416E+00 0.12285907E+04</pdfrwt>
<totfact> 0.90462511E-01</totfact>
</mgrwt>
</event>
<event>
 6    1  0.5391662E-005  0.1122953E+04  0.7818608E-02  0.8866058E-01
          4   -1    0    0  502    0 -0.00000000000E+00  0.00000000000E+00  0.33082144108E+03  0.33082144108E+03  0.00000000000E+00 0.  1.
         21   -1    0    0  501  502  0.00000000000E+00 -0.00000000000E+00 -0.20799419316E+04  0.20799419316E+04  0.00000000000E+00 0.  1.
    9000010    2    1    2  501    0  0.29626193515E+03 -0.37803277678E+03 -0.91621859460E+03  0.14493032883E+04  0.10150584189E+04 0.  0.
        -13    1    3    3    0    0  0.17442500941E+02 -0.11451503919E+03 -0.10398114447E+04  0.10462436556E+04  0.10566000000E+00 0.  1.
          4    1    3    3  501    0  0.27881943421E+03 -0.26351773759E+03  0.12359285013E+03  0.40305963271E+03  0.00000000000E+00 0.  1.
         13    1    1    2    0    0 -0.29626193515E+03  0.37803277678E+03 -0.83290189590E+03  0.96146008440E+03  0.10566000000E+00 0. -1.
<mgrwt>
<rscale>  1 0.90812885E+03</rscale>
<asrwt>0</asrwt>
<pdfrwt beam="2">  1       21 0.31999107E+00 0.11229530E+04</pdfrwt>
<pdfrwt beam="1">  1        4 0.50895606E-01 0.11229530E+04</pdfrwt>
<totfact> 0.17657900E+00</totfact>
</mgrwt>
</event>
<event>
 6    1  0.5391662E-005  0.1060089E+04  0.7818608E-02  0.9069111E-01
          4   -1    0    0  502    0 -0.00000000000E+00  0.00000000000E+00  0.16924659730E+03  0.16924659730E+03  0.00000000000E+00 0.  1.
         21   -1    0    0  501  502  0.00000000000E+00 -0.00000000000E+00 -0.26566675052E+04  0.26566675052E+04  0.00000000000E+00 0.  1.
    9000010    2    1    2  501    0  0.17266215294E+03  0.18009021044E+03 -0.22203737750E+04  0.24604570116E+04  0.10303127206E+04 0.  0.
        -13    1    3    3    0    0  0.59629610044E+03  0.11592981055E+03 -0.10359521794E+04  0.12009186857E+04  0.10566000000E+00 0.  1.
          4    1    3    3  501    0 -0.42363394750E+03  0.64160399890E+02 -0.11844215956E+04  0.12595383259E+04  0.00000000000E+00 0.  1.
         13    1    1    2    0    0 -0.17266215294E+03 -0.18009021044E+03 -0.26704713293E+03  0.36545709095E+03  0.10566000000E+00 0. -1.
<mgrwt>
<rscale>  1 0.73836245E+03</rscale>
<asrwt>0</asrwt>
<pdfrwt beam="2">  1       21 0.40871810E+00 0.10600891E+04</pdfrwt>
<pdfrwt beam="1">  1        4 0.26037936E-01 0.10600891E+04</pdfrwt>
<totfact> 0.16532241E+00</totfact>
</mgrwt>
</event>
<event>
 6    1  0.5391662E-005  0.1077199E+04  0.7818608E-02  0.9006987E-01
         21   -1    0    0  501  502  0.00000000000E+00  0.00000000000E+00  0.39726719838E+03  0.39726719838E+03  0.00000000000E+00 0.  1.
          4   -1    0    0  502    0 -0.00000000000E+00 -0.00000000000E+00 -0.12505766198E+04  0.12505766198E+04  0.00000000000E+00 0.  1.
    9000010    2    1    2  501    0  0.67360907885E+02  0.29755869057E+03 -0.79107848747E+03  0.13364736742E+04  0.10330914976E+04 0.  0.
        -13    1    3    3    0    0 -0.41452646479E+03 -0.34366358387E+02 -0.94143986991E+02  0.42646962149E+03  0.10566000000E+00 0.  1.
          4    1    3    3  501    0  0.48188737268E+03  0.33192504896E+03 -0.69693450048E+03  0.91000405276E+03  0.00000000000E+00 0.  1.
         13    1    1    2    0    0 -0.67360907885E+02 -0.29755869057E+03 -0.62230933971E+02  0.31137014397E+03  0.10566000000E+00 0. -1.
<mgrwt>
<rscale>  1 0.78582918E+03</rscale>
<asrwt>0</asrwt>
<pdfrwt beam="1">  1       21 0.61118031E-01 0.10771985E+04</pdfrwt>
<pdfrwt beam="2">  1        4 0.19239640E+00 0.10771985E+04</pdfrwt>
<totfact> 0.32262260E+01</totfact>
</mgrwt>
</event>
<event>
 6    1  0.5391662E-005  0.1043033E+04  0.7818608E-02  0.9075837E-01
         21   -1    0    0  501  502  0.00000000000E+00  0.00000000000E+00  0.27007324301E+03  0.27007324301E+03  0.00000000000E+00 0.  1.
          4   -1    0    0  502    0 -0.00000000000E+00 -0.00000000000E+00 -0.15615912249E+04  0.15615912249E+04  0.00000000000E+00 0.  1.
    9000010    2    1    2  501    0  0.25030646324E+03  0.48741524420E+02 -0.10627877187E+04  0.14891055588E+04  0.10113795373E+04 0.  0.
        -13    1    3    3    0    0  0.28553520519E+02 -0.98246022961E+02  0.18600596375E+03  0.21228710342E+03  0.10566000000E+00 0.  1.
          4    1    3    3  501    0  0.22175294272E+03  0.14698754738E+03 -0.12487936825E+04  0.12768184554E+04  0.00000000000E+00 0.  1.
         13    1    1    2    0    0 -0.25030646324E+03 -0.48741524420E+02 -0.22873026320E+03  0.34255890911E+03  0.10566000000E+00 0. -1.
<mgrwt>
<rscale>  1 0.73343563E+03</rscale>
<asrwt>0</asrwt>
<pdfrwt beam="1">  1       21 0.41549730E-01 0.10430329E+04</pdfrwt>
<pdfrwt beam="2">  1        4 0.24024480E+00 0.10430329E+04</pdfrwt>
<totfact> 0.57302589E+01</totfact>
</mgrwt>
</event>
<event>
 6    1  0.5391662E-005  0.1049261E+04  0.7818608E-02  0.9009150E-01
         21   -1    0    0  501  502  0.00000000000E+00  0.00000000000E+00  0.12042657050E+03  0.12042657050E+03  0.00000000000E+00 0.  1.
          4   -1    0    0  502    0 -0.00000000000E+00 -0.00000000000E+00 -0.50662631029E+04  0.50662631029E+04  0.00000000000E+00 0.  1.
    9000010    2    1    2  501    0 -0.71953491907E+02 -0.31923347677E+03 -0.45674702590E+04  0.46864413694E+04  0.99692568618E+03 0.  0.
        -13    1    3    3    0    0 -0.17349845028E+02  0.13532513909E+03 -0.49196801443E+02  0.14503188211E+03  0.10566000000E+00 0.  1.
          4    1    3    3  501    0 -0.54603646879E+02 -0.45455861586E+03 -0.45182734576E+04  0.45414094873E+04  0.00000000000E+00 0.  1.
         13    1    1    2    0    0  0.71953491907E+02  0.31923347677E+03 -0.37836627338E+03  0.50024830403E+03  0.10566000000E+00 0. -1.
<mgrwt>
<rscale>  1 0.78411523E+03</rscale>
<asrwt>0</asrwt>
<pdfrwt beam="1">  1       21 0.18527165E-01 0.10492608E+04</pdfrwt>
<pdfrwt beam="2">  1        4 0.77942509E+00 0.10492608E+04</pdfrwt>
<totfact> 0.10351361E+00</totfact>
</mgrwt>
</event>
<event>
 6    1  0.5391662E-005  0.1003937E+04  0.7818608E-02  0.9449259E-01
         21   -1    0    0  501  502  0.00000000000E+00  0.00000000000E+00  0.88129693479E+03  0.88129693479E+03  0.00000000000E+00 0.  1.
          4   -1    0    0  502    0 -0.00000000000E+00 -0.00000000000E+00 -0.66607879454E+03  0.66607879454E+03  0.00000000000E+00 0.  1.
    9000010    2    1    2  501    0  0.93902709332E+01 -0.67968247819E+02  0.59127155447E+03  0.11651139847E+04  0.10015890806E+04 0.  0.
        -13    1    3    3    0    0 -0.49579341736E+03 -0.27841954464E+02  0.31255429201E+03  0.58675078504E+03  0.10566000000E+00 0.  1.
          4    1    3    3  501    0  0.50518368829E+03 -0.40126293356E+02  0.27871726245E+03  0.57836319966E+03  0.00000000000E+00 0.  1.
         13    1    1    2    0    0 -0.93902709332E+01  0.67968247819E+02 -0.37605341421E+03  0.38226174463E+03  0.10566000000E+00 0. -1.
<mgrwt>
<rscale>  1 0.51331359E+03</rscale>
<asrwt>0</asrwt>
<pdfrwt beam="1">  1       21 0.13558414E+00 0.10039365E+04</pdfrwt>
<pdfrwt beam="2">  1        4 0.10247366E+00 0.10039365E+04</pdfrwt>
<totfact> 0.11117844E+01</totfact>
</mgrwt>
</event>
<event>
 6    1  0.5391662E-005  0.9773406E+03  0.7818608E-02  0.9598471E-01
         21   -1    0    0  501  502  0.00000000000E+00  0.00000000000E+00  0.19517586322E+03  0.19517586322E+03  0.00000000000E+00 0.  1.
          4   -1    0    0  502    0 -0.00000000000E+00 -0.00000000000E+00 -0.13345011053E+04  0.13345011053E+04  0.00000000000E+00 0.  1.
    9000010    2    1    2  501    0 -0.41315053169E+02  0.13170556124E+02 -0.10919785549E+04  0.14654732527E+04  0.97637815061E+03 0.  0.
        -13    1    3    3    0    0  0.12123829348E+03  0.35989211764E+03 -0.10027862946E+04  0.10722879389E+04  0.10566000000E+00 0.  1.
          4    1    3    3  501    0 -0.16255334665E+03 -0.34672156151E+03 -0.89192260309E+02  0.39318531385E+03  0.00000000000E+00 0.  1.
         13    1    1    2    0    0  0.41315053169E+02 -0.13170556124E+02 -0.47346687213E+02  0.64203715789E+02  0.10566000000E+00 0. -1.
<mgrwt>
<rscale>  1 0.44855535E+03</rscale>
<asrwt>0</asrwt>
<pdfrwt beam="1">  1       21 0.30027056E-01 0.97734062E+03</pdfrwt>
<pdfrwt beam="2">  1        4 0.20530786E+00 0.97734062E+03</pdfrwt>
<totfact> 0.13922224E+02</totfact>
</mgrwt>
</event>
<event>
 6    1  0.5391662E-005  0.1095820E+04  0.7818608E-02  0.8911795E-01
          4   -1    0    0  502    0 -0.00000000000E+00  0.00000000000E+00  0.26879021300E+04  0.26879021300E+04  0.00000000000E+00 0.  1.
         21   -1    0    0  501  502  0.00000000000E+00 -0.00000000000E+00 -0.32244100332E+03  0.32244100332E+03  0.00000000000E+00 0.  1.
    9000010    2    1    2  501    0 -0.12185166068E+03 -0.40976938995E+03  0.72223859865E+03  0.13124211481E+04  0.10089905334E+04 0.  0.
        -13    1    3    3    0    0 -0.32989442305E+02  0.30378854043E+03  0.18263500250E+02  0.30611982491E+03  0.10566000000E+00 0.  1.
          4    1    3    3  501    0 -0.88862218377E+02 -0.71355793038E+03  0.70397509840E+03  0.10063013232E+04  0.00000000000E+00 0.  1.
         13    1    1    2    0    0  0.12185166068E+03  0.40976938995E+03  0.16432225281E+04  0.16979219853E+04  0.10566000000E+00 0. -1.
<mgrwt>
<rscale>  1 0.86604228E+03</rscale>
<asrwt>0</asrwt>
<pdfrwt beam="2">  1       21 0.49606310E-01 0.10958196E+04</pdfrwt>
<pdfrwt beam="1">  1        4 0.41352339E+00 0.10958196E+04</pdfrwt>
<totfact> 0.11367728E+01</totfact>
</mgrwt>
</event>
<event>
 6    1  0.5391662E-005  0.2090272E+04  0.7818608E-02  0.8158811E-01
          4   -1    0    0  502    0 -0.00000000000E+00  0.00000000000E+00  0.42096463062E+04  0.42096463062E+04  0.00000000000E+00 0.  1.
         21   -1    0    0  501  502  0.00000000000E+00 -0.00000000000E+00 -0.96506213748E+03  0.96506213748E+03  0.00000000000E+00 0. -1.
    9000010    2    1    2  501    0  0.16729580794E+04 -0.75742840989E+03  0.23058265020E+04  0.31122457169E+04  0.99837418494E+03 0.  0.
        -13    1    3    3    0    0  0.17002501553E+04 -0.53686834908E+03  0.22709813336E+04  0.28872884240E+04  0.10566000000E+00 0.  1.
          4    1    3    3  501    0 -0.27292075857E+02 -0.22056006081E+03  0.34845168369E+02  0.22495729281E+03  0.00000000000E+00 0.  1.
         13    1    1    2    0    0 -0.16729580794E+04  0.75742840989E+03  0.93875766673E+03  0.20624627268E+04  0.10566000000E+00 0. -1.
<mgrwt>
<rscale>  1 0.20236992E+04</rscale>
<asrwt>0</asrwt>
<pdfrwt beam="2">  1       21 0.14847110E+00 0.20902721E+04</pdfrwt>
<pdfrwt beam="1">  1        4 0.64763788E+00 0.20902721E+04</pdfrwt>
<totfact> 0.41071087E-02</totfact>
</mgrwt>
</event>
<event>
 6    1  0.5391662E-005  0.1101816E+04  0.7818608E-02  0.8881804E-01
         21   -1    0    0  501  502  0.00000000000E+00  0.00000000000E+00  0.26403356816E+03  0.26403356816E+03  0.00000000000E+00 0.  1.
          4   -1    0    0  502    0 -0.00000000000E+00 -0.00000000000E+00 -0.23752998123E+04  0.23752998123E+04  0.00000000000E+00 0.  1.
    9000010    2    1    2  501    0 -0.29213575518E+03  0.37605850625E+03 -0.13669226158E+04  0.17556984175E+04  0.99359760266E+03 0.  0.
        -13    1    3    3    0    0 -0.51770790702E+03  0.55656554136E+03 -0.12044308292E+04  0.14242332367E+04  0.10566000000E+00 0.  1.
          4    1    3    3  501    0  0.22557215184E+03 -0.18050703511E+03 -0.16249178660E+03  0.33146518086E+03  0.00000000000E+00 0.  1.
         13    1    1    2    0    0  0.29213575518E+03 -0.37605850625E+03 -0.74434362833E+03  0.88363496297E+03  0.10566000000E+00 0. -1.
<mgrwt>
<rscale>  1 0.89336419E+03</rscale>
<asrwt>0</asrwt>
<pdfrwt beam="1">  1       21 0.40620550E-01 0.11018165E+04</pdfrwt>
<pdfrwt beam="2">  1        4 0.36543073E+00 0.11018165E+04</pdfrwt>
<totfact> 0.26928456E+01</totfact>
</mgrwt>
</event>
<event>
 6    1  0.5391662E-005  0.1063458E+04  0.7818608E-02  0.9099793E-01
         21   -1    0    0  501  502  0.00000000000E+00  0.00000000000E+00  0.40889949110E+03  0.40889949110E+03  0.00000000000E+00 0.  1.
          4   -1    0    0  502    0 -0.00000000000E+00 -0.00000000000E+00 -0.12413566546E+04  0.12413566546E+04  0.00000000000E+00 0.  1.
    9000010    2    1    2  501    0  0.21753991208E+03 -0.23190709569E+02 -0.92809754657E+03  0.14114915830E+04  0.10407122612E+04 0.  0.
        -13    1    3    3    0    0 -0.36354390351E+03 -0.21534046053E+03 -0.22282837938E+03  0.47769046625E+03  0.10566000000E+00 0.  1.
          4    1    3    3  501    0  0.58108381559E+03  0.19214975096E+03 -0.70526916718E+03  0.93380111679E+03  0.00000000000E+00 0.  1.
         13    1    1    2    0    0 -0.21753991208E+03  0.23190709569E+02  0.95640383049E+02  0.23876456268E+03  0.10566000000E+00 0. -1.
<mgrwt>
<rscale>  1 0.71620706E+03</rscale>
<asrwt>0</asrwt>
<pdfrwt beam="1">  1       21 0.62907615E-01 0.10634582E+04</pdfrwt>
<pdfrwt beam="2">  1        4 0.19097794E+00 0.10634582E+04</pdfrwt>
<totfact> 0.30508358E+01</totfact>
</mgrwt>
</event>
<event>
 6    1  0.5391662E-005  0.8312821E+03  0.7818608E-02  0.9240685E-01
          4   -1    0    0  502    0 -0.00000000000E+00  0.00000000000E+00  0.64278535225E+03  0.64278535225E+03  0.00000000000E+00 0.  1.
         21   -1    0    0  501  502  0.00000000000E+00 -0.00000000000E+00 -0.63782357559E+03  0.63782357559E+03  0.00000000000E+00 0.  1.
    9000010    2    1    2  501    0  0.18502191228E+03 -0.18892584734E+03 -0.29375912643E+03  0.88165996754E+03  0.78810138319E+03 0.  0.
        -13    1    3    3    0    0  0.35714335269E+03  0.17106873251E+03 -0.27513716768E+03  0.48219950002E+03  0.10566000000E+00 0.  1.
          4    1    3    3  501    0 -0.17212144040E+03 -0.35999457985E+03 -0.18621958754E+02  0.39946046753E+03  0.00000000000E+00 0.  1.
         13    1    1    2    0    0 -0.18502191228E+03  0.18892584734E+03  0.29872090309E+03  0.39894896030E+03  0.10566000000E+00 0. -1.
<mgrwt>
<rscale>  1 0.62429696E+03</rscale>
<asrwt>0</asrwt>
<pdfrwt beam="2">  1       21 0.98126704E-01 0.83128207E+03</pdfrwt>
<pdfrwt beam="1">  1        4 0.98890054E-01 0.83128207E+03</pdfrwt>
<totfact> 0.29410837E+01</totfact>
</mgrwt>
</event>
<event>
 6    1  0.5391662E-005  0.1112127E+04  0.7818608E-02  0.8877000E-01
          4   -1    0    0  502    0 -0.00000000000E+00  0.00000000000E+00  0.12417237137E+04  0.12417237137E+04  0.00000000000E+00 0.  1.
         21   -1    0    0  501  502  0.00000000000E+00 -0.00000000000E+00 -0.54365546807E+03  0.54365546807E+03  0.00000000000E+00 0. -1.
    9000010    2    1    2  501    0  0.43571783399E+03  0.18256827568E+03  0.26223493831E+03  0.11426258161E+04  0.10067995762E+04 0.  0.
        -13    1    3    3    0    0  0.36651720529E+03  0.44966047258E+03  0.50953192130E+03  0.77210892520E+03  0.10566000000E+00 0.  1.
          4    1    3    3  501    0  0.69200628696E+02 -0.26709219690E+03 -0.24729698299E+03  0.37051689091E+03  0.00000000000E+00 0.  1.
         13    1    1    2    0    0 -0.43571783399E+03 -0.18256827568E+03  0.43583330730E+03  0.64275336565E+03  0.10566000000E+00 0. -1.
<mgrwt>
<rscale>  1 0.89783806E+03</rscale>
<asrwt>0</asrwt>
<pdfrwt beam="2">  1       21 0.83639303E-01 0.11121271E+04</pdfrwt>
<pdfrwt beam="1">  1        4 0.19103442E+00 0.11121271E+04</pdfrwt>
<totfact> 0.15360108E+01</totfact>
</mgrwt>
</event>
<event>
 6    1  0.5391662E-005  0.1281461E+04  0.7818608E-02  0.8657514E-01
         21   -1    0    0  501  502  0.00000000000E+00  0.00000000000E+00  0.48037504202E+03  0.48037504202E+03  0.00000000000E+00 0. -1.
          4   -1    0    0  502    0 -0.00000000000E+00 -0.00000000000E+00 -0.22702939276E+04  0.22702939276E+04  0.00000000000E+00 0.  1.
    9000010    2    1    2  501    0  0.31779091818E+03 -0.72051560996E+03 -0.12876512535E+04  0.18166418837E+04  0.10109441978E+04 0.  0.
        -13    1    3    3    0    0  0.35742020897E+03 -0.96023341681E+03 -0.92656471128E+03  0.13814194135E+04  0.10566000000E+00 0.  1.
          4    1    3    3  501    0 -0.39629290789E+02  0.23971780686E+03 -0.36108654220E+03  0.43522247020E+03  0.00000000000E+00 0.  1.
         13    1    1    2    0    0 -0.31779091818E+03  0.72051560996E+03 -0.50226763208E+03  0.93402708594E+03  0.10566000000E+00 0. -1.
<mgrwt>
<rscale>  1 0.11345921E+04</rscale>
<asrwt>0</asrwt>
<pdfrwt beam="1">  1       21 0.73903853E-01 0.12814609E+04</pdfrwt>
<pdfrwt beam="2">  1        4 0.34927599E+00 0.12814609E+04</pdfrwt>
<totfact> 0.77407769E+00</totfact>
</mgrwt>
</event>
<event>
 6    1  0.5391662E-005  0.1052899E+04  0.7818608E-02  0.8937988E-01
         21   -1    0    0  501  502  0.00000000000E+00  0.00000000000E+00  0.12562530029E+04  0.12562530029E+04  0.00000000000E+00 0. -1.
          4   -1    0    0  502    0 -0.00000000000E+00 -0.00000000000E+00 -0.44706026961E+03  0.44706026961E+03  0.00000000000E+00 0.  1.
    9000010    2    1    2  501    0 -0.43194694474E+03 -0.25258636340E+02  0.67337845108E+03  0.12498138875E+04  0.95988543758E+03 0.  0.
        -13    1    3    3    0    0 -0.11904828675E+03 -0.33511632766E+03 -0.91511343809E+02  0.36721898760E+03  0.10566000000E+00 0.  1.
          4    1    3    3  501    0 -0.31289865800E+03  0.30985769132E+03  0.76488979489E+03  0.88259489992E+03  0.00000000000E+00 0.  1.
         13    1    1    2    0    0  0.43194694474E+03  0.25258636340E+02  0.13581428222E+03  0.45349938501E+03  0.10566000000E+00 0. -1.
<mgrwt>
<rscale>  1 0.84301042E+03</rscale>
<asrwt>0</asrwt>
<pdfrwt beam="1">  1       21 0.19326969E+00 0.10528990E+04</pdfrwt>
<pdfrwt beam="2">  1        4 0.68778503E-01 0.10528990E+04</pdfrwt>
<totfact> 0.79432507E+00</totfact>
</mgrwt>
</event>
<event>
 6    1  0.5391662E-005  0.1012324E+04  0.7818608E-02  0.9544658E-01
         21   -1    0    0  501  502  0.00000000000E+00  0.00000000000E+00  0.18609174048E+03  0.18609174048E+03  0.00000000000E+00 0.  1.
          4   -1    0    0  502    0 -0.00000000000E+00 -0.00000000000E+00 -0.16094606160E+04  0.16094606160E+04  0.00000000000E+00 0.  1.
    9000010    2    1    2  501    0  0.61351042186E+01 -0.46909726234E+02 -0.12129870480E+04  0.15799168157E+04  0.10112177827E+04 0.  0.
        -13    1    3    3    0    0 -0.37072976731E+03  0.24999272130E+03 -0.90601567817E+03  0.10103471390E+04  0.10566000000E+00 0.  1.
          4    1    3    3  501    0  0.37686487153E+03 -0.29690244753E+03 -0.30697136983E+03  0.56956967672E+03  0.00000000000E+00 0.  1.
         13    1    1    2    0    0 -0.61351042186E+01  0.46909726234E+02 -0.21038182750E+03  0.21563554073E+03  0.10566000000E+00 0. -1.
<mgrwt>
<rscale>  1 0.47068061E+03</rscale>
<asrwt>0</asrwt>
<pdfrwt beam="1">  1       21 0.28629497E-01 0.10123238E+04</pdfrwt>
<pdfrwt beam="2">  1        4 0.24760934E+00 0.10123238E+04</pdfrwt>
<totfact> 0.12034361E+02</totfact>
</mgrwt>
</event>
<event>
 6    1  0.5391662E-005  0.1117627E+04  0.7818608E-02  0.8867845E-01
          4   -1    0    0  502    0 -0.00000000000E+00  0.00000000000E+00  0.13512484013E+04  0.13512484013E+04  0.00000000000E+00 0.  1.
         21   -1    0    0  501  502  0.00000000000E+00 -0.00000000000E+00 -0.48311821184E+03  0.48311821184E+03  0.00000000000E+00 0.  1.
    9000010    2    1    2  501    0 -0.69697437569E+01  0.48352399901E+03  0.48916132657E+03  0.12199877030E+04  0.10075947386E+04 0.  0.
        -13    1    3    3    0    0  0.17990077907E+03  0.91496450304E+02 -0.27495407809E+03  0.34108011808E+03  0.10566000000E+00 0.  1.
          4    1    3    3  501    0 -0.18687052283E+03  0.39202754871E+03  0.76411540467E+03  0.87890758496E+03  0.00000000000E+00 0.  1.
         13    1    1    2    0    0  0.69697437569E+01 -0.48352399901E+03  0.37896886285E+03  0.61437891006E+03  0.10566000000E+00 0. -1.
<mgrwt>
<rscale>  1 0.90643902E+03</rscale>
<asrwt>0</asrwt>
<pdfrwt beam="2">  1       21 0.74325880E-01 0.11176275E+04</pdfrwt>
<pdfrwt beam="1">  1        4 0.20788437E+00 0.11176275E+04</pdfrwt>
<totfact> 0.18343182E+01</totfact>
</mgrwt>
</event>
<event>
 6    1  0.5391662E-005  0.1204663E+04  0.7818608E-02  0.8752505E-01
          4   -1    0    0  502    0 -0.00000000000E+00  0.00000000000E+00  0.15246675486E+04  0.15246675486E+04  0.00000000000E+00 0.  1.
         21   -1    0    0  501  502  0.00000000000E+00 -0.00000000000E+00 -0.55683345879E+03  0.55683345879E+03  0.00000000000E+00 0.  1.
    9000010    2    1    2  501    0 -0.60196849389E+03  0.18084782738E+03  0.73518214042E+03  0.14112779512E+04  0.10276870495E+04 0.  0.
        -13    1    3    3    0    0 -0.58155880897E+03  0.80658819273E+01  0.96276620731E+03  0.11248086450E+04  0.10566000000E+00 0.  1.
          4    1    3    3  501    0 -0.20409684913E+02  0.17278194546E+03 -0.22758406689E+03  0.28646930624E+03  0.00000000000E+00 0.  1.
         13    1    1    2    0    0  0.60196849389E+03 -0.18084782738E+03  0.23265194941E+03  0.67022305617E+03  0.10566000000E+00 0. -1.
<mgrwt>
<rscale>  1 0.10238439E+04</rscale>
<asrwt>0</asrwt>
<pdfrwt beam="2">  1       21 0.85666686E-01 0.12046629E+04</pdfrwt>
<pdfrwt beam="1">  1        4 0.23456424E+00 0.12046629E+04</pdfrwt>
<totfact> 0.10982403E+01</totfact>
</mgrwt>
</event>
<event>
 6    1  0.5391662E-005  0.1500487E+04  0.7818608E-02  0.8474281E-01
         21   -1    0    0  501  502  0.00000000000E+00  0.00000000000E+00  0.54723420012E+03  0.54723420012E+03  0.00000000000E+00 0. -1.
          4   -1    0    0  502    0 -0.00000000000E+00 -0.00000000000E+00 -0.35146091715E+04  0.35146091715E+04  0.00000000000E+00 0.  1.
    9000010    2    1    2  501    0 -0.27259779982E+03  0.10785648478E+04 -0.10046539848E+04  0.18057659409E+04  0.10069008455E+04 0.  0.
        -13    1    3    3    0    0 -0.48297588373E+03  0.30118394718E+03 -0.78748668694E+03  0.97165465449E+03  0.10566000000E+00 0.  1.
          4    1    3    3  501    0  0.21037808391E+03  0.77738090059E+03 -0.21716729787E+03  0.83411128637E+03  0.00000000000E+00 0.  1.
         13    1    1    2    0    0  0.27259779982E+03 -0.10785648478E+04 -0.19627209866E+04  0.22560774308E+04  0.10566000000E+00 0. -1.
<mgrwt>
<rscale>  1 0.13923461E+04</rscale>
<asrwt>0</asrwt>
<pdfrwt beam="1">  1       21 0.84189877E-01 0.15004869E+04</pdfrwt>
<pdfrwt beam="2">  1        4 0.54070910E+00 0.15004869E+04</pdfrwt>
<totfact> 0.80265764E-01</totfact>
</mgrwt>
</event>
<event>
 6    1  0.5391662E-005  0.1024826E+04  0.7818608E-02  0.9082897E-01
          4   -1    0    0  502    0 -0.00000000000E+00  0.00000000000E+00  0.17974870033E+04  0.17974870033E+04  0.00000000000E+00 0.  1.
         21   -1    0    0  501  502  0.00000000000E+00 -0.00000000000E+00 -0.24333996872E+03  0.24333996872E+03  0.00000000000E+00 0.  1.
    9000010    2    1    2  501    0  0.13960442719E+03 -0.22099901126E+03  0.10187915288E+04  0.14450623476E+04  0.99092837786E+03 0.  0.
        -13    1    3    3    0    0  0.67139734862E+01  0.28128821115E+02  0.11381486441E+04  0.11385159881E+04  0.10566000000E+00 0.  1.
          4    1    3    3  501    0  0.13289045370E+03 -0.24912783238E+03 -0.11935711522E+03  0.30654635947E+03  0.00000000000E+00 0.  1.
         13    1    1    2    0    0 -0.13960442719E+03  0.22099901126E+03  0.53535550579E+03  0.59576462450E+03  0.10566000000E+00 0. -1.
<mgrwt>
<rscale>  1 0.72830637E+03</rscale>
<asrwt>0</asrwt>
<pdfrwt beam="2">  1       21 0.37436920E-01 0.10248263E+04</pdfrwt>
<pdfrwt beam="1">  1        4 0.27653645E+00 0.10248263E+04</pdfrwt>
<totfact> 0.58905968E+01</totfact>
</mgrwt>
</event>
<event>
 6    1  0.5391662E-005  0.9947130E+03  0.7818608E-02  0.9179391E-01
         21   -1    0    0  501  502  0.00000000000E+00  0.00000000000E+00  0.66235901242E+03  0.66235901242E+03  0.00000000000E+00 0.  1.
          4   -1    0    0  502    0 -0.00000000000E+00 -0.00000000000E+00 -0.53930714878E+03  0.53930714878E+03  0.00000000000E+00 0.  1.
    9000010    2    1    2  501    0 -0.49578964799E+02  0.18921459963E+03  0.61518621173E+02  0.99661351051E+03  0.97529160260E+03 0.  0.
        -13    1    3    3    0    0 -0.14398816939E+03  0.86480118958E+02  0.50473820463E+03  0.53195119163E+03  0.10566000000E+00 0.  1.
          4    1    3    3  501    0  0.94409204594E+02  0.10273448067E+03 -0.44321958345E+03  0.46466231888E+03  0.00000000000E+00 0.  1.
         13    1    1    2    0    0  0.49578964799E+02 -0.18921459963E+03  0.61533242469E+02  0.20505265070E+03  0.10566000000E+00 0. -1.
<mgrwt>
<rscale>  1 0.66239474E+03</rscale>
<asrwt>0</asrwt>
<pdfrwt beam="1">  1       21 0.10190139E+00 0.99471300E+03</pdfrwt>
<pdfrwt beam="2">  1        4 0.82970330E-01 0.99471300E+03</pdfrwt>
<totfact> 0.37354562E+01</totfact>
</mgrwt>
</event>
<event>
 6    1  0.5391662E-005  0.1068252E+04  0.7818608E-02  0.8982464E-01
          4   -1    0    0  502    0 -0.00000000000E+00  0.00000000000E+00  0.36468299397E+04  0.36468299397E+04  0.00000000000E+00 0.  1.
         21   -1    0    0  501  502  0.00000000000E+00 -0.00000000000E+00 -0.13720682992E+03  0.13720682992E+03  0.00000000000E+00 0.  1.
    9000010    2    1    2  501    0 -0.18416552057E+03 -0.29231393791E+03  0.25897490029E+04  0.28014215036E+04  0.10108403265E+04 0.  0.
        -13    1    3    3    0    0  0.30113010519E+03 -0.46004086035E+03  0.14734415073E+04  0.15726877694E+04  0.10566000000E+00 0.  1.
          4    1    3    3  501    0 -0.48529562576E+03  0.16772692244E+03  0.11163074956E+04  0.12287337342E+04  0.00000000000E+00 0.  1.
         13    1    1    2    0    0  0.18416552057E+03  0.29231393791E+03  0.91987410686E+03  0.98261526596E+03  0.10566000000E+00 0. -1.
<mgrwt>
<rscale>  1 0.80559111E+03</rscale>
<asrwt>0</asrwt>
<pdfrwt beam="2">  1       21 0.21108746E-01 0.10682521E+04</pdfrwt>
<pdfrwt beam="1">  1        4 0.56105069E+00 0.10682521E+04</pdfrwt>
<totfact> 0.13691408E+01</totfact>
</mgrwt>
</event>
<event>
 6    1  0.5391662E-005  0.1053027E+04  0.7818608E-02  0.9008132E-01
         21   -1    0    0  501  502  0.00000000000E+00  0.00000000000E+00  0.48463440678E+03  0.48463440678E+03  0.00000000000E+00 0.  1.
          4   -1    0    0  502    0 -0.00000000000E+00 -0.00000000000E+00 -0.10089243859E+04  0.10089243859E+04  0.00000000000E+00 0.  1.
    9000010    2    1    2  501    0  0.87130382178E+02  0.31318294845E+03 -0.28806812213E+03  0.10917179790E+04  0.10015935503E+04 0.  0.
        -13    1    3    3    0    0  0.16783367067E+03 -0.16869623213E+03  0.26337945880E+03  0.35495818096E+03  0.10566000000E+00 0.  1.
          4    1    3    3  501    0 -0.80703288495E+02  0.48187918058E+03 -0.55144758093E+03  0.73675979800E+03  0.00000000000E+00 0.  1.
         13    1    1    2    0    0 -0.87130382178E+02 -0.31318294845E+03 -0.23622185701E+03  0.40184081374E+03  0.10566000000E+00 0. -1.
<mgrwt>
<rscale>  1 0.78492139E+03</rscale>
<asrwt>0</asrwt>
<pdfrwt beam="1">  1       21 0.74559140E-01 0.10530265E+04</pdfrwt>
<pdfrwt beam="2">  1        4 0.15521913E+00 0.10530265E+04</pdfrwt>
<totfact> 0.27222714E+01</totfact>
</mgrwt>
</event>
<event>
 6    1  0.5391662E-005  0.1346239E+04  0.7818608E-02  0.8597783E-01
         21   -1    0    0  501  502  0.00000000000E+00  0.00000000000E+00  0.69237424385E+03  0.69237424385E+03  0.00000000000E+00 0. -1.
          4   -1    0    0  502    0 -0.00000000000E+00 -0.00000000000E+00 -0.18145244729E+04  0.18145244729E+04  0.00000000000E+00 0.  1.
    9000010    2    1    2  501    0 -0.65228275532E+03  0.59604284621E+03 -0.80240012655E+03  0.15672285583E+04  0.10156867251E+04 0.  0.
        -13    1    3    3    0    0 -0.89341580776E+03  0.25598967683E+03 -0.55497344380E+03  0.10824592624E+04  0.10566000000E+00 0.  1.
          4    1    3    3  501    0  0.24113305243E+03  0.34005316938E+03 -0.24742668275E+03  0.48476929597E+03  0.00000000000E+00 0.  1.
         13    1    1    2    0    0  0.65228275532E+03 -0.59604284621E+03 -0.31975010251E+03  0.93967015842E+03  0.10566000000E+00 0. -1.
<mgrwt>
<rscale>  1 0.12117275E+04</rscale>
<asrwt>0</asrwt>
<pdfrwt beam="1">  1       21 0.10651911E+00 0.13462390E+04</pdfrwt>
<pdfrwt beam="2">  1        4 0.27915761E+00 0.13462390E+04</pdfrwt>
<totfact> 0.48025832E+00</totfact>
</mgrwt>
</event>
<event>
 6    1  0.5391662E-005  0.1036898E+04  0.7818608E-02  0.9040804E-01
         21   -1    0    0  501  502  0.00000000000E+00  0.00000000000E+00  0.21796229440E+03  0.21796229440E+03  0.00000000000E+00 0.  1.
          4   -1    0    0  502    0 -0.00000000000E+00 -0.00000000000E+00 -0.20688795032E+04  0.20688795032E+04  0.00000000000E+00 0.  1.
    9000010    2    1    2  501    0 -0.29596618822E+03 -0.39120186685E+02 -0.13299042172E+04  0.16863578910E+04  0.99299110561E+03 0.  0.
        -13    1    3    3    0    0 -0.57912275790E+02  0.81610268560E+02 -0.14054077535E+04  0.14089659444E+04  0.10566000000E+00 0.  1.
          4    1    3    3  501    0 -0.23805391243E+03 -0.12073045525E+03  0.75503536269E+02  0.27739194660E+03  0.00000000000E+00 0.  1.
         13    1    1    2    0    0  0.29596618822E+03  0.39120186685E+02 -0.52101299153E+03  0.60048390660E+03  0.10566000000E+00 0. -1.
<mgrwt>
<rscale>  1 0.75954385E+03</rscale>
<asrwt>0</asrwt>
<pdfrwt beam="1">  1       21 0.33532658E-01 0.10368981E+04</pdfrwt>
<pdfrwt beam="2">  1        4 0.31828918E+00 0.10368981E+04</pdfrwt>
<totfact> 0.57342701E+01</totfact>
</mgrwt>
</event>
<event>
 6    1  0.5391662E-005  0.1042662E+04  0.7818608E-02  0.9046486E-01
          4   -1    0    0  502    0 -0.00000000000E+00  0.00000000000E+00  0.26940644529E+04  0.26940644529E+04  0.00000000000E+00 0.  1.
         21   -1    0    0  501  502  0.00000000000E+00 -0.00000000000E+00 -0.20943797022E+03  0.20943797022E+03  0.00000000000E+00 0.  1.
    9000010    2    1    2  501    0  0.21473892567E+03  0.19042440824E+03  0.12113717422E+04  0.15983005587E+04  0.10023816223E+04 0.  0.
        -13    1    3    3    0    0  0.31508122511E+03 -0.22902454431E+03  0.10790036541E+04  0.11471605454E+04  0.10566000000E+00 0.  1.
          4    1    3    3  501    0 -0.10034229944E+03  0.41944895255E+03  0.13236808811E+03  0.45114001330E+03  0.00000000000E+00 0.  1.
         13    1    1    2    0    0 -0.21473892567E+03 -0.19042440824E+03  0.12732547405E+04  0.13052018644E+04  0.10566000000E+00 0. -1.
<mgrwt>
<rscale>  1 0.75523390E+03</rscale>
<asrwt>0</asrwt>
<pdfrwt beam="2">  1       21 0.32221228E-01 0.10426616E+04</pdfrwt>
<pdfrwt beam="1">  1        4 0.41447143E+00 0.10426616E+04</pdfrwt>
<totfact> 0.28582574E+01</totfact>
</mgrwt>
</event>
<event>
 6    1  0.5391662E-005  0.1070881E+04  0.7818608E-02  0.9255434E-01
         21   -1    0    0  501  502  0.00000000000E+00  0.00000000000E+00  0.37665769242E+03  0.37665769242E+03  0.00000000000E+00 0.  1.
          4   -1    0    0  502    0 -0.00000000000E+00 -0.00000000000E+00 -0.10874878614E+04  0.10874878614E+04  0.00000000000E+00 0.  1.
    9000010    2    1    2  501    0  0.95407493724E+02  0.67536635828E+02 -0.41927997163E+03  0.11500351978E+04  0.10644817868E+04 0.  0.
        -13    1    3    3    0    0 -0.24241202691E+03 -0.30423713159E+03 -0.50809722748E+03  0.63991142103E+03  0.10566000000E+00 0.  1.
          4    1    3    3  501    0  0.33781952063E+03  0.37177376742E+03  0.88817255848E+02  0.51012377674E+03  0.00000000000E+00 0.  1.
         13    1    1    2    0    0 -0.95407493724E+02 -0.67536635828E+02 -0.29155019740E+03  0.31411035609E+03  0.10566000000E+00 0. -1.
<mgrwt>
<rscale>  1 0.61553424E+03</rscale>
<asrwt>0</asrwt>
<pdfrwt beam="1">  1       21 0.57947338E-01 0.10708806E+04</pdfrwt>
<pdfrwt beam="2">  1        4 0.16730582E+00 0.10708806E+04</pdfrwt>
<totfact> 0.44136570E+01</totfact>
</mgrwt>
</event>
<event>
 6    1  0.5391662E-005  0.1044824E+04  0.7818608E-02  0.9023863E-01
          4   -1    0    0  502    0 -0.00000000000E+00  0.00000000000E+00  0.27099403027E+04  0.27099403027E+04  0.00000000000E+00 0.  1.
         21   -1    0    0  501  502  0.00000000000E+00 -0.00000000000E+00 -0.17358781800E+03  0.17358781800E+03  0.00000000000E+00 0.  1.
    9000010    2    1    2  501    0 -0.28149249893E+03 -0.13535471369E+03  0.17610017010E+04  0.20476287401E+04  0.99704440272E+03 0.  0.
        -13    1    3    3    0    0  0.25055882026E+03  0.31760755749E+02  0.12993291565E+04  0.13236482675E+04  0.10566000000E+00 0.  1.
          4    1    3    3  501    0 -0.53205131918E+03 -0.16711546944E+03  0.46167254449E+03  0.72398047260E+03  0.00000000000E+00 0.  1.
         13    1    1    2    0    0  0.28149249893E+03  0.13535471369E+03  0.77535078370E+03  0.83589938056E+03  0.10566000000E+00 0. -1.
<mgrwt>
<rscale>  1 0.77257496E+03</rscale>
<asrwt>0</asrwt>
<pdfrwt beam="2">  1       21 0.26705820E-01 0.10448237E+04</pdfrwt>
<pdfrwt beam="1">  1        4 0.41691386E+00 0.10448237E+04</pdfrwt>
<totfact> 0.40987450E+01</totfact>
</mgrwt>
</event>
<event>
 6    1  0.5391662E-005  0.1145856E+04  0.7818608E-02  0.8814390E-01
         21   -1    0    0  501  502  0.00000000000E+00  0.00000000000E+00  0.53149126339E+03  0.53149126339E+03  0.00000000000E+00 0.  1.
          4   -1    0    0  502    0 -0.00000000000E+00 -0.00000000000E+00 -0.17456287462E+04  0.17456287462E+04  0.00000000000E+00 0.  1.
    9000010    2    1    2  501    0 -0.14876915806E+02  0.56130054379E+03 -0.26778858725E+03  0.11767310482E+04  0.99885214584E+03 0.  0.
        -13    1    3    3    0    0 -0.19249711121E+03 -0.23569125129E+03  0.33992918911E+02  0.30620423488E+03  0.10566000000E+00 0.  1.
          4    1    3    3  501    0  0.17762019540E+03  0.79699179508E+03 -0.30178150616E+03  0.87052681331E+03  0.00000000000E+00 0.  1.
         13    1    1    2    0    0  0.14876915806E+02 -0.56130054379E+03 -0.94634889558E+03  0.11003889614E+04  0.10566000000E+00 0. -1.
<mgrwt>
<rscale>  1 0.95870376E+03</rscale>
<asrwt>0</asrwt>
<pdfrwt beam="1">  1       21 0.81767886E-01 0.11458557E+04</pdfrwt>
<pdfrwt beam="2">  1        4 0.26855827E+00 0.11458557E+04</pdfrwt>
<totfact> 0.10327364E+01</totfact>
</mgrwt>
</event>
<event>
 6    1  0.5391662E-005  0.1014147E+04  0.7818608E-02  0.9541458E-01
          4   -1    0    0  502    0 -0.00000000000E+00  0.00000000000E+00  0.42631788100E+03  0.42631788100E+03  0.00000000000E+00 0.  1.
         21   -1    0    0  501  502  0.00000000000E+00 -0.00000000000E+00 -0.11977287357E+04  0.11977287357E+04  0.00000000000E+00 0.  1.
    9000010    2    1    2  501    0 -0.14746165778E+02  0.45258058464E+02 -0.97988848989E+03  0.14102039718E+04  0.10130291447E+04 0.  0.
        -13    1    3    3    0    0  0.32302718578E+03 -0.12770207673E+03 -0.97030164612E+03  0.10306016101E+04  0.10566000000E+00 0.  1.
          4    1    3    3  501    0 -0.33777335156E+03  0.17296013519E+03 -0.95868437736E+01  0.37960236164E+03  0.00000000000E+00 0.  1.
         13    1    1    2    0    0  0.14746165778E+02 -0.45258058464E+02  0.20847763518E+03  0.21384264495E+03  0.10566000000E+00 0. -1.
<mgrwt>
<rscale>  1 0.47203824E+03</rscale>
<asrwt>0</asrwt>
<pdfrwt beam="2">  1       21 0.18426596E+00 0.10141468E+04</pdfrwt>
<pdfrwt beam="1">  1        4 0.65587366E-01 0.10141468E+04</pdfrwt>
<totfact> 0.10404976E+01</totfact>
</mgrwt>
</event>
<event>
 6    1  0.5391662E-005  0.9746320E+03  0.7818608E-02  0.9182086E-01
         21   -1    0    0  501  502  0.00000000000E+00  0.00000000000E+00  0.58207982550E+03  0.58207982550E+03  0.00000000000E+00 0.  1.
          4   -1    0    0  502    0 -0.00000000000E+00 -0.00000000000E+00 -0.71771988616E+03  0.71771988616E+03  0.00000000000E+00 0.  1.
    9000010    2    1    2  501    0 -0.20419134797E+03 -0.25474761252E+02  0.10833415521E+03  0.98063439522E+03  0.95266177516E+03 0.  0.
        -13    1    3    3    0    0  0.31964593645E+03  0.21972632623E+03  0.10653270944E+03  0.40224670598E+03  0.10566000000E+00 0.  1.
          4    1    3    3  501    0 -0.52383728442E+03 -0.24520108749E+03  0.18014457695E+01  0.57838768924E+03  0.00000000000E+00 0.  1.
         13    1    1    2    0    0  0.20419134797E+03  0.25474761252E+02 -0.24397421587E+03  0.31916531644E+03  0.10566000000E+00 0. -1.
<mgrwt>
<rscale>  1 0.66066045E+03</rscale>
<asrwt>0</asrwt>
<pdfrwt beam="1">  1       21 0.89550742E-01 0.97463200E+03</pdfrwt>
<pdfrwt beam="2">  1        4 0.11041844E+00 0.97463200E+03</pdfrwt>
<totfact> 0.29966805E+01</totfact>
</mgrwt>
</event>
<event>
 6    1  0.5391662E-005  0.1004652E+04  0.7818608E-02  0.9531389E-01
         21   -1    0    0  501  502  0.00000000000E+00  0.00000000000E+00  0.63188333028E+03  0.63188333028E+03  0.00000000000E+00 0.  1.
          4   -1    0    0  502    0 -0.00000000000E+00 -0.00000000000E+00 -0.47855188571E+03  0.47855188571E+03  0.00000000000E+00 0.  1.
    9000010    2    1    2  501    0  0.43240944429E+02 -0.26609458096E+02  0.21818480430E+03  0.10280713163E+04  0.10033684169E+04 0.  0.
        -13    1    3    3    0    0 -0.26511905732E+03  0.13726353032E+02  0.52682029638E+03  0.58992894755E+03  0.10566000000E+00 0.  1.
          4    1    3    3  501    0  0.30836000175E+03 -0.40335811128E+02 -0.30863549208E+03  0.43814236877E+03  0.00000000000E+00 0.  1.
         13    1    1    2    0    0 -0.43240944429E+02  0.26609458096E+02 -0.64853359728E+02  0.82363899660E+02  0.10566000000E+00 0. -1.
<mgrwt>
<rscale>  1 0.47634223E+03</rscale>
<asrwt>0</asrwt>
<pdfrwt beam="1">  1       21 0.97212820E-01 0.10046522E+04</pdfrwt>
<pdfrwt beam="2">  1        4 0.73623367E-01 0.10046522E+04</pdfrwt>
<totfact> 0.53941586E+01</totfact>
</mgrwt>
</event>
<event>
 6    1  0.5391662E-005  0.1007790E+04  0.7818608E-02  0.9256257E-01
          4   -1    0    0  502    0 -0.00000000000E+00  0.00000000000E+00  0.96961087630E+03  0.96961087630E+03  0.00000000000E+00 0.  1.
         21   -1    0    0  501  502  0.00000000000E+00 -0.00000000000E+00 -0.35957943635E+03  0.35957943635E+03  0.00000000000E+00 0.  1.
    9000010    2    1    2  501    0 -0.94682826628E+02  0.10286547978E+03  0.41655113060E+03  0.10904838279E+04  0.99804508412E+03 0.  0.
        -13    1    3    3    0    0 -0.17277151519E+03 -0.43290009499E+03  0.18036891079E+03  0.49978539779E+03  0.10566000000E+00 0.  1.
          4    1    3    3  501    0  0.78088688560E+02  0.53576557477E+03  0.23618221981E+03  0.59069843011E+03  0.00000000000E+00 0.  1.
         13    1    1    2    0    0  0.94682826628E+02 -0.10286547978E+03  0.19348030935E+03  0.23870648474E+03  0.10566000000E+00 0. -1.
<mgrwt>
<rscale>  1 0.61504956E+03</rscale>
<asrwt>0</asrwt>
<pdfrwt beam="2">  1       21 0.55319914E-01 0.10077897E+04</pdfrwt>
<pdfrwt beam="1">  1        4 0.14917090E+00 0.10077897E+04</pdfrwt>
<totfact> 0.57973668E+01</totfact>
</mgrwt>
</event>
<event>
 6    1  0.5391662E-005  0.1043176E+04  0.7818608E-02  0.9109921E-01
         21   -1    0    0  501  502  0.00000000000E+00  0.00000000000E+00  0.49084359705E+03  0.49084359705E+03  0.00000000000E+00 0.  1.
          4   -1    0    0  502    0 -0.00000000000E+00 -0.00000000000E+00 -0.10341530471E+04  0.10341530471E+04  0.00000000000E+00 0.  1.
    9000010    2    1    2  501    0 -0.15802666114E+03 -0.15689372922E+03 -0.12438637349E+03  0.10505658029E+04  0.10191312322E+04 0.  0.
        -13    1    3    3    0    0  0.51362580130E+02 -0.47214706625E+03 -0.36770606143E+03  0.60064026304E+03  0.10566000000E+00 0.  1.
          4    1    3    3  501    0 -0.20938924127E+03  0.31525333703E+03  0.24331968794E+03  0.44992553985E+03  0.00000000000E+00 0.  1.
         13    1    1    2    0    0  0.15802666114E+03  0.15689372922E+03 -0.41892307661E+03  0.47443084131E+03  0.10566000000E+00 0. -1.
<mgrwt>
<rscale>  1 0.70907211E+03</rscale>
<asrwt>0</asrwt>
<pdfrwt beam="1">  1       21 0.75514400E-01 0.10431762E+04</pdfrwt>
<pdfrwt beam="2">  1        4 0.15910047E+00 0.10431762E+04</pdfrwt>
<totfact> 0.25505527E+01</totfact>
</mgrwt>
</event>
<event>
 6    1  0.5391662E-005  0.1388100E+04  0.7818608E-02  0.8560923E-01
          4   -1    0    0  502    0 -0.00000000000E+00  0.00000000000E+00  0.17402046260E+04  0.17402046260E+04  0.00000000000E+00 0.  1.
         21   -1    0    0  501  502  0.00000000000E+00 -0.00000000000E+00 -0.94986577671E+03  0.94986577671E+03  0.00000000000E+00 0. -1.
    9000010    2    1    2  501    0 -0.42598569846E+03  0.84901328493E+03 -0.95292445056E+02  0.13913671364E+04  0.10121929089E+04 0.  0.
        -13    1    3    3    0    0 -0.26239262443E+03  0.48314318944E+03 -0.55518291634E+03  0.78134839388E+03  0.10566000000E+00 0.  1.
          4    1    3    3  501    0 -0.16359307404E+03  0.36587009549E+03  0.45989047129E+03  0.61001874252E+03  0.00000000000E+00 0.  1.
         13    1    1    2    0    0  0.42598569846E+03 -0.84901328493E+03  0.88563129437E+03  0.12987032663E+04  0.10566000000E+00 0. -1.
<mgrwt>
<rscale>  1 0.12625067E+04</rscale>
<asrwt>0</asrwt>
<pdfrwt beam="2">  1       21 0.14613320E+00 0.13881001E+04</pdfrwt>
<pdfrwt beam="1">  1        4 0.26772379E+00 0.13881001E+04</pdfrwt>
<totfact> 0.20654124E+00</totfact>
</mgrwt>
</event>
<event>
 6    1  0.5391662E-005  0.1077364E+04  0.7818608E-02  0.8944152E-01
         21   -1    0    0  501  502  0.00000000000E+00  0.00000000000E+00  0.31440044578E+03  0.31440044578E+03  0.00000000000E+00 0.  1.
          4   -1    0    0  502    0 -0.00000000000E+00 -0.00000000000E+00 -0.18984697570E+04  0.18984697570E+04  0.00000000000E+00 0.  1.
    9000010    2    1    2  501    0  0.27061977075E+03  0.28606948953E+03 -0.82223690575E+03  0.13552808848E+04  0.10028169994E+04 0.  0.
        -13    1    3    3    0    0  0.33491980745E+03 -0.29193136319E+03 -0.56656918435E+03  0.71999711808E+03  0.10566000000E+00 0.  1.
          4    1    3    3  501    0 -0.64300036701E+02  0.57800085271E+03 -0.25566772141E+03  0.63528376670E+03  0.00000000000E+00 0.  1.
         13    1    1    2    0    0 -0.27061977075E+03 -0.28606948953E+03 -0.76183240543E+03  0.85758931796E+03  0.10566000000E+00 0. -1.
<mgrwt>
<rscale>  1 0.83769909E+03</rscale>
<asrwt>0</asrwt>
<pdfrwt beam="1">  1       21 0.48369299E-01 0.10773638E+04</pdfrwt>
<pdfrwt beam="2">  1        4 0.29207227E+00 0.10773638E+04</pdfrwt>
<totfact> 0.30707827E+01</totfact>
</mgrwt>
</event>
<event>
 6    1  0.5391662E-005  0.1038666E+04  0.7818608E-02  0.9064605E-01
         21   -1    0    0  501  502  0.00000000000E+00  0.00000000000E+00  0.34809727942E+03  0.34809727942E+03  0.00000000000E+00 0.  1.
          4   -1    0    0  502    0 -0.00000000000E+00 -0.00000000000E+00 -0.13917155398E+04  0.13917155398E+04  0.00000000000E+00 0.  1.
    9000010    2    1    2  501    0  0.77582493171E+02 -0.25867139772E+03 -0.54550266906E+03  0.11732008808E+04  0.10029442704E+04 0.  0.
        -13    1    3    3    0    0  0.46223819466E+03 -0.32557284519E+03 -0.54132520001E+03  0.78274824143E+03  0.10566000000E+00 0.  1.
          4    1    3    3  501    0 -0.38465570149E+03  0.66901447464E+02 -0.41774690522E+01  0.39045263940E+03  0.00000000000E+00 0.  1.
         13    1    1    2    0    0 -0.77582493171E+02  0.25867139772E+03 -0.49811559130E+03  0.56661193837E+03  0.10566000000E+00 0. -1.
<mgrwt>
<rscale>  1 0.74168618E+03</rscale>
<asrwt>0</asrwt>
<pdfrwt beam="1">  1       21 0.53553429E-01 0.10386660E+04</pdfrwt>
<pdfrwt beam="2">  1        4 0.21411008E+00 0.10386660E+04</pdfrwt>
<totfact> 0.38097492E+01</totfact>
</mgrwt>
</event>
<event>
 6    1  0.5391662E-005  0.1153314E+04  0.7818608E-02  0.8807276E-01
         21   -1    0    0  501  502  0.00000000000E+00  0.00000000000E+00  0.49475537048E+03  0.49475537048E+03  0.00000000000E+00 0.  1.
          4   -1    0    0  502    0 -0.00000000000E+00 -0.00000000000E+00 -0.17693816855E+04  0.17693816855E+04  0.00000000000E+00 0.  1.
    9000010    2    1    2  501    0 -0.48616380699E+03  0.29269041481E+03 -0.39836634421E+03  0.12201761018E+04  0.10040473341E+04 0.  0.
        -13    1    3    3    0    0 -0.26318697181E+03  0.66612704361E+03 -0.21166097553E+03  0.74685540775E+03  0.10566000000E+00 0.  1.
          4    1    3    3  501    0 -0.22297683518E+03 -0.37343662881E+03 -0.18670536868E+03  0.47332069410E+03  0.00000000000E+00 0.  1.
         13    1    1    2    0    0  0.48616380699E+03 -0.29269041481E+03 -0.87625997085E+03  0.10439609542E+04  0.10566000000E+00 0. -1.
<mgrwt>
<rscale>  1 0.96593215E+03</rscale>
<asrwt>0</asrwt>
<pdfrwt beam="1">  1       21 0.76116211E-01 0.11533143E+04</pdfrwt>
<pdfrwt beam="2">  1        4 0.27221257E+00 0.11533143E+04</pdfrwt>
<totfact> 0.12041826E+01</totfact>
</mgrwt>
</event>
<event>
 6    1  0.5391662E-005  0.1032386E+04  0.7818608E-02  0.9142932E-01
          4   -1    0    0  502    0 -0.00000000000E+00  0.00000000000E+00  0.14918618981E+04  0.14918618981E+04  0.00000000000E+00 0.  1.
         21   -1    0    0  501  502  0.00000000000E+00 -0.00000000000E+00 -0.28904484073E+03  0.28904484073E+03  0.00000000000E+00 0.  1.
    9000010    2    1    2  501    0 -0.20153904271E+03  0.91106523829E+01  0.72292748673E+03  0.12603349370E+04  0.10124816110E+04 0.  0.
        -13    1    3    3    0    0 -0.24712640174E+03  0.37346573335E+03  0.76937118535E+03  0.89021353868E+03  0.10566000000E+00 0.  1.
          4    1    3    3  501    0  0.45587359032E+02 -0.36435508097E+03 -0.46443698627E+02  0.37012139829E+03  0.00000000000E+00 0.  1.
         13    1    1    2    0    0  0.20153904271E+03 -0.91106523829E+01  0.47988957060E+03  0.52057180183E+03  0.10566000000E+00 0. -1.
<mgrwt>
<rscale>  1 0.68640760E+03</rscale>
<asrwt>0</asrwt>
<pdfrwt beam="2">  1       21 0.44468438E-01 0.10323856E+04</pdfrwt>
<pdfrwt beam="1">  1        4 0.22951721E+00 0.10323856E+04</pdfrwt>
<totfact> 0.52525419E+01</totfact>
</mgrwt>
</event>
<event>
 6    1  0.5391662E-005  0.1216379E+04  0.7818608E-02  0.8805025E-01
          4   -1    0    0  502    0 -0.00000000000E+00  0.00000000000E+00  0.25338366577E+04  0.25338366577E+04  0.00000000000E+00 0.  1.
         21   -1    0    0  501  502  0.00000000000E+00 -0.00000000000E+00 -0.28837716252E+03  0.28837716252E+03  0.00000000000E+00 0. -1.
    9000010    2    1    2  501    0 -0.21060593798E+03 -0.44057985790E+03  0.16961964554E+04  0.20872611889E+04  0.11140517865E+04 0.  0.
        -13    1    3    3    0    0  0.34514424967E+03 -0.20488514130E+03  0.13112472662E+04  0.13713029856E+04  0.10566000000E+00 0.  1.
          4    1    3    3  501    0 -0.55575018765E+03 -0.23569471660E+03  0.38494918923E+03  0.71595820324E+03  0.00000000000E+00 0.  1.
         13    1    1    2    0    0  0.21060593798E+03  0.44057985790E+03  0.54926303980E+03  0.73495263137E+03  0.10566000000E+00 0. -1.
<mgrwt>
<rscale>  1 0.96823286E+03</rscale>
<asrwt>0</asrwt>
<pdfrwt beam="2">  1       21 0.44365719E-01 0.12163786E+04</pdfrwt>
<pdfrwt beam="1">  1        4 0.38982101E+00 0.12163786E+04</pdfrwt>
<totfact> 0.17766524E+01</totfact>
</mgrwt>
</event>
<event>
 6    1  0.5391662E-005  0.1021606E+04  0.7818608E-02  0.9127446E-01
          4   -1    0    0  502    0 -0.00000000000E+00  0.00000000000E+00  0.46428638270E+03  0.46428638270E+03  0.00000000000E+00 0.  1.
         21   -1    0    0  501  502  0.00000000000E+00 -0.00000000000E+00 -0.13335756880E+04  0.13335756880E+04  0.00000000000E+00 0.  1.
    9000010    2    1    2  501    0 -0.22059955493E+03 -0.17074658929E+02 -0.10840058704E+04  0.14895458010E+04  0.99735763824E+03 0.  0.
        -13    1    3    3    0    0 -0.51466474371E+03 -0.15318805250E+03 -0.10292604510E+04  0.11609149258E+04  0.10566000000E+00 0.  1.
          4    1    3    3  501    0  0.29406518877E+03  0.13611339357E+03 -0.54745419394E+02  0.32863087515E+03  0.00000000000E+00 0.  1.
         13    1    1    2    0    0  0.22059955493E+03  0.17074658929E+02  0.21471656516E+03  0.30831626965E+03  0.10566000000E+00 0. -1.
<mgrwt>
<rscale>  1 0.69692793E+03</rscale>
<asrwt>0</asrwt>
<pdfrwt beam="2">  1       21 0.20516549E+00 0.10216056E+04</pdfrwt>
<pdfrwt beam="1">  1        4 0.71428674E-01 0.10216056E+04</pdfrwt>
<totfact> 0.59411608E+00</totfact>
</mgrwt>
</event>
<event>
 6    1  0.5391662E-005  0.1006783E+04  0.7818608E-02  0.9273879E-01
         21   -1    0    0  501  502  0.00000000000E+00  0.00000000000E+00  0.15686287500E+03  0.15686287500E+03  0.00000000000E+00 0.  1.
          4   -1    0    0  502    0 -0.00000000000E+00 -0.00000000000E+00 -0.20789761747E+04  0.20789761747E+04  0.00000000000E+00 0.  1.
    9000010    2    1    2  501    0 -0.11500237433E+03 -0.62941863507E+02 -0.16333535789E+04  0.19187122425E+04  0.99821116593E+03 0.  0.
        -13    1    3    3    0    0  0.42681609242E+03 -0.12154781458E+03 -0.55628457550E+03  0.71161674241E+03  0.10566000000E+00 0.  1.
          4    1    3    3  501    0 -0.54181846675E+03  0.58605951076E+02 -0.10770690034E+04  0.12070955001E+04  0.00000000000E+00 0.  1.
         13    1    1    2    0    0  0.11500237433E+03  0.62941863507E+02 -0.28875972083E+03  0.31712680717E+03  0.10566000000E+00 0. -1.
<mgrwt>
<rscale>  1 0.60478746E+03</rscale>
<asrwt>0</asrwt>
<pdfrwt beam="1">  1       21 0.24132752E-01 0.10067834E+04</pdfrwt>
<pdfrwt beam="2">  1        4 0.31984246E+00 0.10067834E+04</pdfrwt>
<totfact> 0.11136893E+02</totfact>
</mgrwt>
</event>
<event>
 6    1  0.5391662E-005  0.9932105E+03  0.7818608E-02  0.9035196E-01
         21   -1    0    0  501  502  0.00000000000E+00  0.00000000000E+00  0.29876062770E+03  0.29876062770E+03  0.00000000000E+00 0.  1.
          4   -1    0    0  502    0 -0.00000000000E+00 -0.00000000000E+00 -0.15082099981E+04  0.15082099981E+04  0.00000000000E+00 0.  1.
    9000010    2    1    2  501    0 -0.34463365742E+03 -0.43924764504E+02 -0.85314717188E+03  0.13093231496E+04  0.93046508284E+03 0.  0.
        -13    1    3    3    0    0  0.39985054095E+02 -0.30598549395E+03  0.31021839758E+02  0.31014237499E+03  0.10566000000E+00 0.  1.
          4    1    3    3  501    0 -0.38461871151E+03  0.26206072945E+03 -0.88416901164E+03  0.99918077459E+03  0.00000000000E+00 0.  1.
         13    1    1    2    0    0  0.34463365742E+03  0.43924764504E+02 -0.35630219856E+03  0.49764747625E+03  0.10566000000E+00 0. -1.
<mgrwt>
<rscale>  1 0.76382727E+03</rscale>
<asrwt>0</asrwt>
<pdfrwt beam="1">  1       21 0.45963174E-01 0.99321046E+03</pdfrwt>
<pdfrwt beam="2">  1        4 0.23203231E+00 0.99321046E+03</pdfrwt>
<totfact> 0.48337741E+01</totfact>
</mgrwt>
</event>
<event>
 6    1  0.5391662E-005  0.1051132E+04  0.7818608E-02  0.8956584E-01
         21   -1    0    0  501  502  0.00000000000E+00  0.00000000000E+00  0.14632711813E+04  0.14632711813E+04  0.00000000000E+00 0.  1.
          4   -1    0    0  502    0 -0.00000000000E+00 -0.00000000000E+00 -0.56369103622E+03  0.56369103622E+03  0.00000000000E+00 0.  1.
    9000010    2    1    2  501    0  0.78103911992E+02  0.39533919554E+03  0.11456470732E+04  0.15547946150E+04  0.97081706712E+03 0.  0.
        -13    1    3    3    0    0 -0.23117504302E+03 -0.24222921469E+03  0.28299603483E+03  0.43841037837E+03  0.10566000000E+00 0.  1.
          4    1    3    3  501    0  0.30927895501E+03  0.63756841023E+03  0.86265103837E+03  0.11163842366E+04  0.00000000000E+00 0.  1.
         13    1    1    2    0    0 -0.78103911992E+02 -0.39533919554E+03 -0.24606692814E+03  0.47216760254E+03  0.10566000000E+00 0. -1.
<mgrwt>
<rscale>  1 0.82711148E+03</rscale>
<asrwt>0</asrwt>
<pdfrwt beam="1">  1       21 0.22511864E+00 0.10511323E+04</pdfrwt>
<pdfrwt beam="2">  1        4 0.86721699E-01 0.10511323E+04</pdfrwt>
<totfact> 0.28041096E+00</totfact>
</mgrwt>
</event>
<event>
 6    1  0.5391662E-005  0.1125680E+04  0.7818608E-02  0.8855381E-01
          4   -1    0    0  502    0 -0.00000000000E+00  0.00000000000E+00  0.18970975772E+04  0.18970975772E+04  0.00000000000E+00 0.  1.
         21   -1    0    0  501  502  0.00000000000E+00 -0.00000000000E+00 -0.35000313365E+03  0.35000313365E+03  0.00000000000E+00 0.  1.
    9000010    2    1    2  501    0  0.47116459097E+03 -0.16297103478E+03  0.98525677561E+03  0.14959567791E+04  0.10092572224E+04 0.  0.
        -13    1    3    3    0    0  0.65126686869E+03 -0.22583441889E+03  0.24506273433E+03  0.73157738752E+03  0.10566000000E+00 0.  1.
          4    1    3    3  501    0 -0.18010227772E+03  0.62863384107E+02  0.74019404128E+03  0.76437939157E+03  0.00000000000E+00 0.  1.
         13    1    1    2    0    0 -0.47116459097E+03  0.16297103478E+03  0.56183766799E+03  0.75114393181E+03  0.10566000000E+00 0. -1.
<mgrwt>
<rscale>  1 0.91830977E+03</rscale>
<asrwt>0</asrwt>
<pdfrwt beam="2">  1       21 0.53846637E-01 0.11256801E+04</pdfrwt>
<pdfrwt beam="1">  1        4 0.29186116E+00 0.11256801E+04</pdfrwt>
<totfact> 0.24084877E+01</totfact>
</mgrwt>
</event>
<event>
 6    1  0.5391662E-005  0.1055806E+04  0.7818608E-02  0.9024857E-01
          4   -1    0    0  502    0 -0.00000000000E+00  0.00000000000E+00  0.27905598928E+04  0.27905598928E+04  0.00000000000E+00 0.  1.
         21   -1    0    0  501  502  0.00000000000E+00 -0.00000000000E+00 -0.17122997515E+03  0.17122997515E+03  0.00000000000E+00 0.  1.
    9000010    2    1    2  501    0  0.25549596416E+03  0.16005533102E+03  0.17753135117E+04  0.20655423568E+04  0.10118454753E+04 0.  0.
        -13    1    3    3    0    0 -0.29631666658E+03  0.35946501149E+03  0.86634963376E+03  0.98365662731E+03  0.10566000000E+00 0.  1.
          4    1    3    3  501    0  0.55181263074E+03 -0.19940968047E+03  0.90896387798E+03  0.10818857294E+04  0.00000000000E+00 0.  1.
         13    1    1    2    0    0 -0.25549596416E+03 -0.16005533102E+03  0.84401640590E+03  0.89624751117E+03  0.10566000000E+00 0. -1.
<mgrwt>
<rscale>  1 0.77180264E+03</rscale>
<asrwt>0</asrwt>
<pdfrwt beam="2">  1       21 0.26343075E-01 0.10558064E+04</pdfrwt>
<pdfrwt beam="1">  1        4 0.42931687E+00 0.10558064E+04</pdfrwt>
<totfact> 0.37301547E+01</totfact>
</mgrwt>
</event>
<event>
 6    1  0.5391662E-005  0.1101403E+04  0.7818608E-02  0.8935164E-01
          4   -1    0    0  502    0 -0.00000000000E+00  0.00000000000E+00  0.27762259426E+04  0.27762259426E+04  0.00000000000E+00 0.  1.
         21   -1    0    0  501  502  0.00000000000E+00 -0.00000000000E+00 -0.22522304863E+03  0.22522304863E+03  0.00000000000E+00 0.  1.
    9000010    2    1    2  501    0  0.27785425745E+03  0.26274187549E+03  0.13571180706E+04  0.17478153669E+04  0.10328856750E+04 0.  0.
        -13    1    3    3    0    0  0.45024424391E+03  0.54812193968E+03  0.11623267743E+04  0.13616758356E+04  0.10566000000E+00 0.  1.
          4    1    3    3  501    0 -0.17238998646E+03 -0.28538006418E+03  0.19479129633E+03  0.38613953124E+03  0.00000000000E+00 0.  1.
         13    1    1    2    0    0 -0.27785425745E+03 -0.26274187549E+03  0.11938848234E+04  0.12536336244E+04  0.10566000000E+00 0. -1.
<mgrwt>
<rscale>  1 0.84545726E+03</rscale>
<asrwt>0</asrwt>
<pdfrwt beam="2">  1       21 0.34649702E-01 0.11014032E+04</pdfrwt>
<pdfrwt beam="1">  1        4 0.42711166E+00 0.11014032E+04</pdfrwt>
<totfact> 0.21564526E+01</totfact>
</mgrwt>
</event>
<event>
 6    1  0.5391662E-005  0.1005489E+04  0.7818608E-02  0.9256493E-01
         21   -1    0    0  501  502  0.00000000000E+00  0.00000000000E+00  0.30766302138E+03  0.30766302138E+03  0.00000000000E+00 0.  1.
          4   -1    0    0  502    0 -0.00000000000E+00 -0.00000000000E+00 -0.12850826642E+04  0.12850826642E+04  0.00000000000E+00 0.  1.
    9000010    2    1    2  501    0  0.11373425468E+03  0.82733216514E+02 -0.55707355343E+03  0.11494950659E+04  0.99560418684E+03 0.  0.
        -13    1    3    3    0    0 -0.75728461942E+02 -0.41311582644E+03 -0.43531698958E+03  0.60489699833E+03  0.10566000000E+00 0.  1.
          4    1    3    3  501    0  0.18946271662E+03  0.49584904296E+03 -0.12175656385E+03  0.54459806760E+03  0.00000000000E+00 0.  1.
         13    1    1    2    0    0 -0.11373425468E+03 -0.82733216514E+02 -0.42034608935E+03  0.44325061963E+03  0.10566000000E+00 0. -1.
<mgrwt>
<rscale>  1 0.61491065E+03</rscale>
<asrwt>0</asrwt>
<pdfrwt beam="1">  1       21 0.47332772E-01 0.10054889E+04</pdfrwt>
<pdfrwt beam="2">  1        4 0.19770503E+00 0.10054889E+04</pdfrwt>
<totfact> 0.55625612E+01</totfact>
</mgrwt>
</event>
<event>
 6    1  0.5391662E-005  0.1072775E+04  0.7818608E-02  0.8948466E-01
          4   -1    0    0  502    0 -0.00000000000E+00  0.00000000000E+00  0.24222437991E+04  0.24222437991E+04  0.00000000000E+00 0.  1.
         21   -1    0    0  501  502  0.00000000000E+00 -0.00000000000E+00 -0.27900422519E+03  0.27900422519E+03  0.00000000000E+00 0.  1.
    9000010    2    1    2  501    0  0.29473414131E+03  0.25826553019E+03  0.90839243311E+03  0.14057107726E+04  0.99863740446E+03 0.  0.
        -13    1    3    3    0    0 -0.24434279734E+03 -0.21183501004E+03  0.12983761903E+03  0.34847566999E+03  0.10566000000E+00 0.  1.
          4    1    3    3  501    0  0.53907693865E+03  0.47010054024E+03  0.77855481407E+03  0.10572351026E+04  0.00000000000E+00 0.  1.
         13    1    1    2    0    0 -0.29473414131E+03 -0.25826553019E+03  0.12348471408E+04  0.12955372516E+04  0.10566000000E+00 0. -1.
<mgrwt>
<rscale>  1 0.83400663E+03</rscale>
<asrwt>0</asrwt>
<pdfrwt beam="2">  1       21 0.42923728E-01 0.10727749E+04</pdfrwt>
<pdfrwt beam="1">  1        4 0.37265288E+00 0.10727749E+04</pdfrwt>
<totfact> 0.22580232E+01</totfact>
</mgrwt>
</event>
<event>
 6    1  0.5391662E-005  0.9938376E+03  0.7818608E-02  0.9543848E-01
          4   -1    0    0  502    0 -0.00000000000E+00  0.00000000000E+00  0.16300759570E+03  0.16300759570E+03  0.00000000000E+00 0.  1.
         21   -1    0    0  501  502  0.00000000000E+00 -0.00000000000E+00 -0.20923092829E+04  0.20923092829E+04  0.00000000000E+00 0.  1.
    9000010    2    1    2  501    0  0.10804408598E+02  0.48966788220E+02 -0.19592562676E+04  0.21969065229E+04  0.99257174388E+03 0.  0.
        -13    1    3    3    0    0  0.83970476778E+02 -0.45072671206E+03 -0.66613177494E+03  0.80866381314E+03  0.10566000000E+00 0.  1.
          4    1    3    3  501    0 -0.73166068180E+02  0.49969350028E+03 -0.12931244926E+04  0.13882427098E+04  0.00000000000E+00 0.  1.
         13    1    1    2    0    0 -0.10804408598E+02 -0.48966788220E+02  0.29954580429E+02  0.58410355644E+02  0.10566000000E+00 0. -1.
<mgrwt>
<rscale>  1 0.47102381E+03</rscale>
<asrwt>0</asrwt>
<pdfrwt beam="2">  1       21 0.32189374E+00 0.99383759E+03</pdfrwt>
<pdfrwt beam="1">  1        4 0.25078092E-01 0.99383759E+03</pdfrwt>
<totfact> 0.72612188E+00</totfact>
</mgrwt>
</event>
<event>
 6    1  0.5391662E-005  0.1021484E+04  0.7818608E-02  0.9261361E-01
         21   -1    0    0  501  502  0.00000000000E+00  0.00000000000E+00  0.34634204547E+03  0.34634204547E+03  0.00000000000E+00 0.  1.
          4   -1    0    0  502    0 -0.00000000000E+00 -0.00000000000E+00 -0.10575786570E+04  0.10575786570E+04  0.00000000000E+00 0.  1.
    9000010    2    1    2  501    0  0.10108776883E+03  0.84361205175E+02 -0.74933030171E+03  0.12668561544E+04  0.10129625190E+04 0.  0.
        -13    1    3    3    0    0  0.17601423342E+03  0.45383967384E+03 -0.72546036165E+02  0.49215282022E+03  0.10566000000E+00 0.  1.
          4    1    3    3  501    0 -0.74926464590E+02 -0.36947846867E+03 -0.67678426554E+03  0.77470333418E+03  0.00000000000E+00 0.  1.
         13    1    1    2    0    0 -0.10108776883E+03 -0.84361205175E+02  0.38093690168E+02  0.13706454808E+03  0.10566000000E+00 0. -1.
<mgrwt>
<rscale>  1 0.61205552E+03</rscale>
<asrwt>0</asrwt>
<pdfrwt beam="1">  1       21 0.53283393E-01 0.10214835E+04</pdfrwt>
<pdfrwt beam="2">  1        4 0.16270441E+00 0.10214835E+04</pdfrwt>
<totfact> 0.55650570E+01</totfact>
</mgrwt>
</event>
<event>
 6    1  0.5391662E-005  0.1201332E+04  0.7818608E-02  0.8740461E-01
          4   -1    0    0  502    0 -0.00000000000E+00  0.00000000000E+00  0.33675155930E+04  0.33675155930E+04  0.00000000000E+00 0.  1.
         21   -1    0    0  501  502  0.00000000000E+00 -0.00000000000E+00 -0.26356776221E+03  0.26356776221E+03  0.00000000000E+00 0. -1.
    9000010    2    1    2  501    0  0.55324310843E+02  0.66505115115E+03  0.22113054712E+04  0.25165591489E+04  0.99892154357E+03 0.  0.
        -13    1    3    3    0    0  0.27724359051E+03  0.54520100818E+03  0.21778812037E+04  0.22621394070E+04  0.10566000000E+00 0.  1.
          4    1    3    3  501    0 -0.22191927966E+03  0.11985014297E+03  0.33424267459E+02  0.25441974198E+03  0.00000000000E+00 0.  1.
         13    1    1    2    0    0 -0.55324310843E+02 -0.66505115115E+03  0.89264235959E+03  0.11145242063E+04  0.10566000000E+00 0. -1.
<mgrwt>
<rscale>  1 0.10371353E+04</rscale>
<asrwt>0</asrwt>
<pdfrwt beam="2">  1       21 0.40548889E-01 0.12013318E+04</pdfrwt>
<pdfrwt beam="1">  1        4 0.51807929E+00 0.12013318E+04</pdfrwt>
<totfact> 0.57531709E+00</totfact>
</mgrwt>
</event>
<event>
 6    1  0.5391662E-005  0.1035694E+04  0.7818608E-02  0.9093526E-01
          4   -1    0    0  502    0 -0.00000000000E+00  0.00000000000E+00  0.17397920251E+04  0.17397920251E+04  0.00000000000E+00 0.  1.
         21   -1    0    0  501  502  0.00000000000E+00 -0.00000000000E+00 -0.24087966537E+03  0.24087966537E+03  0.00000000000E+00 0.  1.
    9000010    2    1    2  501    0 -0.24274106875E+03  0.51895689285E+01  0.10790666534E+04  0.14956762406E+04  0.10068328641E+04 0.  0.
        -13    1    3    3    0    0  0.34250104084E+03  0.21162451928E+03  0.31408900162E+03  0.51063079837E+03  0.10566000000E+00 0.  1.
          4    1    3    3  501    0 -0.58524210959E+03 -0.20643495036E+03  0.76497765176E+03  0.98504544223E+03  0.00000000000E+00 0.  1.
         13    1    1    2    0    0  0.24274106875E+03 -0.51895689285E+01  0.41984570632E+03  0.48499544984E+03  0.10566000000E+00 0. -1.
<mgrwt>
<rscale>  1 0.72066645E+03</rscale>
<asrwt>0</asrwt>
<pdfrwt beam="2">  1       21 0.37058411E-01 0.10356942E+04</pdfrwt>
<pdfrwt beam="1">  1        4 0.26766030E+00 0.10356942E+04</pdfrwt>
<totfact> 0.63159457E+01</totfact>
</mgrwt>
</event>
<event>
 6    1  0.5391662E-005  0.1014891E+04  0.7818608E-02  0.9241406E-01
         21   -1    0    0  501  502  0.00000000000E+00  0.00000000000E+00  0.62070128106E+03  0.62070128106E+03  0.00000000000E+00 0.  1.
          4   -1    0    0  502    0 -0.00000000000E+00 -0.00000000000E+00 -0.62607532653E+03  0.62607532653E+03  0.00000000000E+00 0.  1.
    9000010    2    1    2  501    0 -0.36160288493E+01  0.14486687747E+03  0.15941435759E+03  0.10273347775E+04  0.10044920705E+04 0.  0.
        -13    1    3    3    0    0 -0.23922922187E+03 -0.33371176135E+03  0.25791156009E+03  0.48488405238E+03  0.10566000000E+00 0.  1.
          4    1    3    3  501    0  0.23561319302E+03  0.47857863882E+03 -0.98497202505E+02  0.54245072510E+03  0.00000000000E+00 0.  1.
         13    1    1    2    0    0  0.36160288493E+01 -0.14486687747E+03 -0.16478840306E+03  0.21944183011E+03  0.10566000000E+00 0. -1.
<mgrwt>
<rscale>  1 0.62386508E+03</rscale>
<asrwt>0</asrwt>
<pdfrwt beam="1">  1       21 0.95492505E-01 0.10148910E+04</pdfrwt>
<pdfrwt beam="2">  1        4 0.96319281E-01 0.10148910E+04</pdfrwt>
<totfact> 0.32718745E+01</totfact>
</mgrwt>
</event>
<event>
 6    1  0.5391662E-005  0.9994771E+03  0.7818608E-02  0.9237554E-01
         21   -1    0    0  501  502  0.00000000000E+00  0.00000000000E+00  0.16226798016E+03  0.16226798016E+03  0.00000000000E+00 0.  1.
          4   -1    0    0  502    0 -0.00000000000E+00 -0.00000000000E+00 -0.24769932493E+04  0.24769932493E+04  0.00000000000E+00 0.  1.
    9000010    2    1    2  501    0 -0.61121810637E+01  0.15386023193E+03 -0.14510027551E+04  0.17619204050E+04  0.98754452494E+03 0.  0.
        -13    1    3    3    0    0  0.22864796501E+03  0.49780126472E+03 -0.10474019637E+04  0.11820054466E+04  0.10566000000E+00 0.  1.
          4    1    3    3  501    0 -0.23476014607E+03 -0.34394103279E+03 -0.40360079134E+03  0.57991495842E+03  0.00000000000E+00 0.  1.
         13    1    1    2    0    0  0.61121810637E+01 -0.15386023193E+03 -0.86372251410E+03  0.87734082446E+03  0.10566000000E+00 0. -1.
<mgrwt>
<rscale>  1 0.62617665E+03</rscale>
<asrwt>0</asrwt>
<pdfrwt beam="1">  1       21 0.24964307E-01 0.99947712E+03</pdfrwt>
<pdfrwt beam="2">  1        4 0.38107585E+00 0.99947712E+03</pdfrwt>
<totfact> 0.65432154E+01</totfact>
</mgrwt>
</event>
<event>
 6    1  0.5391662E-005  0.1046756E+04  0.7818608E-02  0.9018594E-01
         21   -1    0    0  501  502  0.00000000000E+00  0.00000000000E+00  0.63882473218E+03  0.63882473218E+03  0.00000000000E+00 0.  1.
          4   -1    0    0  502    0 -0.00000000000E+00 -0.00000000000E+00 -0.84235743856E+03  0.84235743856E+03  0.00000000000E+00 0.  1.
    9000010    2    1    2  501    0 -0.10092141841E+02  0.31711620275E+03 -0.38543029041E+03  0.11154619503E+04  0.99751406832E+03 0.  0.
        -13    1    3    3    0    0 -0.23544965900E+03  0.50667322981E+03  0.80293524585E+02  0.56444784080E+03  0.10566000000E+00 0.  1.
          4    1    3    3  501    0  0.22535751716E+03 -0.18955702706E+03 -0.46572381500E+03  0.55101410953E+03  0.00000000000E+00 0.  1.
         13    1    1    2    0    0  0.10092141841E+02 -0.31711620275E+03  0.18189758403E+03  0.36572022041E+03  0.10566000000E+00 0. -1.
<mgrwt>
<rscale>  1 0.77668305E+03</rscale>
<asrwt>0</asrwt>
<pdfrwt beam="1">  1       21 0.98280728E-01 0.10467563E+04</pdfrwt>
<pdfrwt beam="2">  1        4 0.12959345E+00 0.10467563E+04</pdfrwt>
<totfact> 0.17918585E+01</totfact>
</mgrwt>
</event>
<event>
 6    1  0.5391662E-005  0.1004875E+04  0.7818608E-02  0.9277362E-01
          4   -1    0    0  502    0 -0.00000000000E+00  0.00000000000E+00  0.52503379807E+03  0.52503379807E+03  0.00000000000E+00 0.  1.
         21   -1    0    0  501  502  0.00000000000E+00 -0.00000000000E+00 -0.64980152389E+03  0.64980152389E+03  0.00000000000E+00 0.  1.
    9000010    2    1    2  501    0  0.13007557347E+03  0.30035851612E+01 -0.19993674728E+03  0.10245719888E+04  0.99641576715E+03 0.  0.
        -13    1    3    3    0    0  0.54187277691E+03  0.96842163527E+02 -0.23963292903E+03  0.60035694618E+03  0.10566000000E+00 0.  1.
          4    1    3    3  501    0 -0.41179720344E+03 -0.93838578366E+02  0.39696181747E+02  0.42421504263E+03  0.00000000000E+00 0.  1.
         13    1    1    2    0    0 -0.13007557347E+03 -0.30035851612E+01  0.75169021465E+02  0.15026333315E+03  0.10566000000E+00 0. -1.
<mgrwt>
<rscale>  1 0.60278416E+03</rscale>
<asrwt>0</asrwt>
<pdfrwt beam="2">  1       21 0.99969466E-01 0.10048746E+04</pdfrwt>
<pdfrwt beam="1">  1        4 0.80774430E-01 0.10048746E+04</pdfrwt>
<totfact> 0.41466174E+01</totfact>
</mgrwt>
</event>
<event>
 6    1  0.5391662E-005  0.1017294E+04  0.7818608E-02  0.9242198E-01
         21   -1    0    0  501  502  0.00000000000E+00  0.00000000000E+00  0.14871928180E+04  0.14871928180E+04  0.00000000000E+00 0.  1.
          4   -1    0    0  502    0 -0.00000000000E+00 -0.00000000000E+00 -0.26426148910E+03  0.26426148910E+03  0.00000000000E+00 0.  1.
    9000010    2    1    2  501    0  0.14300604028E+03 -0.11284744002E+02  0.12434250094E+04  0.16065471813E+04  0.10071295937E+04 0.  0.
        -13    1    3    3    0    0  0.22040024242E+03  0.37731229754E+03  0.18159747786E+03  0.47320026612E+03  0.10566000000E+00 0.  1.
          4    1    3    3  501    0 -0.77394202139E+02 -0.38859704154E+03  0.10618275316E+04  0.11333469151E+04  0.00000000000E+00 0.  1.
         13    1    1    2    0    0 -0.14300604028E+03  0.11284744002E+02 -0.20493680567E+02  0.14490712581E+03  0.10566000000E+00 0. -1.
<mgrwt>
<rscale>  1 0.62339116E+03</rscale>
<asrwt>0</asrwt>
<pdfrwt beam="1">  1       21 0.22879889E+00 0.10172945E+04</pdfrwt>
<pdfrwt beam="2">  1        4 0.40655615E-01 0.10172945E+04</pdfrwt>
<totfact> 0.12852951E+01</totfact>
</mgrwt>
</event>
<event>
 6    1  0.5391662E-005  0.1034918E+04  0.7818608E-02  0.9088291E-01
          4   -1    0    0  502    0 -0.00000000000E+00  0.00000000000E+00  0.11882964122E+04  0.11882964122E+04  0.00000000000E+00 0.  1.
         21   -1    0    0  501  502  0.00000000000E+00 -0.00000000000E+00 -0.34789282126E+03  0.34789282126E+03  0.00000000000E+00 0.  1.
    9000010    2    1    2  501    0 -0.20915157757E+03  0.13409818897E+03  0.71499160122E+03  0.12578820560E+04  0.10046529602E+04 0.  0.
        -13    1    3    3    0    0  0.11694717418E+03  0.17266186592E+03 -0.19804327949E+03  0.28759331217E+03  0.10566000000E+00 0.  1.
          4    1    3    3  501    0 -0.32609875175E+03 -0.38563676946E+02  0.91303488071E+03  0.97028874386E+03  0.00000000000E+00 0.  1.
         13    1    1    2    0    0  0.20915157757E+03 -0.13409818897E+03  0.12541198974E+03  0.27830717745E+03  0.10566000000E+00 0. -1.
<mgrwt>
<rscale>  1 0.72441679E+03</rscale>
<asrwt>0</asrwt>
<pdfrwt beam="2">  1       21 0.53521973E-01 0.10349175E+04</pdfrwt>
<pdfrwt beam="1">  1        4 0.18281483E+00 0.10349175E+04</pdfrwt>
<totfact> 0.46852088E+01</totfact>
</mgrwt>
</event>
<event>
 6    1  0.5391662E-005  0.1045471E+04  0.7818608E-02  0.9013026E-01
          4   -1    0    0  502    0 -0.00000000000E+00  0.00000000000E+00  0.12561538666E+04  0.12561538666E+04  0.00000000000E+00 0.  1.
         21   -1    0    0  501  502  0.00000000000E+00 -0.00000000000E+00 -0.43300237545E+03  0.43300237545E+03  0.00000000000E+00 0.  1.
    9000010    2    1    2  501    0  0.26472059571E+03  0.18971011636E+03  0.32654098755E+03  0.10952800551E+04  0.99344977750E+03 0.  0.
        -13    1    3    3    0    0  0.66260209158E+02  0.55223054999E+03 -0.19083228191E+02  0.55651880150E+03  0.10566000000E+00 0.  1.
          4    1    3    3  501    0  0.19846038655E+03 -0.36252043363E+03  0.34562421574E+03  0.53876125356E+03  0.00000000000E+00 0.  1.
         13    1    1    2    0    0 -0.26472059571E+03 -0.18971011636E+03  0.49661050362E+03  0.59387618702E+03  0.10566000000E+00 0. -1.
<mgrwt>
<rscale>  1 0.78105472E+03</rscale>
<asrwt>0</asrwt>
<pdfrwt beam="2">  1       21 0.66615751E-01 0.10454709E+04</pdfrwt>
<pdfrwt beam="1">  1        4 0.19325444E+00 0.10454709E+04</pdfrwt>
<totfact> 0.26324071E+01</totfact>
</mgrwt>
</event>
<event>
 6    1  0.5391662E-005  0.1030135E+04  0.7818608E-02  0.9123313E-01
          4   -1    0    0  502    0 -0.00000000000E+00  0.00000000000E+00  0.30086440082E+04  0.30086440082E+04  0.00000000000E+00 0.  1.
         21   -1    0    0  501  502  0.00000000000E+00 -0.00000000000E+00 -0.13787757982E+03  0.13787757982E+03  0.00000000000E+00 0.  1.
    9000010    2    1    2  501    0 -0.15855970744E+03  0.15156863383E+03  0.26089717049E+04  0.28049799068E+04  0.10065111471E+04 0.  0.
        -13    1    3    3    0    0  0.23990717946E+03  0.35758461817E+03  0.20158732586E+04  0.20613508240E+04  0.10566000000E+00 0.  1.
          4    1    3    3  501    0 -0.39846688690E+03 -0.20601598434E+03  0.59309844628E+03  0.74362908277E+03  0.00000000000E+00 0.  1.
         13    1    1    2    0    0  0.15855970744E+03 -0.15156863383E+03  0.26179472350E+03  0.34154168121E+03  0.10566000000E+00 0. -1.
<mgrwt>
<rscale>  1 0.69976947E+03</rscale>
<asrwt>0</asrwt>
<pdfrwt beam="2">  1       21 0.21211938E-01 0.10301354E+04</pdfrwt>
<pdfrwt beam="1">  1        4 0.46286826E+00 0.10301354E+04</pdfrwt>
<totfact> 0.40302755E+01</totfact>
</mgrwt>
</event>
<event>
 6    1  0.5391662E-005  0.1081141E+04  0.7818608E-02  0.9111318E-01
          4   -1    0    0  502    0 -0.00000000000E+00  0.00000000000E+00  0.11121598040E+04  0.11121598040E+04  0.00000000000E+00 0.  1.
         21   -1    0    0  501  502  0.00000000000E+00 -0.00000000000E+00 -0.36925510994E+03  0.36925510994E+03  0.00000000000E+00 0.  1.
    9000010    2    1    2  501    0 -0.10900658341E+03  0.16641462704E+03  0.65359725291E+03  0.12633504888E+04  0.10626800201E+04 0.  0.
        -13    1    3    3    0    0  0.32714554894E+03  0.35058170481E+03  0.62675770069E+03  0.78914952226E+03  0.10566000000E+00 0.  1.
          4    1    3    3  501    0 -0.43615213235E+03 -0.18416707777E+03  0.26839552220E+02  0.47420096652E+03  0.00000000000E+00 0.  1.
         13    1    1    2    0    0  0.10900658341E+03 -0.16641462704E+03  0.89307441186E+02  0.21806442519E+03  0.10566000000E+00 0. -1.
<mgrwt>
<rscale>  1 0.70809424E+03</rscale>
<asrwt>0</asrwt>
<pdfrwt beam="2">  1       21 0.56808479E-01 0.10811406E+04</pdfrwt>
<pdfrwt beam="1">  1        4 0.17110151E+00 0.10811406E+04</pdfrwt>
<totfact> 0.44744039E+01</totfact>
</mgrwt>
</event>
<event>
 6    1  0.5391662E-005  0.9743734E+03  0.7818608E-02  0.9348412E-01
          4   -1    0    0  502    0 -0.00000000000E+00  0.00000000000E+00  0.90707444310E+03  0.90707444310E+03  0.00000000000E+00 0.  1.
         21   -1    0    0  501  502  0.00000000000E+00 -0.00000000000E+00 -0.46108157490E+03  0.46108157490E+03  0.00000000000E+00 0.  1.
    9000010    2    1    2  501    0  0.90989304968E+02 -0.60211891764E+02  0.70261503620E+02  0.97690342053E+03  0.96824536592E+03 0.  0.
        -13    1    3    3    0    0 -0.42146449041E+03  0.97593428797E+02  0.83211274357E+02  0.44054616258E+03  0.10566000000E+00 0.  1.
          4    1    3    3  501    0  0.51245379538E+03 -0.15780532056E+03 -0.12949770737E+02  0.53635725795E+03  0.00000000000E+00 0.  1.
         13    1    1    2    0    0 -0.90989304968E+02  0.60211891764E+02  0.37573136458E+03  0.39125259746E+03  0.10566000000E+00 0. -1.
<mgrwt>
<rscale>  1 0.56364822E+03</rscale>
<asrwt>0</asrwt>
<pdfrwt beam="2">  1       21 0.70935627E-01 0.97437345E+03</pdfrwt>
<pdfrwt beam="1">  1        4 0.13954991E+00 0.97437345E+03</pdfrwt>
<totfact> 0.36077981E+01</totfact>
</mgrwt>
</event>
<event>
 6    1  0.5391662E-005  0.1029223E+04  0.7818608E-02  0.9077480E-01
         21   -1    0    0  501  502  0.00000000000E+00  0.00000000000E+00  0.18668417027E+03  0.18668417027E+03  0.00000000000E+00 0.  1.
          4   -1    0    0  502    0 -0.00000000000E+00 -0.00000000000E+00 -0.22457338249E+04  0.22457338249E+04  0.00000000000E+00 0.  1.
    9000010    2    1    2  501    0 -0.22702343246E+03 -0.13412032145E+03 -0.16926760104E+04  0.19810228713E+04  0.99487267572E+03 0.  0.
        -13    1    3    3    0    0 -0.42425254599E+03 -0.19879221931E+03 -0.17097299022E+04  0.17727619465E+04  0.10566000000E+00 0.  1.
          4    1    3    3  501    0  0.19722911354E+03  0.64671897854E+02  0.17053891756E+02  0.20826092486E+03  0.00000000000E+00 0.  1.
         13    1    1    2    0    0  0.22702343246E+03  0.13412032145E+03 -0.36637364425E+03  0.45139512389E+03  0.10566000000E+00 0. -1.
<mgrwt>
<rscale>  1 0.73223755E+03</rscale>
<asrwt>0</asrwt>
<pdfrwt beam="1">  1       21 0.28720641E-01 0.10292228E+04</pdfrwt>
<pdfrwt beam="2">  1        4 0.34549752E+00 0.10292228E+04</pdfrwt>
<totfact> 0.65833240E+01</totfact>
</mgrwt>
</event>
<event>
 6    1  0.5391662E-005  0.9804089E+03  0.7818608E-02  0.9160986E-01
         21   -1    0    0  501  502  0.00000000000E+00  0.00000000000E+00  0.13567466358E+04  0.13567466358E+04  0.00000000000E+00 0.  1.
          4   -1    0    0  502    0 -0.00000000000E+00 -0.00000000000E+00 -0.50471664442E+03  0.50471664442E+03  0.00000000000E+00 0.  1.
    9000010    2    1    2  501    0  0.85582587066E+02  0.20211668988E+03  0.11372846953E+04  0.15015385759E+04  0.95552398256E+03 0.  0.
        -13    1    3    3    0    0 -0.38902753882E+03  0.30497679060E+03  0.59666258843E+03  0.77482870647E+03  0.10566000000E+00 0.  1.
          4    1    3    3  501    0  0.47461012588E+03 -0.10286010073E+03  0.54062210682E+03  0.72670986941E+03  0.00000000000E+00 0.  1.
         13    1    1    2    0    0 -0.85582587066E+02 -0.20211668988E+03 -0.28525470389E+03  0.35992470434E+03  0.10566000000E+00 0. -1.
<mgrwt>
<rscale>  1 0.67438634E+03</rscale>
<asrwt>0</asrwt>
<pdfrwt beam="1">  1       21 0.20873025E+00 0.98040890E+03</pdfrwt>
<pdfrwt beam="2">  1        4 0.77648715E-01 0.98040890E+03</pdfrwt>
<totfact> 0.47143888E+00</totfact>
</mgrwt>
</event>
<event>
 6    1  0.5391662E-005  0.1055354E+04  0.7818608E-02  0.8998480E-01
         21   -1    0    0  501  502  0.00000000000E+00  0.00000000000E+00  0.14064436813E+03  0.14064436813E+03  0.00000000000E+00 0.  1.
          4   -1    0    0  502    0 -0.00000000000E+00 -0.00000000000E+00 -0.36318198609E+04  0.36318198609E+04  0.00000000000E+00 0.  1.
    9000010    2    1    2  501    0 -0.53766670805E+02  0.33145079965E+03 -0.29753722815E+04  0.31569941230E+04  0.10005104656E+04 0.  0.
        -13    1    3    3    0    0 -0.20301794062E+03 -0.38054159974E+02 -0.60817343521E+02  0.21532107129E+03  0.10566000000E+00 0.  1.
          4    1    3    3  501    0  0.14925126982E+03  0.36950495962E+03 -0.29145549380E+04  0.29416730517E+04  0.00000000000E+00 0.  1.
         13    1    1    2    0    0  0.53766670805E+02 -0.33145079965E+03 -0.51580321132E+03  0.61547010606E+03  0.10566000000E+00 0. -1.
<mgrwt>
<rscale>  1 0.79261708E+03</rscale>
<asrwt>0</asrwt>
<pdfrwt beam="1">  1       21 0.21637598E-01 0.10553538E+04</pdfrwt>
<pdfrwt beam="2">  1        4 0.55874143E+00 0.10553538E+04</pdfrwt>
<totfact> 0.13461790E+01</totfact>
</mgrwt>
</event>
<event>
 6    1  0.5391662E-005  0.1152292E+04  0.7818608E-02  0.8852759E-01
         21   -1    0    0  501  502  0.00000000000E+00  0.00000000000E+00  0.51784072858E+03  0.51784072858E+03  0.00000000000E+00 0.  1.
          4   -1    0    0  502    0 -0.00000000000E+00 -0.00000000000E+00 -0.14175019601E+04  0.14175019601E+04  0.00000000000E+00 0.  1.
    9000010    2    1    2  501    0 -0.46310976641E+03  0.79765580264E+02 -0.33353999387E+03  0.11995937706E+04  0.10521136267E+04 0.  0.
        -13    1    3    3    0    0 -0.46101699443E+03  0.43151903296E+03 -0.50472745565E+03  0.80839047533E+03  0.10566000000E+00 0.  1.
          4    1    3    3  501    0 -0.20927719820E+01 -0.35175345270E+03  0.17118746178E+03  0.39120329530E+03  0.00000000000E+00 0.  1.
         13    1    1    2    0    0  0.46310976641E+03 -0.79765580264E+02 -0.56612123767E+03  0.73574891808E+03  0.10566000000E+00 0. -1.
<mgrwt>
<rscale>  1 0.92083091E+03</rscale>
<asrwt>0</asrwt>
<pdfrwt beam="1">  1       21 0.79667805E-01 0.11522918E+04</pdfrwt>
<pdfrwt beam="2">  1        4 0.21807722E+00 0.11522918E+04</pdfrwt>
<totfact> 0.14553281E+01</totfact>
</mgrwt>
</event>
<event>
 6    1  0.5391662E-005  0.1031702E+04  0.7818608E-02  0.9093352E-01
          4   -1    0    0  502    0 -0.00000000000E+00  0.00000000000E+00  0.88225116483E+03  0.88225116483E+03  0.00000000000E+00 0.  1.
         21   -1    0    0  501  502  0.00000000000E+00 -0.00000000000E+00 -0.13195145195E+04  0.13195145195E+04  0.00000000000E+00 0.  1.
    9000010    2    1    2  501    0 -0.44917827893E+02 -0.24165677178E+03 -0.10920738590E+04  0.15023427691E+04  0.10019944490E+04 0.  0.
        -13    1    3    3    0    0  0.12969715850E+03  0.21156569645E+03 -0.97041416219E+03  0.10016411804E+04  0.10566000000E+00 0.  1.
          4    1    3    3  501    0 -0.17461498639E+03 -0.45322246822E+03 -0.12165969685E+03  0.50070158879E+03  0.00000000000E+00 0.  1.
         13    1    1    2    0    0  0.44917827893E+02  0.24165677178E+03  0.65481050433E+03  0.69942291524E+03  0.10566000000E+00 0. -1.
<mgrwt>
<rscale>  1 0.72079087E+03</rscale>
<asrwt>0</asrwt>
<pdfrwt beam="2">  1       21 0.20300223E+00 0.10317017E+04</pdfrwt>
<pdfrwt beam="1">  1        4 0.13573095E+00 0.10317017E+04</pdfrwt>
<totfact> 0.18448259E+00</totfact>
</mgrwt>
</event>
<event>
 6    1  0.5391662E-005  0.1166509E+04  0.7818608E-02  0.8762411E-01
          4   -1    0    0  502    0 -0.00000000000E+00  0.00000000000E+00  0.22859463471E+04  0.22859463471E+04  0.00000000000E+00 0.  1.
         21   -1    0    0  501  502  0.00000000000E+00 -0.00000000000E+00 -0.38071154686E+03  0.38071154686E+03  0.00000000000E+00 0.  1.
    9000010    2    1    2  501    0  0.22242801492E+03  0.62518235072E+03  0.95451274464E+03  0.15072616581E+04  0.95938310017E+03 0.  0.
        -13    1    3    3    0    0 -0.12306275792E+03 -0.33095795082E+02 -0.13668797424E+03  0.18687800166E+03  0.10566000000E+00 0.  1.
          4    1    3    3  501    0  0.34549077284E+03  0.65827814581E+03  0.10912007189E+04  0.13203836565E+04  0.00000000000E+00 0.  1.
         13    1    1    2    0    0 -0.22242801492E+03 -0.62518235072E+03  0.95072205557E+03  0.11593962358E+04  0.10566000000E+00 0. -1.
<mgrwt>
<rscale>  1 0.10130666E+04</rscale>
<asrwt>0</asrwt>
<pdfrwt beam="2">  1       21 0.58571009E-01 0.11665089E+04</pdfrwt>
<pdfrwt beam="1">  1        4 0.35168405E+00 0.11665089E+04</pdfrwt>
<totfact> 0.13298290E+01</totfact>
</mgrwt>
</event>
<event>
 6    1  0.5391662E-005  0.1131399E+04  0.7818608E-02  0.8844005E-01
          4   -1    0    0  502    0 -0.00000000000E+00  0.00000000000E+00  0.11418697083E+04  0.11418697083E+04  0.00000000000E+00 0.  1.
         21   -1    0    0  501  502  0.00000000000E+00 -0.00000000000E+00 -0.62743378726E+03  0.62743378726E+03  0.00000000000E+00 0.  1.
    9000010    2    1    2  501    0  0.40147305485E+03  0.32253288918E+03  0.15655904038E+03  0.11421799421E+04  0.10074007190E+04 0.  0.
        -13    1    3    3    0    0  0.22778606516E+03  0.58229432891E+02  0.57294149224E+03  0.61930535524E+03  0.10566000000E+00 0.  1.
          4    1    3    3  501    0  0.17368698969E+03  0.26430345629E+03 -0.41638245186E+03  0.52287458689E+03  0.00000000000E+00 0.  1.
         13    1    1    2    0    0 -0.40147305485E+03 -0.32253288918E+03  0.35787688061E+03  0.62712355338E+03  0.10566000000E+00 0. -1.
<mgrwt>
<rscale>  1 0.92930926E+03</rscale>
<asrwt>0</asrwt>
<pdfrwt beam="2">  1       21 0.96528275E-01 0.11313993E+04</pdfrwt>
<pdfrwt beam="1">  1        4 0.17567226E+00 0.11313993E+04</pdfrwt>
<totfact> 0.11925070E+01</totfact>
</mgrwt>
</event>
<event>
 6    1  0.5391662E-005  0.1052727E+04  0.7818608E-02  0.8959677E-01
         21   -1    0    0  501  502  0.00000000000E+00  0.00000000000E+00  0.44037820673E+03  0.44037820673E+03  0.00000000000E+00 0.  1.
          4   -1    0    0  502    0 -0.00000000000E+00 -0.00000000000E+00 -0.14210518156E+04  0.14210518156E+04  0.00000000000E+00 0.  1.
    9000010    2    1    2  501    0 -0.33443878225E+03 -0.21226936226E+03 -0.33647869849E+03  0.11051928407E+04  0.97535927703E+03 0.  0.
        -13    1    3    3    0    0 -0.64344376166E+03 -0.32792246987E+03 -0.21355918178E+03  0.75310062804E+03  0.10566000000E+00 0.  1.
          4    1    3    3  501    0  0.30900497941E+03  0.11565310761E+03 -0.12291951671E+03  0.35209221262E+03  0.00000000000E+00 0.  1.
         13    1    1    2    0    0  0.33443878225E+03  0.21226936226E+03 -0.64419491040E+03  0.75623718169E+03  0.10566000000E+00 0. -1.
<mgrwt>
<rscale>  1 0.82450291E+03</rscale>
<asrwt>0</asrwt>
<pdfrwt beam="1">  1       21 0.67750493E-01 0.10527266E+04</pdfrwt>
<pdfrwt beam="2">  1        4 0.21862336E+00 0.10527266E+04</pdfrwt>
<totfact> 0.21592700E+01</totfact>
</mgrwt>
</event>
<event>
 6    1  0.5391662E-005  0.1007358E+04  0.7818608E-02  0.9263077E-01
         21   -1    0    0  501  502  0.00000000000E+00  0.00000000000E+00  0.25995161392E+03  0.25995161392E+03  0.00000000000E+00 0.  1.
          4   -1    0    0  502    0 -0.00000000000E+00 -0.00000000000E+00 -0.13769829653E+04  0.13769829653E+04  0.00000000000E+00 0.  1.
    9000010    2    1    2  501    0 -0.66275050732E+02  0.11919838506E+03 -0.78217651874E+03  0.12753707433E+04  0.99808305717E+03 0.  0.
        -13    1    3    3    0    0 -0.30232332654E+02  0.50158649141E+03 -0.73221041666E+03  0.88805129791E+03  0.10566000000E+00 0.  1.
          4    1    3    3  501    0 -0.36042718078E+02 -0.38238810635E+03 -0.49966102087E+02  0.38731944537E+03  0.00000000000E+00 0.  1.
         13    1    1    2    0    0  0.66275050732E+02 -0.11919838506E+03 -0.33485483265E+03  0.36156383595E+03  0.10566000000E+00 0. -1.
<mgrwt>
<rscale>  1 0.61105308E+03</rscale>
<asrwt>0</asrwt>
<pdfrwt beam="1">  1       21 0.39992555E-01 0.10073581E+04</pdfrwt>
<pdfrwt beam="2">  1        4 0.21184354E+00 0.10073581E+04</pdfrwt>
<totfact> 0.73327316E+01</totfact>
</mgrwt>
</event>
<event>
 6    1  0.5391662E-005  0.1036738E+04  0.7818608E-02  0.9058201E-01
         21   -1    0    0  501  502  0.00000000000E+00  0.00000000000E+00  0.86800349616E+03  0.86800349616E+03  0.00000000000E+00 0.  1.
          4   -1    0    0  502    0 -0.00000000000E+00 -0.00000000000E+00 -0.88034956524E+03  0.88034956524E+03  0.00000000000E+00 0.  1.
    9000010    2    1    2  501    0  0.20214776976E+03 -0.19170699511E+03  0.51072976260E+03  0.11557118296E+04  0.99860385031E+03 0.  0.
        -13    1    3    3    0    0  0.13170484839E+03  0.32026197674E+03  0.53619336308E+03  0.63829243659E+03  0.10566000000E+00 0.  1.
          4    1    3    3  501    0  0.70442921371E+02 -0.51196897184E+03 -0.25463600479E+02  0.51741939300E+03  0.00000000000E+00 0.  1.
         13    1    1    2    0    0 -0.20214776976E+03  0.19170699511E+03 -0.52307583168E+03  0.59264123181E+03  0.10566000000E+00 0. -1.
<mgrwt>
<rscale>  1 0.74644029E+03</rscale>
<asrwt>0</asrwt>
<pdfrwt beam="1">  1       21 0.13353900E+00 0.10367376E+04</pdfrwt>
<pdfrwt beam="2">  1        4 0.13543839E+00 0.10367376E+04</pdfrwt>
<totfact> 0.71916394E+00</totfact>
</mgrwt>
</event>
<event>
 6    1  0.5391662E-005  0.1152980E+04  0.7818608E-02  0.8773853E-01
         21   -1    0    0  501  502  0.00000000000E+00  0.00000000000E+00  0.48892934334E+03  0.48892934334E+03  0.00000000000E+00 0.  1.
          4   -1    0    0  502    0 -0.00000000000E+00 -0.00000000000E+00 -0.16877980721E+04  0.16877980721E+04  0.00000000000E+00 0.  1.
    9000010    2    1    2  501    0  0.41119978785E+03 -0.50918089646E+03 -0.65695138814E+03  0.13270069520E+04  0.94921645231E+03 0.  0.
        -13    1    3    3    0    0 -0.24903476295E+02 -0.36333301786E+03 -0.77147547374E+03  0.85311516382E+03  0.10566000000E+00 0.  1.
          4    1    3    3  501    0  0.43610326414E+03 -0.14584787860E+03  0.11452408560E+03  0.47389178814E+03  0.00000000000E+00 0.  1.
         13    1    1    2    0    0 -0.41119978785E+03  0.50918089646E+03 -0.54191734067E+03  0.84972046352E+03  0.10566000000E+00 0. -1.
<mgrwt>
<rscale>  1 0.10007859E+04</rscale>
<asrwt>0</asrwt>
<pdfrwt beam="1">  1       21 0.75219900E-01 0.11529798E+04</pdfrwt>
<pdfrwt beam="2">  1        4 0.25966124E+00 0.11529798E+04</pdfrwt>
<totfact> 0.13240511E+01</totfact>
</mgrwt>
</event>
<event>
 6    1  0.5391662E-005  0.1130382E+04  0.7818608E-02  0.8845647E-01
          4   -1    0    0  502    0 -0.00000000000E+00  0.00000000000E+00  0.26446531884E+04  0.26446531884E+04  0.00000000000E+00 0.  1.
         21   -1    0    0  501  502  0.00000000000E+00 -0.00000000000E+00 -0.30595941922E+03  0.30595941922E+03  0.00000000000E+00 0.  1.
    9000010    2    1    2  501    0 -0.14572891097E+03  0.49169261937E+03  0.97183095233E+03  0.14907110634E+04  0.10073557104E+04 0.  0.
        -13    1    3    3    0    0  0.43217578255E+02 -0.12400837551E+03 -0.14863358189E+03  0.19833756351E+03  0.10566000000E+00 0.  1.
          4    1    3    3  501    0 -0.18894648922E+03  0.61570099489E+03  0.11204645342E+04  0.12923734999E+04  0.00000000000E+00 0.  1.
         13    1    1    2    0    0  0.14572891097E+03 -0.49169261937E+03  0.13668628169E+04  0.14599015442E+04  0.10566000000E+00 0. -1.
<mgrwt>
<rscale>  1 0.92771200E+03</rscale>
<asrwt>0</asrwt>
<pdfrwt beam="2">  1       21 0.47070682E-01 0.11303823E+04</pdfrwt>
<pdfrwt beam="1">  1        4 0.40686971E+00 0.11303823E+04</pdfrwt>
<totfact> 0.13519055E+01</totfact>
</mgrwt>
</event>
<event>
 6    1  0.5391662E-005  0.1186521E+04  0.7818608E-02  0.8763552E-01
         21   -1    0    0  501  502  0.00000000000E+00  0.00000000000E+00  0.84689577740E+03  0.84689577740E+03  0.00000000000E+00 0.  1.
          4   -1    0    0  502    0 -0.00000000000E+00 -0.00000000000E+00 -0.13975854657E+04  0.13975854657E+04  0.00000000000E+00 0.  1.
    9000010    2    1    2  501    0  0.62414208555E+03 -0.64776773709E+02  0.26460668082E+03  0.12156675797E+04  0.10070161843E+04 0.  0.
        -13    1    3    3    0    0  0.52384634381E+02 -0.10834285834E+03 -0.35297567495E+03  0.37292648490E+03  0.10566000000E+00 0.  1.
          4    1    3    3  501    0  0.57175745117E+03  0.43566084634E+02  0.61758235576E+03  0.84274109479E+03  0.00000000000E+00 0.  1.
         13    1    1    2    0    0 -0.62414208555E+03  0.64776773709E+02 -0.81529636916E+03  0.10288136634E+04  0.10566000000E+00 0. -1.
<mgrwt>
<rscale>  1 0.10118332E+04</rscale>
<asrwt>0</asrwt>
<pdfrwt beam="1">  1       21 0.13029166E+00 0.11865205E+04</pdfrwt>
<pdfrwt beam="2">  1        4 0.21501315E+00 0.11865205E+04</pdfrwt>
<totfact> 0.39944958E+00</totfact>
</mgrwt>
</event>
<event>
 6    1  0.5391662E-005  0.1001441E+04  0.7818608E-02  0.9421264E-01
         21   -1    0    0  501  502  0.00000000000E+00  0.00000000000E+00  0.11322349888E+03  0.11322349888E+03  0.00000000000E+00 0.  1.
          4   -1    0    0  502    0 -0.00000000000E+00 -0.00000000000E+00 -0.27093820662E+04  0.27093820662E+04  0.00000000000E+00 0.  1.
    9000010    2    1    2  501    0  0.32959440217E+02 -0.69185291397E+02 -0.21742492159E+04  0.23937927373E+04  0.99850442528E+03 0.  0.
        -13    1    3    3    0    0 -0.42013780265E+03 -0.12844457537E+03 -0.53618981263E+03  0.69319067253E+03  0.10566000000E+00 0.  1.
          4    1    3    3  501    0  0.45309724286E+03  0.59259283973E+02 -0.16380594032E+04  0.17006020648E+04  0.00000000000E+00 0.  1.
         13    1    1    2    0    0 -0.32959440217E+02  0.69185291397E+02 -0.42190935143E+03  0.42881282774E+03  0.10566000000E+00 0. -1.
<mgrwt>
<rscale>  1 0.52671534E+03</rscale>
<asrwt>0</asrwt>
<pdfrwt beam="1">  1       21 0.17419003E-01 0.10014410E+04</pdfrwt>
<pdfrwt beam="2">  1        4 0.41682793E+00 0.10014410E+04</pdfrwt>
<totfact> 0.95798447E+01</totfact>
</mgrwt>
</event>
<event>
 6    1  0.5391662E-005  0.1000108E+04  0.7818608E-02  0.9206704E-01
         21   -1    0    0  501  502  0.00000000000E+00  0.00000000000E+00  0.32493970439E+03  0.32493970439E+03  0.00000000000E+00 0.  1.
          4   -1    0    0  502    0 -0.00000000000E+00 -0.00000000000E+00 -0.12379301203E+04  0.12379301203E+04  0.00000000000E+00 0.  1.
    9000010    2    1    2  501    0  0.45848311661E+02 -0.16691964203E+03 -0.50649029563E+03  0.11210479222E+04  0.98501359875E+03 0.  0.
        -13    1    3    3    0    0 -0.13907613985E+03  0.31709089782E+03 -0.49337176650E+03  0.60274747723E+03  0.10566000000E+00 0.  1.
          4    1    3    3  501    0  0.18492445151E+03 -0.48401053985E+03 -0.13118529126E+02  0.51830044497E+03  0.00000000000E+00 0.  1.
         13    1    1    2    0    0 -0.45848311661E+02  0.16691964203E+03 -0.40650012031E+03  0.44182190253E+03  0.10566000000E+00 0. -1.
<mgrwt>
<rscale>  1 0.64507557E+03</rscale>
<asrwt>0</asrwt>
<pdfrwt beam="1">  1       21 0.49990723E-01 0.10001080E+04</pdfrwt>
<pdfrwt beam="2">  1        4 0.19045079E+00 0.10001080E+04</pdfrwt>
<totfact> 0.51790576E+01</totfact>
</mgrwt>
</event>
<event>
 6    1  0.5391662E-005  0.1019639E+04  0.7818608E-02  0.9305838E-01
          4   -1    0    0  502    0 -0.00000000000E+00  0.00000000000E+00  0.18903734528E+03  0.18903734528E+03  0.00000000000E+00 0.  1.
         21   -1    0    0  501  502  0.00000000000E+00 -0.00000000000E+00 -0.16993990235E+04  0.16993990235E+04  0.00000000000E+00 0.  1.
    9000010    2    1    2  501    0 -0.99169302534E+02 -0.51569701193E+02 -0.13937498812E+04  0.17269052355E+04  0.10134934516E+04 0.  0.
        -13    1    3    3    0    0 -0.43328699443E+03  0.71212873462E+02 -0.20238089100E+03  0.48349449749E+03  0.10566000000E+00 0.  1.
          4    1    3    3  501    0  0.33411769190E+03 -0.12278257465E+03 -0.11913689902E+04  0.12434107381E+04  0.00000000000E+00 0.  1.
         13    1    1    2    0    0  0.99169302534E+02  0.51569701193E+02 -0.11661179705E+03  0.16153113329E+03  0.10566000000E+00 0. -1.
<mgrwt>
<rscale>  1 0.58670851E+03</rscale>
<asrwt>0</asrwt>
<pdfrwt beam="2">  1       21 0.26144601E+00 0.10196386E+04</pdfrwt>
<pdfrwt beam="1">  1        4 0.29082668E-01 0.10196386E+04</pdfrwt>
<totfact> 0.14537456E+01</totfact>
</mgrwt>
</event>
<event>
 6    1  0.5391662E-005  0.1069166E+04  0.7818608E-02  0.8953187E-01
          4   -1    0    0  502    0 -0.00000000000E+00  0.00000000000E+00  0.10641739026E+04  0.10641739026E+04  0.00000000000E+00 0.  1.
         21   -1    0    0  501  502  0.00000000000E+00 -0.00000000000E+00 -0.58356100123E+03  0.58356100123E+03  0.00000000000E+00 0.  1.
    9000010    2    1    2  501    0  0.37798941551E+03  0.88831152913E+02  0.53496040756E+02  0.10705037580E+04  0.99616740436E+03 0.  0.
        -13    1    3    3    0    0 -0.14339432649E+03 -0.32655384988E+03  0.16779988684E+03  0.39415246153E+03  0.10566000000E+00 0.  1.
          4    1    3    3  501    0  0.52138374200E+03  0.41538500280E+03 -0.11430384609E+03  0.67635129644E+03  0.00000000000E+00 0.  1.
         13    1    1    2    0    0 -0.37798941551E+03 -0.88831152913E+02  0.42711686064E+03  0.57723114587E+03  0.10566000000E+00 0. -1.
<mgrwt>
<rscale>  1 0.82998876E+03</rscale>
<asrwt>0</asrwt>
<pdfrwt beam="2">  1       21 0.89778616E-01 0.10691662E+04</pdfrwt>
<pdfrwt beam="1">  1        4 0.16371906E+00 0.10691662E+04</pdfrwt>
<totfact> 0.15911139E+01</totfact>
</mgrwt>
</event>
<event>
 6    1  0.5391662E-005  0.1073032E+04  0.7818608E-02  0.8948824E-01
         21   -1    0    0  501  502  0.00000000000E+00  0.00000000000E+00  0.48932256323E+03  0.48932256323E+03  0.00000000000E+00 0.  1.
          4   -1    0    0  502    0 -0.00000000000E+00 -0.00000000000E+00 -0.12276375904E+04  0.12276375904E+04  0.00000000000E+00 0.  1.
    9000010    2    1    2  501    0  0.49990794049E+02  0.38781519780E+03 -0.26926867168E+03  0.11063013275E+04  0.99924836882E+03 0.  0.
        -13    1    3    3    0    0 -0.19707900248E+03  0.19753912371E+03  0.32914500417E+03  0.43150699131E+03  0.10566000000E+00 0.  1.
          4    1    3    3  501    0  0.24706979653E+03  0.19027607410E+03 -0.59841367585E+03  0.67479433621E+03  0.00000000000E+00 0.  1.
         13    1    1    2    0    0 -0.49990794049E+02 -0.38781519780E+03 -0.46904635550E+03  0.61065882611E+03  0.10566000000E+00 0. -1.
<mgrwt>
<rscale>  1 0.83370086E+03</rscale>
<asrwt>0</asrwt>
<pdfrwt beam="1">  1       21 0.75280395E-01 0.10730317E+04</pdfrwt>
<pdfrwt beam="2">  1        4 0.18886732E+00 0.10730317E+04</pdfrwt>
<totfact> 0.20230372E+01</totfact>
</mgrwt>
</event>
<event>
 6    1  0.5391662E-005  0.1000515E+04  0.7818608E-02  0.9280648E-01
          4   -1    0    0  502    0 -0.00000000000E+00  0.00000000000E+00  0.31097053569E+04  0.31097053569E+04  0.00000000000E+00 0.  1.
         21   -1    0    0  501  502  0.00000000000E+00 -0.00000000000E+00 -0.10351786095E+03  0.10351786095E+03  0.00000000000E+00 0.  1.
    9000010    2    1    2  501    0  0.49724180501E+02 -0.12030888965E+03  0.25648432885E+04  0.27530803665E+04  0.99200992267E+03 0.  0.
        -13    1    3    3    0    0 -0.10380296137E+03 -0.98317033829E+01  0.25617898012E+04  0.25639108241E+04  0.10566000000E+00 0.  1.
          4    1    3    3  501    0  0.15352714187E+03 -0.11047718627E+03  0.30534872776E+01  0.18916954237E+03  0.00000000000E+00 0.  1.
         13    1    1    2    0    0 -0.49724180501E+02  0.12030888965E+03  0.44134420744E+03  0.46014285136E+03  0.10566000000E+00 0. -1.
<mgrwt>
<rscale>  1 0.60090176E+03</rscale>
<asrwt>0</asrwt>
<pdfrwt beam="2">  1       21 0.15925827E-01 0.10005151E+04</pdfrwt>
<pdfrwt beam="1">  1        4 0.47841614E+00 0.10005151E+04</pdfrwt>
<totfact> 0.59607472E+01</totfact>
</mgrwt>
</event>
<event>
 6    1  0.5391662E-005  0.1016898E+04  0.7818608E-02  0.9158523E-01
          4   -1    0    0  502    0 -0.00000000000E+00  0.00000000000E+00  0.20228364895E+04  0.20228364895E+04  0.00000000000E+00 0.  1.
         21   -1    0    0  501  502  0.00000000000E+00 -0.00000000000E+00 -0.21362332531E+03  0.21362332531E+03  0.00000000000E+00 0.  1.
    9000010    2    1    2  501    0  0.19297577339E+03 -0.46935815095E+02  0.10915870685E+04  0.14918593554E+04  0.99731609240E+03 0.  0.
        -13    1    3    3    0    0 -0.63932635170E+02  0.11425378644E+03 -0.15845765890E+03  0.20554841372E+03  0.10566000000E+00 0.  1.
          4    1    3    3  501    0  0.25690840856E+03 -0.16118960153E+03  0.12500447274E+04  0.12863109417E+04  0.00000000000E+00 0.  1.
         13    1    1    2    0    0 -0.19297577339E+03  0.46935815095E+02  0.71762609564E+03  0.74460045942E+03  0.10566000000E+00 0. -1.
<mgrwt>
<rscale>  1 0.67601114E+03</rscale>
<asrwt>0</asrwt>
<pdfrwt beam="2">  1       21 0.32865128E-01 0.10168982E+04</pdfrwt>
<pdfrwt beam="1">  1        4 0.31120560E+00 0.10168982E+04</pdfrwt>
<totfact> 0.62658382E+01</totfact>
</mgrwt>
</event>
<event>
 6    1  0.5391662E-005  0.1027629E+04  0.7818608E-02  0.8965405E-01
          4   -1    0    0  502    0 -0.00000000000E+00  0.00000000000E+00  0.32634920907E+04  0.32634920907E+04  0.00000000000E+00 0.  1.
         21   -1    0    0  501  502  0.00000000000E+00 -0.00000000000E+00 -0.16023690867E+03  0.16023690867E+03  0.00000000000E+00 0. -1.
    9000010    2    1    2  501    0  0.25948111532E+03  0.32517198801E+03  0.21129489182E+04  0.23495903777E+04  0.93965660829E+03 0.  0.
        -13    1    3    3    0    0  0.76787523304E+02 -0.13458305574E+02 -0.86669740149E+02  0.11657231552E+03  0.10566000000E+00 0.  1.
          4    1    3    3  501    0  0.18269359202E+03  0.33863029358E+03  0.21996186583E+04  0.22330180622E+04  0.00000000000E+00 0.  1.
         13    1    1    2    0    0 -0.25948111532E+03 -0.32517198801E+03  0.99030626387E+03  0.10741386216E+04  0.10566000000E+00 0. -1.
<mgrwt>
<rscale>  1 0.81969862E+03</rscale>
<asrwt>0</asrwt>
<pdfrwt beam="2">  1       21 0.24651835E-01 0.10276292E+04</pdfrwt>
<pdfrwt beam="1">  1        4 0.50207566E+00 0.10276292E+04</pdfrwt>
<totfact> 0.19638277E+01</totfact>
</mgrwt>
</event>
<event>
 6    1  0.5391662E-005  0.1011970E+04  0.7818608E-02  0.9278074E-01
          4   -1    0    0  502    0 -0.00000000000E+00  0.00000000000E+00  0.16955476719E+04  0.16955476719E+04  0.00000000000E+00 0.  1.
         21   -1    0    0  501  502  0.00000000000E+00 -0.00000000000E+00 -0.19167782208E+03  0.19167782208E+03  0.00000000000E+00 0.  1.
    9000010    2    1    2  501    0 -0.42095321438E+01  0.12697804176E+03  0.13081602002E+04  0.16538943530E+04  0.10039632852E+04 0.  0.
        -13    1    3    3    0    0 -0.27972894793E+03 -0.23088718838E+03  0.10968515382E+04  0.11552664134E+04  0.10566000000E+00 0.  1.
          4    1    3    3  501    0  0.27551941579E+03  0.35786523014E+03  0.21130866203E+03  0.49862793952E+03  0.00000000000E+00 0.  1.
         13    1    1    2    0    0  0.42095321438E+01 -0.12697804176E+03  0.19570964959E+03  0.23333114100E+03  0.10566000000E+00 0. -1.
<mgrwt>
<rscale>  1 0.60237588E+03</rscale>
<asrwt>0</asrwt>
<pdfrwt beam="2">  1       21 0.29488897E-01 0.10119701E+04</pdfrwt>
<pdfrwt beam="1">  1        4 0.26085348E+00 0.10119701E+04</pdfrwt>
<totfact> 0.10536893E+02</totfact>
</mgrwt>
</event>
<event>
 6    1  0.5391662E-005  0.9765713E+03  0.7818608E-02  0.9516940E-01
          4   -1    0    0  502    0 -0.00000000000E+00  0.00000000000E+00  0.49379939625E+03  0.49379939625E+03  0.00000000000E+00 0.  1.
         21   -1    0    0  501  502  0.00000000000E+00 -0.00000000000E+00 -0.66252770454E+03  0.66252770454E+03  0.00000000000E+00 0.  1.
    9000010    2    1    2  501    0 -0.51488548373E+02 -0.27225395829E+02 -0.29258496528E+03  0.10194593711E+04  0.97483288546E+03 0.  0.
        -13    1    3    3    0    0 -0.41624122574E+02 -0.49119619325E+03 -0.25194225449E+03  0.55360742282E+03  0.10566000000E+00 0.  1.
          4    1    3    3  501    0 -0.98644257987E+01  0.46397079742E+03 -0.40642710785E+02  0.46585194825E+03  0.00000000000E+00 0.  1.
         13    1    1    2    0    0  0.51488548373E+02  0.27225395829E+02  0.12385665699E+03  0.13686772971E+03  0.10566000000E+00 0. -1.
<mgrwt>
<rscale>  1 0.48260276E+03</rscale>
<asrwt>0</asrwt>
<pdfrwt beam="2">  1       21 0.10192734E+00 0.97657127E+03</pdfrwt>
<pdfrwt beam="1">  1        4 0.75969138E-01 0.97657127E+03</pdfrwt>
<totfact> 0.44761703E+01</totfact>
</mgrwt>
</event>
<event>
 6    1  0.5391662E-005  0.1061442E+04  0.7818608E-02  0.9003546E-01
         21   -1    0    0  501  502  0.00000000000E+00  0.00000000000E+00  0.32976443181E+03  0.32976443181E+03  0.00000000000E+00 0.  1.
          4   -1    0    0  502    0 -0.00000000000E+00 -0.00000000000E+00 -0.17922113778E+04  0.17922113778E+04  0.00000000000E+00 0.  1.
    9000010    2    1    2  501    0  0.20234045825E+03 -0.25220841009E+03 -0.64292489584E+03  0.12409723221E+04  0.10109941342E+04 0.  0.
        -13    1    3    3    0    0 -0.30777122590E+03  0.20343891712E+03 -0.30178714001E+03  0.47664033561E+03  0.10566000000E+00 0.  1.
          4    1    3    3  501    0  0.51011168415E+03 -0.45564732722E+03 -0.34113775583E+03  0.76433198648E+03  0.00000000000E+00 0.  1.
         13    1    1    2    0    0 -0.20234045825E+03  0.25220841009E+03 -0.81952205020E+03  0.88100348756E+03  0.10566000000E+00 0. -1.
<mgrwt>
<rscale>  1 0.78856629E+03</rscale>
<asrwt>0</asrwt>
<pdfrwt beam="1">  1       21 0.50732988E-01 0.10614424E+04</pdfrwt>
<pdfrwt beam="2">  1        4 0.27572484E+00 0.10614424E+04</pdfrwt>
<totfact> 0.30519212E+01</totfact>
</mgrwt>
</event>
<event>
 6    1  0.5391662E-005  0.1092002E+04  0.7818608E-02  0.8920266E-01
          4   -1    0    0  502    0 -0.00000000000E+00  0.00000000000E+00  0.14881351563E+04  0.14881351563E+04  0.00000000000E+00 0.  1.
         21   -1    0    0  501  502  0.00000000000E+00 -0.00000000000E+00 -0.42100895994E+03  0.42100895994E+03  0.00000000000E+00 0.  1.
    9000010    2    1    2  501    0  0.23431179412E+03  0.34514900272E+03  0.10111221477E+04  0.14882328244E+04  0.10091774329E+04 0.  0.
        -13    1    3    3    0    0 -0.19878547143E+03  0.25303927253E+03 -0.61683975104E+02  0.32764227604E+03  0.10566000000E+00 0.  1.
          4    1    3    3  501    0  0.43309726555E+03  0.92109730191E+02  0.10728061228E+04  0.11605905484E+04  0.00000000000E+00 0.  1.
         13    1    1    2    0    0 -0.23431179412E+03 -0.34514900272E+03  0.56004048634E+02  0.42091129181E+03  0.10566000000E+00 0. -1.
<mgrwt>
<rscale>  1 0.85851064E+03</rscale>
<asrwt>0</asrwt>
<pdfrwt beam="2">  1       21 0.64770610E-01 0.10920023E+04</pdfrwt>
<pdfrwt beam="1">  1        4 0.22894387E+00 0.10920023E+04</pdfrwt>
<totfact> 0.22507543E+01</totfact>
</mgrwt>
</event>
<event>
 6    1  0.5391662E-005  0.1095564E+04  0.7818608E-02  0.8922974E-01
          4   -1    0    0  502    0 -0.00000000000E+00  0.00000000000E+00  0.64934512563E+03  0.64934512563E+03  0.00000000000E+00 0.  1.
         21   -1    0    0  501  502  0.00000000000E+00 -0.00000000000E+00 -0.91451488813E+03  0.91451488813E+03  0.00000000000E+00 0. -1.
    9000010    2    1    2  501    0 -0.40740591458E+03 -0.30297413678E+02 -0.37572471192E+02  0.10962083799E+04  0.10165449370E+04 0.  0.
        -13    1    3    3    0    0  0.70262892736E+02 -0.11803167679E+03 -0.44284875263E+03  0.46366300228E+03  0.10566000000E+00 0.  1.
          4    1    3    3  501    0 -0.47766880731E+03  0.87734263113E+02  0.40527628143E+03  0.63254537758E+03  0.00000000000E+00 0.  1.
         13    1    1    2    0    0  0.40740591458E+03  0.30297413678E+02 -0.22759729131E+03  0.46765163389E+03  0.10566000000E+00 0. -1.
<mgrwt>
<rscale>  1 0.85612010E+03</rscale>
<asrwt>0</asrwt>
<pdfrwt beam="2">  1       21 0.14069460E+00 0.10955643E+04</pdfrwt>
<pdfrwt beam="1">  1        4 0.99899251E-01 0.10955643E+04</pdfrwt>
<totfact> 0.10371706E+01</totfact>
</mgrwt>
</event>
<event>
 6    1  0.5391662E-005  0.1065309E+04  0.7818608E-02  0.9005520E-01
          4   -1    0    0  502    0 -0.00000000000E+00  0.00000000000E+00  0.32688948264E+04  0.32688948264E+04  0.00000000000E+00 0.  1.
         21   -1    0    0  501  502  0.00000000000E+00 -0.00000000000E+00 -0.18856772398E+03  0.18856772398E+03  0.00000000000E+00 0.  1.
    9000010    2    1    2  501    0 -0.12689737659E+03 -0.29081249033E+03  0.14656668021E+04  0.18119222910E+04  0.10169603557E+04 0.  0.
        -13    1    3    3    0    0 -0.53456117678E+03  0.33789949301E+02  0.62806601693E+03  0.82544796637E+03  0.10566000000E+00 0.  1.
          4    1    3    3  501    0  0.40766380019E+03 -0.32460243963E+03  0.83760078516E+03  0.98647432460E+03  0.00000000000E+00 0.  1.
         13    1    1    2    0    0  0.12689737659E+03  0.29081249033E+03  0.16146603003E+04  0.16455402594E+04  0.10566000000E+00 0. -1.
<mgrwt>
<rscale>  1 0.78699472E+03</rscale>
<asrwt>0</asrwt>
<pdfrwt beam="2">  1       21 0.29010422E-01 0.10653090E+04</pdfrwt>
<pdfrwt beam="1">  1        4 0.50290685E+00 0.10653090E+04</pdfrwt>
<totfact> 0.13922245E+01</totfact>
</mgrwt>
</event>
<event>
 6    1  0.5391662E-005  0.1091567E+04  0.7818608E-02  0.8898480E-01
         21   -1    0    0  501  502  0.00000000000E+00  0.00000000000E+00  0.27243307957E+03  0.27243307957E+03  0.00000000000E+00 0. -1.
          4   -1    0    0  502    0 -0.00000000000E+00 -0.00000000000E+00 -0.24671600629E+04  0.24671600629E+04  0.00000000000E+00 0.  1.
    9000010    2    1    2  501    0  0.28415751446E+03  0.35791539224E+03 -0.19136222844E+04  0.22030590952E+04  0.99129723511E+03 0.  0.
        -13    1    3    3    0    0  0.14902901120E+03  0.19477554509E+03  0.30760612465E+02  0.24717076200E+03  0.10566000000E+00 0.  1.
          4    1    3    3  501    0  0.13512850326E+03  0.16313984715E+03 -0.19443828969E+04  0.19558883332E+04  0.00000000000E+00 0.  1.
         13    1    1    2    0    0 -0.28415751446E+03 -0.35791539224E+03 -0.28110469895E+03  0.53653404735E+03  0.10566000000E+00 0. -1.
<mgrwt>
<rscale>  1 0.87804539E+03</rscale>
<asrwt>0</asrwt>
<pdfrwt beam="1">  1       21 0.41912782E-01 0.10915673E+04</pdfrwt>
<pdfrwt beam="2">  1        4 0.37956309E+00 0.10915673E+04</pdfrwt>
<totfact> 0.22351301E+01</totfact>
</mgrwt>
</event>
<event>
 6    1  0.5391662E-005  0.1072966E+04  0.7818608E-02  0.8987669E-01
          4   -1    0    0  502    0 -0.00000000000E+00  0.00000000000E+00  0.22368045042E+04  0.22368045042E+04  0.00000000000E+00 0.  1.
         21   -1    0    0  501  502  0.00000000000E+00 -0.00000000000E+00 -0.26816225373E+03  0.26816225373E+03  0.00000000000E+00 0.  1.
    9000010    2    1    2  501    0  0.13145080055E+03 -0.30685791798E+03  0.95026067163E+03  0.14332661719E+04  0.10197134307E+04 0.  0.
        -13    1    3    3    0    0 -0.15203127011E+03 -0.62077205780E+03  0.66957324117E+03  0.92563480450E+03  0.10566000000E+00 0.  1.
          4    1    3    3  501    0  0.28348207066E+03  0.31391413982E+03  0.28068743046E+03  0.50763136741E+03  0.00000000000E+00 0.  1.
         13    1    1    2    0    0 -0.13145080055E+03  0.30685791798E+03  0.10183815788E+04  0.10717005860E+04  0.10566000000E+00 0. -1.
<mgrwt>
<rscale>  1 0.80134628E+03</rscale>
<asrwt>0</asrwt>
<pdfrwt beam="2">  1       21 0.41255733E-01 0.10729663E+04</pdfrwt>
<pdfrwt beam="1">  1        4 0.34412376E+00 0.10729663E+04</pdfrwt>
<totfact> 0.31016058E+01</totfact>
</mgrwt>
</event>
<event>
 6    1  0.5391662E-005  0.1088494E+04  0.7818608E-02  0.8911338E-01
         21   -1    0    0  501  502  0.00000000000E+00  0.00000000000E+00  0.14405381247E+04  0.14405381247E+04  0.00000000000E+00 0.  1.
          4   -1    0    0  502    0 -0.00000000000E+00 -0.00000000000E+00 -0.45937187785E+03  0.45937187785E+03  0.00000000000E+00 0.  1.
    9000010    2    1    2  501    0  0.11230401650E+03  0.42234104723E+03  0.97733645708E+03  0.14628758726E+04  0.99691279262E+03 0.  0.
        -13    1    3    3    0    0  0.20445531485E+03  0.66490245803E+03  0.33903257933E+03  0.77384775988E+03  0.10566000000E+00 0.  1.
          4    1    3    3  501    0 -0.92151298348E+02 -0.24256141081E+03  0.63830387775E+03  0.68902811275E+03  0.00000000000E+00 0.  1.
         13    1    1    2    0    0 -0.11230401650E+03 -0.42234104723E+03  0.38297898112E+01  0.43703412996E+03  0.10566000000E+00 0. -1.
<mgrwt>
<rscale>  1 0.86645140E+03</rscale>
<asrwt>0</asrwt>
<pdfrwt beam="1">  1       21 0.22162125E+00 0.10884940E+04</pdfrwt>
<pdfrwt beam="2">  1        4 0.70672597E-01 0.10884940E+04</pdfrwt>
<totfact> 0.45204820E+00</totfact>
</mgrwt>
</event>
<event>
 6    1  0.5391662E-005  0.9532716E+03  0.7818608E-02  0.9582948E-01
          4   -1    0    0  502    0 -0.00000000000E+00  0.00000000000E+00  0.25818512247E+04  0.25818512247E+04  0.00000000000E+00 0.  1.
         21   -1    0    0  501  502  0.00000000000E+00 -0.00000000000E+00 -0.98401501093E+02  0.98401501093E+02  0.00000000000E+00 0.  1.
    9000010    2    1    2  501    0 -0.19360906161E+02 -0.45437470441E+02  0.22876536099E+04  0.24783231893E+04  0.95199127267E+03 0.  0.
        -13    1    3    3    0    0 -0.48074265250E+03 -0.86218583013E+02  0.12475200065E+04  0.13397213590E+04  0.10566000000E+00 0.  1.
          4    1    3    3  501    0  0.46138174634E+03  0.40781112571E+02  0.10401336034E+04  0.11386018302E+04  0.00000000000E+00 0.  1.
         13    1    1    2    0    0  0.19360906161E+02  0.45437470441E+02  0.19579611372E+03  0.20192953652E+03  0.10566000000E+00 0. -1.
<mgrwt>
<rscale>  1 0.45480299E+03</rscale>
<asrwt>0</asrwt>
<pdfrwt beam="2">  1       21 0.15138694E-01 0.95327163E+03</pdfrwt>
<pdfrwt beam="1">  1        4 0.39720783E+00 0.95327163E+03</pdfrwt>
<totfact> 0.15115243E+02</totfact>
</mgrwt>
</event>
<event>
 6    1  0.5391662E-005  0.1063053E+04  0.7818608E-02  0.8939990E-01
          4   -1    0    0  502    0 -0.00000000000E+00  0.00000000000E+00  0.11106634740E+04  0.11106634740E+04  0.00000000000E+00 0.  1.
         21   -1    0    0  501  502  0.00000000000E+00 -0.00000000000E+00 -0.51901170252E+03  0.51901170252E+03  0.00000000000E+00 0.  1.
    9000010    2    1    2  501    0 -0.39816813856E+03 -0.12377941652E+03  0.25358377901E+03  0.10928798811E+04  0.97786629501E+03 0.  0.
        -13    1    3    3    0    0 -0.57522970349E+03 -0.31364828201E+03  0.42575119607E+03  0.78136326296E+03  0.10566000000E+00 0.  1.
          4    1    3    3  501    0  0.17706156492E+03  0.18986886549E+03 -0.17216741706E+03  0.31151661810E+03  0.00000000000E+00 0.  1.
         13    1    1    2    0    0  0.39816813856E+03  0.12377941652E+03  0.33806799243E+03  0.53679529542E+03  0.10566000000E+00 0. -1.
<mgrwt>
<rscale>  1 0.84128066E+03</rscale>
<asrwt>0</asrwt>
<pdfrwt beam="2">  1       21 0.79847954E-01 0.10630530E+04</pdfrwt>
<pdfrwt beam="1">  1        4 0.17087130E+00 0.10630530E+04</pdfrwt>
<totfact> 0.20149055E+01</totfact>
</mgrwt>
</event>
<event>
 6    1  0.5391662E-005  0.9350649E+03  0.7818608E-02  0.9704221E-01
          4   -1    0    0  502    0 -0.00000000000E+00  0.00000000000E+00  0.48131704967E+03  0.48131704967E+03  0.00000000000E+00 0.  1.
         21   -1    0    0  501  502  0.00000000000E+00 -0.00000000000E+00 -0.58781497590E+03  0.58781497590E+03  0.00000000000E+00 0.  1.
    9000010    2    1    2  501    0 -0.13129101425E+02 -0.31503642431E+02 -0.21153110875E+03  0.95869275092E+03  0.93444182692E+03 0.  0.
        -13    1    3    3    0    0 -0.22281004200E+03  0.39721201225E+03 -0.13750109080E+03  0.47573969629E+03  0.10566000000E+00 0.  1.
          4    1    3    3  501    0  0.20968094058E+03 -0.42871565468E+03 -0.74030017952E+02  0.48295305462E+03  0.00000000000E+00 0.  1.
         13    1    1    2    0    0  0.13129101425E+02  0.31503642431E+02  0.10503318252E+03  0.11043927465E+03  0.10566000000E+00 0. -1.
<mgrwt>
<rscale>  1 0.40871043E+03</rscale>
<asrwt>0</asrwt>
<pdfrwt beam="2">  1       21 0.90433073E-01 0.93506491E+03</pdfrwt>
<pdfrwt beam="1">  1        4 0.74048777E-01 0.93506491E+03</pdfrwt>
<totfact> 0.64399025E+01</totfact>
</mgrwt>
</event>
<event>
 6    1  0.5391662E-005  0.1003018E+04  0.7818608E-02  0.9062778E-01
         21   -1    0    0  501  502  0.00000000000E+00  0.00000000000E+00  0.40811122015E+03  0.40811122015E+03  0.00000000000E+00 0.  1.
          4   -1    0    0  502    0 -0.00000000000E+00 -0.00000000000E+00 -0.17470416317E+04  0.17470416317E+04  0.00000000000E+00 0.  1.
    9000010    2    1    2  501    0 -0.71409355505E+02 -0.29351581020E+03 -0.26201950279E+03  0.10366771286E+04  0.95644886025E+03 0.  0.
        -13    1    3    3    0    0 -0.29342060420E+03 -0.40765401897E+03  0.17625105662E+03  0.53229869085E+03  0.10566000000E+00 0.  1.
          4    1    3    3  501    0  0.22201124869E+03  0.11413820877E+03 -0.43827055941E+03  0.50437843778E+03  0.00000000000E+00 0.  1.
         13    1    1    2    0    0  0.71409355505E+02  0.29351581020E+03 -0.10769109088E+04  0.11184757232E+04  0.10566000000E+00 0. -1.
<mgrwt>
<rscale>  1 0.74303826E+03</rscale>
<asrwt>0</asrwt>
<pdfrwt beam="1">  1       21 0.62786341E-01 0.10030181E+04</pdfrwt>
<pdfrwt beam="2">  1        4 0.26877564E+00 0.10030181E+04</pdfrwt>
<totfact> 0.19687804E+01</totfact>
</mgrwt>
</event>
<event>
 6    1  0.5391662E-005  0.1040757E+04  0.7818608E-02  0.9048413E-01
         21   -1    0    0  501  502  0.00000000000E+00  0.00000000000E+00  0.30042355607E+03  0.30042355607E+03  0.00000000000E+00 0.  1.
          4   -1    0    0  502    0 -0.00000000000E+00 -0.00000000000E+00 -0.15777246861E+04  0.15777246861E+04  0.00000000000E+00 0.  1.
    9000010    2    1    2  501    0  0.18302275730E+03  0.22025119717E+03 -0.76651687327E+03  0.12925643561E+04  0.10005831190E+04 0.  0.
        -13    1    3    3    0    0 -0.32905906215E+03 -0.12716182967E+03 -0.51578922535E+03  0.62489081723E+03  0.10566000000E+00 0.  1.
          4    1    3    3  501    0  0.51208181945E+03  0.34741302684E+03 -0.25072764792E+03  0.66767353883E+03  0.00000000000E+00 0.  1.
         13    1    1    2    0    0 -0.18302275730E+03 -0.22025119717E+03 -0.51078425679E+03  0.58558388613E+03  0.10566000000E+00 0. -1.
<mgrwt>
<rscale>  1 0.75377875E+03</rscale>
<asrwt>0</asrwt>
<pdfrwt beam="1">  1       21 0.46219008E-01 0.10407567E+04</pdfrwt>
<pdfrwt beam="2">  1        4 0.24272688E+00 0.10407567E+04</pdfrwt>
<totfact> 0.44895393E+01</totfact>
</mgrwt>
</event>
<event>
 6    1  0.5391662E-005  0.1061953E+04  0.7818608E-02  0.8996939E-01
         21   -1    0    0  501  502  0.00000000000E+00  0.00000000000E+00  0.28698154146E+03  0.28698154146E+03  0.00000000000E+00 0.  1.
          4   -1    0    0  502    0 -0.00000000000E+00 -0.00000000000E+00 -0.23325815936E+04  0.23325815936E+04  0.00000000000E+00 0.  1.
    9000010    2    1    2  501    0 -0.28662985907E+03 -0.16678645995E+03 -0.79724049325E+03  0.13279068345E+04  0.10088457552E+04 0.  0.
        -13    1    3    3    0    0 -0.46781906509E+03  0.27062849579E+03 -0.61967524904E+03  0.82224806830E+03  0.10566000000E+00 0.  1.
          4    1    3    3  501    0  0.18118920602E+03 -0.43741495574E+03 -0.17756524421E+03  0.50565876620E+03  0.00000000000E+00 0.  1.
         13    1    1    2    0    0  0.28662985907E+03  0.16678645995E+03 -0.12483595589E+04  0.12916563005E+04  0.10566000000E+00 0. -1.
<mgrwt>
<rscale>  1 0.79385361E+03</rscale>
<asrwt>0</asrwt>
<pdfrwt beam="1">  1       21 0.44151004E-01 0.10619530E+04</pdfrwt>
<pdfrwt beam="2">  1        4 0.35885872E+00 0.10619530E+04</pdfrwt>
<totfact> 0.23880083E+01</totfact>
</mgrwt>
</event>
<event>
 6    1  0.5391662E-005  0.1015112E+04  0.7818608E-02  0.9135909E-01
         21   -1    0    0  501  502  0.00000000000E+00  0.00000000000E+00  0.73120520222E+03  0.73120520222E+03  0.00000000000E+00 0.  1.
          4   -1    0    0  502    0 -0.00000000000E+00 -0.00000000000E+00 -0.54798158572E+03  0.54798158572E+03  0.00000000000E+00 0.  1.
    9000010    2    1    2  501    0 -0.20240827815E+03 -0.81369947928E+02  0.35516463358E+02  0.10157335782E+04  0.99139452446E+03 0.  0.
        -13    1    3    3    0    0  0.38997561439E+03  0.49071987352E+02  0.10047483996E+03  0.40568983767E+03  0.10566000000E+00 0.  1.
          4    1    3    3  501    0 -0.59238389254E+03 -0.13044193528E+03 -0.64958376602E+02  0.61004374049E+03  0.00000000000E+00 0.  1.
         13    1    1    2    0    0  0.20240827815E+03  0.81369947928E+02  0.14770715315E+03  0.26345320978E+03  0.10566000000E+00 0. -1.
<mgrwt>
<rscale>  1 0.69115483E+03</rscale>
<asrwt>0</asrwt>
<pdfrwt beam="1">  1       21 0.11249311E+00 0.10151124E+04</pdfrwt>
<pdfrwt beam="2">  1        4 0.84304859E-01 0.10151124E+04</pdfrwt>
<totfact> 0.27698445E+01</totfact>
</mgrwt>
</event>
<event>
 6    1  0.5391662E-005  0.1124268E+04  0.7818608E-02  0.8854287E-01
         21   -1    0    0  501  502  0.00000000000E+00  0.00000000000E+00  0.22960206527E+03  0.22960206527E+03  0.00000000000E+00 0.  1.
          4   -1    0    0  502    0 -0.00000000000E+00 -0.00000000000E+00 -0.30377732549E+04  0.30377732549E+04  0.00000000000E+00 0.  1.
    9000010    2    1    2  501    0  0.47584110310E+03 -0.16221110752E+03 -0.15699583043E+04  0.19309964969E+04  0.10056048901E+04 0.  0.
        -13    1    3    3    0    0  0.70248753495E+01  0.22919111930E+03 -0.11896338350E+04  0.12115306808E+04  0.10566000000E+00 0.  1.
          4    1    3    3  501    0  0.46881622775E+03 -0.39140222681E+03 -0.38032446935E+03  0.71946581610E+03  0.00000000000E+00 0.  1.
         13    1    1    2    0    0 -0.47584110310E+03  0.16221110752E+03 -0.12382128854E+04  0.13363788233E+04  0.10566000000E+00 0. -1.
<mgrwt>
<rscale>  1 0.91936087E+03</rscale>
<asrwt>0</asrwt>
<pdfrwt beam="1">  1       21 0.35323394E-01 0.11242679E+04</pdfrwt>
<pdfrwt beam="2">  1        4 0.46734974E+00 0.11242679E+04</pdfrwt>
<totfact> 0.13438598E+01</totfact>
</mgrwt>
</event>
<event>
 6    1  0.5391662E-005  0.1148147E+04  0.7818608E-02  0.8828401E-01
          4   -1    0    0  502    0 -0.00000000000E+00  0.00000000000E+00  0.97682930888E+03  0.97682930888E+03  0.00000000000E+00 0.  1.
         21   -1    0    0  501  502  0.00000000000E+00 -0.00000000000E+00 -0.75141362705E+03  0.75141362705E+03  0.00000000000E+00 0.  1.
    9000010    2    1    2  501    0  0.52601151652E+03 -0.11964704756E+02 -0.18524397432E+02  0.11482963495E+04  0.10204950188E+04 0.  0.
        -13    1    3    3    0    0 -0.13948914614E+03  0.22705079134E+03  0.27476970278E+03  0.38276322246E+03  0.10566000000E+00 0.  1.
          4    1    3    3  501    0  0.66550066266E+03 -0.23901549610E+03 -0.29329410021E+03  0.76553312704E+03  0.00000000000E+00 0.  1.
         13    1    1    2    0    0 -0.52601151652E+03  0.11964704756E+02  0.24394007926E+03  0.57994658643E+03  0.10566000000E+00 0. -1.
<mgrwt>
<rscale>  1 0.94465884E+03</rscale>
<asrwt>0</asrwt>
<pdfrwt beam="2">  1       21 0.11560210E+00 0.11481469E+04</pdfrwt>
<pdfrwt beam="1">  1        4 0.15028143E+00 0.11481469E+04</pdfrwt>
<totfact> 0.91667095E+00</totfact>
</mgrwt>
</event>
<event>
 6    1  0.5391662E-005  0.1001839E+04  0.7818608E-02  0.9171474E-01
         21   -1    0    0  501  502  0.00000000000E+00  0.00000000000E+00  0.27856514375E+03  0.27856514375E+03  0.00000000000E+00 0.  1.
          4   -1    0    0  502    0 -0.00000000000E+00 -0.00000000000E+00 -0.16315525917E+04  0.16315525917E+04  0.00000000000E+00 0.  1.
    9000010    2    1    2  501    0 -0.11996183470E+03  0.15683432904E+03 -0.68519017639E+03  0.12137406425E+04  0.98218782360E+03 0.  0.
        -13    1    3    3    0    0 -0.34522075873E+03  0.11449490400E+03 -0.85456536231E+03  0.92874561906E+03  0.10566000000E+00 0.  1.
          4    1    3    3  501    0  0.22525892403E+03  0.42339425048E+02  0.16937518592E+03  0.28499502342E+03  0.00000000000E+00 0.  1.
         13    1    1    2    0    0  0.11996183470E+03 -0.15683432904E+03 -0.66779727160E+03  0.69637709301E+03  0.10566000000E+00 0. -1.
<mgrwt>
<rscale>  1 0.66752037E+03</rscale>
<asrwt>0</asrwt>
<pdfrwt beam="1">  1       21 0.42856175E-01 0.10018387E+04</pdfrwt>
<pdfrwt beam="2">  1        4 0.25100810E+00 0.10018387E+04</pdfrwt>
<totfact> 0.50740886E+01</totfact>
</mgrwt>
</event>
<event>
 6    1  0.5391662E-005  0.1089890E+04  0.7818608E-02  0.9006156E-01
          4   -1    0    0  502    0 -0.00000000000E+00  0.00000000000E+00  0.22045326241E+04  0.22045326241E+04  0.00000000000E+00 0.  1.
         21   -1    0    0  501  502  0.00000000000E+00 -0.00000000000E+00 -0.35126187016E+03  0.35126187016E+03  0.00000000000E+00 0.  1.
    9000010    2    1    2  501    0  0.14806194882E+03 -0.25578174283E+03  0.55261524561E+03  0.12219836369E+04  0.10490537444E+04 0.  0.
        -13    1    3    3    0    0  0.24271884421E+03 -0.55310333753E+03  0.65747480817E+03  0.89280953953E+03  0.10566000000E+00 0.  1.
          4    1    3    3  501    0 -0.94656895394E+02  0.29732159471E+03 -0.10485956256E+03  0.32917409738E+03  0.00000000000E+00 0.  1.
         13    1    1    2    0    0 -0.14806194882E+03  0.25578174283E+03  0.13006555083E+04  0.13338108573E+04  0.10566000000E+00 0. -1.
<mgrwt>
<rscale>  1 0.78648928E+03</rscale>
<asrwt>0</asrwt>
<pdfrwt beam="2">  1       21 0.54040289E-01 0.10898901E+04</pdfrwt>
<pdfrwt beam="1">  1        4 0.33915886E+00 0.10898901E+04</pdfrwt>
<totfact> 0.17703563E+01</totfact>
</mgrwt>
</event>
<event>
 6    1  0.5391662E-005  0.1061725E+04  0.7818608E-02  0.9224965E-01
          4   -1    0    0  502    0 -0.00000000000E+00  0.00000000000E+00  0.83972714103E+03  0.83972714103E+03  0.00000000000E+00 0.  1.
         21   -1    0    0  501  502  0.00000000000E+00 -0.00000000000E+00 -0.52734983971E+03  0.52734983971E+03  0.00000000000E+00 0.  1.
    9000010    2    1    2  501    0 -0.10566648304E+02  0.13441588949E+03  0.39212180058E+02  0.10624485513E+04  0.10531286928E+04 0.  0.
        -13    1    3    3    0    0 -0.18287891085E+03 -0.17513776576E+03 -0.41515588734E+03  0.48628423272E+03  0.10566000000E+00 0.  1.
          4    1    3    3  501    0  0.17231226254E+03  0.30955365525E+03  0.45436806740E+03  0.57616431855E+03  0.00000000000E+00 0.  1.
         13    1    1    2    0    0  0.10566648304E+02 -0.13441588949E+03  0.27316512126E+03  0.30462842947E+03  0.10566000000E+00 0. -1.
<mgrwt>
<rscale>  1 0.63380560E+03</rscale>
<asrwt>0</asrwt>
<pdfrwt beam="2">  1       21 0.81130744E-01 0.10617247E+04</pdfrwt>
<pdfrwt beam="1">  1        4 0.12918879E+00 0.10617247E+04</pdfrwt>
<totfact> 0.29285389E+01</totfact>
</mgrwt>
</event>
<event>
 6    1  0.5391662E-005  0.1012695E+04  0.7818608E-02  0.9291543E-01
         21   -1    0    0  501  502  0.00000000000E+00  0.00000000000E+00  0.42469553697E+03  0.42469553697E+03  0.00000000000E+00 0.  1.
          4   -1    0    0  502    0 -0.00000000000E+00 -0.00000000000E+00 -0.10909551420E+04  0.10909551420E+04  0.00000000000E+00 0.  1.
    9000010    2    1    2  501    0  0.36553256046E+02  0.11476427625E+03 -0.19764131352E+03  0.10318014318E+04  0.10055073974E+04 0.  0.
        -13    1    3    3    0    0 -0.43332811548E+03 -0.88776267151E+02 -0.26450837719E+03  0.51538255116E+03  0.10566000000E+00 0.  1.
          4    1    3    3  501    0  0.46988137153E+03  0.20354054340E+03  0.66867063672E+02  0.51641888068E+03  0.00000000000E+00 0.  1.
         13    1    1    2    0    0 -0.36553256046E+02 -0.11476427625E+03 -0.46861829148E+03  0.48384924708E+03  0.10566000000E+00 0. -1.
<mgrwt>
<rscale>  1 0.59471147E+03</rscale>
<asrwt>0</asrwt>
<pdfrwt beam="1">  1       21 0.65337775E-01 0.10126955E+04</pdfrwt>
<pdfrwt beam="2">  1        4 0.16783925E+00 0.10126955E+04</pdfrwt>
<totfact> 0.33462442E+01</totfact>
</mgrwt>
</event>
<event>
 6    1  0.5391662E-005  0.1007053E+04  0.7818608E-02  0.9240649E-01
         21   -1    0    0  501  502  0.00000000000E+00  0.00000000000E+00  0.26998367597E+03  0.26998367597E+03  0.00000000000E+00 0.  1.
          4   -1    0    0  502    0 -0.00000000000E+00 -0.00000000000E+00 -0.12389380488E+04  0.12389380488E+04  0.00000000000E+00 0.  1.
    9000010    2    1    2  501    0 -0.12426282922E+03 -0.81771046312E+02 -0.82373041238E+03  0.13010328973E+04  0.99600554856E+03 0.  0.
        -13    1    3    3    0    0 -0.22287190425E+03  0.69265118739E+02  0.17147792216E+03  0.28961048208E+03  0.10566000000E+00 0.  1.
          4    1    3    3  501    0  0.98609075027E+02 -0.15103616505E+03 -0.99520833454E+03  0.10114224152E+04  0.00000000000E+00 0.  1.
         13    1    1    2    0    0  0.12426282922E+03  0.81771046312E+02 -0.14522396040E+03  0.20788882745E+03  0.10566000000E+00 0. -1.
<mgrwt>
<rscale>  1 0.62431862E+03</rscale>
<asrwt>0</asrwt>
<pdfrwt beam="1">  1       21 0.41535950E-01 0.10070525E+04</pdfrwt>
<pdfrwt beam="2">  1        4 0.19060585E+00 0.10070525E+04</pdfrwt>
<totfact> 0.77458280E+01</totfact>
</mgrwt>
</event>
<event>
 6    1  0.5391662E-005  0.9995068E+03  0.7818608E-02  0.9049420E-01
         21   -1    0    0  501  502  0.00000000000E+00  0.00000000000E+00  0.19270410226E+03  0.19270410226E+03  0.00000000000E+00 0.  1.
          4   -1    0    0  502    0 -0.00000000000E+00 -0.00000000000E+00 -0.23301123650E+04  0.23301123650E+04  0.00000000000E+00 0.  1.
    9000010    2    1    2  501    0 -0.16260323532E+03 -0.27793967151E+03 -0.14204237782E+04  0.17368412543E+04  0.94621538767E+03 0.  0.
        -13    1    3    3    0    0 -0.27032241974E+03 -0.30118559402E+02  0.18634243345E+02  0.27263269141E+03  0.10566000000E+00 0.  1.
          4    1    3    3  501    0  0.10771918442E+03 -0.24782111210E+03 -0.14390580216E+04  0.14642085629E+04  0.00000000000E+00 0.  1.
         13    1    1    2    0    0  0.16260323532E+03  0.27793967151E+03 -0.71698448452E+03  0.78597521293E+03  0.10566000000E+00 0. -1.
<mgrwt>
<rscale>  1 0.75302010E+03</rscale>
<asrwt>0</asrwt>
<pdfrwt beam="1">  1       21 0.29646783E-01 0.99950679E+03</pdfrwt>
<pdfrwt beam="2">  1        4 0.35847885E+00 0.99950679E+03</pdfrwt>
<totfact> 0.55891944E+01</totfact>
</mgrwt>
</event>
<event>
 6    1  0.5391662E-005  0.1080801E+04  0.7818608E-02  0.9068130E-01
         21   -1    0    0  501  502  0.00000000000E+00  0.00000000000E+00  0.25482548521E+03  0.25482548521E+03  0.00000000000E+00 0.  1.
          4   -1    0    0  502    0 -0.00000000000E+00 -0.00000000000E+00 -0.17416593538E+04  0.17416593538E+04  0.00000000000E+00 0.  1.
    9000010    2    1    2  501    0  0.21952588572E+03 -0.87553729623E+02 -0.10926952626E+04  0.15369170835E+04  0.10546439752E+04 0.  0.
        -13    1    3    3    0    0 -0.11035037050E+03 -0.17177942604E+03 -0.11700922453E+04  0.11877715475E+04  0.10566000000E+00 0.  1.
          4    1    3    3  501    0  0.32987625622E+03  0.84225696415E+02  0.77396982644E+02  0.34914553595E+03  0.00000000000E+00 0.  1.
         13    1    1    2    0    0 -0.21952588572E+03  0.87553729623E+02 -0.39413860598E+03  0.45956775556E+03  0.10566000000E+00 0. -1.
<mgrwt>
<rscale>  1 0.73908490E+03</rscale>
<asrwt>0</asrwt>
<pdfrwt beam="1">  1       21 0.39203921E-01 0.10808012E+04</pdfrwt>
<pdfrwt beam="2">  1        4 0.26794759E+00 0.10808012E+04</pdfrwt>
<totfact> 0.55742441E+01</totfact>
</mgrwt>
</event>
<event>
 6    1  0.5391662E-005  0.1013277E+04  0.7818608E-02  0.9081419E-01
         21   -1    0    0  501  502  0.00000000000E+00  0.00000000000E+00  0.48863969756E+03  0.48863969756E+03  0.00000000000E+00 0.  1.
          4   -1    0    0  502    0 -0.00000000000E+00 -0.00000000000E+00 -0.97338366382E+03  0.97338366382E+03  0.00000000000E+00 0.  1.
    9000010    2    1    2  501    0  0.14169314798E+03 -0.23221811058E+03 -0.14004195094E+03  0.10229086957E+04  0.97607799520E+03 0.  0.
        -13    1    3    3    0    0  0.80442922704E+01  0.23345086616E+03 -0.40736209087E+03  0.46958268898E+03  0.10566000000E+00 0.  1.
          4    1    3    3  501    0  0.13364885571E+03 -0.46566897674E+03  0.26732013993E+03  0.55332600675E+03  0.00000000000E+00 0.  1.
         13    1    1    2    0    0 -0.14169314798E+03  0.23221811058E+03 -0.34470201531E+03  0.43911466565E+03  0.10566000000E+00 0. -1.
<mgrwt>
<rscale>  1 0.72937648E+03</rscale>
<asrwt>0</asrwt>
<pdfrwt beam="1">  1       21 0.75175339E-01 0.10132771E+04</pdfrwt>
<pdfrwt beam="2">  1        4 0.14975133E+00 0.10132771E+04</pdfrwt>
<totfact> 0.28202289E+01</totfact>
</mgrwt>
</event>
<event>
 6    1  0.5391662E-005  0.9933800E+03  0.7818608E-02  0.9270554E-01
          4   -1    0    0  502    0 -0.00000000000E+00  0.00000000000E+00  0.12062055872E+04  0.12062055872E+04  0.00000000000E+00 0.  1.
         21   -1    0    0  501  502  0.00000000000E+00 -0.00000000000E+00 -0.55018974032E+03  0.55018974032E+03  0.00000000000E+00 0.  1.
    9000010    2    1    2  501    0  0.13274173557E+03  0.38528165300E+02 -0.90218209779E+02  0.99746840985E+03  0.98371698947E+03 0.  0.
        -13    1    3    3    0    0 -0.27081151083E+03  0.22589428565E+03 -0.33776140915E+03  0.48831330451E+03  0.10566000000E+00 0.  1.
          4    1    3    3  501    0  0.40355324640E+03 -0.18736612035E+03  0.24754319937E+03  0.50915510534E+03  0.00000000000E+00 0.  1.
         13    1    1    2    0    0 -0.13274173557E+03 -0.38528165300E+02  0.74623405669E+03  0.75892691770E+03  0.10566000000E+00 0. -1.
<mgrwt>
<rscale>  1 0.60670752E+03</rscale>
<asrwt>0</asrwt>
<pdfrwt beam="2">  1       21 0.84644576E-01 0.99338004E+03</pdfrwt>
<pdfrwt beam="1">  1        4 0.18557009E+00 0.99338004E+03</pdfrwt>
<totfact> 0.15660590E+01</totfact>
</mgrwt>
</event>
<event>
 6    1  0.5391662E-005  0.7342665E+03  0.7818608E-02  0.9468788E-01
         21   -1    0    0  501  502  0.00000000000E+00  0.00000000000E+00  0.20132875972E+03  0.20132875972E+03  0.00000000000E+00 0.  1.
          4   -1    0    0  502    0 -0.00000000000E+00 -0.00000000000E+00 -0.16406245274E+04  0.16406245274E+04  0.00000000000E+00 0.  1.
    9000010    2    1    2  501    0  0.59508281903E+02  0.15203271084E+03 -0.49944497508E+03  0.88802734434E+03  0.71588553582E+03 0.  0.
        -13    1    3    3    0    0 -0.20535321948E+03  0.29750772767E+02  0.93204179523E+02  0.22746886265E+03  0.10566000000E+00 0.  1.
          4    1    3    3  501    0  0.26486150138E+03  0.12228193807E+03 -0.59264915460E+03  0.66055848169E+03  0.00000000000E+00 0.  1.
         13    1    1    2    0    0 -0.59508281903E+02 -0.15203271084E+03 -0.93985079262E+03  0.95392594280E+03  0.10566000000E+00 0. -1.
<mgrwt>
<rscale>  1 0.50421180E+03</rscale>
<asrwt>0</asrwt>
<pdfrwt beam="1">  1       21 0.30973657E-01 0.73426649E+03</pdfrwt>
<pdfrwt beam="2">  1        4 0.25240376E+00 0.73426649E+03</pdfrwt>
<totfact> 0.10239093E+02</totfact>
</mgrwt>
</event>
<event>
 6    1  0.5391662E-005  0.1091316E+04  0.7818608E-02  0.9042736E-01
         21   -1    0    0  501  502  0.00000000000E+00  0.00000000000E+00  0.30891906685E+03  0.30891906685E+03  0.00000000000E+00 0. -1.
          4   -1    0    0  502    0 -0.00000000000E+00 -0.00000000000E+00 -0.16833227357E+04  0.16833227357E+04  0.00000000000E+00 0.  1.
    9000010    2    1    2  501    0  0.84241369623E+02 -0.23972470996E+03 -0.13515202555E+04  0.17371178979E+04  0.10613232521E+04 0.  0.
        -13    1    3    3    0    0  0.17261073878E+03  0.23638228658E+02  0.13778805254E+03  0.22212337018E+03  0.10566000000E+00 0.  1.
          4    1    3    3  501    0 -0.88369369154E+02 -0.26336293862E+03 -0.14893083080E+04  0.15149945277E+04  0.00000000000E+00 0.  1.
         13    1    1    2    0    0 -0.84241369623E+02  0.23972470996E+03 -0.22883413367E+02  0.25512390459E+03  0.10566000000E+00 0. -1.
<mgrwt>
<rscale>  1 0.75807531E+03</rscale>
<asrwt>0</asrwt>
<pdfrwt beam="1">  1       21 0.47526009E-01 0.10913164E+04</pdfrwt>
<pdfrwt beam="2">  1        4 0.25897274E+00 0.10913164E+04</pdfrwt>
<totfact> 0.38443490E+01</totfact>
</mgrwt>
</event>
<event>
 6    1  0.5391662E-005  0.1326148E+04  0.7818608E-02  0.8614421E-01
          4   -1    0    0  502    0 -0.00000000000E+00  0.00000000000E+00  0.10639004664E+04  0.10639004664E+04  0.00000000000E+00 0.  1.
         21   -1    0    0  501  502  0.00000000000E+00 -0.00000000000E+00 -0.12285541474E+04  0.12285541474E+04  0.00000000000E+00 0. -1.
    9000010    2    1    2  501    0 -0.38717038066E+03  0.76649115284E+03  0.23243477923E+03  0.13463632612E+04  0.10105733587E+04 0.  0.
        -13    1    3    3    0    0 -0.63756925616E+03  0.71996919926E+03  0.39993352265E+03  0.10415359034E+04  0.10566000000E+00 0.  1.
          4    1    3    3  501    0  0.25039887550E+03  0.46521953580E+02 -0.16749874342E+03  0.30482735781E+03  0.00000000000E+00 0.  1.
         13    1    1    2    0    0  0.38717038066E+03 -0.76649115284E+03 -0.39708846024E+03  0.94609135260E+03  0.10566000000E+00 0. -1.
<mgrwt>
<rscale>  1 0.11896182E+04</rscale>
<asrwt>0</asrwt>
<pdfrwt beam="2">  1       21 0.18900833E+00 0.13261478E+04</pdfrwt>
<pdfrwt beam="1">  1        4 0.16367700E+00 0.13261478E+04</pdfrwt>
<totfact> 0.17467656E+00</totfact>
</mgrwt>
</event>
<event>
 6    1  0.5391662E-005  0.9961867E+03  0.7818608E-02  0.9613802E-01
         21   -1    0    0  501  502  0.00000000000E+00  0.00000000000E+00  0.26954898206E+03  0.26954898206E+03  0.00000000000E+00 0.  1.
          4   -1    0    0  502    0 -0.00000000000E+00 -0.00000000000E+00 -0.10048559153E+04  0.10048559153E+04  0.00000000000E+00 0.  1.
    9000010    2    1    2  501    0 -0.64184390284E+01  0.38243199760E+02 -0.67728487864E+03  0.12046173005E+04  0.99543171297E+03 0.  0.
        -13    1    3    3    0    0 -0.10769138378E+03 -0.46742692351E+03 -0.30223868359E+03  0.56695114073E+03  0.10566000000E+00 0.  1.
          4    1    3    3  501    0  0.10127294475E+03  0.50567012327E+03 -0.37504619505E+03  0.63766615978E+03  0.00000000000E+00 0.  1.
         13    1    1    2    0    0  0.64184390284E+01 -0.38243199760E+02 -0.58022054568E+02  0.69787596805E+02  0.10566000000E+00 0. -1.
<mgrwt>
<rscale>  1 0.44248904E+03</rscale>
<asrwt>0</asrwt>
<pdfrwt beam="1">  1       21 0.41469075E-01 0.99618675E+03</pdfrwt>
<pdfrwt beam="2">  1        4 0.15459321E+00 0.99618675E+03</pdfrwt>
<totfact> 0.10386109E+02</totfact>
</mgrwt>
</event>
<event>
 6    1  0.5391662E-005  0.1006358E+04  0.7818608E-02  0.9304221E-01
          4   -1    0    0  502    0 -0.00000000000E+00  0.00000000000E+00  0.18185814063E+04  0.18185814063E+04  0.00000000000E+00 0.  1.
         21   -1    0    0  501  502  0.00000000000E+00 -0.00000000000E+00 -0.18438610234E+03  0.18438610234E+03  0.00000000000E+00 0.  1.
    9000010    2    1    2  501    0  0.10444079003E+03  0.52679724468E+02  0.12696424575E+04  0.16201074545E+04  0.99953647378E+03 0.  0.
        -13    1    3    3    0    0  0.35474519814E+03  0.10092126590E+03  0.47739608318E+02  0.37189829104E+03  0.10566000000E+00 0.  1.
          4    1    3    3  501    0 -0.25030440811E+03 -0.48241541430E+02  0.12219028492E+04  0.12482091635E+04  0.00000000000E+00 0.  1.
         13    1    1    2    0    0 -0.10444079003E+03 -0.52679724468E+02  0.36455284648E+03  0.38286005411E+03  0.10566000000E+00 0. -1.
<mgrwt>
<rscale>  1 0.58760729E+03</rscale>
<asrwt>0</asrwt>
<pdfrwt beam="2">  1       21 0.28367094E-01 0.10063579E+04</pdfrwt>
<pdfrwt beam="1">  1        4 0.27978174E+00 0.10063579E+04</pdfrwt>
<totfact> 0.10294743E+02</totfact>
</mgrwt>
</event>
<event>
 6    1  0.5391662E-005  0.1026691E+04  0.7818608E-02  0.9115498E-01
          4   -1    0    0  502    0 -0.00000000000E+00  0.00000000000E+00  0.56102656223E+03  0.56102656223E+03  0.00000000000E+00 0.  1.
         21   -1    0    0  501  502  0.00000000000E+00 -0.00000000000E+00 -0.70482775038E+03  0.70482775038E+03  0.00000000000E+00 0.  1.
    9000010    2    1    2  501    0  0.78878949206E+02  0.21445033024E+03 -0.14809806131E+03  0.10373169917E+04  0.10009408937E+04 0.  0.
        -13    1    3    3    0    0  0.26123835484E+03  0.22182025167E+02 -0.51900842115E+03  0.58146992413E+03  0.10566000000E+00 0.  1.
          4    1    3    3  501    0 -0.18235940563E+03  0.19226830508E+03  0.37091035985E+03  0.45584706756E+03  0.00000000000E+00 0.  1.
         13    1    1    2    0    0 -0.78878949206E+02 -0.21445033024E+03  0.42968731484E+01  0.22853732092E+03  0.10566000000E+00 0. -1.
<mgrwt>
<rscale>  1 0.70517964E+03</rscale>
<asrwt>0</asrwt>
<pdfrwt beam="2">  1       21 0.10843504E+00 0.10266906E+04</pdfrwt>
<pdfrwt beam="1">  1        4 0.86311780E-01 0.10266906E+04</pdfrwt>
<totfact> 0.29139323E+01</totfact>
</mgrwt>
</event>
<event>
 6    1  0.5391662E-005  0.1070230E+04  0.7818608E-02  0.8919631E-01
         21   -1    0    0  501  502  0.00000000000E+00  0.00000000000E+00  0.37321248826E+03  0.37321248826E+03  0.00000000000E+00 0.  1.
          4   -1    0    0  502    0 -0.00000000000E+00 -0.00000000000E+00 -0.29794230714E+04  0.29794230714E+04  0.00000000000E+00 0.  1.
    9000010    2    1    2  501    0  0.25092255025E+03 -0.36667440780E+03 -0.46684746459E+03  0.11676214152E+04  0.97364314118E+03 0.  0.
        -13    1    3    3    0    0  0.45844887164E+03 -0.59338591944E+03 -0.41143753362E+03  0.85531460442E+03  0.10566000000E+00 0.  1.
          4    1    3    3  501    0 -0.20752632139E+03  0.22671151164E+03 -0.55409930971E+02  0.31230681073E+03  0.00000000000E+00 0.  1.
         13    1    1    2    0    0 -0.25092255025E+03  0.36667440780E+03 -0.21393631185E+04  0.21850141445E+04  0.10566000000E+00 0. -1.
<mgrwt>
<rscale>  1 0.85907235E+03</rscale>
<asrwt>0</asrwt>
<pdfrwt beam="1">  1       21 0.57417307E-01 0.10702304E+04</pdfrwt>
<pdfrwt beam="2">  1        4 0.45837277E+00 0.10702304E+04</pdfrwt>
<totfact> 0.51838461E+00</totfact>
</mgrwt>
</event>
<event>
 6    1  0.5391662E-005  0.1044668E+04  0.7818608E-02  0.9058910E-01
          4   -1    0    0  502    0 -0.00000000000E+00  0.00000000000E+00  0.12994246134E+04  0.12994246134E+04  0.00000000000E+00 0.  1.
         21   -1    0    0  501  502  0.00000000000E+00 -0.00000000000E+00 -0.43478479785E+03  0.43478479785E+03  0.00000000000E+00 0.  1.
    9000010    2    1    2  501    0  0.26903149444E+03  0.36738205043E+02  0.26770988789E+03  0.10784251553E+04  0.10087638925E+04 0.  0.
        -13    1    3    3    0    0  0.64945906138E+03 -0.58918744227E+02  0.15520723750E+03  0.67034154621E+03  0.10566000000E+00 0.  1.
          4    1    3    3  501    0 -0.38042756694E+03  0.95656949270E+02  0.11250265039E+03  0.40808360905E+03  0.00000000000E+00 0.  1.
         13    1    1    2    0    0 -0.26903149444E+03 -0.36738205043E+02  0.59692992763E+03  0.65578425597E+03  0.10566000000E+00 0. -1.
<mgrwt>
<rscale>  1 0.74591213E+03</rscale>
<asrwt>0</asrwt>
<pdfrwt beam="2">  1       21 0.66889970E-01 0.10446685E+04</pdfrwt>
<pdfrwt beam="1">  1        4 0.19991148E+00 0.10446685E+04</pdfrwt>
<totfact> 0.24951140E+01</totfact>
</mgrwt>
</event>
<event>
 6    1  0.5391662E-005  0.1013385E+04  0.7818608E-02  0.9204686E-01
          4   -1    0    0  502    0 -0.00000000000E+00  0.00000000000E+00  0.13600390754E+04  0.13600390754E+04  0.00000000000E+00 0.  1.
         21   -1    0    0  501  502  0.00000000000E+00 -0.00000000000E+00 -0.32645461638E+03  0.32645461638E+03  0.00000000000E+00 0.  1.
    9000010    2    1    2  501    0  0.15145060128E+03 -0.71993294782E+02  0.50558283222E+03  0.11325026736E+04  0.99941382141E+03 0.  0.
        -13    1    3    3    0    0  0.10917594321E+03 -0.14713844630E+02  0.81122923406E+03  0.81867500582E+03  0.10566000000E+00 0.  1.
          4    1    3    3  501    0  0.42274658066E+02 -0.57279450152E+02 -0.30564640184E+03  0.31382766781E+03  0.00000000000E+00 0.  1.
         13    1    1    2    0    0 -0.15145060128E+03  0.71993294782E+02  0.52800162679E+03  0.55399101814E+03  0.10566000000E+00 0. -1.
<mgrwt>
<rscale>  1 0.64633589E+03</rscale>
<asrwt>0</asrwt>
<pdfrwt beam="2">  1       21 0.50223788E-01 0.10133846E+04</pdfrwt>
<pdfrwt beam="1">  1        4 0.20923678E+00 0.10133846E+04</pdfrwt>
<totfact> 0.45352648E+01</totfact>
</mgrwt>
</event>
<event>
 6    1  0.5391662E-005  0.1018295E+04  0.7818608E-02  0.9052857E-01
          4   -1    0    0  502    0 -0.00000000000E+00  0.00000000000E+00  0.16010097287E+04  0.16010097287E+04  0.00000000000E+00 0.  1.
         21   -1    0    0  501  502  0.00000000000E+00 -0.00000000000E+00 -0.32054288442E+03  0.32054288442E+03  0.00000000000E+00 0.  1.
    9000010    2    1    2  501    0 -0.19718074992E+03  0.22656644033E+03  0.61035069735E+03  0.11872037440E+04  0.97299134427E+03 0.  0.
        -13    1    3    3    0    0  0.38226307944E+03 -0.32131599750E+02  0.22139176708E+03  0.44291288906E+03  0.10566000000E+00 0.  1.
          4    1    3    3  501    0 -0.57944382936E+03  0.25869804008E+03  0.38895893026E+03  0.74429085495E+03  0.00000000000E+00 0.  1.
         13    1    1    2    0    0  0.19718074992E+03 -0.22656644033E+03  0.67011614698E+03  0.73434886915E+03  0.10566000000E+00 0. -1.
<mgrwt>
<rscale>  1 0.75043594E+03</rscale>
<asrwt>0</asrwt>
<pdfrwt beam="2">  1       21 0.49314291E-01 0.10182950E+04</pdfrwt>
<pdfrwt beam="1">  1        4 0.24630918E+00 0.10182950E+04</pdfrwt>
<totfact> 0.38276505E+01</totfact>
</mgrwt>
</event>
<event>
 6    1  0.5391662E-005  0.9870955E+03  0.7818608E-02  0.9465377E-01
          4   -1    0    0  502    0 -0.00000000000E+00  0.00000000000E+00  0.30029767131E+03  0.30029767131E+03  0.00000000000E+00 0.  1.
         21   -1    0    0  501  502  0.00000000000E+00 -0.00000000000E+00 -0.10927761268E+04  0.10927761268E+04  0.00000000000E+00 0.  1.
    9000010    2    1    2  501    0  0.34128622954E+02 -0.58866718373E+02 -0.85102873456E+03  0.13033063219E+04  0.98474738300E+03 0.  0.
        -13    1    3    3    0    0  0.20733891044E+03 -0.16530023151E+03 -0.10106341204E+04  0.10448420583E+04  0.10566000000E+00 0.  1.
          4    1    3    3  501    0 -0.17321028749E+03  0.10643351313E+03  0.15960538581E+03  0.25846426366E+03  0.00000000000E+00 0.  1.
         13    1    1    2    0    0 -0.34128622954E+02  0.58866718373E+02  0.58550279067E+02  0.89767476180E+02  0.10566000000E+00 0. -1.
<mgrwt>
<rscale>  1 0.50578710E+03</rscale>
<asrwt>0</asrwt>
<pdfrwt beam="2">  1       21 0.16811941E+00 0.98709547E+03</pdfrwt>
<pdfrwt beam="1">  1        4 0.46199641E-01 0.98709547E+03</pdfrwt>
<totfact> 0.29674362E+01</totfact>
</mgrwt>
</event>
<event>
 6    1  0.5391662E-005  0.1038698E+04  0.7818608E-02  0.9124878E-01
          4   -1    0    0  502    0 -0.00000000000E+00  0.00000000000E+00  0.23269903930E+04  0.23269903930E+04  0.00000000000E+00 0.  1.
         21   -1    0    0  501  502  0.00000000000E+00 -0.00000000000E+00 -0.17336678696E+03  0.17336678696E+03  0.00000000000E+00 0.  1.
    9000010    2    1    2  501    0  0.11271507499E+03  0.18032582313E+03  0.19300543036E+04  0.21918035626E+04  0.10166961944E+04 0.  0.
        -13    1    3    3    0    0  0.28656322099E+03  0.26837719656E+03  0.18169539683E+03  0.43261764603E+03  0.10566000000E+00 0.  1.
          4    1    3    3  501    0 -0.17384814601E+03 -0.88051373432E+02  0.17483589068E+04  0.17591859166E+04  0.00000000000E+00 0.  1.
         13    1    1    2    0    0 -0.11271507499E+03 -0.18032582313E+03  0.22356930240E+03  0.30855361731E+03  0.10566000000E+00 0. -1.
<mgrwt>
<rscale>  1 0.69869209E+03</rscale>
<asrwt>0</asrwt>
<pdfrwt beam="2">  1       21 0.26671815E-01 0.10386979E+04</pdfrwt>
<pdfrwt beam="1">  1        4 0.35799850E+00 0.10386979E+04</pdfrwt>
<totfact> 0.69235692E+01</totfact>
</mgrwt>
</event>
<event>
 6    1  0.5391662E-005  0.1049194E+04  0.7818608E-02  0.8932230E-01
         21   -1    0    0  501  502  0.00000000000E+00  0.00000000000E+00  0.33035142265E+03  0.33035142265E+03  0.00000000000E+00 0. -1.
          4   -1    0    0  502    0 -0.00000000000E+00 -0.00000000000E+00 -0.17969800152E+04  0.17969800152E+04  0.00000000000E+00 0.  1.
    9000010    2    1    2  501    0  0.33743888997E+03 -0.29430056784E+03 -0.12437380332E+04  0.16271734215E+04  0.94885785013E+03 0.  0.
        -13    1    3    3    0    0 -0.11479817016E+03  0.27900280471E+03 -0.23779022481E+03  0.38414240470E+03  0.10566000000E+00 0.  1.
          4    1    3    3  501    0  0.45223706013E+03 -0.57330337256E+03 -0.10059478084E+04  0.12430310168E+04  0.00000000000E+00 0.  1.
         13    1    1    2    0    0 -0.33743888997E+03  0.29430056784E+03 -0.22289055932E+03  0.50015801633E+03  0.10566000000E+00 0. -1.
<mgrwt>
<rscale>  1 0.84800878E+03</rscale>
<asrwt>0</asrwt>
<pdfrwt beam="1">  1       21 0.50823294E-01 0.10491945E+04</pdfrwt>
<pdfrwt beam="2">  1        4 0.27645848E+00 0.10491945E+04</pdfrwt>
<totfact> 0.30309298E+01</totfact>
</mgrwt>
</event>
<event>
 6    1  0.5391662E-005  0.1020273E+04  0.7818608E-02  0.9160083E-01
          4   -1    0    0  502    0 -0.00000000000E+00  0.00000000000E+00  0.88407055198E+03  0.88407055198E+03  0.00000000000E+00 0.  1.
         21   -1    0    0  501  502  0.00000000000E+00 -0.00000000000E+00 -0.44861473196E+03  0.44861473196E+03  0.00000000000E+00 0.  1.
    9000010    2    1    2  501    0 -0.10654910982E+03  0.16384381687E+03  0.22367526381E+03  0.10445038753E+04  0.10013791553E+04 0.  0.
        -13    1    3    3    0    0  0.37908645031E+03  0.60912834066E+02  0.36354159978E+03  0.52875269843E+03  0.10566000000E+00 0.  1.
          4    1    3    3  501    0 -0.48563556014E+03  0.10293098281E+03 -0.13986633597E+03  0.51575117686E+03  0.00000000000E+00 0.  1.
         13    1    1    2    0    0  0.10654910982E+03 -0.16384381687E+03  0.21178055622E+03  0.28818140864E+03  0.10566000000E+00 0. -1.
<mgrwt>
<rscale>  1 0.67498140E+03</rscale>
<asrwt>0</asrwt>
<pdfrwt beam="2">  1       21 0.69017652E-01 0.10202734E+04</pdfrwt>
<pdfrwt beam="1">  1        4 0.13601085E+00 0.10202734E+04</pdfrwt>
<totfact> 0.39932572E+01</totfact>
</mgrwt>
</event>
<event>
 6    1  0.5391662E-005  0.9992604E+03  0.7818608E-02  0.9296608E-01
         21   -1    0    0  501  502  0.00000000000E+00  0.00000000000E+00  0.13706839785E+03  0.13706839785E+03  0.00000000000E+00 0.  1.
          4   -1    0    0  502    0 -0.00000000000E+00 -0.00000000000E+00 -0.22972770270E+04  0.22972770270E+04  0.00000000000E+00 0.  1.
    9000010    2    1    2  501    0  0.58911525429E+02  0.10795383324E+03 -0.19163697751E+04  0.21612483801E+04  0.99166367668E+03 0.  0.
        -13    1    3    3    0    0  0.32866368768E+03  0.18686061545E+03 -0.21118038581E+03  0.43305181644E+03  0.10566000000E+00 0.  1.
          4    1    3    3  501    0 -0.26975216225E+03 -0.78906782212E+02 -0.17051893893E+04  0.17281965636E+04  0.00000000000E+00 0.  1.
         13    1    1    2    0    0 -0.58911525429E+02 -0.10795383324E+03 -0.24383885407E+03  0.27309704476E+03  0.10566000000E+00 0. -1.
<mgrwt>
<rscale>  1 0.59186075E+03</rscale>
<asrwt>0</asrwt>
<pdfrwt beam="1">  1       21 0.21087447E-01 0.99926045E+03</pdfrwt>
<pdfrwt beam="2">  1        4 0.35342722E+00 0.99926045E+03</pdfrwt>
<totfact> 0.11523906E+02</totfact>
</mgrwt>
</event>
<event>
 6    1  0.5391662E-005  0.1066016E+04  0.7818608E-02  0.8960596E-01
          4   -1    0    0  502    0 -0.00000000000E+00  0.00000000000E+00  0.63383425071E+03  0.63383425071E+03  0.00000000000E+00 0.  1.
         21   -1    0    0  501  502  0.00000000000E+00 -0.00000000000E+00 -0.91036801693E+03  0.91036801693E+03  0.00000000000E+00 0.  1.
    9000010    2    1    2  501    0 -0.29521380887E+03  0.23935745930E+03 -0.40890922002E+03  0.11417517015E+04  0.99596536655E+03 0.  0.
        -13    1    3    3    0    0 -0.42288494086E+03  0.30622360561E+03  0.16692949906E+03  0.54815147419E+03  0.10566000000E+00 0.  1.
          4    1    3    3  501    0  0.12767113198E+03 -0.66866146311E+02 -0.57583871907E+03  0.59360022730E+03  0.00000000000E+00 0.  1.
         13    1    1    2    0    0  0.29521380887E+03 -0.23935745930E+03  0.13237545380E+03  0.40245056616E+03  0.10566000000E+00 0. -1.
<mgrwt>
<rscale>  1 0.82373011E+03</rscale>
<asrwt>0</asrwt>
<pdfrwt beam="2">  1       21 0.14005662E+00 0.10660160E+04</pdfrwt>
<pdfrwt beam="1">  1        4 0.97512962E-01 0.10660160E+04</pdfrwt>
<totfact> 0.11038933E+01</totfact>
</mgrwt>
</event>
<event>
 6    1  0.5391662E-005  0.1046878E+04  0.7818608E-02  0.9005666E-01
          4   -1    0    0  502    0 -0.00000000000E+00  0.00000000000E+00  0.37179299765E+04  0.37179299765E+04  0.00000000000E+00 0.  1.
         21   -1    0    0  501  502  0.00000000000E+00 -0.00000000000E+00 -0.14983221057E+03  0.14983221057E+03  0.00000000000E+00 0.  1.
    9000010    2    1    2  501    0  0.14901263909E+03  0.29908425418E+03  0.19271653806E+04  0.21931531992E+04  0.99211813482E+03 0.  0.
        -13    1    3    3    0    0 -0.35119506157E+03  0.35923906288E+03  0.12650425172E+04  0.13611477719E+04  0.10566000000E+00 0.  1.
          4    1    3    3  501    0  0.50020770067E+03 -0.60154808700E+02  0.66212286337E+03  0.83200542727E+03  0.00000000000E+00 0.  1.
         13    1    1    2    0    0 -0.14901263909E+03 -0.29908425418E+03  0.16409323854E+04  0.16746089879E+04  0.10566000000E+00 0. -1.
<mgrwt>
<rscale>  1 0.78687826E+03</rscale>
<asrwt>0</asrwt>
<pdfrwt beam="2">  1       21 0.23051112E-01 0.10468785E+04</pdfrwt>
<pdfrwt beam="1">  1        4 0.57198916E+00 0.10468785E+04</pdfrwt>
<totfact> 0.10024913E+01</totfact>
</mgrwt>
</event>
<event>
 6    1  0.5391662E-005  0.1037924E+04  0.7818608E-02  0.9042862E-01
         21   -1    0    0  501  502  0.00000000000E+00  0.00000000000E+00  0.23140093012E+03  0.23140093012E+03  0.00000000000E+00 0.  1.
          4   -1    0    0  502    0 -0.00000000000E+00 -0.00000000000E+00 -0.25882610884E+04  0.25882610884E+04  0.00000000000E+00 0.  1.
    9000010    2    1    2  501    0 -0.64364910227E+02  0.28810920036E+03 -0.10370111833E+04  0.14672008986E+04  0.99505604339E+03 0.  0.
        -13    1    3    3    0    0  0.40542826417E+03 -0.88617392973E+02 -0.28334433843E+03  0.50250288060E+03  0.10566000000E+00 0.  1.
          4    1    3    3  501    0 -0.46979317440E+03  0.37672659333E+03 -0.75366684485E+03  0.96469801797E+03  0.00000000000E+00 0.  1.
         13    1    1    2    0    0  0.64364910227E+02 -0.28810920036E+03 -0.13198489750E+04  0.13524611199E+04  0.10566000000E+00 0. -1.
<mgrwt>
<rscale>  1 0.75797948E+03</rscale>
<asrwt>0</asrwt>
<pdfrwt beam="1">  1       21 0.35600143E-01 0.10379240E+04</pdfrwt>
<pdfrwt beam="2">  1        4 0.39819402E+00 0.10379240E+04</pdfrwt>
<totfact> 0.27013949E+01</totfact>
</mgrwt>
</event>
<event>
 6    1  0.5391662E-005  0.9983803E+03  0.7818608E-02  0.9551953E-01
         21   -1    0    0  501  502  0.00000000000E+00  0.00000000000E+00  0.17729392199E+03  0.17729392199E+03  0.00000000000E+00 0.  1.
          4   -1    0    0  502    0 -0.00000000000E+00 -0.00000000000E+00 -0.16981512072E+04  0.16981512072E+04  0.00000000000E+00 0.  1.
    9000010    2    1    2  501    0 -0.27253192672E+02  0.39563856136E+02 -0.12471023328E+04  0.15975066102E+04  0.99722369900E+03 0.  0.
        -13    1    3    3    0    0 -0.37044071282E+03 -0.10482594460E+03 -0.11499959806E+04  0.12127265013E+04  0.10566000000E+00 0.  1.
          4    1    3    3  501    0  0.34318752015E+03  0.14438980073E+03 -0.97106352191E+02  0.38478010887E+03  0.00000000000E+00 0.  1.
         13    1    1    2    0    0  0.27253192672E+02 -0.39563856136E+02 -0.27375495234E+03  0.27793851896E+03  0.10566000000E+00 0. -1.
<mgrwt>
<rscale>  1 0.46760329E+03</rscale>
<asrwt>0</asrwt>
<pdfrwt beam="1">  1       21 0.27275988E-01 0.99838026E+03</pdfrwt>
<pdfrwt beam="2">  1        4 0.26125403E+00 0.99838026E+03</pdfrwt>
<totfact> 0.12337495E+02</totfact>
</mgrwt>
</event>
<event>
 6    1  0.5391662E-005  0.1094885E+04  0.7818608E-02  0.9029613E-01
          4   -1    0    0  502    0 -0.00000000000E+00  0.00000000000E+00  0.20358546710E+04  0.20358546710E+04  0.00000000000E+00 0.  1.
         21   -1    0    0  501  502  0.00000000000E+00 -0.00000000000E+00 -0.34708560135E+03  0.34708560135E+03  0.00000000000E+00 0.  1.
    9000010    2    1    2  501    0 -0.26055220291E+03  0.49567838544E+02  0.57236773526E+03  0.12354663634E+04  0.10622748654E+04 0.  0.
        -13    1    3    3    0    0  0.11771094357E+03 -0.39400650259E+03  0.50100827796E+03  0.64815607385E+03  0.10566000000E+00 0.  1.
          4    1    3    3  501    0 -0.37826314648E+03  0.44357434114E+03  0.71359457294E+02  0.58731028958E+03  0.00000000000E+00 0.  1.
         13    1    1    2    0    0  0.26055220291E+03 -0.49567838544E+02  0.11164013344E+04  0.11474739089E+04  0.10566000000E+00 0. -1.
<mgrwt>
<rscale>  1 0.76812160E+03</rscale>
<asrwt>0</asrwt>
<pdfrwt beam="2">  1       21 0.53397786E-01 0.10948846E+04</pdfrwt>
<pdfrwt beam="1">  1        4 0.31320840E+00 0.10948846E+04</pdfrwt>
<totfact> 0.21544412E+01</totfact>
</mgrwt>
</event>
<event>
 6    1  0.5391662E-005  0.1068236E+04  0.7818608E-02  0.8962529E-01
          4   -1    0    0  502    0 -0.00000000000E+00  0.00000000000E+00  0.11606284606E+04  0.11606284606E+04  0.00000000000E+00 0.  1.
         21   -1    0    0  501  502  0.00000000000E+00 -0.00000000000E+00 -0.51786806629E+03  0.51786806629E+03  0.00000000000E+00 0. -1.
    9000010    2    1    2  501    0 -0.22667012292E+03  0.29839272564E+03  0.18041213536E+03  0.10833633594E+04  0.10003549703E+04 0.  0.
        -13    1    3    3    0    0  0.20327008734E+03  0.53837297848E+03  0.11173660096E+03  0.58621606215E+03  0.10566000000E+00 0.  1.
          4    1    3    3  501    0 -0.42994021026E+03 -0.23998025283E+03  0.68675534408E+02  0.49714729726E+03  0.00000000000E+00 0.  1.
         13    1    1    2    0    0  0.22667012292E+03 -0.29839272564E+03  0.46234825896E+03  0.59513316751E+03  0.10566000000E+00 0. -1.
<mgrwt>
<rscale>  1 0.82210638E+03</rscale>
<asrwt>0</asrwt>
<pdfrwt beam="2">  1       21 0.79672010E-01 0.10682358E+04</pdfrwt>
<pdfrwt beam="1">  1        4 0.17855822E+00 0.10682358E+04</pdfrwt>
<totfact> 0.19047094E+01</totfact>
</mgrwt>
</event>
<event>
 6    1  0.5391662E-005  0.1104404E+04  0.7818608E-02  0.8888062E-01
         21   -1    0    0  501  502  0.00000000000E+00  0.00000000000E+00  0.14557087786E+04  0.14557087786E+04  0.00000000000E+00 0.  1.
          4   -1    0    0  502    0 -0.00000000000E+00 -0.00000000000E+00 -0.42080657582E+03  0.42080657582E+03  0.00000000000E+00 0.  1.
    9000010    2    1    2  501    0  0.29033132720E+03  0.35773558996E+03  0.74424995254E+03  0.13317715857E+04  0.10037133718E+04 0.  0.
        -13    1    3    3    0    0 -0.11566708467E+03  0.13909440659E+03  0.84131010373E+03  0.86053984813E+03  0.10566000000E+00 0.  1.
          4    1    3    3  501    0  0.40599841188E+03  0.21864118336E+03 -0.97060151183E+02  0.47123173753E+03  0.00000000000E+00 0.  1.
         13    1    1    2    0    0 -0.29033132720E+03 -0.35773558996E+03  0.29065225026E+03  0.54474376878E+03  0.10566000000E+00 0. -1.
<mgrwt>
<rscale>  1 0.88757736E+03</rscale>
<asrwt>0</asrwt>
<pdfrwt beam="1">  1       21 0.22395519E+00 0.11044037E+04</pdfrwt>
<pdfrwt beam="2">  1        4 0.64739474E-01 0.11044037E+04</pdfrwt>
<totfact> 0.52171883E+00</totfact>
</mgrwt>
</event>
<event>
 6    1  0.5391662E-005  0.1044598E+04  0.7818608E-02  0.8975354E-01
          4   -1    0    0  502    0 -0.00000000000E+00  0.00000000000E+00  0.28453038031E+04  0.28453038031E+04  0.00000000000E+00 0.  1.
         21   -1    0    0  501  502  0.00000000000E+00 -0.00000000000E+00 -0.17841287415E+03  0.17841287415E+03  0.00000000000E+00 0.  1.
    9000010    2    1    2  501    0  0.30302792328E+03 -0.22984437703E+03  0.19654152049E+04  0.22257677048E+04  0.97289803598E+03 0.  0.
        -13    1    3    3    0    0  0.62135955068E+03 -0.11587067369E+03  0.16353748980E+04  0.17532725893E+04  0.10566000000E+00 0.  1.
          4    1    3    3  501    0 -0.31833162739E+03 -0.11397370334E+03  0.33004030692E+03  0.47249511558E+03  0.00000000000E+00 0.  1.
         13    1    1    2    0    0 -0.30302792328E+03  0.22984437703E+03  0.70147572402E+03  0.79794897237E+03  0.10566000000E+00 0. -1.
<mgrwt>
<rscale>  1 0.81143435E+03</rscale>
<asrwt>0</asrwt>
<pdfrwt beam="2">  1       21 0.27448137E-01 0.10445980E+04</pdfrwt>
<pdfrwt beam="1">  1        4 0.43773901E+00 0.10445980E+04</pdfrwt>
<totfact> 0.31579499E+01</totfact>
</mgrwt>
</event>
<event>
 6    1  0.5391662E-005  0.1019269E+04  0.7818608E-02  0.9281995E-01
         21   -1    0    0  501  502  0.00000000000E+00  0.00000000000E+00  0.20857116189E+03  0.20857116189E+03  0.00000000000E+00 0.  1.
          4   -1    0    0  502    0 -0.00000000000E+00 -0.00000000000E+00 -0.18901391490E+04  0.18901391490E+04  0.00000000000E+00 0.  1.
    9000010    2    1    2  501    0 -0.41674560849E+02  0.11518871838E+03 -0.10809145829E+04  0.14856934000E+04  0.10118810866E+04 0.  0.
        -13    1    3    3    0    0 -0.32975386794E+03 -0.28086542567E+03 -0.19847358064E+03  0.47646067428E+03  0.10566000000E+00 0.  1.
          4    1    3    3  501    0  0.28807930709E+03  0.39605414405E+03 -0.88244100223E+03  0.10092327257E+04  0.00000000000E+00 0.  1.
         13    1    1    2    0    0  0.41674560849E+02 -0.11518871838E+03 -0.60065340422E+03  0.61301691088E+03  0.10566000000E+00 0. -1.
<mgrwt>
<rscale>  1 0.60013201E+03</rscale>
<asrwt>0</asrwt>
<pdfrwt beam="1">  1       21 0.32087871E-01 0.10192686E+04</pdfrwt>
<pdfrwt beam="2">  1        4 0.29079064E+00 0.10192686E+04</pdfrwt>
<totfact> 0.74759546E+01</totfact>
</mgrwt>
</event>
<event>
 6    1  0.5391662E-005  0.1192290E+04  0.7818608E-02  0.8747737E-01
         21   -1    0    0  501  502  0.00000000000E+00  0.00000000000E+00  0.71660529442E+03  0.71660529442E+03  0.00000000000E+00 0. -1.
          4   -1    0    0  502    0 -0.00000000000E+00 -0.00000000000E+00 -0.12459705638E+04  0.12459705638E+04  0.00000000000E+00 0.  1.
    9000010    2    1    2  501    0 -0.29109014301E+03  0.59421865798E+03 -0.52018342076E+03  0.13008254503E+04  0.99183001374E+03 0.  0.
        -13    1    3    3    0    0 -0.75821521204E+02  0.31848356843E+03 -0.79253412128E+03  0.85749112590E+03  0.10566000000E+00 0.  1.
          4    1    3    3  501    0 -0.21526862181E+03  0.27573508955E+03  0.27235070052E+03  0.44333432443E+03  0.00000000000E+00 0.  1.
         13    1    1    2    0    0  0.29109014301E+03 -0.59421865798E+03 -0.91818486282E+01  0.66175040790E+03  0.10566000000E+00 0. -1.
<mgrwt>
<rscale>  1 0.10290812E+04</rscale>
<asrwt>0</asrwt>
<pdfrwt beam="1">  1       21 0.11024697E+00 0.11922903E+04</pdfrwt>
<pdfrwt beam="2">  1        4 0.19168778E+00 0.11922903E+04</pdfrwt>
<totfact> 0.74010947E+00</totfact>
</mgrwt>
</event>
<event>
 6    1  0.5391662E-005  0.1199579E+04  0.7818608E-02  0.8735532E-01
         21   -1    0    0  501  502  0.00000000000E+00  0.00000000000E+00  0.12413205011E+04  0.12413205011E+04  0.00000000000E+00 0.  1.
          4   -1    0    0  502    0 -0.00000000000E+00 -0.00000000000E+00 -0.83858621068E+03  0.83858621068E+03  0.00000000000E+00 0.  1.
    9000010    2    1    2  501    0  0.68392061578E+03  0.30676589389E+02 -0.13802136547E+03  0.12074933050E+04  0.98503894460E+03 0.  0.
        -13    1    3    3    0    0  0.67329288286E+03 -0.41707626088E+02  0.31790186153E+03  0.74573751207E+03  0.10566000000E+00 0.  1.
          4    1    3    3  501    0  0.10627732928E+02  0.72384215477E+02 -0.45592322700E+03  0.46175579290E+03  0.00000000000E+00 0.  1.
         13    1    1    2    0    0 -0.68392061578E+03 -0.30676589389E+02  0.54075565585E+03  0.87241340678E+03  0.10566000000E+00 0. -1.
<mgrwt>
<rscale>  1 0.10426349E+04</rscale>
<asrwt>0</asrwt>
<pdfrwt beam="1">  1       21 0.19097238E+00 0.11995792E+04</pdfrwt>
<pdfrwt beam="2">  1        4 0.12901326E+00 0.11995792E+04</pdfrwt>
<totfact> 0.24407652E+00</totfact>
</mgrwt>
</event>
<event>
 6    1  0.5391662E-005  0.1033616E+04  0.7818608E-02  0.9084339E-01
         21   -1    0    0  501  502  0.00000000000E+00  0.00000000000E+00  0.54876043722E+03  0.54876043722E+03  0.00000000000E+00 0. -1.
          4   -1    0    0  502    0 -0.00000000000E+00 -0.00000000000E+00 -0.76324086674E+03  0.76324086674E+03  0.00000000000E+00 0.  1.
    9000010    2    1    2  501    0  0.22750341294E+03  0.11144331876E+03 -0.11562041050E+03  0.10400624676E+04  0.10020900364E+04 0.  0.
        -13    1    3    3    0    0  0.26893290683E+03 -0.16016651407E+02 -0.53542439863E+03  0.59938363283E+03  0.10566000000E+00 0.  1.
          4    1    3    3  501    0 -0.41429493884E+02  0.12745997017E+03  0.41980398813E+03  0.44067883476E+03  0.00000000000E+00 0.  1.
         13    1    1    2    0    0 -0.22750341294E+03 -0.11144331876E+03 -0.98860019022E+02  0.27193883636E+03  0.10566000000E+00 0. -1.
<mgrwt>
<rscale>  1 0.72726415E+03</rscale>
<asrwt>0</asrwt>
<pdfrwt beam="1">  1       21 0.84424682E-01 0.10336159E+04</pdfrwt>
<pdfrwt beam="2">  1        4 0.11742167E+00 0.10336159E+04</pdfrwt>
<totfact> 0.31141909E+01</totfact>
</mgrwt>
</event>
<event>
 6    1  0.5391662E-005  0.9740574E+03  0.7818608E-02  0.9233001E-01
          4   -1    0    0  502    0 -0.00000000000E+00  0.00000000000E+00  0.19262644750E+04  0.19262644750E+04  0.00000000000E+00 0.  1.
         21   -1    0    0  501  502  0.00000000000E+00 -0.00000000000E+00 -0.17393983817E+03  0.17393983817E+03  0.00000000000E+00 0.  1.
    9000010    2    1    2  501    0  0.50723720186E+02  0.16151376228E+03  0.15960919158E+04  0.18698388091E+04  0.95923311926E+03 0.  0.
        -13    1    3    3    0    0 -0.16332181792E+03 -0.36416753846E+03  0.77400471731E+03  0.87084747566E+03  0.10566000000E+00 0.  1.
          4    1    3    3  501    0  0.21404553811E+03  0.52568130074E+03  0.82208719846E+03  0.99899133340E+03  0.00000000000E+00 0.  1.
         13    1    1    2    0    0 -0.50723720186E+02 -0.16151376228E+03  0.15623272110E+03  0.23036550415E+03  0.10566000000E+00 0. -1.
<mgrwt>
<rscale>  1 0.62892264E+03</rscale>
<asrwt>0</asrwt>
<pdfrwt beam="2">  1       21 0.26759976E-01 0.97405737E+03</pdfrwt>
<pdfrwt beam="1">  1        4 0.29634837E+00 0.97405737E+03</pdfrwt>
<totfact> 0.10518177E+02</totfact>
</mgrwt>
</event>
<event>
 6    1  0.5391662E-005  0.1187723E+04  0.7818608E-02  0.8757113E-01
         21   -1    0    0  501  502  0.00000000000E+00  0.00000000000E+00  0.18350308110E+04  0.18350308110E+04  0.00000000000E+00 0.  1.
          4   -1    0    0  502    0 -0.00000000000E+00 -0.00000000000E+00 -0.79145472536E+03  0.79145472536E+03  0.00000000000E+00 0.  1.
    9000010    2    1    2  501    0  0.63825382188E+03 -0.78257642643E+02  0.14434286669E+04  0.18692707072E+04  0.99859624500E+03 0.  0.
        -13    1    3    3    0    0 -0.15712290717E+03 -0.83315040505E+02  0.87185364871E+03  0.88980773196E+03  0.10566000000E+00 0.  1.
          4    1    3    3  501    0  0.79537672905E+03  0.50573978611E+01  0.57157501815E+03  0.97946297519E+03  0.00000000000E+00 0.  1.
         13    1    1    2    0    0 -0.63825382188E+03  0.78257642643E+02 -0.39985258120E+03  0.75721482924E+03  0.10566000000E+00 0. -1.
<mgrwt>
<rscale>  1 0.10188139E+04</rscale>
<asrwt>0</asrwt>
<pdfrwt beam="1">  1       21 0.28231243E+00 0.11877233E+04</pdfrwt>
<pdfrwt beam="2">  1        4 0.12176227E+00 0.11877233E+04</pdfrwt>
<totfact> 0.56207115E-01</totfact>
</mgrwt>
</event>
<event>
 6    1  0.5391662E-005  0.1075976E+04  0.7818608E-02  0.8944589E-01
          4   -1    0    0  502    0 -0.00000000000E+00  0.00000000000E+00  0.23833692045E+04  0.23833692045E+04  0.00000000000E+00 0.  1.
         21   -1    0    0  501  502  0.00000000000E+00 -0.00000000000E+00 -0.23756244603E+03  0.23756244603E+03  0.00000000000E+00 0.  1.
    9000010    2    1    2  501    0 -0.24085315980E+03  0.31258141416E+03  0.12994051394E+04  0.16870616933E+04  0.10010025253E+04 0.  0.
        -13    1    3    3    0    0 -0.10200507747E+03  0.64998907796E+03  0.10699175437E+04  0.12560312093E+04  0.10566000000E+00 0.  1.
          4    1    3    3  501    0 -0.13884808233E+03 -0.33740766380E+03  0.22948759570E+03  0.43103048400E+03  0.00000000000E+00 0.  1.
         13    1    1    2    0    0  0.24085315980E+03 -0.31258141416E+03  0.84640161912E+03  0.93386995726E+03  0.10566000000E+00 0. -1.
<mgrwt>
<rscale>  1 0.83732479E+03</rscale>
<asrwt>0</asrwt>
<pdfrwt beam="2">  1       21 0.36548070E-01 0.10759756E+04</pdfrwt>
<pdfrwt beam="1">  1        4 0.36667217E+00 0.10759756E+04</pdfrwt>
<totfact> 0.33464968E+01</totfact>
</mgrwt>
</event>
<event>
 6    1  0.5391662E-005  0.1018016E+04  0.7818608E-02  0.9201414E-01
         21   -1    0    0  501  502  0.00000000000E+00  0.00000000000E+00  0.87785686127E+03  0.87785686127E+03  0.00000000000E+00 0.  1.
          4   -1    0    0  502    0 -0.00000000000E+00 -0.00000000000E+00 -0.41381167271E+03  0.41381167271E+03  0.00000000000E+00 0.  1.
    9000010    2    1    2  501    0  0.22064109171E+02  0.16606265451E+03  0.47583408918E+03  0.11237321785E+04  0.10041375894E+04 0.  0.
        -13    1    3    3    0    0 -0.44445251347E+03  0.10306456997E+03  0.26309185213E+01  0.45625352077E+03  0.10566000000E+00 0.  1.
          4    1    3    3  501    0  0.46651662264E+03  0.62998084546E+02  0.47320317066E+03  0.66747865777E+03  0.00000000000E+00 0.  1.
         13    1    1    2    0    0 -0.22064109171E+02 -0.16606265451E+03 -0.11788900620E+02  0.16793635544E+03  0.10566000000E+00 0. -1.
<mgrwt>
<rscale>  1 0.64838634E+03</rscale>
<asrwt>0</asrwt>
<pdfrwt beam="1">  1       21 0.13505490E+00 0.10180157E+04</pdfrwt>
<pdfrwt beam="2">  1        4 0.63663335E-01 0.10180157E+04</pdfrwt>
<totfact> 0.29608278E+01</totfact>
</mgrwt>
</event>
<event>
 6    1  0.5391662E-005  0.1016828E+04  0.7818608E-02  0.9296884E-01
         21   -1    0    0  501  502  0.00000000000E+00  0.00000000000E+00  0.55044699636E+03  0.55044699636E+03  0.00000000000E+00 0.  1.
          4   -1    0    0  502    0 -0.00000000000E+00 -0.00000000000E+00 -0.58347672263E+03  0.58347672263E+03  0.00000000000E+00 0.  1.
    9000010    2    1    2  501    0  0.21058551913E+02  0.11467766269E+03 -0.27617298307E+02  0.10172029648E+04  0.10101211449E+04 0.  0.
        -13    1    3    3    0    0  0.49962698758E+03 -0.66858195910E+02  0.77461145749E+01  0.50414001878E+03  0.10566000000E+00 0.  1.
          4    1    3    3  501    0 -0.47856843566E+03  0.18153585860E+03 -0.35363412882E+02  0.51306294598E+03  0.00000000000E+00 0.  1.
         13    1    1    2    0    0 -0.21058551913E+02 -0.11467766269E+03 -0.54124279624E+01  0.11672075423E+03  0.10566000000E+00 0. -1.
<mgrwt>
<rscale>  1 0.59170574E+03</rscale>
<asrwt>0</asrwt>
<pdfrwt beam="1">  1       21 0.84684153E-01 0.10168280E+04</pdfrwt>
<pdfrwt beam="2">  1        4 0.89765650E-01 0.10168280E+04</pdfrwt>
<totfact> 0.51070889E+01</totfact>
</mgrwt>
</event>
<event>
 6    1  0.5391662E-005  0.1035109E+04  0.7818608E-02  0.9087333E-01
          4   -1    0    0  502    0 -0.00000000000E+00  0.00000000000E+00  0.25570606661E+04  0.25570606661E+04  0.00000000000E+00 0.  1.
         21   -1    0    0  501  502  0.00000000000E+00 -0.00000000000E+00 -0.22933095488E+03  0.22933095488E+03  0.00000000000E+00 0.  1.
    9000010    2    1    2  501    0  0.24504780364E+03  0.45615296531E+02  0.10132605634E+04  0.14484983767E+04  0.10046498876E+04 0.  0.
        -13    1    3    3    0    0  0.34295345597E+03 -0.31894714478E+03  0.12708923750E+03  0.48527934180E+03  0.10566000000E+00 0.  1.
          4    1    3    3  501    0 -0.97905652336E+02  0.36456244131E+03  0.88617132592E+03  0.96321903493E+03  0.00000000000E+00 0.  1.
         13    1    1    2    0    0 -0.24504780364E+03 -0.45615296531E+02  0.13144691478E+04  0.13378932443E+04  0.10566000000E+00 0. -1.
<mgrwt>
<rscale>  1 0.72510603E+03</rscale>
<asrwt>0</asrwt>
<pdfrwt beam="2">  1       21 0.35281687E-01 0.10351090E+04</pdfrwt>
<pdfrwt beam="1">  1        4 0.39339393E+00 0.10351090E+04</pdfrwt>
<totfact> 0.28752963E+01</totfact>
</mgrwt>
</event>
<event>
 6    1  0.5391662E-005  0.1093190E+04  0.7818608E-02  0.9012364E-01
          4   -1    0    0  502    0 -0.00000000000E+00  0.00000000000E+00  0.26323933887E+04  0.26323933887E+04  0.00000000000E+00 0.  1.
         21   -1    0    0  501  502  0.00000000000E+00 -0.00000000000E+00 -0.18696862517E+03  0.18696862517E+03  0.00000000000E+00 0.  1.
    9000010    2    1    2  501    0 -0.28253428328E+03 -0.41912720530E+02  0.17007112254E+04  0.20217527346E+04  0.10552171105E+04 0.  0.
        -13    1    3    3    0    0 -0.70544821474E+02  0.44220821774E+03  0.34073168064E+03  0.56269242845E+03  0.10566000000E+00 0.  1.
          4    1    3    3  501    0 -0.21198946180E+03 -0.48412093827E+03  0.13599795447E+04  0.14590603061E+04  0.00000000000E+00 0.  1.
         13    1    1    2    0    0  0.28253428328E+03  0.41912720530E+02  0.74471353811E+03  0.79760927927E+03  0.10566000000E+00 0. -1.
<mgrwt>
<rscale>  1 0.78157630E+03</rscale>
<asrwt>0</asrwt>
<pdfrwt beam="2">  1       21 0.28764406E-01 0.10931905E+04</pdfrwt>
<pdfrwt beam="1">  1        4 0.40498357E+00 0.10931905E+04</pdfrwt>
<totfact> 0.39190797E+01</totfact>
</mgrwt>
</event>
<event>
 6    1  0.5391662E-005  0.9801700E+03  0.7818608E-02  0.9241210E-01
         21   -1    0    0  501  502  0.00000000000E+00  0.00000000000E+00  0.37327603531E+03  0.37327603531E+03  0.00000000000E+00 0.  1.
          4   -1    0    0  502    0 -0.00000000000E+00 -0.00000000000E+00 -0.10143043819E+04  0.10143043819E+04  0.00000000000E+00 0.  1.
    9000010    2    1    2  501    0  0.13171200755E+03  0.92563529851E+02 -0.32453989095E+03  0.10325015334E+04  0.96685946017E+03 0.  0.
        -13    1    3    3    0    0 -0.78520439119E+02  0.49590049497E+03 -0.28155686339E+03  0.57563620347E+03  0.10566000000E+00 0.  1.
          4    1    3    3  501    0  0.21023244666E+03 -0.40333696511E+03 -0.42983027570E+02  0.45686532996E+03  0.00000000000E+00 0.  1.
         13    1    1    2    0    0 -0.13171200755E+03 -0.92563529851E+02 -0.31648845560E+03  0.35507888375E+03  0.10566000000E+00 0. -1.
<mgrwt>
<rscale>  1 0.62398221E+03</rscale>
<asrwt>0</asrwt>
<pdfrwt beam="1">  1       21 0.57427083E-01 0.98017002E+03</pdfrwt>
<pdfrwt beam="2">  1        4 0.15604683E+00 0.98017002E+03</pdfrwt>
<totfact> 0.49981297E+01</totfact>
</mgrwt>
</event>
<event>
 6    1  0.5391662E-005  0.9825486E+03  0.7818608E-02  0.9334381E-01
         21   -1    0    0  501  502  0.00000000000E+00  0.00000000000E+00  0.31843076065E+03  0.31843076065E+03  0.00000000000E+00 0.  1.
          4   -1    0    0  502    0 -0.00000000000E+00 -0.00000000000E+00 -0.99466116592E+03  0.99466116592E+03  0.00000000000E+00 0.  1.
    9000010    2    1    2  501    0  0.82587089584E+02  0.75896162208E+02 -0.49558584513E+03  0.11004576794E+04  0.97612546296E+03 0.  0.
        -13    1    3    3    0    0  0.51607309941E+03 -0.56605990044E+02 -0.34273467452E+03  0.62209545114E+03  0.10566000000E+00 0.  1.
          4    1    3    3  501    0 -0.43348600982E+03  0.13250215225E+03 -0.15285117061E+03  0.47836222825E+03  0.00000000000E+00 0.  1.
         13    1    1    2    0    0 -0.82587089584E+02 -0.75896162208E+02 -0.18064456014E+03  0.21263424718E+03  0.10566000000E+00 0. -1.
<mgrwt>
<rscale>  1 0.57112261E+03</rscale>
<asrwt>0</asrwt>
<pdfrwt beam="1">  1       21 0.48989348E-01 0.98254861E+03</pdfrwt>
<pdfrwt beam="2">  1        4 0.15302479E+00 0.98254861E+03</pdfrwt>
<totfact> 0.73390188E+01</totfact>
</mgrwt>
</event>
<event>
 6    1  0.5391662E-005  0.1018745E+04  0.7818608E-02  0.9168690E-01
          4   -1    0    0  502    0 -0.00000000000E+00  0.00000000000E+00  0.12896935924E+04  0.12896935924E+04  0.00000000000E+00 0.  1.
         21   -1    0    0  501  502  0.00000000000E+00 -0.00000000000E+00 -0.34299857622E+03  0.34299857622E+03  0.00000000000E+00 0.  1.
    9000010    2    1    2  501    0 -0.14129981062E+03 -0.12677341710E+03  0.47462437332E+03  0.11238819498E+04  0.10009021958E+04 0.  0.
        -13    1    3    3    0    0  0.29380910095E+03  0.28476886519E+03  0.11386186799E+03  0.42471358646E+03  0.10566000000E+00 0.  1.
          4    1    3    3  501    0 -0.43510891156E+03 -0.41154228229E+03  0.36076250533E+03  0.69916836333E+03  0.00000000000E+00 0.  1.
         13    1    1    2    0    0  0.14129981062E+03  0.12677341710E+03  0.47207064291E+03  0.50881021886E+03  0.10566000000E+00 0. -1.
<mgrwt>
<rscale>  1 0.66933428E+03</rscale>
<asrwt>0</asrwt>
<pdfrwt beam="2">  1       21 0.52769012E-01 0.10187455E+04</pdfrwt>
<pdfrwt beam="1">  1        4 0.19841440E+00 0.10187455E+04</pdfrwt>
<totfact> 0.43475044E+01</totfact>
</mgrwt>
</event>
<event>
 6    1  0.5391662E-005  0.1034581E+04  0.7818608E-02  0.9006471E-01
          4   -1    0    0  502    0 -0.00000000000E+00  0.00000000000E+00  0.22931030392E+03  0.22931030392E+03  0.00000000000E+00 0.  1.
         21   -1    0    0  501  502  0.00000000000E+00 -0.00000000000E+00 -0.20764511373E+04  0.20764511373E+04  0.00000000000E+00 0.  1.
    9000010    2    1    2  501    0 -0.31643412758E+03 -0.13766775633E+03 -0.13605306836E+04  0.17092110098E+04  0.97533356686E+03 0.  0.
        -13    1    3    3    0    0  0.16142767956E+03 -0.20920507888E+03 -0.11537735971E+04  0.11836465627E+04  0.10566000000E+00 0.  1.
          4    1    3    3  501    0 -0.47786180714E+03  0.71537322554E+02 -0.20675708650E+03  0.52556444710E+03  0.00000000000E+00 0.  1.
         13    1    1    2    0    0  0.31643412758E+03  0.13766775633E+03 -0.48661014971E+03  0.59655043140E+03  0.10566000000E+00 0. -1.
<mgrwt>
<rscale>  1 0.78623929E+03</rscale>
<asrwt>0</asrwt>
<pdfrwt beam="2">  1       21 0.31945402E+00 0.10345813E+04</pdfrwt>
<pdfrwt beam="1">  1        4 0.35278508E-01 0.10345813E+04</pdfrwt>
<totfact> 0.38251841E+00</totfact>
</mgrwt>
</event>
<event>
 6    1  0.5391662E-005  0.1473920E+04  0.7818608E-02  0.8496508E-01
          4   -1    0    0  502    0 -0.00000000000E+00  0.00000000000E+00  0.17134092323E+04  0.17134092323E+04  0.00000000000E+00 0.  1.
         21   -1    0    0  501  502  0.00000000000E+00 -0.00000000000E+00 -0.10820006540E+04  0.10820006540E+04  0.00000000000E+00 0. -1.
    9000010    2    1    2  501    0  0.38897557198E+03 -0.98687056077E+03  0.86532932025E+03  0.17091620214E+04  0.10233398671E+04 0.  0.
        -13    1    3    3    0    0  0.60906479408E+02 -0.96902045120E+03  0.23595804456E+03  0.99919289631E+03  0.10566000000E+00 0.  1.
          4    1    3    3  501    0  0.32806909258E+03 -0.17850109565E+02  0.62937127569E+03  0.70996912509E+03  0.00000000000E+00 0.  1.
         13    1    1    2    0    0 -0.38897557198E+03  0.98687056077E+03 -0.23392074195E+03  0.10862478649E+04  0.10566000000E+00 0. -1.
<mgrwt>
<rscale>  1 0.13575628E+04</rscale>
<asrwt>0</asrwt>
<pdfrwt beam="2">  1       21 0.16646164E+00 0.14739199E+04</pdfrwt>
<pdfrwt beam="1">  1        4 0.26360142E+00 0.14739199E+04</pdfrwt>
<totfact> 0.13855823E+00</totfact>
</mgrwt>
</event>
<event>
 6    1  0.5391662E-005  0.1038955E+04  0.7818608E-02  0.9055260E-01
         21   -1    0    0  501  502  0.00000000000E+00  0.00000000000E+00  0.55869739284E+03  0.55869739284E+03  0.00000000000E+00 0.  1.
          4   -1    0    0  502    0 -0.00000000000E+00 -0.00000000000E+00 -0.78053516262E+03  0.78053516262E+03  0.00000000000E+00 0.  1.
    9000010    2    1    2  501    0 -0.91558079504E+02  0.26469865301E+03 -0.20228450394E+03  0.10584646795E+04  0.10004899791E+04 0.  0.
        -13    1    3    3    0    0 -0.15450947629E+03  0.59599705775E+03  0.77143286299E+02  0.62051331081E+03  0.10566000000E+00 0.  1.
          4    1    3    3  501    0  0.62951396784E+02 -0.33129840474E+03 -0.27942779024E+03  0.43795136864E+03  0.00000000000E+00 0.  1.
         13    1    1    2    0    0  0.91558079504E+02 -0.26469865301E+03 -0.19553265836E+02  0.28076787601E+03  0.10566000000E+00 0. -1.
<mgrwt>
<rscale>  1 0.74863594E+03</rscale>
<asrwt>0</asrwt>
<pdfrwt beam="1">  1       21 0.85953445E-01 0.10389555E+04</pdfrwt>
<pdfrwt beam="2">  1        4 0.12008233E+00 0.10389555E+04</pdfrwt>
<totfact> 0.28651162E+01</totfact>
</mgrwt>
</event>
<event>
 6    1  0.5391662E-005  0.9981932E+03  0.7818608E-02  0.9232385E-01
          4   -1    0    0  502    0 -0.00000000000E+00  0.00000000000E+00  0.24061525745E+04  0.24061525745E+04  0.00000000000E+00 0.  1.
         21   -1    0    0  501  502  0.00000000000E+00 -0.00000000000E+00 -0.14410430896E+03  0.14410430896E+03  0.00000000000E+00 0.  1.
    9000010    2    1    2  501    0 -0.15752883692E+03  0.68886280907E+01  0.17521664835E+04  0.20165507561E+04  0.98566057953E+03 0.  0.
        -13    1    3    3    0    0 -0.43504722735E+03 -0.93361188644E+02  0.16425945003E+04  0.17017929090E+04  0.10566000000E+00 0.  1.
          4    1    3    3  501    0  0.27751839044E+03  0.10024981673E+03  0.10957198330E+03  0.31475784710E+03  0.00000000000E+00 0.  1.
         13    1    1    2    0    0  0.15752883692E+03 -0.68886280907E+01  0.50988178200E+03  0.53370612741E+03  0.10566000000E+00 0. -1.
<mgrwt>
<rscale>  1 0.62929559E+03</rscale>
<asrwt>0</asrwt>
<pdfrwt beam="2">  1       21 0.22169895E-01 0.99819315E+03</pdfrwt>
<pdfrwt beam="1">  1        4 0.37017729E+00 0.99819315E+03</pdfrwt>
<totfact> 0.90949537E+01</totfact>
</mgrwt>
</event>
<event>
 6    1  0.5391662E-005  0.1005896E+04  0.7818608E-02  0.9070700E-01
          4   -1    0    0  502    0 -0.00000000000E+00  0.00000000000E+00  0.10481897628E+04  0.10481897628E+04  0.00000000000E+00 0.  1.
         21   -1    0    0  501  502  0.00000000000E+00 -0.00000000000E+00 -0.48493654780E+03  0.48493654780E+03  0.00000000000E+00 0.  1.
    9000010    2    1    2  501    0 -0.16201845961E+03  0.24074032938E+03  0.13369952558E+03  0.10147420220E+04  0.96313027185E+03 0.  0.
        -13    1    3    3    0    0 -0.55294850869E+03  0.26323373123E+03  0.11199114415E+03  0.62256411562E+03  0.10566000000E+00 0.  1.
          4    1    3    3  501    0  0.39093004908E+03 -0.22493401849E+02  0.21708381428E+02  0.39217790634E+03  0.00000000000E+00 0.  1.
         13    1    1    2    0    0  0.16201845961E+03 -0.24074032938E+03  0.42955368941E+03  0.51838428863E+03  0.10566000000E+00 0. -1.
<mgrwt>
<rscale>  1 0.73719515E+03</rscale>
<asrwt>0</asrwt>
<pdfrwt beam="2">  1       21 0.74605623E-01 0.10058955E+04</pdfrwt>
<pdfrwt beam="1">  1        4 0.16125996E+00 0.10058955E+04</pdfrwt>
<totfact> 0.25836002E+01</totfact>
</mgrwt>
</event>
<event>
 6    1  0.5391662E-005  0.1027981E+04  0.7818608E-02  0.9139702E-01
         21   -1    0    0  501  502  0.00000000000E+00  0.00000000000E+00  0.33138144159E+03  0.33138144159E+03  0.00000000000E+00 0.  1.
          4   -1    0    0  502    0 -0.00000000000E+00 -0.00000000000E+00 -0.12970586056E+04  0.12970586056E+04  0.00000000000E+00 0.  1.
    9000010    2    1    2  501    0  0.15436197267E+03 -0.13785203681E+03 -0.55421153210E+03  0.11678591313E+04  0.10069328307E+04 0.  0.
        -13    1    3    3    0    0 -0.88758012870E+01  0.30580448866E+03 -0.61922328695E+03  0.69067550658E+03  0.10566000000E+00 0.  1.
          4    1    3    3  501    0  0.16323777396E+03 -0.44365652546E+03  0.65011754852E+02  0.47718362472E+03  0.00000000000E+00 0.  1.
         13    1    1    2    0    0 -0.15436197267E+03  0.13785203681E+03 -0.41146563190E+03  0.46058091587E+03  0.10566000000E+00 0. -1.
<mgrwt>
<rscale>  1 0.68858617E+03</rscale>
<asrwt>0</asrwt>
<pdfrwt beam="1">  1       21 0.50981759E-01 0.10279808E+04</pdfrwt>
<pdfrwt beam="2">  1        4 0.19954748E+00 0.10279808E+04</pdfrwt>
<totfact> 0.46573094E+01</totfact>
</mgrwt>
</event>
<event>
 6    1  0.5391662E-005  0.1009673E+04  0.7818608E-02  0.9167055E-01
         21   -1    0    0  501  502  0.00000000000E+00  0.00000000000E+00  0.50717652566E+03  0.50717652566E+03  0.00000000000E+00 0.  1.
          4   -1    0    0  502    0 -0.00000000000E+00 -0.00000000000E+00 -0.73559657964E+03  0.73559657964E+03  0.00000000000E+00 0.  1.
    9000010    2    1    2  501    0  0.13822330545E+03  0.13930870002E+03 -0.11523840357E+03  0.10162279813E+04  0.99041749995E+03 0.  0.
        -13    1    3    3    0    0 -0.67539347446E+02 -0.33816638670E+03  0.20923995758E+03  0.40336018589E+03  0.10566000000E+00 0.  1.
          4    1    3    3  501    0  0.20576265289E+03  0.47747508672E+03 -0.32447836115E+03  0.61286779538E+03  0.00000000000E+00 0.  1.
         13    1    1    2    0    0 -0.13822330545E+03 -0.13930870002E+03 -0.11318165041E+03  0.22654512403E+03  0.10566000000E+00 0. -1.
<mgrwt>
<rscale>  1 0.67040292E+03</rscale>
<asrwt>0</asrwt>
<pdfrwt beam="1">  1       21 0.78027159E-01 0.10096729E+04</pdfrwt>
<pdfrwt beam="2">  1        4 0.11316870E+00 0.10096729E+04</pdfrwt>
<totfact> 0.40349912E+01</totfact>
</mgrwt>
</event>
<event>
 6    1  0.5391662E-005  0.1029648E+04  0.7818608E-02  0.9197612E-01
         21   -1    0    0  501  502  0.00000000000E+00  0.00000000000E+00  0.22082521902E+03  0.22082521902E+03  0.00000000000E+00 0.  1.
          4   -1    0    0  502    0 -0.00000000000E+00 -0.00000000000E+00 -0.18382784521E+04  0.18382784521E+04  0.00000000000E+00 0.  1.
    9000010    2    1    2  501    0 -0.86075440496E+02 -0.13996130166E+03 -0.10592602504E+04  0.14772294884E+04  0.10164529187E+04 0.  0.
        -13    1    3    3    0    0  0.41916621051E+03 -0.27326845781E+03 -0.60266069498E+03  0.78331084922E+03  0.10566000000E+00 0.  1.
          4    1    3    3  501    0 -0.50524165101E+03  0.13330715615E+03 -0.45659955538E+03  0.69391863916E+03  0.00000000000E+00 0.  1.
         13    1    1    2    0    0  0.86075440496E+02  0.13996130166E+03 -0.55819298272E+03  0.58187418275E+03  0.10566000000E+00 0. -1.
<mgrwt>
<rscale>  1 0.65077866E+03</rscale>
<asrwt>0</asrwt>
<pdfrwt beam="1">  1       21 0.33973110E-01 0.10296478E+04</pdfrwt>
<pdfrwt beam="2">  1        4 0.28281207E+00 0.10296478E+04</pdfrwt>
<totfact> 0.69581321E+01</totfact>
</mgrwt>
</event>
<event>
 6    1  0.5391662E-005  0.1063204E+04  0.7818608E-02  0.8957458E-01
          4   -1    0    0  502    0 -0.00000000000E+00  0.00000000000E+00  0.65784507801E+03  0.65784507801E+03  0.00000000000E+00 0.  1.
         21   -1    0    0  501  502  0.00000000000E+00 -0.00000000000E+00 -0.87649786045E+03  0.87649786045E+03  0.00000000000E+00 0.  1.
    9000010    2    1    2  501    0 -0.25218875939E+03 -0.29489129955E+03 -0.35830495250E+03  0.11219562405E+04  0.98987035394E+03 0.  0.
        -13    1    3    3    0    0  0.16111609622E+03 -0.39926951807E+03 -0.51186030741E+03  0.66886136829E+03  0.10566000000E+00 0.  1.
          4    1    3    3  501    0 -0.41330485561E+03  0.10437821852E+03  0.15355535491E+03  0.45309487218E+03  0.00000000000E+00 0.  1.
         13    1    1    2    0    0  0.25218875939E+03  0.29489129955E+03  0.13965217006E+03  0.41238669799E+03  0.10566000000E+00 0. -1.
<mgrwt>
<rscale>  1 0.82637327E+03</rscale>
<asrwt>0</asrwt>
<pdfrwt beam="2">  1       21 0.13484582E+00 0.10632043E+04</pdfrwt>
<pdfrwt beam="1">  1        4 0.10120694E+00 0.10632043E+04</pdfrwt>
<totfact> 0.11506876E+01</totfact>
</mgrwt>
</event>
<event>
 6    1  0.5391662E-005  0.1078195E+04  0.7818608E-02  0.8957806E-01
          4   -1    0    0  502    0 -0.00000000000E+00  0.00000000000E+00  0.20266177390E+04  0.20266177390E+04  0.00000000000E+00 0.  1.
         21   -1    0    0  501  502  0.00000000000E+00 -0.00000000000E+00 -0.26031973670E+03  0.26031973670E+03  0.00000000000E+00 0.  1.
    9000010    2    1    2  501    0 -0.14630517490E+03  0.34151240838E+03  0.12482414088E+04  0.16494278095E+04  0.10121608345E+04 0.  0.
        -13    1    3    3    0    0  0.30329251810E+03  0.37706716415E+03  0.23001703749E+03  0.53579272719E+03  0.10566000000E+00 0.  1.
          4    1    3    3  501    0 -0.44959769299E+03 -0.35554755772E+02  0.10182243713E+04  0.11136350823E+04  0.00000000000E+00 0.  1.
         13    1    1    2    0    0  0.14630517490E+03 -0.34151240838E+03  0.51805659350E+03  0.63750966621E+03  0.10566000000E+00 0. -1.
<mgrwt>
<rscale>  1 0.82608008E+03</rscale>
<asrwt>0</asrwt>
<pdfrwt beam="2">  1       21 0.40049192E-01 0.10781955E+04</pdfrwt>
<pdfrwt beam="1">  1        4 0.31178733E+00 0.10781955E+04</pdfrwt>
<totfact> 0.40897626E+01</totfact>
</mgrwt>
</event>
<event>
 6    1  0.5391662E-005  0.1057458E+04  0.7818608E-02  0.9031991E-01
          4   -1    0    0  502    0 -0.00000000000E+00  0.00000000000E+00  0.50126176405E+03  0.50126176405E+03  0.00000000000E+00 0.  1.
         21   -1    0    0  501  502  0.00000000000E+00 -0.00000000000E+00 -0.91724354604E+03  0.91724354604E+03  0.00000000000E+00 0.  1.
    9000010    2    1    2  501    0 -0.26376164715E+03  0.12432930026E+03 -0.38459899960E+03  0.11252257990E+04  0.10164589155E+04 0.  0.
        -13    1    3    3    0    0  0.14014214965E+03  0.14543004111E+03  0.28119604366E+03  0.34620939488E+03  0.10566000000E+00 0.  1.
          4    1    3    3  501    0 -0.40390379680E+03 -0.21100740853E+02 -0.66579504326E+03  0.77901640417E+03  0.00000000000E+00 0.  1.
         13    1    1    2    0    0  0.26376164715E+03 -0.12432930026E+03 -0.31382782391E+02  0.29327951105E+03  0.10566000000E+00 0. -1.
<mgrwt>
<rscale>  1 0.76628881E+03</rscale>
<asrwt>0</asrwt>
<pdfrwt beam="2">  1       21 0.14111439E+00 0.10574577E+04</pdfrwt>
<pdfrwt beam="1">  1        4 0.77117195E-01 0.10574577E+04</pdfrwt>
<totfact> 0.17343042E+01</totfact>
</mgrwt>
</event>
<event>
 6    1  0.5391662E-005  0.1133110E+04  0.7818608E-02  0.8820385E-01
         21   -1    0    0  501  502  0.00000000000E+00  0.00000000000E+00  0.14259410093E+04  0.14259410093E+04  0.00000000000E+00 0. -1.
          4   -1    0    0  502    0 -0.00000000000E+00 -0.00000000000E+00 -0.10902927957E+04  0.10902927957E+04  0.00000000000E+00 0.  1.
    9000010    2    1    2  501    0 -0.53852008992E+02 -0.56359625871E+03 -0.70287807513E+03  0.13334076787E+04  0.98152823054E+03 0.  0.
        -13    1    3    3    0    0  0.31150501664E+03  0.82947708574E+02 -0.17491538029E+02  0.32283380061E+03  0.10566000000E+00 0.  1.
          4    1    3    3  501    0 -0.36535702563E+03 -0.64654396728E+03 -0.68538653710E+03  0.10105738781E+04  0.00000000000E+00 0.  1.
         13    1    1    2    0    0  0.53852008992E+02  0.56359625871E+03  0.10385262887E+04  0.11828261264E+04  0.10566000000E+00 0. -1.
<mgrwt>
<rscale>  1 0.95266354E+03</rscale>
<asrwt>0</asrwt>
<pdfrwt beam="1">  1       21 0.21937554E+00 0.11331101E+04</pdfrwt>
<pdfrwt beam="2">  1        4 0.16773735E+00 0.11331101E+04</pdfrwt>
<totfact> 0.10019514E+00</totfact>
</mgrwt>
</event>
<event>
 6    1  0.5391662E-005  0.1061293E+04  0.7818608E-02  0.8996015E-01
         21   -1    0    0  501  502  0.00000000000E+00  0.00000000000E+00  0.16275669106E+03  0.16275669106E+03  0.00000000000E+00 0.  1.
          4   -1    0    0  502    0 -0.00000000000E+00 -0.00000000000E+00 -0.30521404439E+04  0.30521404439E+04  0.00000000000E+00 0.  1.
    9000010    2    1    2  501    0 -0.96396802842E+02 -0.31925312772E+03 -0.19835494867E+04  0.22496248251E+04  0.10075357982E+04 0.  0.
        -13    1    3    3    0    0 -0.24578782705E+03 -0.60301849850E+03 -0.17040372695E+04  0.18242220239E+04  0.10566000000E+00 0.  1.
          4    1    3    3  501    0  0.14939102421E+03  0.28376537078E+03 -0.27951221715E+03  0.42540280124E+03  0.00000000000E+00 0.  1.
         13    1    1    2    0    0  0.96396802842E+02  0.31925312772E+03 -0.90583426616E+03  0.96527230980E+03  0.10566000000E+00 0. -1.
<mgrwt>
<rscale>  1 0.79459700E+03</rscale>
<asrwt>0</asrwt>
<pdfrwt beam="1">  1       21 0.25039492E-01 0.10612932E+04</pdfrwt>
<pdfrwt beam="2">  1        4 0.46956005E+00 0.10612932E+04</pdfrwt>
<totfact> 0.26832577E+01</totfact>
</mgrwt>
</event>
<event>
 6    1  0.5391662E-005  0.1595385E+04  0.7818608E-02  0.8411282E-01
          4   -1    0    0  502    0 -0.00000000000E+00  0.00000000000E+00  0.16239574181E+04  0.16239574181E+04  0.00000000000E+00 0.  1.
         21   -1    0    0  501  502  0.00000000000E+00 -0.00000000000E+00 -0.12379212130E+04  0.12379212130E+04  0.00000000000E+00 0. -1.
    9000010    2    1    2  501    0  0.39550552344E+03  0.11714997357E+04  0.14321612809E+03  0.16018001213E+04  0.10081748457E+04 0.  0.
        -13    1    3    3    0    0  0.49745909307E+02 -0.70796304975E+02  0.29123576149E+03  0.30381746530E+03  0.10566000000E+00 0.  1.
          4    1    3    3  501    0  0.34575961413E+03  0.12422960407E+04 -0.14801963339E+03  0.12979826560E+04  0.00000000000E+00 0.  1.
         13    1    1    2    0    0 -0.39550552344E+03 -0.11714997357E+04  0.24282007701E+03  0.12600785098E+04  0.10566000000E+00 0. -1.
<mgrwt>
<rscale>  1 0.14969049E+04</rscale>
<asrwt>0</asrwt>
<pdfrwt beam="2">  1       21 0.19044942E+00 0.15953848E+04</pdfrwt>
<pdfrwt beam="1">  1        4 0.24983960E+00 0.15953848E+04</pdfrwt>
<totfact> 0.93608917E-01</totfact>
</mgrwt>
</event>
<event>
 6    1  0.5391662E-005  0.1007002E+04  0.7818608E-02  0.9374499E-01
         21   -1    0    0  501  502  0.00000000000E+00  0.00000000000E+00  0.10305859957E+04  0.10305859957E+04  0.00000000000E+00 0.  1.
          4   -1    0    0  502    0 -0.00000000000E+00 -0.00000000000E+00 -0.30047661976E+03  0.30047661976E+03  0.00000000000E+00 0.  1.
    9000010    2    1    2  501    0 -0.17379360423E+01 -0.89639727737E+02  0.72579481179E+03  0.12413022242E+04  0.10030028922E+04 0.  0.
        -13    1    3    3    0    0 -0.34352026290E+03 -0.29211823825E+03  0.71326032156E+03  0.84384805126E+03  0.10566000000E+00 0.  1.
          4    1    3    3  501    0  0.34178232685E+03  0.20247851051E+03  0.12534490237E+02  0.39745417297E+03  0.00000000000E+00 0.  1.
         13    1    1    2    0    0  0.17379360423E+01  0.89639727737E+02  0.43145641693E+01  0.89760391256E+02  0.10566000000E+00 0. -1.
<mgrwt>
<rscale>  1 0.55007052E+03</rscale>
<asrwt>0</asrwt>
<pdfrwt beam="1">  1       21 0.15855169E+00 0.10070020E+04</pdfrwt>
<pdfrwt beam="2">  1        4 0.46227173E-01 0.10070020E+04</pdfrwt>
<totfact> 0.35713161E+01</totfact>
</mgrwt>
</event>
<event>
 6    1  0.5391662E-005  0.1004544E+04  0.7818608E-02  0.9123505E-01
         21   -1    0    0  501  502  0.00000000000E+00  0.00000000000E+00  0.42975928347E+03  0.42975928347E+03  0.00000000000E+00 0.  1.
          4   -1    0    0  502    0 -0.00000000000E+00 -0.00000000000E+00 -0.11301995911E+04  0.11301995911E+04  0.00000000000E+00 0.  1.
    9000010    2    1    2  501    0 -0.12016718868E+03  0.20354046076E+03 -0.22563376034E+03  0.10295720903E+04  0.97633970672E+03 0.  0.
        -13    1    3    3    0    0 -0.54953991868E+03  0.74709813665E+02 -0.15419656413E+03  0.57563206133E+03  0.10566000000E+00 0.  1.
          4    1    3    3  501    0  0.42937273000E+03  0.12883064710E+03 -0.71437196214E+02  0.45394002897E+03  0.00000000000E+00 0.  1.
         13    1    1    2    0    0  0.12016718868E+03 -0.20354046076E+03 -0.47480654727E+03  0.53038678424E+03  0.10566000000E+00 0. -1.
<mgrwt>
<rscale>  1 0.69963718E+03</rscale>
<asrwt>0</asrwt>
<pdfrwt beam="1">  1       21 0.66116814E-01 0.10045437E+04</pdfrwt>
<pdfrwt beam="2">  1        4 0.17387686E+00 0.10045437E+04</pdfrwt>
<totfact> 0.31024610E+01</totfact>
</mgrwt>
</event>
<event>
 6    1  0.5391662E-005  0.1011628E+04  0.7818608E-02  0.9193428E-01
         21   -1    0    0  501  502  0.00000000000E+00  0.00000000000E+00  0.14456170382E+03  0.14456170382E+03  0.00000000000E+00 0.  1.
          4   -1    0    0  502    0 -0.00000000000E+00 -0.00000000000E+00 -0.25441913700E+04  0.25441913700E+04  0.00000000000E+00 0.  1.
    9000010    2    1    2  501    0 -0.72901747833E+02 -0.16028250244E+03 -0.18115142027E+04  0.20748435080E+04  0.99618609244E+03 0.  0.
        -13    1    3    3    0    0  0.19659338373E+03  0.21057453937E+03 -0.14833316746E+04  0.15110471412E+04  0.10566000000E+00 0.  1.
          4    1    3    3  501    0 -0.26949513157E+03 -0.37085704180E+03 -0.32818252809E+03  0.56379636673E+03  0.00000000000E+00 0.  1.
         13    1    1    2    0    0  0.72901747833E+02  0.16028250244E+03 -0.58811546358E+03  0.61390956589E+03  0.10566000000E+00 0. -1.
<mgrwt>
<rscale>  1 0.65342384E+03</rscale>
<asrwt>0</asrwt>
<pdfrwt beam="1">  1       21 0.22240263E-01 0.10116283E+04</pdfrwt>
<pdfrwt beam="2">  1        4 0.39141404E+00 0.10116283E+04</pdfrwt>
<totfact> 0.75079048E+01</totfact>
</mgrwt>
</event>
<event>
 6    1  0.5391662E-005  0.1034451E+04  0.7818608E-02  0.9025940E-01
          4   -1    0    0  502    0 -0.00000000000E+00  0.00000000000E+00  0.28157808322E+04  0.28157808322E+04  0.00000000000E+00 0.  1.
         21   -1    0    0  501  502  0.00000000000E+00 -0.00000000000E+00 -0.17385213300E+03  0.17385213300E+03  0.00000000000E+00 0.  1.
    9000010    2    1    2  501    0 -0.28247719787E+03 -0.14854991934E+03  0.16484101528E+04  0.19461102970E+04  0.98398618404E+03 0.  0.
        -13    1    3    3    0    0 -0.31118582596E+03 -0.41256107568E+03  0.35799659131E+03  0.62865318737E+03  0.10566000000E+00 0.  1.
          4    1    3    3  501    0  0.28708628095E+02  0.26401115634E+03  0.12904135615E+04  0.13174571097E+04  0.00000000000E+00 0.  1.
         13    1    1    2    0    0  0.28247719787E+03  0.14854991934E+03  0.99351854640E+03  0.10435226682E+04  0.10566000000E+00 0. -1.
<mgrwt>
<rscale>  1 0.77096241E+03</rscale>
<asrwt>0</asrwt>
<pdfrwt beam="2">  1       21 0.26746484E-01 0.10344512E+04</pdfrwt>
<pdfrwt beam="1">  1        4 0.43319702E+00 0.10344512E+04</pdfrwt>
<totfact> 0.34901798E+01</totfact>
</mgrwt>
</event>
<event>
 6    1  0.5391662E-005  0.1118667E+04  0.7818608E-02  0.8859767E-01
          4   -1    0    0  502    0 -0.00000000000E+00  0.00000000000E+00  0.11789244182E+04  0.11789244182E+04  0.00000000000E+00 0.  1.
         21   -1    0    0  501  502  0.00000000000E+00 -0.00000000000E+00 -0.57004327509E+03  0.57004327509E+03  0.00000000000E+00 0.  1.
    9000010    2    1    2  501    0 -0.49121163479E+03  0.86458159322E+02  0.28543138330E+03  0.11545068941E+04  0.10013247278E+04 0.  0.
        -13    1    3    3    0    0 -0.44726212301E+03  0.39387475340E+03 -0.15481958152E+03  0.61575144501E+03  0.10566000000E+00 0.  1.
          4    1    3    3  501    0 -0.43949511780E+02 -0.30741659407E+03  0.44025096483E+03  0.53875544910E+03  0.00000000000E+00 0.  1.
         13    1    1    2    0    0  0.49121163479E+03 -0.86458159322E+02  0.32344975980E+03  0.59446079917E+03  0.10566000000E+00 0. -1.
<mgrwt>
<rscale>  1 0.91411101E+03</rscale>
<asrwt>0</asrwt>
<pdfrwt beam="2">  1       21 0.87698966E-01 0.11186667E+04</pdfrwt>
<pdfrwt beam="1">  1        4 0.18137299E+00 0.11186667E+04</pdfrwt>
<totfact> 0.14601947E+01</totfact>
</mgrwt>
</event>
<event>
 6    1  0.5391662E-005  0.1033759E+04  0.7818608E-02  0.9072755E-01
          4   -1    0    0  502    0 -0.00000000000E+00  0.00000000000E+00  0.21246881099E+04  0.21246881099E+04  0.00000000000E+00 0.  1.
         21   -1    0    0  501  502  0.00000000000E+00 -0.00000000000E+00 -0.19960419009E+03  0.19960419009E+03  0.00000000000E+00 0.  1.
    9000010    2    1    2  501    0 -0.53612419177E+02 -0.25968859985E+03  0.15980407327E+04  0.19032581947E+04  0.99917221341E+03 0.  0.
        -13    1    3    3    0    0 -0.48484562912E+03 -0.33094864055E+03  0.78548926160E+03  0.98060985005E+03  0.10566000000E+00 0.  1.
          4    1    3    3  501    0  0.43123320994E+03  0.71260040696E+02  0.81255147109E+03  0.92264834468E+03  0.00000000000E+00 0.  1.
         13    1    1    2    0    0  0.53612419177E+02  0.25968859985E+03  0.32704318711E+03  0.42103410525E+03  0.10566000000E+00 0. -1.
<mgrwt>
<rscale>  1 0.73568781E+03</rscale>
<asrwt>0</asrwt>
<pdfrwt beam="2">  1       21 0.30708338E-01 0.10337590E+04</pdfrwt>
<pdfrwt beam="1">  1        4 0.32687508E+00 0.10337590E+04</pdfrwt>
<totfact> 0.65073942E+01</totfact>
</mgrwt>
</event>
<event>
 6    1  0.5391662E-005  0.1051895E+04  0.7818608E-02  0.9019478E-01
         21   -1    0    0  501  502  0.00000000000E+00  0.00000000000E+00  0.29751334969E+03  0.29751334969E+03  0.00000000000E+00 0.  1.
          4   -1    0    0  502    0 -0.00000000000E+00 -0.00000000000E+00 -0.18118838118E+04  0.18118838118E+04  0.00000000000E+00 0.  1.
    9000010    2    1    2  501    0 -0.18256791634E+03 -0.25243847527E+03 -0.77345231253E+03  0.13056459914E+04  0.10047023177E+04 0.  0.
        -13    1    3    3    0    0  0.15227884988E+03  0.33931854329E+03 -0.27942479083E+03  0.46519259112E+03  0.10566000000E+00 0.  1.
          4    1    3    3  501    0 -0.33484676622E+03 -0.59175701856E+03 -0.49402752171E+03  0.84045340029E+03  0.00000000000E+00 0.  1.
         13    1    1    2    0    0  0.18256791634E+03  0.25243847527E+03 -0.74091814952E+03  0.80375117003E+03  0.10566000000E+00 0. -1.
<mgrwt>
<rscale>  1 0.77599194E+03</rscale>
<asrwt>0</asrwt>
<pdfrwt beam="1">  1       21 0.45771285E-01 0.10518949E+04</pdfrwt>
<pdfrwt beam="2">  1        4 0.27875135E+00 0.10518949E+04</pdfrwt>
<totfact> 0.37646991E+01</totfact>
</mgrwt>
</event>
<event>
 6    1  0.5391662E-005  0.1027007E+04  0.7818608E-02  0.9231401E-01
          4   -1    0    0  502    0 -0.00000000000E+00  0.00000000000E+00  0.20090540078E+04  0.20090540078E+04  0.00000000000E+00 0.  1.
         21   -1    0    0  501  502  0.00000000000E+00 -0.00000000000E+00 -0.17199949727E+03  0.17199949727E+03  0.00000000000E+00 0.  1.
    9000010    2    1    2  501    0 -0.64536924094E+02 -0.13020984199E+03  0.15509940600E+04  0.18601949536E+04  0.10166725499E+04 0.  0.
        -13    1    3    3    0    0  0.34576749306E+03 -0.38499726480E+03  0.10109001590E+04  0.11356483592E+04  0.10566000000E+00 0.  1.
          4    1    3    3  501    0 -0.41030441715E+03  0.25478742281E+03  0.54009390093E+03  0.72454659435E+03  0.00000000000E+00 0.  1.
         13    1    1    2    0    0  0.64536924094E+02  0.13020984199E+03  0.28606045060E+03  0.32085855152E+03  0.10566000000E+00 0. -1.
<mgrwt>
<rscale>  1 0.62989148E+03</rscale>
<asrwt>0</asrwt>
<pdfrwt beam="2">  1       21 0.26461463E-01 0.10270067E+04</pdfrwt>
<pdfrwt beam="1">  1        4 0.30908522E+00 0.10270067E+04</pdfrwt>
<totfact> 0.98832839E+01</totfact>
</mgrwt>
</event>
<event>
 6    1  0.5391662E-005  0.1211546E+04  0.7818608E-02  0.8740406E-01
          4   -1    0    0  502    0 -0.00000000000E+00  0.00000000000E+00  0.69676434446E+03  0.69676434446E+03  0.00000000000E+00 0.  1.
         21   -1    0    0  501  502  0.00000000000E+00 -0.00000000000E+00 -0.12636842359E+04  0.12636842359E+04  0.00000000000E+00 0. -1.
    9000010    2    1    2  501    0  0.54940979906E+03  0.34877495991E+03 -0.25194407564E+03  0.12374652640E+04  0.10219341283E+04 0.  0.
        -13    1    3    3    0    0  0.57454561605E+03  0.23802437573E+03  0.28825645760E+03  0.68545609989E+03  0.10566000000E+00 0.  1.
          4    1    3    3  501    0 -0.25135816997E+02  0.11075058418E+03 -0.54020053324E+03  0.55200916415E+03  0.00000000000E+00 0.  1.
         13    1    1    2    0    0 -0.54940979906E+03 -0.34877495991E+03 -0.31497581580E+03  0.72298331631E+03  0.10566000000E+00 0. -1.
<mgrwt>
<rscale>  1 0.10371967E+04</rscale>
<asrwt>0</asrwt>
<pdfrwt beam="2">  1       21 0.19441296E+00 0.12115463E+04</pdfrwt>
<pdfrwt beam="1">  1        4 0.10719452E+00 0.12115463E+04</pdfrwt>
<totfact> 0.31473931E+00</totfact>
</mgrwt>
</event>
<event>
 6    1  0.5391662E-005  0.9754828E+03  0.7818608E-02  0.9343779E-01
         21   -1    0    0  501  502  0.00000000000E+00  0.00000000000E+00  0.13051390559E+04  0.13051390559E+04  0.00000000000E+00 0.  1.
          4   -1    0    0  502    0 -0.00000000000E+00 -0.00000000000E+00 -0.22955015966E+03  0.22955015966E+03  0.00000000000E+00 0.  1.
    9000010    2    1    2  501    0  0.33423899557E+02 -0.10547320962E+03  0.10181178866E+04  0.14100108970E+04  0.96918777521E+03 0.  0.
        -13    1    3    3    0    0 -0.17520615654E+03 -0.43474391970E+03  0.87893517609E+03  0.99610568111E+03  0.10566000000E+00 0.  1.
          4    1    3    3  501    0  0.20863005609E+03  0.32927071008E+03  0.13918271049E+03  0.41390521587E+03  0.00000000000E+00 0.  1.
         13    1    1    2    0    0 -0.33423899557E+02  0.10547320962E+03  0.57471009653E+02  0.12467831858E+03  0.10566000000E+00 0. -1.
<mgrwt>
<rscale>  1 0.56610270E+03</rscale>
<asrwt>0</asrwt>
<pdfrwt beam="1">  1       21 0.20079062E+00 0.97548280E+03</pdfrwt>
<pdfrwt beam="2">  1        4 0.35315410E-01 0.97548280E+03</pdfrwt>
<totfact> 0.28015555E+01</totfact>
</mgrwt>
</event>
<event>
 6    1  0.5391662E-005  0.1010790E+04  0.7818608E-02  0.9095121E-01
          4   -1    0    0  502    0 -0.00000000000E+00  0.00000000000E+00  0.22936961159E+04  0.22936961159E+04  0.00000000000E+00 0.  1.
         21   -1    0    0  501  502  0.00000000000E+00 -0.00000000000E+00 -0.22459561995E+03  0.22459561995E+03  0.00000000000E+00 0.  1.
    9000010    2    1    2  501    0 -0.21878566315E+03 -0.13962559472E+03  0.10140260795E+04  0.14317630853E+04  0.97690028630E+03 0.  0.
        -13    1    3    3    0    0 -0.45817406310E+03  0.15885049285E+03  0.91654587589E+03  0.10369249273E+04  0.10566000000E+00 0.  1.
          4    1    3    3  501    0  0.23938839994E+03 -0.29847608757E+03  0.97480203640E+02  0.39483815796E+03  0.00000000000E+00 0.  1.
         13    1    1    2    0    0  0.21878566315E+03  0.13962559472E+03  0.10550744165E+04  0.10865286506E+04  0.10566000000E+00 0. -1.
<mgrwt>
<rscale>  1 0.71952850E+03</rscale>
<asrwt>0</asrwt>
<pdfrwt beam="2">  1       21 0.34553174E-01 0.10107901E+04</pdfrwt>
<pdfrwt beam="1">  1        4 0.35287631E+00 0.10107901E+04</pdfrwt>
<totfact> 0.42523969E+01</totfact>
</mgrwt>
</event>
<event>
 6    1  0.5391662E-005  0.1030216E+04  0.7818608E-02  0.9023642E-01
         21   -1    0    0  501  502  0.00000000000E+00  0.00000000000E+00  0.61719218666E+03  0.61719218666E+03  0.00000000000E+00 0.  1.
          4   -1    0    0  502    0 -0.00000000000E+00 -0.00000000000E+00 -0.18833924019E+04  0.18833924019E+04  0.00000000000E+00 0.  1.
    9000010    2    1    2  501    0 -0.24952707499E+03 -0.20996039662E+03  0.15556879544E+03  0.10418953618E+04  0.97723956405E+03 0.  0.
        -13    1    3    3    0    0  0.12191206278E+02 -0.30484436196E+03 -0.35027197247E+03  0.46450960851E+03  0.10566000000E+00 0.  1.
          4    1    3    3  501    0 -0.26171828127E+03  0.94883965340E+02  0.50584076792E+03  0.57738575330E+03  0.00000000000E+00 0.  1.
         13    1    1    2    0    0  0.24952707499E+03  0.20996039662E+03 -0.14217690107E+04  0.14586892267E+04  0.10566000000E+00 0. -1.
<mgrwt>
<rscale>  1 0.77274612E+03</rscale>
<asrwt>0</asrwt>
<pdfrwt beam="1">  1       21 0.94952645E-01 0.10302157E+04</pdfrwt>
<pdfrwt beam="2">  1        4 0.28975267E+00 0.10302157E+04</pdfrwt>
<totfact> 0.63354223E+00</totfact>
</mgrwt>
</event>
<event>
 6    1  0.5391662E-005  0.1048404E+04  0.7818608E-02  0.9005767E-01
          4   -1    0    0  502    0 -0.00000000000E+00  0.00000000000E+00  0.26179315564E+04  0.26179315564E+04  0.00000000000E+00 0.  1.
         21   -1    0    0  501  502  0.00000000000E+00 -0.00000000000E+00 -0.18668485836E+03  0.18668485836E+03  0.00000000000E+00 0. -1.
    9000010    2    1    2  501    0 -0.26995165964E+03  0.19421942139E+03  0.20188045730E+04  0.22748017303E+04  0.99426149781E+03 0.  0.
        -13    1    3    3    0    0 -0.18973483955E+03  0.57185936980E+03  0.15764685823E+04  0.16876835160E+04  0.10566000000E+00 0.  1.
          4    1    3    3  501    0 -0.80216820093E+02 -0.37763994841E+03  0.44233599073E+03  0.58711821429E+03  0.00000000000E+00 0.  1.
         13    1    1    2    0    0  0.26995165964E+03 -0.19421942139E+03  0.41244212499E+03  0.52981468441E+03  0.10566000000E+00 0. -1.
<mgrwt>
<rscale>  1 0.78679854E+03</rscale>
<asrwt>0</asrwt>
<pdfrwt beam="2">  1       21 0.28720749E-01 0.10484040E+04</pdfrwt>
<pdfrwt beam="1">  1        4 0.40275867E+00 0.10484040E+04</pdfrwt>
<totfact> 0.40362186E+01</totfact>
</mgrwt>
</event>
<event>
 6    1  0.5391662E-005  0.1033847E+04  0.7818608E-02  0.9069702E-01
          4   -1    0    0  502    0 -0.00000000000E+00  0.00000000000E+00  0.23891457437E+04  0.23891457437E+04  0.00000000000E+00 0.  1.
         21   -1    0    0  501  502  0.00000000000E+00 -0.00000000000E+00 -0.22764090524E+03  0.22764090524E+03  0.00000000000E+00 0.  1.
    9000010    2    1    2  501    0 -0.44826320612E+02  0.26457031968E+03  0.10507611164E+04  0.14740887535E+04  0.99841468154E+03 0.  0.
        -13    1    3    3    0    0 -0.40012448990E+03  0.15128165323E+03  0.81367580778E+02  0.43543821650E+03  0.10566000000E+00 0.  1.
          4    1    3    3  501    0  0.35529816929E+03  0.11328866644E+03  0.96939353566E+03  0.10386505370E+04  0.00000000000E+00 0.  1.
         13    1    1    2    0    0  0.44826320612E+02 -0.26457031968E+03  0.11107437221E+04  0.11426978955E+04  0.10566000000E+00 0. -1.
<mgrwt>
<rscale>  1 0.73792769E+03</rscale>
<asrwt>0</asrwt>
<pdfrwt beam="2">  1       21 0.35021679E-01 0.10338466E+04</pdfrwt>
<pdfrwt beam="1">  1        4 0.36756087E+00 0.10338466E+04</pdfrwt>
<totfact> 0.36528740E+01</totfact>
</mgrwt>
</event>
<event>
 6    1  0.5391662E-005  0.1018161E+04  0.7818608E-02  0.9219724E-01
         21   -1    0    0  501  502  0.00000000000E+00  0.00000000000E+00  0.30475395995E+03  0.30475395995E+03  0.00000000000E+00 0.  1.
          4   -1    0    0  502    0 -0.00000000000E+00 -0.00000000000E+00 -0.11518066803E+04  0.11518066803E+04  0.00000000000E+00 0.  1.
    9000010    2    1    2  501    0 -0.15576838426E+03 -0.86707285598E+01 -0.79607213589E+03  0.12924326346E+04  0.10061373159E+04 0.  0.
        -13    1    3    3    0    0 -0.10350071544E+03  0.48923080459E+03 -0.27863825135E+03  0.57244953012E+03  0.10566000000E+00 0.  1.
          4    1    3    3  501    0 -0.52267668816E+02 -0.49790153315E+03 -0.51743388454E+03  0.71998310451E+03  0.00000000000E+00 0.  1.
         13    1    1    2    0    0  0.15576838426E+03  0.86707285598E+01 -0.50980584462E+02  0.16412800561E+03  0.10566000000E+00 0. -1.
<mgrwt>
<rscale>  1 0.63701567E+03</rscale>
<asrwt>0</asrwt>
<pdfrwt beam="1">  1       21 0.46885225E-01 0.10181607E+04</pdfrwt>
<pdfrwt beam="2">  1        4 0.17720103E+00 0.10181607E+04</pdfrwt>
<totfact> 0.65689216E+01</totfact>
</mgrwt>
</event>
<event>
 6    1  0.5391662E-005  0.9929973E+03  0.7818608E-02  0.9148440E-01
          4   -1    0    0  502    0 -0.00000000000E+00  0.00000000000E+00  0.19434209188E+04  0.19434209188E+04  0.00000000000E+00 0.  1.
         21   -1    0    0  501  502  0.00000000000E+00 -0.00000000000E+00 -0.19838869175E+03  0.19838869175E+03  0.00000000000E+00 0.  1.
    9000010    2    1    2  501    0  0.16329204440E+03  0.15021305397E+03  0.15765716049E+04  0.18632288400E+04  0.96789226234E+03 0.  0.
        -13    1    3    3    0    0  0.46949919197E+03 -0.18718704541E+03  0.10605860127E+04  0.11748664531E+04  0.10566000000E+00 0.  1.
          4    1    3    3  501    0 -0.30620714757E+03  0.33740009938E+03  0.51598559225E+03  0.68836238689E+03  0.00000000000E+00 0.  1.
         13    1    1    2    0    0 -0.16329204440E+03 -0.15021305397E+03  0.16846062215E+03  0.27858077056E+03  0.10566000000E+00 0. -1.
<mgrwt>
<rscale>  1 0.68271262E+03</rscale>
<asrwt>0</asrwt>
<pdfrwt beam="2">  1       21 0.30521339E-01 0.99299732E+03</pdfrwt>
<pdfrwt beam="1">  1        4 0.29898782E+00 0.99299732E+03</pdfrwt>
<totfact> 0.79012089E+01</totfact>
</mgrwt>
</event>
<event>
 6    1  0.5391662E-005  0.1024984E+04  0.7818608E-02  0.9114360E-01
         21   -1    0    0  501  502  0.00000000000E+00  0.00000000000E+00  0.42056536251E+03  0.42056536251E+03  0.00000000000E+00 0.  1.
          4   -1    0    0  502    0 -0.00000000000E+00 -0.00000000000E+00 -0.99304262157E+03  0.99304262157E+03  0.00000000000E+00 0.  1.
    9000010    2    1    2  501    0  0.21664784197E+02 -0.22965381156E+03 -0.32495321728E+03  0.10752614185E+04  0.99869028661E+03 0.  0.
        -13    1    3    3    0    0 -0.31890930614E+03 -0.49675872860E+03 -0.15553041550E+03  0.61046056490E+03  0.10566000000E+00 0.  1.
          4    1    3    3  501    0  0.34057409033E+03  0.26710491704E+03 -0.16942280178E+03  0.46480085357E+03  0.00000000000E+00 0.  1.
         13    1    1    2    0    0 -0.21664784197E+02  0.22965381156E+03 -0.24752404178E+03  0.33834656561E+03  0.10566000000E+00 0. -1.
<mgrwt>
<rscale>  1 0.70597167E+03</rscale>
<asrwt>0</asrwt>
<pdfrwt beam="1">  1       21 0.64702364E-01 0.10249842E+04</pdfrwt>
<pdfrwt beam="2">  1        4 0.15277579E+00 0.10249842E+04</pdfrwt>
<totfact> 0.39054610E+01</totfact>
</mgrwt>
</event>
<event>
 6    1  0.5391662E-005  0.1088510E+04  0.7818608E-02  0.8947162E-01
         21   -1    0    0  501  502  0.00000000000E+00  0.00000000000E+00  0.39176609399E+03  0.39176609399E+03  0.00000000000E+00 0. -1.
          4   -1    0    0  502    0 -0.00000000000E+00 -0.00000000000E+00 -0.16577619694E+04  0.16577619694E+04  0.00000000000E+00 0.  1.
    9000010    2    1    2  501    0  0.30899880970E+03  0.21622307430E+03 -0.50445969566E+03  0.11997221759E+04  0.10210881610E+04 0.  0.
        -13    1    3    3    0    0 -0.32454143480E+03 -0.91307891440E+02 -0.64738093648E+01  0.33720349244E+03  0.10566000000E+00 0.  1.
          4    1    3    3  501    0  0.63354024450E+03  0.30753096574E+03 -0.49798588629E+03  0.86251868342E+03  0.00000000000E+00 0.  1.
         13    1    1    2    0    0 -0.30899880970E+03 -0.21622307430E+03 -0.76153617979E+03  0.84980588757E+03  0.10566000000E+00 0. -1.
<mgrwt>
<rscale>  1 0.83512062E+03</rscale>
<asrwt>0</asrwt>
<pdfrwt beam="1">  1       21 0.60271708E-01 0.10885099E+04</pdfrwt>
<pdfrwt beam="2">  1        4 0.25504030E+00 0.10885099E+04</pdfrwt>
<totfact> 0.23029550E+01</totfact>
</mgrwt>
</event>
<event>
 6    1  0.5391662E-005  0.1086155E+04  0.7818608E-02  0.8910713E-01
          4   -1    0    0  502    0 -0.00000000000E+00  0.00000000000E+00  0.22655700137E+04  0.22655700137E+04  0.00000000000E+00 0.  1.
         21   -1    0    0  501  502  0.00000000000E+00 -0.00000000000E+00 -0.25779297305E+03  0.25779297305E+03  0.00000000000E+00 0.  1.
    9000010    2    1    2  501    0 -0.37899329968E+03  0.22545570526E+03  0.13797081708E+04  0.17559408652E+04  0.99260641203E+03 0.  0.
        -13    1    3    3    0    0 -0.18227851192E+03  0.53342193389E+03  0.35051299375E+03  0.66379498748E+03  0.10566000000E+00 0.  1.
          4    1    3    3  501    0 -0.19671478776E+03 -0.30796622862E+03  0.10291951771E+04  0.10921458777E+04  0.00000000000E+00 0.  1.
         13    1    1    2    0    0  0.37899329968E+03 -0.22545570526E+03  0.62806886982E+03  0.76742212155E+03  0.10566000000E+00 0. -1.
<mgrwt>
<rscale>  1 0.86701081E+03</rscale>
<asrwt>0</asrwt>
<pdfrwt beam="2">  1       21 0.39660459E-01 0.10861555E+04</pdfrwt>
<pdfrwt beam="1">  1        4 0.34854922E+00 0.10861555E+04</pdfrwt>
<totfact> 0.32583556E+01</totfact>
</mgrwt>
</event>
<event>
 6    1  0.5391662E-005  0.1025918E+04  0.7818608E-02  0.9101453E-01
         21   -1    0    0  501  502  0.00000000000E+00  0.00000000000E+00  0.49633801446E+03  0.49633801446E+03  0.00000000000E+00 0.  1.
          4   -1    0    0  502    0 -0.00000000000E+00 -0.00000000000E+00 -0.10930259376E+04  0.10930259376E+04  0.00000000000E+00 0.  1.
    9000010    2    1    2  501    0 -0.13864967818E+03 -0.19844452496E+03 -0.92512065973E+02  0.10300811355E+04  0.99694769207E+03 0.  0.
        -13    1    3    3    0    0 -0.49637453602E+03  0.11214195527E+03 -0.19572537304E+03  0.54522649509E+03  0.10566000000E+00 0.  1.
          4    1    3    3  501    0  0.35772485784E+03 -0.31058648022E+03  0.10321330707E+03  0.48485464045E+03  0.00000000000E+00 0.  1.
         13    1    1    2    0    0  0.13864967818E+03  0.19844452496E+03 -0.50417585721E+03  0.55928281656E+03  0.10566000000E+00 0. -1.
<mgrwt>
<rscale>  1 0.71503206E+03</rscale>
<asrwt>0</asrwt>
<pdfrwt beam="1">  1       21 0.76359695E-01 0.10259184E+04</pdfrwt>
<pdfrwt beam="2">  1        4 0.16815783E+00 0.10259184E+04</pdfrwt>
<totfact> 0.23021617E+01</totfact>
</mgrwt>
</event>
<event>
 6    1  0.5391662E-005  0.1019353E+04  0.7818608E-02  0.9146153E-01
         21   -1    0    0  501  502  0.00000000000E+00  0.00000000000E+00  0.60254635367E+03  0.60254635367E+03  0.00000000000E+00 0. -1.
          4   -1    0    0  502    0 -0.00000000000E+00 -0.00000000000E+00 -0.62530200262E+03  0.62530200262E+03  0.00000000000E+00 0.  1.
    9000010    2    1    2  501    0  0.15719697934E+02  0.20635420973E+03  0.25375033193E+01  0.10193563337E+04  0.99812410416E+03 0.  0.
        -13    1    3    3    0    0 -0.41055113804E+03 -0.75561118976E+02 -0.20827921339E+03  0.46652112658E+03  0.10566000000E+00 0.  1.
          4    1    3    3  501    0  0.42627083597E+03  0.28191532871E+03  0.21081671671E+03  0.55283520710E+03  0.00000000000E+00 0.  1.
         13    1    1    2    0    0 -0.15719697934E+02 -0.20635420973E+03 -0.25293152268E+02  0.20849202261E+03  0.10566000000E+00 0. -1.
<mgrwt>
<rscale>  1 0.68424397E+03</rscale>
<asrwt>0</asrwt>
<pdfrwt beam="1">  1       21 0.92699439E-01 0.10193532E+04</pdfrwt>
<pdfrwt beam="2">  1        4 0.96200308E-01 0.10193532E+04</pdfrwt>
<totfact> 0.35369555E+01</totfact>
</mgrwt>
</event>
<event>
 6    1  0.5391662E-005  0.1010767E+04  0.7818608E-02  0.9210446E-01
          4   -1    0    0  502    0 -0.00000000000E+00  0.00000000000E+00  0.66358682401E+03  0.66358682401E+03  0.00000000000E+00 0.  1.
         21   -1    0    0  501  502  0.00000000000E+00 -0.00000000000E+00 -0.53234956523E+03  0.53234956523E+03  0.00000000000E+00 0.  1.
    9000010    2    1    2  501    0 -0.13035532715E+03  0.10160315361E+03  0.50581877462E+02  0.10120314849E+04  0.99716271891E+03 0.  0.
        -13    1    3    3    0    0  0.10598926460E+03 -0.24518782423E+03 -0.34431514984E+03  0.43577944758E+03  0.10566000000E+00 0.  1.
          4    1    3    3  501    0 -0.23634459175E+03  0.34679097784E+03  0.39489702730E+03  0.57625203733E+03  0.00000000000E+00 0.  1.
         13    1    1    2    0    0  0.13035532715E+03 -0.10160315361E+03  0.80655381315E+02  0.18390490433E+03  0.10566000000E+00 0. -1.
<mgrwt>
<rscale>  1 0.64274656E+03</rscale>
<asrwt>0</asrwt>
<pdfrwt beam="2">  1       21 0.81899933E-01 0.10107666E+04</pdfrwt>
<pdfrwt beam="1">  1        4 0.10209028E+00 0.10107666E+04</pdfrwt>
<totfact> 0.43238502E+01</totfact>
</mgrwt>
</event>
<event>
 6    1  0.5391662E-005  0.1009483E+04  0.7818608E-02  0.9361053E-01
          4   -1    0    0  502    0 -0.00000000000E+00  0.00000000000E+00  0.51260303846E+04  0.51260303846E+04  0.00000000000E+00 0.  1.
         21   -1    0    0  501  502  0.00000000000E+00 -0.00000000000E+00 -0.59490195635E+02  0.59490195635E+02  0.00000000000E+00 0.  1.
    9000010    2    1    2  501    0  0.28380856226E+02 -0.89171746784E+02  0.47038861254E+04  0.48109874650E+04  0.10051361272E+04 0.  0.
        -13    1    3    3    0    0  0.33693506461E+03  0.23006520723E+03  0.99169502252E+03  0.10723405551E+04  0.10566000000E+00 0.  1.
          4    1    3    3  501    0 -0.30855420838E+03 -0.31923695402E+03  0.37121911028E+04  0.37386469098E+04  0.00000000000E+00 0.  1.
         13    1    1    2    0    0 -0.28380856226E+02  0.89171746784E+02  0.36265406366E+03  0.37453311532E+03  0.10566000000E+00 0. -1.
<mgrwt>
<rscale>  1 0.55701799E+03</rscale>
<asrwt>0</asrwt>
<pdfrwt beam="2">  1       21 0.91523418E-02 0.10094829E+04</pdfrwt>
<pdfrwt beam="1">  1        4 0.78861971E+00 0.10094829E+04</pdfrwt>
<totfact> 0.32099301E+00</totfact>
</mgrwt>
</event>
<event>
 6    1  0.5391662E-005  0.1301663E+04  0.7818608E-02  0.8635206E-01
         21   -1    0    0  501  502  0.00000000000E+00  0.00000000000E+00  0.48340583648E+03  0.48340583648E+03  0.00000000000E+00 0. -1.
          4   -1    0    0  502    0 -0.00000000000E+00 -0.00000000000E+00 -0.25579160075E+04  0.25579160075E+04  0.00000000000E+00 0.  1.
    9000010    2    1    2  501    0  0.73315178264E+03  0.38610675621E+03 -0.16753451922E+04  0.21215813072E+04  0.10038604317E+04 0.  0.
        -13    1    3    3    0    0  0.56129185820E+03  0.69090383808E+03 -0.87555228669E+03  0.12485946025E+04  0.10566000000E+00 0.  1.
          4    1    3    3  501    0  0.17185992444E+03 -0.30479708187E+03 -0.79979290553E+03  0.87298670464E+03  0.00000000000E+00 0.  1.
         13    1    1    2    0    0 -0.73315178264E+03 -0.38610675621E+03 -0.39916497879E+03  0.91974053680E+03  0.10566000000E+00 0. -1.
<mgrwt>
<rscale>  1 0.11626823E+04</rscale>
<asrwt>0</asrwt>
<pdfrwt beam="1">  1       21 0.74370128E-01 0.13016627E+04</pdfrwt>
<pdfrwt beam="2">  1        4 0.39352554E+00 0.13016627E+04</pdfrwt>
<totfact> 0.52144690E+00</totfact>
</mgrwt>
</event>
<event>
 6    1  0.5391662E-005  0.7170538E+03  0.7818608E-02  0.9787202E-01
         21   -1    0    0  501  502  0.00000000000E+00  0.00000000000E+00  0.11884866538E+03  0.11884866538E+03  0.00000000000E+00 0.  1.
          4   -1    0    0  502    0 -0.00000000000E+00 -0.00000000000E+00 -0.12799128564E+04  0.12799128564E+04  0.00000000000E+00 0.  1.
    9000010    2    1    2  501    0 -0.43203820396E+02  0.36930991060E+02 -0.10213347165E+04  0.12479145616E+04  0.71479765083E+03 0.  0.
        -13    1    3    3    0    0 -0.84419249824E+02 -0.21950242350E+03 -0.94985163154E+03  0.97853260384E+03  0.10566000000E+00 0.  1.
          4    1    3    3  501    0  0.41215429428E+02  0.25643341456E+03 -0.71483084999E+02  0.26938195776E+03  0.00000000000E+00 0.  1.
         13    1    1    2    0    0  0.43203820396E+02 -0.36930991060E+02 -0.13972947449E+03  0.15084696020E+03  0.10566000000E+00 0. -1.
<mgrwt>
<rscale>  1 0.38047154E+03</rscale>
<asrwt>0</asrwt>
<pdfrwt beam="1">  1       21 0.18284412E-01 0.71705380E+03</pdfrwt>
<pdfrwt beam="2">  1        4 0.19690965E+00 0.71705380E+03</pdfrwt>
<totfact> 0.39897902E+02</totfact>
</mgrwt>
</event>
<event>
 6    1  0.5391662E-005  0.1031297E+04  0.7818608E-02  0.9082870E-01
         21   -1    0    0  501  502  0.00000000000E+00  0.00000000000E+00  0.51593731882E+03  0.51593731882E+03  0.00000000000E+00 0.  1.
          4   -1    0    0  502    0 -0.00000000000E+00 -0.00000000000E+00 -0.92495972546E+03  0.92495972546E+03  0.00000000000E+00 0.  1.
    9000010    2    1    2  501    0  0.22973059936E+03 -0.11417178347E+03 -0.95375011117E+02  0.10356982729E+04  0.99888096156E+03 0.  0.
        -13    1    3    3    0    0 -0.22395254796E+03 -0.28407714651E+03 -0.33694552046E+03  0.49435499778E+03  0.10566000000E+00 0.  1.
          4    1    3    3  501    0  0.45368314732E+03  0.16990536305E+03  0.24157050934E+03  0.54134327514E+03  0.00000000000E+00 0.  1.
         13    1    1    2    0    0 -0.22973059936E+03  0.11417178347E+03 -0.31364739552E+03  0.40519877135E+03  0.10566000000E+00 0. -1.
<mgrwt>
<rscale>  1 0.72832560E+03</rscale>
<asrwt>0</asrwt>
<pdfrwt beam="1">  1       21 0.79374973E-01 0.10312975E+04</pdfrwt>
<pdfrwt beam="2">  1        4 0.14230150E+00 0.10312975E+04</pdfrwt>
<totfact> 0.26637675E+01</totfact>
</mgrwt>
</event>
<event>
 6    1  0.5391662E-005  0.1011145E+04  0.7818608E-02  0.9509122E-01
          4   -1    0    0  502    0 -0.00000000000E+00  0.00000000000E+00  0.48741416580E+04  0.48741416580E+04  0.00000000000E+00 0.  1.
         21   -1    0    0  501  502  0.00000000000E+00 -0.00000000000E+00 -0.58307819818E+02  0.58307819818E+02  0.00000000000E+00 0.  1.
    9000010    2    1    2  501    0  0.51484463136E+02 -0.16218273072E+02  0.45183518434E+04  0.46301098828E+04  0.10097031563E+04 0.  0.
        -13    1    3    3    0    0  0.15362401947E+03  0.17569864205E+03  0.20310407447E+03  0.30938912135E+03  0.10566000000E+00 0.  1.
          4    1    3    3  501    0 -0.10213955633E+03 -0.19191691512E+03  0.43152477689E+04  0.43207207615E+04  0.00000000000E+00 0.  1.
         13    1    1    2    0    0 -0.51484463136E+02  0.16218273072E+02  0.29748199476E+03  0.30233959498E+03  0.10566000000E+00 0. -1.
<mgrwt>
<rscale>  1 0.48603277E+03</rscale>
<asrwt>0</asrwt>
<pdfrwt beam="2">  1       21 0.89704376E-02 0.10111450E+04</pdfrwt>
<pdfrwt beam="1">  1        4 0.74986763E+00 0.10111450E+04</pdfrwt>
<totfact> 0.70048282E+00</totfact>
</mgrwt>
</event>
<event>
 6    1  0.5391662E-005  0.1084000E+04  0.7818608E-02  0.9033813E-01
         21   -1    0    0  501  502  0.00000000000E+00  0.00000000000E+00  0.15458528587E+04  0.15458528587E+04  0.00000000000E+00 0.  1.
          4   -1    0    0  502    0 -0.00000000000E+00 -0.00000000000E+00 -0.31237743277E+03  0.31237743277E+03  0.00000000000E+00 0.  1.
    9000010    2    1    2  501    0 -0.19170400317E+03  0.18831168847E+03  0.11415309584E+04  0.15742135435E+04  0.10501636229E+04 0.  0.
        -13    1    3    3    0    0 -0.56232870553E+03  0.18660807875E+03  0.32098285936E+03  0.67384431087E+03  0.10566000000E+00 0.  1.
          4    1    3    3  501    0  0.37062470236E+03  0.17036097220E+01  0.82054809900E+03  0.90036923263E+03  0.00000000000E+00 0.  1.
         13    1    1    2    0    0  0.19170400317E+03 -0.18831168847E+03  0.91944467570E+02  0.28401674797E+03  0.10566000000E+00 0. -1.
<mgrwt>
<rscale>  1 0.76488799E+03</rscale>
<asrwt>0</asrwt>
<pdfrwt beam="1">  1       21 0.23782351E+00 0.10839997E+04</pdfrwt>
<pdfrwt beam="2">  1        4 0.48058067E-01 0.10839997E+04</pdfrwt>
<totfact> 0.77416057E+00</totfact>
</mgrwt>
</event>
<event>
 6    1  0.5391662E-005  0.1028091E+04  0.7818608E-02  0.9101542E-01
         21   -1    0    0  501  502  0.00000000000E+00  0.00000000000E+00  0.47088239286E+03  0.47088239286E+03  0.00000000000E+00 0.  1.
          4   -1    0    0  502    0 -0.00000000000E+00 -0.00000000000E+00 -0.92047420008E+03  0.92047420008E+03  0.00000000000E+00 0.  1.
    9000010    2    1    2  501    0 -0.20929781099E+03 -0.11839877180E+03 -0.50374038592E+03  0.11448694278E+04  0.99957380290E+03 0.  0.
        -13    1    3    3    0    0  0.40080499554E+03  0.18039552363E+02 -0.16490416060E+03  0.43377812675E+03  0.10566000000E+00 0.  1.
          4    1    3    3  501    0 -0.61010280653E+03 -0.13643832416E+03 -0.33883622532E+03  0.71109130104E+03  0.00000000000E+00 0.  1.
         13    1    1    2    0    0  0.20929781099E+03  0.11839877180E+03  0.54148578699E+02  0.24648716516E+03  0.10566000000E+00 0. -1.
<mgrwt>
<rscale>  1 0.71496895E+03</rscale>
<asrwt>0</asrwt>
<pdfrwt beam="1">  1       21 0.72443446E-01 0.10280913E+04</pdfrwt>
<pdfrwt beam="2">  1        4 0.14161141E+00 0.10280913E+04</pdfrwt>
<totfact> 0.33438695E+01</totfact>
</mgrwt>
</event>
<event>
 6    1  0.5391662E-005  0.1044947E+04  0.7818608E-02  0.9025551E-01
          4   -1    0    0  502    0 -0.00000000000E+00  0.00000000000E+00  0.83042477845E+03  0.83042477845E+03  0.00000000000E+00 0.  1.
         21   -1    0    0  501  502  0.00000000000E+00 -0.00000000000E+00 -0.64580811735E+03  0.64580811735E+03  0.00000000000E+00 0.  1.
    9000010    2    1    2  501    0 -0.30670326431E+03  0.45901101958E+02 -0.10716428197E+03  0.10504278543E+04  0.99786807253E+03 0.  0.
        -13    1    3    3    0    0 -0.63884484398E+03  0.15307163183E+03 -0.20464719372E+03  0.68806550867E+03  0.10566000000E+00 0.  1.
          4    1    3    3  501    0  0.33214157967E+03 -0.10717052988E+03  0.97482911745E+02  0.36236234559E+03  0.00000000000E+00 0.  1.
         13    1    1    2    0    0  0.30670326431E+03 -0.45901101958E+02  0.29178094307E+03  0.42580504154E+03  0.10566000000E+00 0. -1.
<mgrwt>
<rscale>  1 0.77126361E+03</rscale>
<asrwt>0</asrwt>
<pdfrwt beam="2">  1       21 0.99355095E-01 0.10449471E+04</pdfrwt>
<pdfrwt beam="1">  1        4 0.12775766E+00 0.10449471E+04</pdfrwt>
<totfact> 0.17826161E+01</totfact>
</mgrwt>
</event>
<event>
 6    1  0.5391662E-005  0.1238844E+04  0.7818608E-02  0.8697623E-01
          4   -1    0    0  502    0 -0.00000000000E+00  0.00000000000E+00  0.28497156617E+04  0.28497156617E+04  0.00000000000E+00 0.  1.
         21   -1    0    0  501  502  0.00000000000E+00 -0.00000000000E+00 -0.35992751404E+03  0.35992751404E+03  0.00000000000E+00 0. -1.
    9000010    2    1    2  501    0  0.70950779131E+03  0.17986833148E+03  0.19067662580E+04  0.22738715916E+04  0.99949013511E+03 0.  0.
        -13    1    3    3    0    0  0.61404548506E+03 -0.24542828649E+03  0.58783050972E+03  0.88477772398E+03  0.10566000000E+00 0.  1.
          4    1    3    3  501    0  0.95462306250E+02  0.42529661798E+03  0.13189357482E+04  0.13890938677E+04  0.00000000000E+00 0.  1.
         13    1    1    2    0    0 -0.70950779131E+03 -0.17986833148E+03  0.58302188974E+03  0.93577158414E+03  0.10566000000E+00 0. -1.
<mgrwt>
<rscale>  1 0.10861335E+04</rscale>
<asrwt>0</asrwt>
<pdfrwt beam="2">  1       21 0.55373465E-01 0.12388440E+04</pdfrwt>
<pdfrwt beam="1">  1        4 0.43841778E+00 0.12388440E+04</pdfrwt>
<totfact> 0.68084796E+00</totfact>
</mgrwt>
</event>
<event>
 6    1  0.5391662E-005  0.1015373E+04  0.7818608E-02  0.9282793E-01
          4   -1    0    0  502    0 -0.00000000000E+00  0.00000000000E+00  0.21803598076E+04  0.21803598076E+04  0.00000000000E+00 0.  1.
         21   -1    0    0  501  502  0.00000000000E+00 -0.00000000000E+00 -0.17402154995E+03  0.17402154995E+03  0.00000000000E+00 0.  1.
    9000010    2    1    2  501    0  0.71117107948E+02  0.10101142980E+03  0.13649077145E+04  0.17011630901E+04  0.10078302626E+04 0.  0.
        -13    1    3    3    0    0  0.20278872644E+03  0.40820377620E+03  0.12765146999E+04  0.13554495124E+04  0.10566000000E+00 0.  1.
          4    1    3    3  501    0 -0.13167161849E+03 -0.30719234640E+03  0.88393014581E+02  0.34571357774E+03  0.00000000000E+00 0.  1.
         13    1    1    2    0    0 -0.71117107948E+02 -0.10101142980E+03  0.64143054321E+03  0.65321826744E+03  0.10566000000E+00 0. -1.
<mgrwt>
<rscale>  1 0.59967649E+03</rscale>
<asrwt>0</asrwt>
<pdfrwt beam="2">  1       21 0.26772548E-01 0.10153732E+04</pdfrwt>
<pdfrwt beam="1">  1        4 0.33543995E+00 0.10153732E+04</pdfrwt>
<totfact> 0.81503660E+01</totfact>
</mgrwt>
</event>
