<event>
 8    1  0.6759491E-006  0.1015665E+04  0.7818608E-02  0.8760589E-01
         21   -1    0    0  503  502  0.00000000000E+00  0.00000000000E+00  0.12401752958E+04  0.12401752958E+04  0.00000000000E+00 0. -1.
         21   -1    0    0  501  503 -0.00000000000E+00 -0.00000000000E+00 -0.10206941825E+04  0.10206941825E+04  0.00000000000E+00 0. -1.
    9000010    2    1    2  501    0  0.43184062190E+02  0.17692889283E+03 -0.37908493274E+03  0.10841038912E+04  0.99920326475E+03 0.  0.
   -9000010    2    1    2    0  502 -0.43184062190E+02 -0.17692889283E+03  0.59856604600E+03  0.11767655872E+04  0.99665803531E+03 0.  0.
        -13    1    3    3    0    0  0.23744822942E+03  0.10522396343E+03 -0.67482260758E+03  0.72307628020E+03  0.10566000000E+00 0.  1.
         13    1    4    4    0    0 -0.13758937447E+03  0.22631073654E+03  0.70166064667E+03  0.74998337294E+03  0.10566000000E+00 0. -1.
          4    1    3    3  501    0 -0.19426416723E+03  0.71704929404E+02  0.29573767484E+03  0.36102761097E+03  0.00000000000E+00 0.  1.
         -4    1    4    4    0  502  0.94405312281E+02 -0.40323962937E+03 -0.10309460067E+03  0.42678221421E+03  0.00000000000E+00 0. -1.
</event>
<event>
 8    1  0.6759491E-006  0.1014914E+04  0.7818608E-02  0.8761429E-01
         21   -1    0    0  503  502  0.00000000000E+00  0.00000000000E+00  0.15073576393E+04  0.15073576393E+04  0.00000000000E+00 0. -1.
         21   -1    0    0  501  503 -0.00000000000E+00 -0.00000000000E+00 -0.97731914799E+03  0.97731914799E+03  0.00000000000E+00 0. -1.
    9000010    2    1    2  501    0 -0.27824095446E+02 -0.12575652879E+03 -0.41906410473E+03  0.10951278374E+04  0.10035444044E+04 0.  0.
   -9000010    2    1    2    0  502  0.27824095446E+02  0.12575652879E+03  0.94910259601E+03  0.13895489498E+04  0.10067083298E+04 0.  0.
        -13    1    3    3    0    0 -0.48234678657E+03 -0.28097081832E+02 -0.21866549165E+02  0.48365899728E+03  0.10566000000E+00 0.  1.
         13    1    4    4    0    0 -0.20529838308E+03  0.28154014902E+03 -0.49852885079E+02  0.35199091312E+03  0.10566000000E+00 0. -1.
          4    1    3    3  501    0  0.45452269112E+03 -0.97659446962E+02 -0.39719755557E+03  0.61146884015E+03  0.00000000000E+00 0.  1.
         -4    1    4    4    0  502  0.23312247852E+03 -0.15578362023E+03  0.99895548109E+03  0.10375580367E+04  0.00000000000E+00 0. -1.
</event>
<event>
 8    1  0.6759491E-006  0.9844735E+03  0.7818608E-02  0.8791201E-01
         21   -1    0    0  501  502  0.00000000000E+00  0.00000000000E+00  0.15535502348E+04  0.15535502348E+04  0.00000000000E+00 0.  1.
         21   -1    0    0  502  503 -0.00000000000E+00 -0.00000000000E+00 -0.66985338567E+03  0.66985338567E+03  0.00000000000E+00 0.  1.
    9000010    2    1    2  501    0  0.34975234890E+02  0.10002224054E+03  0.13360710395E+03  0.98573536446E+03  0.97087364516E+03 0.  0.
   -9000010    2    1    2    0  503 -0.34975234890E+02 -0.10002224054E+03  0.75008974517E+03  0.12376682560E+04  0.97875449958E+03 0.  0.
        -13    1    3    3    0    0 -0.12763355551E+03 -0.32567613495E+03  0.33789472602E+03  0.48634157380E+03  0.10566000000E+00 0.  1.
         13    1    4    4    0    0 -0.46532622808E+02  0.16297768805E+03  0.91265888093E+03  0.92826357027E+03  0.10566000000E+00 0. -1.
          4    1    3    3  501    0  0.16260879040E+03  0.42569837549E+03 -0.20428762207E+03  0.49939379065E+03  0.00000000000E+00 0.  1.
         -4    1    4    4    0  503  0.11557387918E+02 -0.26299992858E+03 -0.16256913576E+03  0.30940468573E+03  0.00000000000E+00 0. -1.
</event>
<event>
 8    1  0.6759491E-006  0.1035967E+04  0.7818608E-02  0.8743439E-01
         21   -1    0    0  503  502  0.00000000000E+00  0.00000000000E+00  0.10518494556E+04  0.10518494556E+04  0.00000000000E+00 0.  1.
         21   -1    0    0  501  503 -0.00000000000E+00 -0.00000000000E+00 -0.11023206028E+04  0.11023206028E+04  0.00000000000E+00 0.  1.
    9000010    2    1    2  501    0 -0.23976207974E+03 -0.12866259469E+03  0.28325479729E+03  0.10657766728E+04  0.99076067643E+03 0.  0.
   -9000010    2    1    2    0  502  0.23976207974E+03  0.12866259469E+03 -0.33372594449E+03  0.10883933856E+04  0.99959353623E+03 0.  0.
        -13    1    3    3    0    0  0.32468613970E+03  0.15068919307E+03 -0.35874835723E+02  0.35974343250E+03  0.10566000000E+00 0.  1.
         13    1    4    4    0    0  0.60257137772E+03 -0.68110753958E+02 -0.29350343062E+03  0.67370291302E+03  0.10566000000E+00 0. -1.
          4    1    3    3  501    0 -0.56444821944E+03 -0.27935178776E+03  0.31912963302E+03  0.70603324031E+03  0.00000000000E+00 0.  1.
         -4    1    4    4    0  502 -0.36280929798E+03  0.19677334865E+03 -0.40222513865E+02  0.41469047260E+03  0.00000000000E+00 0. -1.
</event>
<event>
 8    1  0.6759491E-006  0.1044910E+04  0.7818608E-02  0.8756098E-01
         21   -1    0    0  503  502  0.00000000000E+00  0.00000000000E+00  0.35508670146E+03  0.35508670146E+03  0.00000000000E+00 0.  1.
         21   -1    0    0  501  503 -0.00000000000E+00 -0.00000000000E+00 -0.31126089051E+04  0.31126089051E+04  0.00000000000E+00 0.  1.
    9000010    2    1    2  501    0  0.19572412348E+03  0.19677492318E+03 -0.19897025165E+04  0.22473880452E+04  0.10073770985E+04 0.  0.
   -9000010    2    1    2    0  502 -0.19572412348E+03 -0.19677492318E+03 -0.76781968713E+03  0.12203075614E+04  0.90695929869E+03 0.  0.
        -13    1    3    3    0    0 -0.46005475486E+02  0.55570139685E+03 -0.75170358693E+03  0.93593741244E+03  0.10566000000E+00 0.  1.
         13    1    4    4    0    0 -0.13243074538E+03 -0.48283339258E+03 -0.78024829627E+03  0.92706709698E+03  0.10566000000E+00 0. -1.
          4    1    3    3  501    0  0.24172959896E+03 -0.35892647367E+03 -0.12379989295E+04  0.13114506327E+04  0.00000000000E+00 0.  1.
         -4    1    4    4    0  502 -0.63293378100E+02  0.28605846940E+03  0.12428609133E+02  0.29324046439E+03  0.00000000000E+00 0. -1.
</event>
<event>
 8    1  0.6759491E-006  0.1089416E+04  0.7818608E-02  0.8698953E-01
         21   -1    0    0  501  502  0.00000000000E+00  0.00000000000E+00  0.17598487766E+04  0.17598487766E+04  0.00000000000E+00 0. -1.
         21   -1    0    0  502  503 -0.00000000000E+00 -0.00000000000E+00 -0.77444685898E+03  0.77444685898E+03  0.00000000000E+00 0. -1.
    9000010    2    1    2  501    0 -0.23386874783E+03 -0.31299818883E+03  0.97063928260E+03  0.14447793857E+04  0.99628530004E+03 0.  0.
   -9000010    2    1    2    0  503  0.23386874783E+03  0.31299818883E+03  0.14762635064E+02  0.10895162499E+04  0.10169391653E+04 0.  0.
        -13    1    3    3    0    0  0.70981709604E+02  0.33036652525E+03  0.45018876778E+03  0.56289464547E+03  0.10566000000E+00 0.  1.
         13    1    4    4    0    0 -0.19746782632E+03  0.55850902097E+03  0.27661504288E+02  0.59303544491E+03  0.10566000000E+00 0. -1.
          4    1    3    3  501    0 -0.30485045744E+03 -0.64336471408E+03  0.52045051483E+03  0.88188474026E+03  0.00000000000E+00 0.  1.
         -4    1    4    4    0  503  0.43133657415E+03 -0.24551083214E+03 -0.12898869224E+02  0.49648080499E+03  0.00000000000E+00 0. -1.
</event>
<event>
 8    1  0.6759491E-006  0.1012820E+04  0.7818608E-02  0.8763241E-01
         21   -1    0    0  501  502  0.00000000000E+00  0.00000000000E+00  0.18852731034E+04  0.18852731034E+04  0.00000000000E+00 0. -1.
         21   -1    0    0  502  503 -0.00000000000E+00 -0.00000000000E+00 -0.72354115106E+03  0.72354115106E+03  0.00000000000E+00 0. -1.
    9000010    2    1    2  501    0 -0.39847086476E+02  0.17347912922E+03  0.12323965049E+04  0.15935322228E+04  0.99441490395E+03 0.  0.
   -9000010    2    1    2    0  503  0.39847086476E+02 -0.17347912922E+03 -0.70664552571E+02  0.10152820317E+04  0.99705633053E+03 0.  0.
        -13    1    3    3    0    0 -0.12505888907E+03 -0.39958462646E+03  0.39770452398E+03  0.57747424098E+03  0.10566000000E+00 0.  1.
         13    1    4    4    0    0 -0.29641491342E+03 -0.47543314393E+03 -0.21522554321E+02  0.56067968284E+03  0.10566000000E+00 0. -1.
          4    1    3    3  501    0  0.85211802597E+02  0.57306375568E+03  0.83469198093E+03  0.10160579818E+04  0.00000000000E+00 0.  1.
         -4    1    4    4    0  503  0.33626199989E+03  0.30195401470E+03 -0.49141998250E+02  0.45460234883E+03  0.00000000000E+00 0. -1.
</event>
<event>
 8    1  0.6759491E-006  0.1007183E+04  0.7818608E-02  0.8769778E-01
         21   -1    0    0  501  502  0.00000000000E+00  0.00000000000E+00  0.88818443286E+03  0.88818443286E+03  0.00000000000E+00 0. -1.
         21   -1    0    0  502  503 -0.00000000000E+00 -0.00000000000E+00 -0.13070725279E+04  0.13070725279E+04  0.00000000000E+00 0. -1.
    9000010    2    1    2  501    0  0.16742089735E+03  0.85383402490E+02  0.19196843867E+03  0.10173084466E+04  0.98119545037E+03 0.  0.
   -9000010    2    1    2    0  503 -0.16742089735E+03 -0.85383402490E+02 -0.61085653367E+03  0.11779485141E+04  0.98949326165E+03 0.  0.
        -13    1    3    3    0    0  0.27700578276E+03  0.49281130347E+03  0.18672918339E+03  0.59536793968E+03  0.10566000000E+00 0.  1.
         13    1    4    4    0    0 -0.10893218079E+03  0.36921960949E+03  0.34378664125E+02  0.38648576138E+03  0.10566000000E+00 0. -1.
          4    1    3    3  501    0 -0.10958488541E+03 -0.40742790098E+03  0.52392552813E+01  0.42194050694E+03  0.00000000000E+00 0.  1.
         -4    1    4    4    0  503 -0.58488716567E+02 -0.45460301198E+03 -0.64523519779E+03  0.79146275272E+03  0.00000000000E+00 0. -1.
</event>
<event>
 8    1  0.6759491E-006  0.1047599E+04  0.7818608E-02  0.8731456E-01
         21   -1    0    0  503  502  0.00000000000E+00  0.00000000000E+00  0.69528329598E+03  0.69528329598E+03  0.00000000000E+00 0. -1.
         21   -1    0    0  501  503 -0.00000000000E+00 -0.00000000000E+00 -0.17691820680E+04  0.17691820680E+04  0.00000000000E+00 0. -1.
    9000010    2    1    2  501    0 -0.19927448679E+03 -0.19692894632E+03 -0.94439630014E+03  0.14104427368E+04  0.10094419306E+04 0.  0.
   -9000010    2    1    2    0  502  0.19927448679E+03  0.19692894632E+03 -0.12950247187E+03  0.10540226271E+04  0.10078201612E+04 0.  0.
        -13    1    3    3    0    0 -0.52600629767E+03 -0.39908816964E+03 -0.54383310956E+03  0.85539958765E+03  0.10566000000E+00 0.  1.
         13    1    4    4    0    0 -0.18445258434E+03  0.16394514679E+03 -0.47586222568E+03  0.53604630026E+03  0.10566000000E+00 0. -1.
          4    1    3    3  501    0  0.32673181088E+03  0.20215922332E+03 -0.40056319058E+03  0.55504314919E+03  0.00000000000E+00 0.  1.
         -4    1    4    4    0  502  0.38372707112E+03  0.32983799527E+02  0.34635975381E+03  0.51797632688E+03  0.00000000000E+00 0. -1.
</event>
<event>
 8    1  0.6759491E-006  0.1029823E+04  0.7818608E-02  0.8761127E-01
         21   -1    0    0  501  502  0.00000000000E+00  0.00000000000E+00  0.95927012403E+03  0.95927012403E+03  0.00000000000E+00 0.  1.
         21   -1    0    0  502  503 -0.00000000000E+00 -0.00000000000E+00 -0.13806619975E+04  0.13806619975E+04  0.00000000000E+00 0.  1.
    9000010    2    1    2  501    0 -0.10142295760E+03  0.90158180895E+02  0.37335302351E+03  0.10391034816E+04  0.96017105325E+03 0.  0.
   -9000010    2    1    2    0  503  0.10142295760E+03 -0.90158180895E+02 -0.79474489693E+03  0.13008286398E+04  0.10208430757E+04 0.  0.
        -13    1    3    3    0    0  0.17727536022E+03  0.40054513528E+03 -0.54678765832E+02  0.44142126969E+03  0.10566000000E+00 0.  1.
         13    1    4    4    0    0 -0.38045864650E+03 -0.17688496829E+03 -0.67825518112E+03  0.79753819694E+03  0.10566000000E+00 0. -1.
          4    1    3    3  501    0 -0.27869831782E+03 -0.31038695438E+03  0.42803178934E+03  0.59768221196E+03  0.00000000000E+00 0.  1.
         -4    1    4    4    0  503  0.48188160410E+03  0.86726787395E+02 -0.11648971581E+03  0.50329044290E+03  0.00000000000E+00 0. -1.
</event>
<event>
 8    1  0.6759491E-006  0.1013242E+04  0.7818608E-02  0.8773894E-01
         21   -1    0    0  503  502  0.00000000000E+00  0.00000000000E+00  0.20009611892E+04  0.20009611892E+04  0.00000000000E+00 0.  1.
         21   -1    0    0  501  503 -0.00000000000E+00 -0.00000000000E+00 -0.49351439127E+03  0.49351439127E+03  0.00000000000E+00 0.  1.
    9000010    2    1    2  501    0 -0.45646478575E+02 -0.22930367875E+01  0.64695499611E+03  0.12021686049E+04  0.10122103183E+04 0.  0.
   -9000010    2    1    2    0  502  0.45646478575E+02  0.22930367875E+01  0.86049180182E+03  0.12923069756E+04  0.96307960165E+03 0.  0.
        -13    1    3    3    0    0 -0.24283097731E+02 -0.18852758821E+03  0.88158813657E+03  0.90184808812E+03  0.10566000000E+00 0.  1.
         13    1    4    4    0    0 -0.77795588900E+02  0.11034310966E+01 -0.20521772732E+03  0.21947140585E+03  0.10566000000E+00 0. -1.
          4    1    3    3  501    0 -0.21363380843E+02  0.18623455142E+03 -0.23463314046E+03  0.30032051676E+03  0.00000000000E+00 0.  1.
         -4    1    4    4    0  502  0.12344206747E+03  0.11896056908E+01  0.10657095291E+04  0.10728355697E+04  0.00000000000E+00 0. -1.
</event>
<event>
 8    1  0.6759491E-006  0.1040172E+04  0.7818608E-02  0.8740043E-01
         21   -1    0    0  503  502  0.00000000000E+00  0.00000000000E+00  0.11296321819E+04  0.11296321819E+04  0.00000000000E+00 0. -1.
         21   -1    0    0  501  503 -0.00000000000E+00 -0.00000000000E+00 -0.98116366192E+03  0.98116366192E+03  0.00000000000E+00 0. -1.
    9000010    2    1    2  501    0  0.26154198169E+03 -0.14346397093E+02 -0.11902287480E+03  0.10367798861E+04  0.99606026941E+03 0.  0.
   -9000010    2    1    2    0  502 -0.26154198169E+03  0.14346397093E+02  0.26749139474E+03  0.10740159576E+04  0.10066521761E+04 0.  0.
        -13    1    3    3    0    0  0.59159588666E+03  0.16002915468E+03 -0.21820080762E+03  0.65054333220E+03  0.10566000000E+00 0.  1.
         13    1    4    4    0    0 -0.48995621798E+03 -0.46862237657E+02 -0.21468405259E+03  0.53697524939E+03  0.10566000000E+00 0. -1.
          4    1    3    3  501    0 -0.33005390497E+03 -0.17437555177E+03  0.99177932821E+02  0.38623655394E+03  0.00000000000E+00 0.  1.
         -4    1    4    4    0  502  0.22841423629E+03  0.61208634750E+02  0.48217544733E+03  0.53704070825E+03  0.00000000000E+00 0. -1.
</event>
<event>
 8    1  0.6759491E-006  0.1061386E+04  0.7818608E-02  0.8726689E-01
         21   -1    0    0  503  502  0.00000000000E+00  0.00000000000E+00  0.89596286207E+03  0.89596286207E+03  0.00000000000E+00 0. -1.
         21   -1    0    0  501  503 -0.00000000000E+00 -0.00000000000E+00 -0.19188865666E+04  0.19188865666E+04  0.00000000000E+00 0. -1.
    9000010    2    1    2  501    0  0.15711482298E+03 -0.14623012706E+03 -0.13682799756E+04  0.17316844729E+04  0.10394578896E+04 0.  0.
   -9000010    2    1    2    0  502 -0.15711482298E+03  0.14623012706E+03  0.34535627106E+03  0.10831649558E+04  0.10039457405E+04 0.  0.
        -13    1    3    3    0    0  0.41322479007E+03  0.63753428628E+02 -0.11252551930E+03  0.43299102814E+03  0.10566000000E+00 0.  1.
         13    1    4    4    0    0 -0.34961835808E+03  0.32254160437E+03 -0.17026599609E+03  0.50522925830E+03  0.10566000000E+00 0. -1.
          4    1    3    3  501    0 -0.25610996710E+03 -0.20998355569E+03 -0.12557544563E+04  0.12986934447E+04  0.00000000000E+00 0.  1.
         -4    1    4    4    0  502  0.19250353510E+03 -0.17631147730E+03  0.51562226715E+03  0.57793569749E+03  0.00000000000E+00 0. -1.
</event>
<event>
 8    1  0.6759491E-006  0.1091076E+04  0.7818608E-02  0.8698840E-01
         21   -1    0    0  501  502  0.00000000000E+00  0.00000000000E+00  0.68590016975E+03  0.68590016975E+03  0.00000000000E+00 0.  1.
         21   -1    0    0  502  503 -0.00000000000E+00 -0.00000000000E+00 -0.17616312917E+04  0.17616312917E+04  0.00000000000E+00 0.  1.
    9000010    2    1    2  501    0 -0.27905086326E+03  0.27181497967E+03 -0.30708065371E+03  0.11334663923E+04  0.10191637587E+04 0.  0.
   -9000010    2    1    2    0  503  0.27905086326E+03 -0.27181497967E+03 -0.76865046820E+03  0.13140650691E+04  0.99206385692E+03 0.  0.
        -13    1    3    3    0    0 -0.41366968279E+03 -0.28524372295E+03 -0.48749700378E+02  0.50483970960E+03  0.10566000000E+00 0.  1.
         13    1    4    4    0    0 -0.28927310918E+03 -0.38570571908E+03 -0.40631949668E+03  0.63051041068E+03  0.10566000000E+00 0. -1.
          4    1    3    3  501    0  0.13461881953E+03  0.55705870262E+03 -0.25833095334E+03  0.62862668269E+03  0.00000000000E+00 0.  1.
         -4    1    4    4    0  503  0.56832397244E+03  0.11389073941E+03 -0.36233097152E+03  0.68355465846E+03  0.00000000000E+00 0. -1.
</event>
<event>
 8    1  0.6759491E-006  0.1285733E+04  0.7818608E-02  0.8549590E-01
         21   -1    0    0  503  502  0.00000000000E+00  0.00000000000E+00  0.65722244999E+03  0.65722244999E+03  0.00000000000E+00 0.  1.
         21   -1    0    0  501  503 -0.00000000000E+00 -0.00000000000E+00 -0.27885951225E+04  0.27885951225E+04  0.00000000000E+00 0.  1.
    9000010    2    1    2  501    0 -0.55714158998E+03  0.55932404018E+03 -0.16462122982E+04  0.20715938615E+04  0.97889532784E+03 0.  0.
   -9000010    2    1    2    0  502  0.55714158998E+03 -0.55932404018E+03 -0.48516037434E+03  0.13742237111E+04  0.10148202235E+04 0.  0.
        -13    1    3    3    0    0 -0.25182764174E+03 -0.17990561276E+03 -0.98936534177E+03  0.10366421665E+04  0.10566000000E+00 0.  1.
         13    1    4    4    0    0 -0.26238257612E+03 -0.73293164544E+02  0.56482242667E+02  0.27822070218E+03  0.10566000000E+00 0. -1.
          4    1    3    3  501    0 -0.30531394824E+03  0.73922965294E+03 -0.65684695644E+03  0.10349516950E+04  0.00000000000E+00 0.  1.
         -4    1    4    4    0  502  0.81952416611E+03 -0.48603087564E+03 -0.54164261701E+03  0.10960030089E+04  0.00000000000E+00 0. -1.
</event>
<event>
 8    1  0.6759491E-006  0.1030519E+04  0.7818608E-02  0.8749668E-01
         21   -1    0    0  503  502  0.00000000000E+00  0.00000000000E+00  0.95688610502E+03  0.95688610502E+03  0.00000000000E+00 0. -1.
         21   -1    0    0  501  503 -0.00000000000E+00 -0.00000000000E+00 -0.12215557882E+04  0.12215557882E+04  0.00000000000E+00 0. -1.
    9000010    2    1    2  501    0  0.21247516498E+03  0.10314937673E+03 -0.48264254385E+03  0.11251225018E+04  0.98851976671E+03 0.  0.
   -9000010    2    1    2    0  502 -0.21247516498E+03 -0.10314937673E+03  0.21797286068E+03  0.10533193915E+04  0.10030872758E+04 0.  0.
        -13    1    3    3    0    0  0.52963208254E+03 -0.20162195888E+01  0.10145676836E+02  0.52973309687E+03  0.10566000000E+00 0.  1.
         13    1    4    4    0    0 -0.48468770802E+03  0.27854568310E+03  0.15627700552E+03  0.58045877158E+03  0.10566000000E+00 0. -1.
          4    1    3    3  501    0 -0.31715691756E+03  0.10516559632E+03 -0.49278822068E+03  0.59538940489E+03  0.00000000000E+00 0.  1.
         -4    1    4    4    0  502  0.27221254305E+03 -0.38169505983E+03  0.61695855164E+02  0.47286061988E+03  0.00000000000E+00 0. -1.
</event>
<event>
 8    1  0.6759491E-006  0.1027996E+04  0.7818608E-02  0.8751792E-01
         21   -1    0    0  501  502  0.00000000000E+00  0.00000000000E+00  0.83992184859E+03  0.83992184859E+03  0.00000000000E+00 0.  1.
         21   -1    0    0  502  503 -0.00000000000E+00 -0.00000000000E+00 -0.14995236504E+04  0.14995236504E+04  0.00000000000E+00 0.  1.
    9000010    2    1    2  501    0  0.15729117739E+03 -0.88131319986E+02  0.15690281546E+03  0.10266408374E+04  0.99843140554E+03 0.  0.
   -9000010    2    1    2    0  503 -0.15729117739E+03  0.88131319986E+02 -0.81650461724E+03  0.13128046615E+04  0.10120615817E+04 0.  0.
        -13    1    3    3    0    0  0.15437281293E+03 -0.22927745112E+03 -0.38089780732E+03  0.47061902399E+03  0.10566000000E+00 0.  1.
         13    1    4    4    0    0 -0.22306327751E+03  0.38418891216E+03 -0.89530006779E+03  0.99946013855E+03  0.10566000000E+00 0. -1.
          4    1    3    3  501    0  0.29183644517E+01  0.14114613113E+03  0.53780062277E+03  0.55602181345E+03  0.00000000000E+00 0.  1.
         -4    1    4    4    0  503  0.65772100127E+02 -0.29605759217E+03  0.78795450555E+02  0.31334452295E+03  0.00000000000E+00 0. -1.
</event>
<event>
 8    1  0.6759491E-006  0.1040911E+04  0.7818608E-02  0.8739119E-01
         21   -1    0    0  501  502  0.00000000000E+00  0.00000000000E+00  0.63383123927E+03  0.63383123927E+03  0.00000000000E+00 0.  1.
         21   -1    0    0  502  503 -0.00000000000E+00 -0.00000000000E+00 -0.20745071749E+04  0.20745071749E+04  0.00000000000E+00 0.  1.
    9000010    2    1    2  501    0  0.25353454024E+03 -0.24813642960E+02 -0.13820823918E+03  0.10410296875E+04  0.99987289842E+03 0.  0.
   -9000010    2    1    2    0  503 -0.25353454024E+03  0.24813642960E+02 -0.13024676964E+04  0.16673087266E+04  0.10092575537E+04 0.  0.
        -13    1    3    3    0    0  0.34238689250E+03  0.11985835619E+03 -0.51373757404E+03  0.62890469536E+03  0.10566000000E+00 0.  1.
         13    1    4    4    0    0 -0.27076427469E+03  0.49820005615E+03 -0.69386966835E+03  0.89608689100E+03  0.10566000000E+00 0. -1.
          4    1    3    3  501    0 -0.88852352268E+02 -0.14467199915E+03  0.37552933486E+03  0.41212499218E+03  0.00000000000E+00 0.  1.
         -4    1    4    4    0  503  0.17229734456E+02 -0.47338641319E+03 -0.60859802805E+03  0.77122183559E+03  0.00000000000E+00 0. -1.
</event>
<event>
 8    1  0.6759491E-006  0.1182035E+04  0.7818608E-02  0.8620991E-01
         21   -1    0    0  503  502  0.00000000000E+00  0.00000000000E+00  0.19915288679E+04  0.19915288679E+04  0.00000000000E+00 0.  1.
         21   -1    0    0  501  503 -0.00000000000E+00 -0.00000000000E+00 -0.90765447274E+03  0.90765447274E+03  0.00000000000E+00 0.  1.
    9000010    2    1    2  501    0  0.62957093657E+03  0.84545775116E+02  0.12359465363E+04  0.17074065561E+04  0.99205128645E+03 0.  0.
   -9000010    2    1    2    0  502 -0.62957093657E+03 -0.84545775116E+02 -0.15207214113E+03  0.11917767845E+04  0.99684422844E+03 0.  0.
        -13    1    3    3    0    0  0.90044997557E+03  0.93534453499E+02  0.91191540607E+03  0.12849702609E+04  0.10566000000E+00 0.  1.
         13    1    4    4    0    0 -0.82074487120E+02  0.33015003210E+03  0.22536855796E+03  0.40807629582E+03  0.10566000000E+00 0. -1.
          4    1    3    3  501    0 -0.27087903900E+03 -0.89886783830E+01  0.32403113019E+03  0.42243629513E+03  0.00000000000E+00 0.  1.
         -4    1    4    4    0  502 -0.54749644945E+03 -0.41469580721E+03 -0.37744069909E+03  0.78370048871E+03  0.00000000000E+00 0. -1.
</event>
<event>
 8    1  0.6759491E-006  0.1012565E+04  0.7818608E-02  0.8766166E-01
         21   -1    0    0  503  502  0.00000000000E+00  0.00000000000E+00  0.19718098428E+04  0.19718098428E+04  0.00000000000E+00 0. -1.
         21   -1    0    0  501  503 -0.00000000000E+00 -0.00000000000E+00 -0.53205501886E+03  0.53205501886E+03  0.00000000000E+00 0. -1.
    9000010    2    1    2  501    0 -0.13879167897E+03  0.10295460159E+03  0.47653092738E+03  0.11063358764E+04  0.98337915705E+03 0.  0.
   -9000010    2    1    2    0  502  0.13879167897E+03 -0.10295460159E+03  0.96322389660E+03  0.13975289853E+04  0.99770948157E+03 0.  0.
        -13    1    3    3    0    0 -0.32526187764E+03  0.47613063316E+03  0.22348624075E+03  0.61841877385E+03  0.10566000000E+00 0.  1.
         13    1    4    4    0    0  0.12904890671E+03  0.31619436068E+03 -0.59384721890E+01  0.34156664161E+03  0.10566000000E+00 0. -1.
          4    1    3    3  501    0  0.18647019867E+03 -0.37317603157E+03  0.25304468663E+03  0.48791710255E+03  0.00000000000E+00 0.  1.
         -4    1    4    4    0  502  0.97427722551E+01 -0.41914896227E+03  0.96916236879E+03  0.10559623437E+04  0.00000000000E+00 0. -1.
</event>
<event>
 8    1  0.6759491E-006  0.1101410E+04  0.7818608E-02  0.8685872E-01
         21   -1    0    0  501  502  0.00000000000E+00  0.00000000000E+00  0.99825238846E+03  0.99825238846E+03  0.00000000000E+00 0. -1.
         21   -1    0    0  502  503 -0.00000000000E+00 -0.00000000000E+00 -0.12770919955E+04  0.12770919955E+04  0.00000000000E+00 0. -1.
    9000010    2    1    2  501    0 -0.35246800582E+03 -0.27388465130E+03  0.12300010726E+03  0.11029195454E+04  0.10010274721E+04 0.  0.
   -9000010    2    1    2    0  503  0.35246800582E+03  0.27388465130E+03 -0.40183971427E+03  0.11724248385E+04  0.10069053325E+04 0.  0.
        -13    1    3    3    0    0 -0.21010310485E+03  0.28829893311E+03 -0.22957711337E+03  0.42422311541E+03  0.10566000000E+00 0.  1.
         13    1    4    4    0    0  0.49819633878E+03  0.53533305478E+03 -0.84431629799E+02  0.73614521855E+03  0.10566000000E+00 0. -1.
          4    1    3    3  501    0 -0.14236490097E+03 -0.56218358441E+03  0.35257722062E+03  0.67869643001E+03  0.00000000000E+00 0.  1.
         -4    1    4    4    0  503 -0.14572833296E+03 -0.26144840348E+03 -0.31740808447E+03  0.43627961996E+03  0.00000000000E+00 0. -1.
</event>
<event>
 8    1  0.6759491E-006  0.1093207E+04  0.7818608E-02  0.8696265E-01
         21   -1    0    0  503  502  0.00000000000E+00  0.00000000000E+00  0.13675271021E+04  0.13675271021E+04  0.00000000000E+00 0. -1.
         21   -1    0    0  501  503 -0.00000000000E+00 -0.00000000000E+00 -0.10470441837E+04  0.10470441837E+04  0.00000000000E+00 0. -1.
    9000010    2    1    2  501    0  0.25090451455E+03  0.33404148950E+03 -0.35327005206E+03  0.11488693617E+04  0.10102298196E+04 0.  0.
   -9000010    2    1    2    0  502 -0.25090451455E+03 -0.33404148950E+03  0.67375297048E+03  0.12657019241E+04  0.98667193301E+03 0.  0.
        -13    1    3    3    0    0  0.22736676588E+03  0.66946057151E+03 -0.39527881745E+03  0.81001139357E+03  0.10566000000E+00 0.  1.
         13    1    4    4    0    0 -0.44562224807E+03  0.12390639759E+02 -0.41230712246E+02  0.44769710600E+03  0.10566000000E+00 0. -1.
          4    1    3    3  501    0  0.23537748671E+02 -0.33541908202E+03  0.42008765384E+02  0.33885796813E+03  0.00000000000E+00 0.  1.
         -4    1    4    4    0  502  0.19471773352E+03 -0.34643212925E+03  0.71498368272E+03  0.81800481813E+03  0.00000000000E+00 0. -1.
</event>
<event>
 8    1  0.6759491E-006  0.1102813E+04  0.7818608E-02  0.8686269E-01
         21   -1    0    0  503  502  0.00000000000E+00  0.00000000000E+00  0.13813012355E+04  0.13813012355E+04  0.00000000000E+00 0.  1.
         21   -1    0    0  501  503 -0.00000000000E+00 -0.00000000000E+00 -0.87691232668E+03  0.87691232668E+03  0.00000000000E+00 0.  1.
    9000010    2    1    2  501    0 -0.31706806028E+03 -0.28155366488E+03  0.35202646825E+03  0.11576349243E+04  0.10180330851E+04 0.  0.
   -9000010    2    1    2    0  502  0.31706806028E+03  0.28155366488E+03  0.15236244053E+03  0.11005786379E+04  0.10041187200E+04 0.  0.
        -13    1    3    3    0    0 -0.46257107044E+03 -0.43203472742E+03 -0.11731568859E+03  0.64373052037E+03  0.10566000000E+00 0.  1.
         13    1    4    4    0    0  0.32377602780E+03 -0.20558469398E+03 -0.25913221600E+03  0.46286661050E+03  0.10566000000E+00 0. -1.
          4    1    3    3  501    0  0.14550301016E+03  0.15048106254E+03  0.46934215684E+03  0.51390440389E+03  0.00000000000E+00 0.  1.
         -4    1    4    4    0  502 -0.67079675224E+01  0.48713835886E+03  0.41149465654E+03  0.63771202738E+03  0.00000000000E+00 0. -1.
</event>
<event>
 8    1  0.6759491E-006  0.1013639E+04  0.7818608E-02  0.8763465E-01
         21   -1    0    0  501  502  0.00000000000E+00  0.00000000000E+00  0.12037197649E+04  0.12037197649E+04  0.00000000000E+00 0. -1.
         21   -1    0    0  502  503 -0.00000000000E+00 -0.00000000000E+00 -0.14088694090E+04  0.14088694090E+04  0.00000000000E+00 0. -1.
    9000010    2    1    2  501    0 -0.76166879782E+02  0.16289406886E+03 -0.92669352969E+03  0.13683670729E+04  0.99062186371E+03 0.  0.
   -9000010    2    1    2    0  503  0.76166879782E+02 -0.16289406886E+03  0.72154388565E+03  0.12442221011E+04  0.99756061801E+03 0.  0.
        -13    1    3    3    0    0 -0.13474336237E+02 -0.28571501494E+03  0.51273286969E+02  0.29059179035E+03  0.10566000000E+00 0.  1.
         13    1    4    4    0    0 -0.16740701348E+03 -0.39813906148E+03  0.78849923738E+03  0.89903886398E+03  0.10566000000E+00 0. -1.
          4    1    3    3  501    0 -0.62692543545E+02  0.44860908380E+03 -0.97796681666E+03  0.10777752825E+04  0.00000000000E+00 0.  1.
         -4    1    4    4    0  503  0.24357389326E+03  0.23524499262E+03 -0.66955351738E+02  0.34518323707E+03  0.00000000000E+00 0. -1.
</event>
<event>
 8    1  0.6759491E-006  0.1038035E+04  0.7818608E-02  0.8746376E-01
         21   -1    0    0  501  502  0.00000000000E+00  0.00000000000E+00  0.66760936993E+03  0.66760936993E+03  0.00000000000E+00 0.  1.
         21   -1    0    0  502  503 -0.00000000000E+00 -0.00000000000E+00 -0.19401708785E+04  0.19401708785E+04  0.00000000000E+00 0.  1.
    9000010    2    1    2  501    0  0.26002578950E+03 -0.19494963228E+02 -0.58197391824E+02  0.10102205423E+04  0.97425106768E+03 0.  0.
   -9000010    2    1    2    0  503 -0.26002578950E+03  0.19494963228E+02 -0.12143641167E+04  0.15975597061E+04  0.10047503878E+04 0.  0.
        -13    1    3    3    0    0 -0.58815859724E+02  0.41593089541E+03  0.12829831040E+03  0.43922463811E+03  0.10566000000E+00 0.  1.
         13    1    4    4    0    0  0.17342063399E+03 -0.96567930429E+02 -0.11220167067E+04  0.11394391527E+04  0.10566000000E+00 0. -1.
          4    1    3    3  501    0  0.31884164922E+03 -0.43542585864E+03 -0.18649570223E+03  0.57099590419E+03  0.00000000000E+00 0.  1.
         -4    1    4    4    0  503 -0.43344642349E+03  0.11606289366E+03 -0.92347410050E+02  0.45812055342E+03  0.00000000000E+00 0. -1.
</event>
<event>
 8    1  0.6759491E-006  0.9958568E+03  0.7818608E-02  0.8782048E-01
         21   -1    0    0  501  502  0.00000000000E+00  0.00000000000E+00  0.68839242319E+03  0.68839242319E+03  0.00000000000E+00 0.  1.
         21   -1    0    0  502  503 -0.00000000000E+00 -0.00000000000E+00 -0.17349185764E+04  0.17349185764E+04  0.00000000000E+00 0.  1.
    9000010    2    1    2  501    0  0.62232795897E+02 -0.13074136317E+03 -0.95636056038E+01  0.99590273764E+03  0.98527385805E+03 0.  0.
   -9000010    2    1    2    0  503 -0.62232795897E+02  0.13074136317E+03 -0.10369625476E+04  0.14274082619E+04  0.97017359076E+03 0.  0.
        -13    1    3    3    0    0 -0.34295340853E+03 -0.37368038718E+03 -0.94395455456E+02  0.51591141231E+03  0.10566000000E+00 0.  1.
         13    1    4    4    0    0 -0.43393111067E+03  0.26463198562E+03 -0.84990418066E+03  0.99028451673E+03  0.10566000000E+00 0. -1.
          4    1    3    3  501    0  0.40518620442E+03  0.24293902401E+03  0.84831849852E+02  0.47999132533E+03  0.00000000000E+00 0.  1.
         -4    1    4    4    0  503  0.37169831478E+03 -0.13389062244E+03 -0.18705836694E+03  0.43712374521E+03  0.00000000000E+00 0. -1.
</event>
<event>
 8    1  0.6759491E-006  0.1033910E+04  0.7818608E-02  0.8749664E-01
         21   -1    0    0  501  502  0.00000000000E+00  0.00000000000E+00  0.37244588599E+04  0.37244588599E+04  0.00000000000E+00 0. -1.
         21   -1    0    0  502  503 -0.00000000000E+00 -0.00000000000E+00 -0.32816039660E+03  0.32816039660E+03  0.00000000000E+00 0. -1.
    9000010    2    1    2  501    0  0.36367952826E+02  0.88836976078E+02  0.24984754401E+04  0.27039508477E+04  0.10294445228E+04 0.  0.
   -9000010    2    1    2    0  503 -0.36367952826E+02 -0.88836976078E+02  0.89782302312E+03  0.13486684087E+04  0.10018012076E+04 0.  0.
        -13    1    3    3    0    0  0.36592627988E+03 -0.99584333470E+00  0.28378537125E+03  0.46307362493E+03  0.10566000000E+00 0.  1.
         13    1    4    4    0    0 -0.23702756545E+03  0.32675913264E+03  0.77063451252E+03  0.86996043623E+03  0.10566000000E+00 0. -1.
          4    1    3    3  501    0 -0.32955832705E+03  0.89832819413E+02  0.22146900689E+04  0.22408772228E+04  0.00000000000E+00 0.  1.
         -4    1    4    4    0  503  0.20065961263E+03 -0.41559610872E+03  0.12718851060E+03  0.47870797251E+03  0.00000000000E+00 0. -1.
</event>
<event>
 8    1  0.6759491E-006  0.1028977E+04  0.7818608E-02  0.8756539E-01
         21   -1    0    0  503  502  0.00000000000E+00  0.00000000000E+00  0.35575241081E+04  0.35575241081E+04  0.00000000000E+00 0.  1.
         21   -1    0    0  501  503 -0.00000000000E+00 -0.00000000000E+00 -0.29019735644E+03  0.29019735644E+03  0.00000000000E+00 0.  1.
    9000010    2    1    2  501    0  0.28854299904E+02  0.20769552959E+02  0.18707168313E+04  0.21350349270E+04  0.10283621597E+04 0.  0.
   -9000010    2    1    2    0  502 -0.28854299904E+02 -0.20769552959E+02  0.13966099203E+04  0.17126865375E+04  0.99071285518E+03 0.  0.
        -13    1    3    3    0    0  0.26936972053E+03  0.26353032995E+03  0.17212972709E+04  0.17620648646E+04  0.10566000000E+00 0.  1.
         13    1    4    4    0    0 -0.50287635498E+03 -0.36481959655E+02  0.85658081473E+03  0.99395486070E+03  0.10566000000E+00 0. -1.
          4    1    3    3  501    0 -0.24051542063E+03 -0.24276077699E+03  0.14941956048E+03  0.37297006242E+03  0.00000000000E+00 0.  1.
         -4    1    4    4    0  502  0.47402205508E+03  0.15712406695E+02  0.54002910557E+03  0.71873167684E+03  0.00000000000E+00 0. -1.
</event>
<event>
 8    1  0.6759491E-006  0.1419047E+04  0.7818608E-02  0.8485758E-01
         21   -1    0    0  501  502  0.00000000000E+00  0.00000000000E+00  0.20006084597E+04  0.20006084597E+04  0.00000000000E+00 0. -1.
         21   -1    0    0  502  503 -0.00000000000E+00 -0.00000000000E+00 -0.11952971726E+04  0.11952971726E+04  0.00000000000E+00 0. -1.
    9000010    2    1    2  501    0  0.68388360889E+03 -0.37123756753E+03  0.11911520344E+04  0.17253382833E+04  0.97592771281E+03 0.  0.
   -9000010    2    1    2    0  503 -0.68388360889E+03  0.37123756753E+03 -0.38584074724E+03  0.14705673490E+04  0.11866680765E+04 0.  0.
        -13    1    3    3    0    0  0.32214386629E+03  0.79221629786E+02 -0.69201003143E+02  0.33888276323E+03  0.10566000000E+00 0.  1.
         13    1    4    4    0    0 -0.67798410429E+03 -0.29302616157E+03 -0.31340431345E+03  0.80233973595E+03  0.10566000000E+00 0. -1.
          4    1    3    3  501    0  0.36173974260E+03 -0.45045919732E+03  0.12603530375E+04  0.13864555200E+04  0.00000000000E+00 0.  1.
         -4    1    4    4    0  503 -0.58995045906E+01  0.66426372910E+03 -0.72436433788E+02  0.66822761309E+03  0.00000000000E+00 0. -1.
</event>
<event>
 8    1  0.6759491E-006  0.1034635E+04  0.7818608E-02  0.8743654E-01
         21   -1    0    0  503  502  0.00000000000E+00  0.00000000000E+00  0.14480496573E+04  0.14480496573E+04  0.00000000000E+00 0. -1.
         21   -1    0    0  501  503 -0.00000000000E+00 -0.00000000000E+00 -0.11637804608E+04  0.11637804608E+04  0.00000000000E+00 0. -1.
    9000010    2    1    2  501    0  0.22827863815E+03  0.56750339980E+02 -0.64954592426E+03  0.12181009984E+04  0.10032588882E+04 0.  0.
   -9000010    2    1    2    0  502 -0.22827863815E+03 -0.56750339980E+02  0.93381512073E+03  0.13937291198E+04  0.10075407892E+04 0.  0.
        -13    1    3    3    0    0 -0.64555680691E+02  0.16571427405E+03 -0.83569065205E+03  0.85440478324E+03  0.10566000000E+00 0.  1.
         13    1    4    4    0    0 -0.47469068105E+03 -0.94978246810E+02  0.63320268369E+02  0.48822287696E+03  0.10566000000E+00 0. -1.
          4    1    3    3  501    0  0.29283431884E+03 -0.10896393407E+03  0.18614472779E+03  0.36369621514E+03  0.00000000000E+00 0.  1.
         -4    1    4    4    0  502  0.24641204289E+03  0.38227906830E+02  0.87049485236E+03  0.90550624279E+03  0.00000000000E+00 0. -1.
</event>
<event>
 8    1  0.6759491E-006  0.1085417E+04  0.7818608E-02  0.8701850E-01
         21   -1    0    0  501  502  0.00000000000E+00  0.00000000000E+00  0.18265016003E+04  0.18265016003E+04  0.00000000000E+00 0. -1.
         21   -1    0    0  502  503 -0.00000000000E+00 -0.00000000000E+00 -0.74474652219E+03  0.74474652219E+03  0.00000000000E+00 0. -1.
    9000010    2    1    2  501    0 -0.29869129265E+03 -0.30322909390E+03  0.10379131688E+04  0.15017967085E+04  0.99848146499E+03 0.  0.
   -9000010    2    1    2    0  503  0.29869129265E+03  0.30322909390E+03  0.43841909326E+02  0.10694514140E+04  0.98012236086E+03 0.  0.
        -13    1    3    3    0    0  0.35994258400E+03 -0.17540345953E+03  0.50807815172E+03  0.64689137946E+03  0.10566000000E+00 0.  1.
         13    1    4    4    0    0  0.95807988211E+02  0.59233179058E+03 -0.20867188478E+03  0.63527953485E+03  0.10566000000E+00 0. -1.
          4    1    3    3  501    0 -0.65863387665E+03 -0.12782563436E+03  0.52983501705E+03  0.85490532900E+03  0.00000000000E+00 0.  1.
         -4    1    4    4    0  503  0.20288330444E+03 -0.28910269668E+03  0.25251379411E+03  0.43417187917E+03  0.00000000000E+00 0. -1.
</event>
<event>
 8    1  0.6759491E-006  0.1135551E+04  0.7818608E-02  0.8660261E-01
         21   -1    0    0  503  502  0.00000000000E+00  0.00000000000E+00  0.77363490046E+03  0.77363490046E+03  0.00000000000E+00 0. -1.
         21   -1    0    0  501  503 -0.00000000000E+00 -0.00000000000E+00 -0.20249851678E+04  0.20249851678E+04  0.00000000000E+00 0. -1.
    9000010    2    1    2  501    0 -0.41040962243E+03  0.31922457994E+03 -0.12307672551E+04  0.16628829053E+04  0.98997531779E+03 0.  0.
   -9000010    2    1    2    0  502  0.41040962243E+03 -0.31922457994E+03 -0.20583012186E+02  0.11357371629E+04  0.10095220910E+04 0.  0.
        -13    1    3    3    0    0 -0.44173240765E+03  0.63729255792E+03 -0.70721703581E+03  0.10494880996E+04  0.10566000000E+00 0.  1.
         13    1    4    4    0    0  0.64698865767E+03 -0.48598238342E+03  0.11286031992E+03  0.81701325761E+03  0.10566000000E+00 0. -1.
          4    1    3    3  501    0  0.31322785213E+02 -0.31806797798E+03 -0.52355021934E+03  0.61339480570E+03  0.00000000000E+00 0.  1.
         -4    1    4    4    0  502 -0.23657903523E+03  0.16675780348E+03 -0.13344333210E+03  0.31872390531E+03  0.00000000000E+00 0. -1.
</event>
<event>
 8    1  0.6759491E-006  0.1010120E+04  0.7818608E-02  0.8765302E-01
         21   -1    0    0  503  502  0.00000000000E+00  0.00000000000E+00  0.10581284942E+04  0.10581284942E+04  0.00000000000E+00 0.  1.
         21   -1    0    0  501  503 -0.00000000000E+00 -0.00000000000E+00 -0.96454503226E+03  0.96454503226E+03  0.00000000000E+00 0.  1.
    9000010    2    1    2  501    0 -0.28063104402E+01  0.73855038576E+02  0.77984866994E+02  0.10131256384E+04  0.10074122680E+04 0.  0.
   -9000010    2    1    2    0  502  0.28063104402E+01 -0.73855038576E+02  0.15598594966E+02  0.10095478881E+04  0.10067180241E+04 0.  0.
        -13    1    3    3    0    0 -0.16396674092E+03  0.47927576379E+03 -0.13983535232E+03  0.52549432614E+03  0.10566000000E+00 0.  1.
         13    1    4    4    0    0  0.39168901416E+03 -0.16438904825E+03  0.29938676366E+03  0.51968883807E+03  0.10566000000E+00 0. -1.
          4    1    3    3  501    0  0.16116043048E+03 -0.40542072521E+03  0.21782021932E+03  0.48763131229E+03  0.00000000000E+00 0.  1.
         -4    1    4    4    0  502 -0.38888270372E+03  0.90534009672E+02 -0.28378816869E+03  0.48985904998E+03  0.00000000000E+00 0. -1.
</event>
<event>
 8    1  0.6759491E-006  0.9984264E+03  0.7818608E-02  0.8778056E-01
         21   -1    0    0  501  502  0.00000000000E+00  0.00000000000E+00  0.96416502736E+03  0.96416502736E+03  0.00000000000E+00 0.  1.
         21   -1    0    0  502  503 -0.00000000000E+00 -0.00000000000E+00 -0.10264883220E+04  0.10264883220E+04  0.00000000000E+00 0.  1.
    9000010    2    1    2  501    0 -0.12807035043E+02  0.84010759710E+02 -0.66174612146E+02  0.10006169937E+04  0.99480322727E+03 0.  0.
   -9000010    2    1    2    0  503  0.12807035043E+02 -0.84010759710E+02  0.38513175192E+01  0.99003635560E+03  0.98637483995E+03 0.  0.
        -13    1    3    3    0    0  0.43783081086E+03 -0.68745626853E+02 -0.22751712733E+03  0.49818253135E+03  0.10566000000E+00 0.  1.
         13    1    4    4    0    0  0.15407241642E+03 -0.41917235371E+03  0.28547296032E+03  0.53003640804E+03  0.10566000000E+00 0. -1.
          4    1    3    3  501    0 -0.45063784591E+03  0.15275638656E+03  0.16134251518E+03  0.50243446240E+03  0.00000000000E+00 0.  1.
         -4    1    4    4    0  503 -0.14126538138E+03  0.33516159400E+03 -0.28162164280E+03  0.45999994756E+03  0.00000000000E+00 0. -1.
</event>
<event>
 8    1  0.6759491E-006  0.1015165E+04  0.7818608E-02  0.8761404E-01
         21   -1    0    0  503  502  0.00000000000E+00  0.00000000000E+00  0.63996107489E+03  0.63996107489E+03  0.00000000000E+00 0. -1.
         21   -1    0    0  501  503 -0.00000000000E+00 -0.00000000000E+00 -0.17776301688E+04  0.17776301688E+04  0.00000000000E+00 0. -1.
    9000010    2    1    2  501    0  0.58750164003E+02 -0.11445580045E+03 -0.18998457294E+03  0.10288274177E+04  0.10029157519E+04 0.  0.
   -9000010    2    1    2    0  502 -0.58750164003E+02  0.11445580045E+03 -0.94768452093E+03  0.13887638259E+04  0.10069792952E+04 0.  0.
        -13    1    3    3    0    0 -0.41322814533E+03 -0.26033557629E+03 -0.21622792349E+03  0.53412230663E+03  0.10566000000E+00 0.  1.
         13    1    4    4    0    0 -0.53201561138E+03  0.72174704658E+02 -0.55691360073E+03  0.77356484446E+03  0.10566000000E+00 0. -1.
          4    1    3    3  501    0  0.47197830934E+03  0.14587977584E+03  0.26243350543E+02  0.49470511108E+03  0.00000000000E+00 0.  1.
         -4    1    4    4    0  502  0.47326544738E+03  0.42281095792E+02 -0.39077092021E+03  0.61519898149E+03  0.00000000000E+00 0. -1.
</event>
<event>
 8    1  0.6759491E-006  0.1028845E+04  0.7818608E-02  0.8748303E-01
         21   -1    0    0  501  502  0.00000000000E+00  0.00000000000E+00  0.59651380974E+03  0.59651380974E+03  0.00000000000E+00 0.  1.
         21   -1    0    0  502  503 -0.00000000000E+00 -0.00000000000E+00 -0.26934144697E+04  0.26934144697E+04  0.00000000000E+00 0.  1.
    9000010    2    1    2  501    0  0.14339773035E+03  0.15214993654E+03 -0.20111745741E+04  0.22590582813E+04  0.10073771084E+04 0.  0.
   -9000010    2    1    2    0  503 -0.14339773035E+03 -0.15214993654E+03 -0.85726085842E+02  0.10308699981E+04  0.10057989257E+04 0.  0.
        -13    1    3    3    0    0  0.38854679699E+03  0.45121315158E+03 -0.15297819099E+04  0.16415829630E+04  0.10566000000E+00 0.  1.
         13    1    4    4    0    0  0.10878466544E+03 -0.41586996819E+03 -0.37090396879E+03  0.56776024791E+03  0.10566000000E+00 0. -1.
          4    1    3    3  501    0 -0.24514906664E+03 -0.29906321503E+03 -0.48139266421E+03  0.61747531822E+03  0.00000000000E+00 0.  1.
         -4    1    4    4    0  503 -0.25218239579E+03  0.26372003165E+03  0.28517788295E+03  0.46310975023E+03  0.00000000000E+00 0. -1.
</event>
<event>
 8    1  0.6759491E-006  0.1037228E+04  0.7818608E-02  0.8742731E-01
         21   -1    0    0  501  502  0.00000000000E+00  0.00000000000E+00  0.12935149427E+04  0.12935149427E+04  0.00000000000E+00 0. -1.
         21   -1    0    0  502  503 -0.00000000000E+00 -0.00000000000E+00 -0.84845111690E+03  0.84845111690E+03  0.00000000000E+00 0. -1.
    9000010    2    1    2  501    0  0.16048815370E+03  0.25330843440E+03  0.40550390626E+03  0.11039839712E+04  0.98205171978E+03 0.  0.
   -9000010    2    1    2    0  503 -0.16048815370E+03 -0.25330843440E+03  0.39559919508E+02  0.10379820883E+04  0.99293515300E+03 0.  0.
        -13    1    3    3    0    0  0.10382568375E+03 -0.28037650307E+03  0.47659327253E+03  0.56261169084E+03  0.10566000000E+00 0.  1.
         13    1    4    4    0    0  0.21225418679E+03 -0.18966433317E+03 -0.37894742194E+03  0.47394678904E+03  0.10566000000E+00 0. -1.
          4    1    3    3  501    0  0.56662469953E+02  0.53368493747E+03 -0.71089366270E+02  0.54137228039E+03  0.00000000000E+00 0.  1.
         -4    1    4    4    0  503 -0.37274234049E+03 -0.63644101233E+02  0.41850734144E+03  0.56403529930E+03  0.00000000000E+00 0. -1.
</event>
<event>
 8    1  0.6759491E-006  0.1091514E+04  0.7818608E-02  0.8693570E-01
         21   -1    0    0  501  502  0.00000000000E+00  0.00000000000E+00  0.13320202567E+04  0.13320202567E+04  0.00000000000E+00 0. -1.
         21   -1    0    0  502  503 -0.00000000000E+00 -0.00000000000E+00 -0.10181535307E+04  0.10181535307E+04  0.00000000000E+00 0. -1.
    9000010    2    1    2  501    0 -0.11548168462E+03  0.39957826267E+03  0.56994126703E+03  0.12313553842E+04  0.10091601592E+04 0.  0.
   -9000010    2    1    2    0  503  0.11548168462E+03 -0.39957826267E+03 -0.25607454101E+03  0.11188184031E+04  0.10065692431E+04 0.  0.
        -13    1    3    3    0    0  0.29532354432E+03 -0.20488964539E+03  0.16068539318E+03  0.39372016632E+03  0.10566000000E+00 0.  1.
         13    1    4    4    0    0 -0.38553433824E+03 -0.41820458680E+03 -0.32104024338E+02  0.56970385458E+03  0.10566000000E+00 0. -1.
          4    1    3    3  501    0 -0.41080522894E+03  0.60446790807E+03  0.40925587386E+03  0.83763521792E+03  0.00000000000E+00 0.  1.
         -4    1    4    4    0  503  0.50101602286E+03  0.18626324124E+02 -0.22397051667E+03  0.54911454857E+03  0.00000000000E+00 0. -1.
</event>
<event>
 8    1  0.6759491E-006  0.1028455E+04  0.7818608E-02  0.8762133E-01
         21   -1    0    0  501  502  0.00000000000E+00  0.00000000000E+00  0.14990399968E+04  0.14990399968E+04  0.00000000000E+00 0. -1.
         21   -1    0    0  502  503 -0.00000000000E+00 -0.00000000000E+00 -0.73275497228E+03  0.73275497228E+03  0.00000000000E+00 0. -1.
    9000010    2    1    2  501    0 -0.24348201835E+03  0.67939894625E+02  0.71035496936E+03  0.12018199553E+04  0.93587803691E+03 0.  0.
   -9000010    2    1    2    0  503  0.24348201835E+03 -0.67939894625E+02  0.55930055149E+02  0.10299750138E+04  0.99690573042E+03 0.  0.
        -13    1    3    3    0    0  0.15436577312E+03  0.41269065853E+03  0.36557600659E+03  0.57252790264E+03  0.10566000000E+00 0.  1.
         13    1    4    4    0    0  0.40089770959E+03 -0.44394919762E+03 -0.72598463766E+02  0.60256154185E+03  0.10566000000E+00 0. -1.
          4    1    3    3  501    0 -0.39784779148E+03 -0.34475076390E+03  0.34477896277E+03  0.62929205268E+03  0.00000000000E+00 0.  1.
         -4    1    4    4    0  503 -0.15741569123E+03  0.37600930299E+03  0.12852851892E+03  0.42741347190E+03  0.00000000000E+00 0. -1.
</event>
<event>
 8    1  0.6759491E-006  0.1022925E+04  0.7818608E-02  0.8760702E-01
         21   -1    0    0  503  502  0.00000000000E+00  0.00000000000E+00  0.23174725458E+04  0.23174725458E+04  0.00000000000E+00 0. -1.
         21   -1    0    0  501  503 -0.00000000000E+00 -0.00000000000E+00 -0.44010444778E+03  0.44010444778E+03  0.00000000000E+00 0. -1.
    9000010    2    1    2  501    0 -0.10163185326E+03 -0.16580617288E+03  0.10269944411E+04  0.14273474380E+04  0.97199918013E+03 0.  0.
   -9000010    2    1    2    0  502  0.10163185326E+03  0.16580617288E+03  0.85037365684E+03  0.13302295555E+04  0.10042681881E+04 0.  0.
        -13    1    3    3    0    0 -0.48281761950E+02  0.19862587901E+03  0.10389199361E+04  0.10588380486E+04  0.10566000000E+00 0.  1.
         13    1    4    4    0    0  0.83563603681E+01 -0.17015626070E+03  0.95194265017E+03  0.96706659656E+03  0.10566000000E+00 0. -1.
          4    1    3    3  501    0 -0.53350091305E+02 -0.36443205189E+03 -0.11925494953E+02  0.36850938946E+03  0.00000000000E+00 0.  1.
         -4    1    4    4    0  502  0.93275492887E+02  0.33596243358E+03 -0.10156899333E+03  0.36316295895E+03  0.00000000000E+00 0. -1.
</event>
<event>
 8    1  0.6759491E-006  0.9992592E+03  0.7818608E-02  0.8776931E-01
         21   -1    0    0  503  502  0.00000000000E+00  0.00000000000E+00  0.18295063680E+04  0.18295063680E+04  0.00000000000E+00 0. -1.
         21   -1    0    0  501  503 -0.00000000000E+00 -0.00000000000E+00 -0.77813915316E+03  0.77813915316E+03  0.00000000000E+00 0. -1.
    9000010    2    1    2  501    0  0.55580261627E+02 -0.10940519659E+03 -0.19385794597E+03  0.10110539602E+04  0.98467788881E+03 0.  0.
   -9000010    2    1    2    0  502 -0.55580261627E+02  0.10940519659E+03  0.12452251608E+04  0.15965915609E+04  0.99169564326E+03 0.  0.
        -13    1    3    3    0    0  0.16645539552E+03  0.37865595335E+03 -0.28502526262E+03  0.50232175067E+03  0.10566000000E+00 0.  1.
         13    1    4    4    0    0  0.28910420444E+03 -0.31013926418E+03  0.35100193160E+03  0.55042708087E+03  0.10566000000E+00 0. -1.
          4    1    3    3  501    0 -0.11087513390E+03 -0.48806114994E+03  0.91167316649E+02  0.50873220954E+03  0.00000000000E+00 0.  1.
         -4    1    4    4    0  502 -0.34468446607E+03  0.41954446077E+03  0.89422322918E+03  0.10461644801E+04  0.00000000000E+00 0. -1.
</event>
<event>
 8    1  0.6759491E-006  0.1006181E+04  0.7818608E-02  0.8770554E-01
         21   -1    0    0  501  502  0.00000000000E+00  0.00000000000E+00  0.14424266941E+04  0.14424266941E+04  0.00000000000E+00 0.  1.
         21   -1    0    0  502  503 -0.00000000000E+00 -0.00000000000E+00 -0.78840747680E+03  0.78840747680E+03  0.00000000000E+00 0.  1.
    9000010    2    1    2  501    0  0.39952716910E+02 -0.72765539964E+01  0.70855983646E+03  0.12306326312E+04  0.10053608622E+04 0.  0.
   -9000010    2    1    2    0  503 -0.39952716910E+02  0.72765539964E+01 -0.54540619207E+02  0.10002015397E+04  0.99788740495E+03 0.  0.
        -13    1    3    3    0    0 -0.44389541426E+03  0.16281547658E+03  0.46391781511E+03  0.66239849679E+03  0.10566000000E+00 0.  1.
         13    1    4    4    0    0  0.44893672312E+03  0.17426952926E+03 -0.42371863918E+02  0.48343503825E+03  0.10566000000E+00 0. -1.
          4    1    3    3  501    0  0.48384813117E+03 -0.17009203057E+03  0.24464202136E+03  0.56823413442E+03  0.00000000000E+00 0.  1.
         -4    1    4    4    0  503 -0.48888944003E+03 -0.16699297527E+03 -0.12168755288E+02  0.51676650140E+03  0.00000000000E+00 0. -1.
</event>
<event>
 8    1  0.6759491E-006  0.1139188E+04  0.7818608E-02  0.8656805E-01
         21   -1    0    0  501  502  0.00000000000E+00  0.00000000000E+00  0.12141370502E+04  0.12141370502E+04  0.00000000000E+00 0. -1.
         21   -1    0    0  502  503 -0.00000000000E+00 -0.00000000000E+00 -0.12143663264E+04  0.12143663264E+04  0.00000000000E+00 0. -1.
    9000010    2    1    2  501    0  0.50028357799E+03  0.36179755512E+02 -0.43993893918E+03  0.12211856759E+04  0.10228174576E+04 0.  0.
   -9000010    2    1    2    0  503 -0.50028357799E+03 -0.36179755512E+02  0.43970966293E+03  0.12073177008E+04  0.10063194372E+04 0.  0.
        -13    1    3    3    0    0 -0.47857708467E+02 -0.41226394438E+03 -0.26252621104E+03  0.49109260098E+03  0.10566000000E+00 0.  1.
         13    1    4    4    0    0 -0.24221570221E+03  0.59285718589E+02 -0.31630835052E+03  0.40278310118E+03  0.10566000000E+00 0. -1.
          4    1    3    3  501    0  0.54814128646E+03  0.44844369989E+03 -0.17741272814E+03  0.73009307488E+03  0.00000000000E+00 0.  1.
         -4    1    4    4    0  503 -0.25806787578E+03 -0.95465474100E+02  0.75601801345E+03  0.80453459958E+03  0.00000000000E+00 0. -1.
</event>
<event>
 8    1  0.6759491E-006  0.9964445E+03  0.7818608E-02  0.8779704E-01
         21   -1    0    0  503  502  0.00000000000E+00  0.00000000000E+00  0.60839873813E+03  0.60839873813E+03  0.00000000000E+00 0.  1.
         21   -1    0    0  501  503 -0.00000000000E+00 -0.00000000000E+00 -0.17064235092E+04  0.17064235092E+04  0.00000000000E+00 0.  1.
    9000010    2    1    2  501    0 -0.12213040518E+03 -0.31367008520E+02 -0.29021215696E+03  0.10378461878E+04  0.98843405866E+03 0.  0.
   -9000010    2    1    2    0  502  0.12213040518E+03  0.31367008520E+02 -0.80781261415E+03  0.12769760596E+04  0.98092146075E+03 0.  0.
        -13    1    3    3    0    0  0.28681687224E+03 -0.33667957273E+03  0.16194659767E+02  0.44258256977E+03  0.10566000000E+00 0.  1.
         13    1    4    4    0    0  0.35856377105E+03 -0.13540575845E+03 -0.89597216680E+03  0.97450953416E+03  0.10566000000E+00 0. -1.
          4    1    3    3  501    0 -0.40894727742E+03  0.30531256421E+03 -0.30640681673E+03  0.59526361800E+03  0.00000000000E+00 0.  1.
         -4    1    4    4    0  502 -0.23643336587E+03  0.16677276697E+03  0.88159552647E+02  0.30246652545E+03  0.00000000000E+00 0. -1.
</event>
<event>
 8    1  0.6759491E-006  0.1066058E+04  0.7818608E-02  0.8719983E-01
         21   -1    0    0  501  502  0.00000000000E+00  0.00000000000E+00  0.19042468350E+04  0.19042468350E+04  0.00000000000E+00 0. -1.
         21   -1    0    0  502  503 -0.00000000000E+00 -0.00000000000E+00 -0.64692005165E+03  0.64692005165E+03  0.00000000000E+00 0. -1.
    9000010    2    1    2  501    0  0.16823948891E+03 -0.30541097447E+03  0.10329864969E+04  0.14844330235E+04  0.10074224086E+04 0.  0.
   -9000010    2    1    2    0  503 -0.16823948891E+03  0.30541097447E+03  0.22434028648E+03  0.10667338632E+04  0.98285918717E+03 0.  0.
        -13    1    3    3    0    0  0.59400468957E+03 -0.20460869797E+03  0.59254581063E+03  0.86360687779E+03  0.10566000000E+00 0.  1.
         13    1    4    4    0    0 -0.76426208387E+02  0.37616348195E+03  0.57840163042E+03  0.69418181171E+03  0.10566000000E+00 0. -1.
          4    1    3    3  501    0 -0.42576520066E+03 -0.10080227650E+03  0.44044068625E+03  0.62082614566E+03  0.00000000000E+00 0.  1.
         -4    1    4    4    0  503 -0.91813280521E+02 -0.70752507480E+02 -0.35406134394E+03  0.37255205148E+03  0.00000000000E+00 0. -1.
</event>
<event>
 8    1  0.6759491E-006  0.1009468E+04  0.7818608E-02  0.8774330E-01
         21   -1    0    0  503  502  0.00000000000E+00  0.00000000000E+00  0.88455215582E+03  0.88455215582E+03  0.00000000000E+00 0.  1.
         21   -1    0    0  501  503 -0.00000000000E+00 -0.00000000000E+00 -0.13488698658E+04  0.13488698658E+04  0.00000000000E+00 0.  1.
    9000010    2    1    2  501    0  0.81980072931E+02 -0.73293433071E+02 -0.70452792130E+03  0.12310101434E+04  0.10034608720E+04 0.  0.
   -9000010    2    1    2    0  502 -0.81980072931E+02  0.73293433071E+02  0.24021021133E+03  0.10024118782E+04  0.96697257886E+03 0.  0.
        -13    1    3    3    0    0 -0.57083483416E+01 -0.23122473662E+03 -0.92069396092E+03  0.94930229374E+03  0.10566000000E+00 0.  1.
         13    1    4    4    0    0 -0.43245059659E+03  0.17639200635E+03  0.38912850764E+03  0.60790514476E+03  0.10566000000E+00 0. -1.
          4    1    3    3  501    0  0.87688421272E+02  0.15793130355E+03  0.21616603962E+03  0.28170784965E+03  0.00000000000E+00 0.  1.
         -4    1    4    4    0  502  0.35047052366E+03 -0.10309857328E+03 -0.14891829631E+03  0.39450673346E+03  0.00000000000E+00 0. -1.
</event>
<event>
 8    1  0.6759491E-006  0.1124109E+04  0.7818608E-02  0.8668873E-01
         21   -1    0    0  501  502  0.00000000000E+00  0.00000000000E+00  0.16332978637E+04  0.16332978637E+04  0.00000000000E+00 0. -1.
         21   -1    0    0  502  503 -0.00000000000E+00 -0.00000000000E+00 -0.12688451071E+04  0.12688451071E+04  0.00000000000E+00 0. -1.
    9000010    2    1    2  501    0 -0.50800141727E+03  0.29246460637E+02  0.10967466487E+04  0.15605486101E+04  0.98668027132E+03 0.  0.
   -9000010    2    1    2    0  503  0.50800141727E+03 -0.29246460637E+02 -0.73229389203E+03  0.13415943606E+04  0.10023473893E+04 0.  0.
        -13    1    3    3    0    0 -0.40566436062E+03  0.49046293787E+03  0.59286111268E+03  0.86982859058E+03  0.10566000000E+00 0.  1.
         13    1    4    4    0    0  0.48834264276E+03  0.11103635653E+03 -0.95459996346E+03  0.10779929084E+04  0.10566000000E+00 0. -1.
          4    1    3    3  501    0 -0.10233705665E+03 -0.46121647723E+03  0.50388553598E+03  0.69072001955E+03  0.00000000000E+00 0.  1.
         -4    1    4    4    0  503  0.19658774511E+02 -0.14028281717E+03  0.22230607143E+03  0.26360145220E+03  0.00000000000E+00 0. -1.
</event>
<event>
 8    1  0.6759491E-006  0.1074789E+04  0.7818608E-02  0.8707481E-01
         21   -1    0    0  503  502  0.00000000000E+00  0.00000000000E+00  0.13431275088E+04  0.13431275088E+04  0.00000000000E+00 0.  1.
         21   -1    0    0  501  503 -0.00000000000E+00 -0.00000000000E+00 -0.10729895318E+04  0.10729895318E+04  0.00000000000E+00 0.  1.
    9000010    2    1    2  501    0 -0.12797241407E+03 -0.38137447912E+03  0.67390084200E+03  0.12679896396E+04  0.99590760076E+03 0.  0.
   -9000010    2    1    2    0  502  0.12797241407E+03  0.38137447912E+03 -0.40376286497E+03  0.11481274010E+04  0.99666877428E+03 0.  0.
        -13    1    3    3    0    0 -0.49491286311E+03 -0.44793856056E+03  0.27510309707E+03  0.72198990387E+03  0.10566000000E+00 0.  1.
         13    1    4    4    0    0 -0.32315304453E+03  0.11180874583E+03 -0.50799469452E+03  0.61236239814E+03  0.10566000000E+00 0. -1.
          4    1    3    3  501    0  0.36694044904E+03  0.66564081441E+02  0.39879774492E+03  0.54599973575E+03  0.00000000000E+00 0.  1.
         -4    1    4    4    0  502  0.45112545860E+03  0.26956573329E+03  0.10423182954E+03  0.53576500283E+03  0.00000000000E+00 0. -1.
</event>
<event>
 8    1  0.6759491E-006  0.1015271E+04  0.7818608E-02  0.8794388E-01
         21   -1    0    0  503  502  0.00000000000E+00  0.00000000000E+00  0.19100069465E+04  0.19100069465E+04  0.00000000000E+00 0.  1.
         21   -1    0    0  501  503 -0.00000000000E+00 -0.00000000000E+00 -0.66968935873E+03  0.66968935873E+03  0.00000000000E+00 0.  1.
    9000010    2    1    2  501    0 -0.22517840997E+03 -0.16559821914E+03 -0.52530246080E+02  0.10166290652E+04  0.97603644547E+03 0.  0.
   -9000010    2    1    2    0  502  0.22517840997E+03  0.16559821914E+03  0.12928478339E+04  0.15630672401E+04  0.83282386433E+03 0.  0.
        -13    1    3    3    0    0 -0.46486459846E+03  0.25542567975E+03 -0.41443289008E+02  0.53203282807E+03  0.10566000000E+00 0.  1.
         13    1    4    4    0    0 -0.19627422057E+03 -0.56437373558E+02  0.96112371539E+03  0.98258208524E+03  0.10566000000E+00 0. -1.
          4    1    3    3  501    0  0.23968618849E+03 -0.42102389889E+03 -0.11086957072E+02  0.48459623709E+03  0.00000000000E+00 0.  1.
         -4    1    4    4    0  502  0.42145263054E+03  0.22203559270E+03  0.33172411848E+03  0.58048515484E+03  0.00000000000E+00 0. -1.
</event>
<event>
 8    1  0.6759491E-006  0.1022192E+04  0.7818608E-02  0.8760775E-01
         21   -1    0    0  503  502  0.00000000000E+00  0.00000000000E+00  0.10266088448E+04  0.10266088448E+04  0.00000000000E+00 0. -1.
         21   -1    0    0  501  503 -0.00000000000E+00 -0.00000000000E+00 -0.10269478563E+04  0.10269478563E+04  0.00000000000E+00 0. -1.
    9000010    2    1    2  501    0 -0.12081459553E+03 -0.17842268036E+03 -0.19747274323E+03  0.10125291118E+04  0.96942709816E+03 0.  0.
   -9000010    2    1    2    0  502  0.12081459553E+03  0.17842268036E+03  0.19713373178E+03  0.10410275893E+04  0.99922265490E+03 0.  0.
        -13    1    3    3    0    0 -0.51677848087E+03  0.41836979036E+02 -0.20967635429E+03  0.55926247489E+03  0.10566000000E+00 0.  1.
         13    1    4    4    0    0  0.17536026544E+03 -0.14654890162E+03  0.52721792218E+03  0.57461861429E+03  0.10566000000E+00 0. -1.
          4    1    3    3  501    0  0.39596388534E+03 -0.22025965940E+03  0.12203611056E+02  0.45326663695E+03  0.00000000000E+00 0.  1.
         -4    1    4    4    0  502 -0.54545669903E+02  0.32497158198E+03 -0.33008419040E+03  0.46640897499E+03  0.00000000000E+00 0. -1.
</event>
<event>
 8    1  0.6759491E-006  0.1093628E+04  0.7818608E-02  0.8707809E-01
         21   -1    0    0  501  502  0.00000000000E+00  0.00000000000E+00  0.10682037992E+04  0.10682037992E+04  0.00000000000E+00 0. -1.
         21   -1    0    0  502  503 -0.00000000000E+00 -0.00000000000E+00 -0.11418122574E+04  0.11418122574E+04  0.00000000000E+00 0. -1.
    9000010    2    1    2  501    0 -0.18664930918E+03 -0.27173135138E+02  0.28820406458E+03  0.10580908950E+04  0.10004591023E+04 0.  0.
   -9000010    2    1    2    0  503  0.18664930918E+03  0.27173135138E+02 -0.36181252284E+03  0.11519251616E+04  0.10772404246E+04 0.  0.
        -13    1    3    3    0    0 -0.34994438463E+03 -0.24165951546E+03  0.54126267363E+03  0.68834997405E+03  0.10566000000E+00 0.  1.
         13    1    4    4    0    0  0.69285517570E+02  0.55104113427E+03 -0.21304315524E+03  0.59483965214E+03  0.10566000000E+00 0. -1.
          4    1    3    3  501    0  0.16329507545E+03  0.21448638032E+03 -0.25305860906E+03  0.36974092095E+03  0.00000000000E+00 0.  1.
         -4    1    4    4    0  503  0.11736379161E+03 -0.52386799913E+03 -0.14876936761E+03  0.55708550944E+03  0.00000000000E+00 0. -1.
</event>
<event>
 8    1  0.6759491E-006  0.1027430E+04  0.7818608E-02  0.8750691E-01
         21   -1    0    0  501  502  0.00000000000E+00  0.00000000000E+00  0.96900020191E+03  0.96900020191E+03  0.00000000000E+00 0. -1.
         21   -1    0    0  502  503 -0.00000000000E+00 -0.00000000000E+00 -0.11367605123E+04  0.11367605123E+04  0.00000000000E+00 0. -1.
    9000010    2    1    2  501    0  0.23148483328E+03  0.12482954304E+03  0.14561049351E+03  0.10376971843E+04  0.99319957089E+03 0.  0.
   -9000010    2    1    2    0  503 -0.23148483328E+03 -0.12482954304E+03 -0.31337080389E+03  0.10680635299E+04  0.98660569648E+03 0.  0.
        -13    1    3    3    0    0  0.24911512204E+03 -0.36295094609E+03  0.29183465376E+03  0.52816589212E+03  0.10566000000E+00 0.  1.
         13    1    4    4    0    0  0.31342486716E+03 -0.27987983352E+03 -0.27085611656E+03  0.49993091083E+03  0.10566000000E+00 0. -1.
          4    1    3    3  501    0 -0.17630288755E+02  0.48778048914E+03 -0.14622416025E+03  0.50953129218E+03  0.00000000000E+00 0.  1.
         -4    1    4    4    0  503 -0.54490970044E+03  0.15505029048E+03 -0.42514687327E+02  0.56813261907E+03  0.00000000000E+00 0. -1.
</event>
<event>
 8    1  0.6759491E-006  0.1039743E+04  0.7818608E-02  0.8739703E-01
         21   -1    0    0  503  502  0.00000000000E+00  0.00000000000E+00  0.93678801781E+03  0.93678801781E+03  0.00000000000E+00 0.  1.
         21   -1    0    0  501  503 -0.00000000000E+00 -0.00000000000E+00 -0.12006940262E+04  0.12006940262E+04  0.00000000000E+00 0.  1.
    9000010    2    1    2  501    0  0.88905162988E+02 -0.29844622163E+03 -0.35917583646E+03  0.10933839530E+04  0.98463542079E+03 0.  0.
   -9000010    2    1    2    0  502 -0.88905162988E+02  0.29844622163E+03  0.95269828089E+02  0.10440980910E+04  0.99201320976E+03 0.  0.
        -13    1    3    3    0    0  0.14456147291E+03 -0.65554460722E+03 -0.23263579597E+03  0.71046194567E+03  0.10566000000E+00 0.  1.
         13    1    4    4    0    0  0.26476839205E+03 -0.15296121318E+03 -0.23199878635E+03  0.38382663039E+03  0.10566000000E+00 0. -1.
          4    1    3    3  501    0 -0.55656309924E+02  0.35709838559E+03 -0.12654004049E+03  0.38292200729E+03  0.00000000000E+00 0.  1.
         -4    1    4    4    0  502 -0.35367355504E+03  0.45140743481E+03  0.32726861444E+03  0.66027146064E+03  0.00000000000E+00 0. -1.
</event>
<event>
 8    1  0.6759491E-006  0.1415953E+04  0.7818608E-02  0.8465536E-01
         21   -1    0    0  501  502  0.00000000000E+00  0.00000000000E+00  0.21063546350E+04  0.21063546350E+04  0.00000000000E+00 0. -1.
         21   -1    0    0  502  503 -0.00000000000E+00 -0.00000000000E+00 -0.11709525475E+04  0.11709525475E+04  0.00000000000E+00 0. -1.
    9000010    2    1    2  501    0  0.48019961615E+03  0.80594076341E+03  0.12215762145E+04  0.18700725079E+04  0.10605614323E+04 0.  0.
   -9000010    2    1    2    0  503 -0.48019961615E+03 -0.80594076341E+03 -0.28617412694E+03  0.14072346746E+04  0.10090994069E+04 0.  0.
        -13    1    3    3    0    0  0.44969434234E+03  0.60023684816E+03  0.13287143338E+03  0.76168504278E+03  0.10566000000E+00 0.  1.
         13    1    4    4    0    0 -0.74585919379E+03 -0.46430985552E+03  0.17173229311E+02  0.87874029717E+03  0.10566000000E+00 0. -1.
          4    1    3    3  501    0  0.30505273814E+02  0.20570391525E+03  0.10887047811E+04  0.11083874652E+04  0.00000000000E+00 0.  1.
         -4    1    4    4    0  503  0.26565957764E+03 -0.34163090789E+03 -0.30334735625E+03  0.52849437742E+03  0.00000000000E+00 0. -1.
</event>
<event>
 8    1  0.6759491E-006  0.1083377E+04  0.7818608E-02  0.8711724E-01
         21   -1    0    0  501  502  0.00000000000E+00  0.00000000000E+00  0.96256561004E+03  0.96256561004E+03  0.00000000000E+00 0. -1.
         21   -1    0    0  502  503 -0.00000000000E+00 -0.00000000000E+00 -0.13192900077E+04  0.13192900077E+04  0.00000000000E+00 0. -1.
    9000010    2    1    2  501    0 -0.86139427488E+02 -0.34485350513E+03  0.21438398288E+03  0.11043852138E+04  0.10234071855E+04 0.  0.
   -9000010    2    1    2    0  503  0.86139427488E+02  0.34485350513E+03 -0.57110838050E+03  0.11774704039E+04  0.96639941480E+03 0.  0.
        -13    1    3    3    0    0  0.18624211926E+03 -0.59897557714E+03  0.33718816556E+03  0.71214727350E+03  0.10566000000E+00 0.  1.
         13    1    4    4    0    0  0.38014874222E+03  0.12770733718E+02  0.80932464609E+02  0.38887817224E+03  0.10566000000E+00 0. -1.
          4    1    3    3  501    0 -0.27238154675E+03  0.25412207201E+03 -0.12280418269E+03  0.39223794025E+03  0.00000000000E+00 0.  1.
         -4    1    4    4    0  503 -0.29400931473E+03  0.33208277141E+03 -0.65204084511E+03  0.78859223171E+03  0.00000000000E+00 0. -1.
</event>
<event>
 8    1  0.6759491E-006  0.1028943E+04  0.7818608E-02  0.8748043E-01
         21   -1    0    0  503  502  0.00000000000E+00  0.00000000000E+00  0.88609029966E+03  0.88609029966E+03  0.00000000000E+00 0.  1.
         21   -1    0    0  501  503 -0.00000000000E+00 -0.00000000000E+00 -0.14108800141E+04  0.14108800141E+04  0.00000000000E+00 0.  1.
    9000010    2    1    2  501    0 -0.16825765337E+03 -0.19353260117E+03 -0.71269884009E+03  0.12510096857E+04  0.99565058702E+03 0.  0.
   -9000010    2    1    2    0  502  0.16825765337E+03  0.19353260117E+03  0.18790912564E+03  0.10459606281E+04  0.99647292505E+03 0.  0.
        -13    1    3    3    0    0  0.26530017725E+02 -0.57718152261E+03 -0.52825637546E+03  0.78287748803E+03  0.10566000000E+00 0.  1.
         13    1    4    4    0    0  0.46199913305E+03  0.97294410391E+02 -0.23079115730E+03  0.52552256915E+03  0.10566000000E+00 0. -1.
          4    1    3    3  501    0 -0.19478767109E+03  0.38364892145E+03 -0.18444246463E+03  0.46813219767E+03  0.00000000000E+00 0.  1.
         -4    1    4    4    0  502 -0.29374147969E+03  0.96238190776E+02  0.41870028293E+03  0.52043805893E+03  0.00000000000E+00 0. -1.
</event>
<event>
 8    1  0.6759491E-006  0.1030341E+04  0.7818608E-02  0.8747995E-01
         21   -1    0    0  501  502  0.00000000000E+00  0.00000000000E+00  0.16546347905E+04  0.16546347905E+04  0.00000000000E+00 0. -1.
         21   -1    0    0  502  503 -0.00000000000E+00 -0.00000000000E+00 -0.69118898786E+03  0.69118898786E+03  0.00000000000E+00 0. -1.
    9000010    2    1    2  501    0  0.12427911667E+03  0.19008215717E+03  0.80914596248E+03  0.13100836507E+04  0.10050002278E+04 0.  0.
   -9000010    2    1    2    0  503 -0.12427911667E+03 -0.19008215717E+03  0.15429984015E+03  0.10357401277E+04  0.99868545902E+03 0.  0.
        -13    1    3    3    0    0  0.15202172481E+03 -0.29498670317E+03  0.75062495328E+03  0.82071041879E+03  0.10566000000E+00 0.  1.
         13    1    4    4    0    0 -0.52205915442E+03 -0.60624356274E+02 -0.11530935589E+03  0.53806814811E+03  0.10566000000E+00 0. -1.
          4    1    3    3  501    0 -0.27742608140E+02  0.48506886034E+03  0.58521009207E+02  0.48937323189E+03  0.00000000000E+00 0.  1.
         -4    1    4    4    0  503  0.39778003775E+03 -0.12945780090E+03  0.26960919604E+03  0.49767197956E+03  0.00000000000E+00 0. -1.
</event>
<event>
 8    1  0.6759491E-006  0.1091060E+04  0.7818608E-02  0.8703689E-01
         21   -1    0    0  501  502  0.00000000000E+00  0.00000000000E+00  0.49261146132E+03  0.49261146132E+03  0.00000000000E+00 0.  1.
         21   -1    0    0  502  503 -0.00000000000E+00 -0.00000000000E+00 -0.30995913409E+04  0.30995913409E+04  0.00000000000E+00 0.  1.
    9000010    2    1    2  501    0  0.39221942345E+03  0.14111894182E+03 -0.42031693960E+03  0.11692213585E+04  0.10082963967E+04 0.  0.
   -9000010    2    1    2    0  503 -0.39221942345E+03 -0.14111894182E+03 -0.21866629399E+04  0.24229814437E+04  0.95686656934E+03 0.  0.
        -13    1    3    3    0    0  0.12291554495E+03  0.40101972609E+03  0.18430177101E+03  0.45813994135E+03  0.10566000000E+00 0.  1.
         13    1    4    4    0    0 -0.45655342583E+03 -0.47564543284E+03 -0.17436710213E+04  0.18641534942E+04  0.10566000000E+00 0. -1.
          4    1    3    3  501    0  0.26930387849E+03 -0.25990078427E+03 -0.60461871061E+03  0.71108141718E+03  0.00000000000E+00 0.  1.
         -4    1    4    4    0  503  0.64334002385E+02  0.33452649103E+03 -0.44299191864E+03  0.55882794941E+03  0.00000000000E+00 0. -1.
</event>
<event>
 8    1  0.6759491E-006  0.1049517E+04  0.7818608E-02  0.8729673E-01
         21   -1    0    0  501  502  0.00000000000E+00  0.00000000000E+00  0.92930088689E+03  0.92930088689E+03  0.00000000000E+00 0. -1.
         21   -1    0    0  502  503 -0.00000000000E+00 -0.00000000000E+00 -0.13588419617E+04  0.13588419617E+04  0.00000000000E+00 0. -1.
    9000010    2    1    2  501    0 -0.32252453111E+03  0.81538310179E+02  0.19558555591E+03  0.10675860085E+04  0.99539721048E+03 0.  0.
   -9000010    2    1    2    0  503  0.32252453111E+03 -0.81538310179E+02 -0.62512663067E+03  0.12205568401E+04  0.99413536616E+03 0.  0.
        -13    1    3    3    0    0 -0.22273484530E+03 -0.45307492596E+03  0.73257716229E+02  0.51015135401E+03  0.10566000000E+00 0.  1.
         13    1    4    4    0    0  0.31835195283E+03 -0.19468809401E+02 -0.89159353796E+03  0.94692452102E+03  0.10566000000E+00 0. -1.
          4    1    3    3  501    0 -0.99789685812E+02  0.53461323614E+03  0.12232783968E+03  0.55743465448E+03  0.00000000000E+00 0.  1.
         -4    1    4    4    0  503  0.41725782790E+01 -0.62069500778E+02  0.26646690730E+03  0.27363231903E+03  0.00000000000E+00 0. -1.
</event>
<event>
 8    1  0.6759491E-006  0.1026454E+04  0.7818608E-02  0.8755131E-01
         21   -1    0    0  503  502  0.00000000000E+00  0.00000000000E+00  0.16823077724E+04  0.16823077724E+04  0.00000000000E+00 0. -1.
         21   -1    0    0  501  503 -0.00000000000E+00 -0.00000000000E+00 -0.70042167453E+03  0.70042167453E+03  0.00000000000E+00 0. -1.
    9000010    2    1    2  501    0  0.93225172098E+02  0.13667203658E+03  0.74884176266E+02  0.10291817130E+04  0.10130336520E+04 0.  0.
   -9000010    2    1    2    0  502 -0.93225172098E+02 -0.13667203658E+03  0.90700192160E+03  0.13535477340E+04  0.99099384662E+03 0.  0.
        -13    1    3    3    0    0  0.42711857090E+03 -0.23456314277E+03  0.17903036480E+03  0.51913584372E+03  0.10566000000E+00 0.  1.
         13    1    4    4    0    0  0.33605069817E+03  0.67767790711E+02  0.15486734406E+02  0.34316525946E+03  0.10566000000E+00 0. -1.
          4    1    3    3  501    0 -0.33389339880E+03  0.37123517935E+03 -0.10414618854E+03  0.51004586925E+03  0.00000000000E+00 0.  1.
         -4    1    4    4    0  502 -0.42927587027E+03 -0.20443982729E+03  0.89151518719E+03  0.10103824745E+04  0.00000000000E+00 0. -1.
</event>
<event>
 8    1  0.6759491E-006  0.1058665E+04  0.7818608E-02  0.8724268E-01
         21   -1    0    0  501  502  0.00000000000E+00  0.00000000000E+00  0.62378433822E+03  0.62378433822E+03  0.00000000000E+00 0.  1.
         21   -1    0    0  502  503 -0.00000000000E+00 -0.00000000000E+00 -0.19516711712E+04  0.19516711712E+04  0.00000000000E+00 0.  1.
    9000010    2    1    2  501    0 -0.21018160525E+02 -0.29323758500E+03 -0.27193701125E+03  0.10801954947E+04  0.10032160906E+04 0.  0.
   -9000010    2    1    2    0  503  0.21018160525E+02  0.29323758500E+03 -0.10559498217E+04  0.14952600147E+04  0.10170262736E+04 0.  0.
        -13    1    3    3    0    0  0.52889705398E+02 -0.32762048324E+03 -0.63048877263E+03  0.71249463545E+03  0.10566000000E+00 0.  1.
         13    1    4    4    0    0  0.14430097348E+03  0.95365104680E+02  0.17285639442E+03  0.24453347090E+03  0.10566000000E+00 0. -1.
          4    1    3    3  501    0 -0.73907865923E+02  0.34382898245E+02  0.35855176138E+03  0.36770085929E+03  0.00000000000E+00 0.  1.
         -4    1    4    4    0  503 -0.12328281295E+03  0.19787248032E+03 -0.12288062162E+04  0.12507265438E+04  0.00000000000E+00 0. -1.
</event>
<event>
 8    1  0.6759491E-006  0.1189761E+04  0.7818608E-02  0.8615791E-01
         21   -1    0    0  501  502  0.00000000000E+00  0.00000000000E+00  0.13137978104E+04  0.13137978104E+04  0.00000000000E+00 0. -1.
         21   -1    0    0  502  503 -0.00000000000E+00 -0.00000000000E+00 -0.18027311513E+04  0.18027311513E+04  0.00000000000E+00 0. -1.
    9000010    2    1    2  501    0 -0.32150305649E+03  0.54331049521E+03  0.74821860479E+03  0.14054757559E+04  0.10084545157E+04 0.  0.
   -9000010    2    1    2    0  503  0.32150305649E+03 -0.54331049521E+03 -0.12371519457E+04  0.17110532058E+04  0.99930357092E+03 0.  0.
        -13    1    3    3    0    0  0.30715132999E+03 -0.17437438553E+02  0.37240486457E+03  0.48304388838E+03  0.10566000000E+00 0.  1.
         13    1    4    4    0    0 -0.18414649564E+03 -0.12257535138E+03  0.82859585634E+02  0.23622102090E+03  0.10566000000E+00 0. -1.
          4    1    3    3  501    0 -0.62865438648E+03  0.56074793376E+03  0.37581374022E+03  0.92243186751E+03  0.00000000000E+00 0.  1.
         -4    1    4    4    0  503  0.50564955213E+03 -0.42073514383E+03 -0.13200115313E+04  0.14748321849E+04  0.00000000000E+00 0. -1.
</event>
<event>
 8    1  0.6759491E-006  0.9944881E+03  0.7818608E-02  0.8780683E-01
         21   -1    0    0  501  502  0.00000000000E+00  0.00000000000E+00  0.45860590299E+03  0.45860590299E+03  0.00000000000E+00 0.  1.
         21   -1    0    0  502  503 -0.00000000000E+00 -0.00000000000E+00 -0.22897753028E+04  0.22897753028E+04  0.00000000000E+00 0.  1.
    9000010    2    1    2  501    0 -0.50718760043E+02  0.65222907608E+02 -0.12587251015E+04  0.16041805970E+04  0.99104999177E+03 0.  0.
   -9000010    2    1    2    0  503  0.50718760043E+02 -0.65222907608E+02 -0.57244429829E+03  0.11442006088E+04  0.98725687553E+03 0.  0.
        -13    1    3    3    0    0  0.26566720991E+03 -0.22233665996E+03 -0.10914032416E+04  0.11450649343E+04  0.10566000000E+00 0.  1.
         13    1    4    4    0    0 -0.10781173216E+03  0.34152375931E+03  0.72500281368E+02  0.36540135430E+03  0.10566000000E+00 0. -1.
          4    1    3    3  501    0 -0.31638596996E+03  0.28755956757E+03 -0.16732185987E+03  0.45911566263E+03  0.00000000000E+00 0.  1.
         -4    1    4    4    0  503  0.15853049220E+03 -0.40674666692E+03 -0.64494457966E+03  0.77879925451E+03  0.00000000000E+00 0. -1.
</event>
<event>
 8    1  0.6759491E-006  0.1027624E+04  0.7818608E-02  0.8755343E-01
         21   -1    0    0  503  502  0.00000000000E+00  0.00000000000E+00  0.13850539419E+04  0.13850539419E+04  0.00000000000E+00 0.  1.
         21   -1    0    0  501  503 -0.00000000000E+00 -0.00000000000E+00 -0.98991868247E+03  0.98991868247E+03  0.00000000000E+00 0.  1.
    9000010    2    1    2  501    0  0.23635227357E+03 -0.29024119886E+02 -0.39823512230E+03  0.10767249606E+04  0.97161753355E+03 0.  0.
   -9000010    2    1    2    0  502 -0.23635227357E+03  0.29024119886E+02  0.79337038176E+03  0.12982476638E+04  0.99965275822E+03 0.  0.
        -13    1    3    3    0    0  0.23020025134E+03  0.13896576758E+03  0.27393448063E+03  0.38385381478E+03  0.10566000000E+00 0.  1.
         13    1    4    4    0    0  0.31751215862E+03 -0.17760653584E+03  0.54893984977E+03  0.65855373530E+03  0.10566000000E+00 0. -1.
          4    1    3    3  501    0  0.61520222250E+01 -0.16798988746E+03 -0.67216960294E+03  0.69287114587E+03  0.00000000000E+00 0.  1.
         -4    1    4    4    0  502 -0.55386443219E+03  0.20663065573E+03  0.24443053199E+03  0.63969392845E+03  0.00000000000E+00 0. -1.
</event>
<event>
 8    1  0.6759491E-006  0.1032564E+04  0.7818608E-02  0.8745553E-01
         21   -1    0    0  503  502  0.00000000000E+00  0.00000000000E+00  0.95205152465E+03  0.95205152465E+03  0.00000000000E+00 0.  1.
         21   -1    0    0  501  503 -0.00000000000E+00 -0.00000000000E+00 -0.11306513817E+04  0.11306513817E+04  0.00000000000E+00 0.  1.
    9000010    2    1    2  501    0 -0.24366255335E+03  0.24737671359E+01  0.32089135597E+02  0.10330626736E+04  0.10033998284E+04 0.  0.
   -9000010    2    1    2    0  502  0.24366255335E+03 -0.24737671359E+01 -0.21068899266E+03  0.10496402327E+04  0.99898809156E+03 0.  0.
        -13    1    3    3    0    0 -0.33472050743E+03  0.37161208340E+03 -0.25048276516E+03  0.55935229099E+03  0.10566000000E+00 0.  1.
         13    1    4    4    0    0 -0.30841883637E+03 -0.22361003028E+03  0.77526486607E+02  0.38875955495E+03  0.10566000000E+00 0. -1.
          4    1    3    3  501    0  0.91057954078E+02 -0.36913831627E+03  0.28257190076E+03  0.47371038266E+03  0.00000000000E+00 0.  1.
         -4    1    4    4    0  502  0.55208138973E+03  0.22113626314E+03 -0.28821547927E+03  0.66088067777E+03  0.00000000000E+00 0. -1.
</event>
<event>
 8    1  0.6759491E-006  0.1016944E+04  0.7818608E-02  0.8759623E-01
         21   -1    0    0  503  502  0.00000000000E+00  0.00000000000E+00  0.10447400428E+04  0.10447400428E+04  0.00000000000E+00 0.  1.
         21   -1    0    0  501  503 -0.00000000000E+00 -0.00000000000E+00 -0.11705977589E+04  0.11705977589E+04  0.00000000000E+00 0.  1.
    9000010    2    1    2  501    0 -0.10228298907E+03 -0.67497615174E+02 -0.50222408443E+03  0.11341977454E+04  0.10095334352E+04 0.  0.
   -9000010    2    1    2    0  502  0.10228298907E+03  0.67497615174E+02  0.37636636832E+03  0.10811400563E+04  0.10060787445E+04 0.  0.
        -13    1    3    3    0    0 -0.83035733484E+02  0.41712116025E+03 -0.49028656683E+03  0.64905001667E+03  0.10566000000E+00 0.  1.
         13    1    4    4    0    0  0.35978928800E+03 -0.17105741740E+03 -0.16885662921E+03  0.43269104936E+03  0.10566000000E+00 0. -1.
          4    1    3    3  501    0 -0.19247255582E+02 -0.48461877542E+03 -0.11937517601E+02  0.48514772870E+03  0.00000000000E+00 0.  1.
         -4    1    4    4    0  502 -0.25750629893E+03  0.23855503257E+03  0.54522299753E+03  0.64844900693E+03  0.00000000000E+00 0. -1.
</event>
<event>
 8    1  0.6759491E-006  0.1185081E+04  0.7818608E-02  0.8620115E-01
         21   -1    0    0  503  502  0.00000000000E+00  0.00000000000E+00  0.20399144310E+04  0.20399144310E+04  0.00000000000E+00 0.  1.
         21   -1    0    0  501  503 -0.00000000000E+00 -0.00000000000E+00 -0.74842990548E+03  0.74842990548E+03  0.00000000000E+00 0.  1.
    9000010    2    1    2  501    0 -0.45617793814E+03 -0.42149531043E+03  0.22665160587E+03  0.11951441558E+04  0.99561136732E+03 0.  0.
   -9000010    2    1    2    0  502  0.45617793814E+03  0.42149531043E+03  0.10648329196E+04  0.15932001807E+04  0.10092874026E+04 0.  0.
        -13    1    3    3    0    0 -0.64824162835E+02 -0.67124399765E+03 -0.91700565305E+01  0.67442922355E+03  0.10566000000E+00 0.  1.
         13    1    4    4    0    0 -0.19540792305E+03  0.32630848384E+03  0.79549669181E+03  0.88174626785E+03  0.10566000000E+00 0. -1.
          4    1    3    3  501    0 -0.39135377531E+03  0.24974868722E+03  0.23582166240E+03  0.52071493226E+03  0.00000000000E+00 0.  1.
         -4    1    4    4    0  502  0.65158586120E+03  0.95186826592E+02  0.26933622783E+03  0.71145391284E+03  0.00000000000E+00 0. -1.
</event>
<event>
 8    1  0.6759491E-006  0.1067502E+04  0.7818608E-02  0.8723055E-01
         21   -1    0    0  501  502  0.00000000000E+00  0.00000000000E+00  0.14100440691E+04  0.14100440691E+04  0.00000000000E+00 0.  1.
         21   -1    0    0  502  503 -0.00000000000E+00 -0.00000000000E+00 -0.89685881476E+03  0.89685881476E+03  0.00000000000E+00 0.  1.
    9000010    2    1    2  501    0  0.29808370675E+03 -0.15366694359E+03 -0.17071537188E+03  0.10391168736E+04  0.96858283745E+03 0.  0.
   -9000010    2    1    2    0  503 -0.29808370675E+03  0.15366694359E+03  0.68390062620E+03  0.12677860102E+04  0.10134564004E+04 0.  0.
        -13    1    3    3    0    0  0.26796605325E+03 -0.45601766556E+03 -0.39610486439E+03  0.66080026616E+03  0.10566000000E+00 0.  1.
         13    1    4    4    0    0 -0.52786939838E+03  0.29848277094E+03  0.77250183026E+03  0.98208816061E+03  0.10566000000E+00 0. -1.
          4    1    3    3  501    0  0.30117653501E+02  0.30235072197E+03  0.22538949250E+03  0.37831660743E+03  0.00000000000E+00 0.  1.
         -4    1    4    4    0  503  0.22978569162E+03 -0.14481582735E+03 -0.88601204053E+02  0.28569784963E+03  0.00000000000E+00 0. -1.
</event>
<event>
 8    1  0.6759491E-006  0.1009691E+04  0.7818608E-02  0.8767095E-01
         21   -1    0    0  501  502  0.00000000000E+00  0.00000000000E+00  0.10013646682E+04  0.10013646682E+04  0.00000000000E+00 0. -1.
         21   -1    0    0  502  503 -0.00000000000E+00 -0.00000000000E+00 -0.11945454210E+04  0.11945454210E+04  0.00000000000E+00 0. -1.
    9000010    2    1    2  501    0  0.55150684792E+02  0.36729644188E+02  0.33363307710E+03  0.10570470617E+04  0.10008230592E+04 0.  0.
   -9000010    2    1    2    0  503 -0.55150684792E+02 -0.36729644188E+02 -0.52681382992E+03  0.11388630274E+04  0.10075145255E+04 0.  0.
        -13    1    3    3    0    0  0.21612017803E+03  0.45311817534E+03  0.38634393605E+01  0.50203480905E+03  0.10566000000E+00 0.  1.
         13    1    4    4    0    0  0.40005412233E+03 -0.18090170363E+03 -0.49301775178E+03  0.66017818951E+03  0.10566000000E+00 0. -1.
          4    1    3    3  501    0 -0.16096949324E+03 -0.41638853115E+03  0.32976963774E+03  0.55501225266E+03  0.00000000000E+00 0.  1.
         -4    1    4    4    0  503 -0.45520480713E+03  0.14417205945E+03 -0.33796078143E+02  0.47868483792E+03  0.00000000000E+00 0. -1.
</event>
<event>
 8    1  0.6759491E-006  0.1026087E+04  0.7818608E-02  0.8755944E-01
         21   -1    0    0  503  502  0.00000000000E+00  0.00000000000E+00  0.11840179335E+04  0.11840179335E+04  0.00000000000E+00 0.  1.
         21   -1    0    0  501  503 -0.00000000000E+00 -0.00000000000E+00 -0.91366210570E+03  0.91366210570E+03  0.00000000000E+00 0.  1.
    9000010    2    1    2  501    0  0.18679676922E+03  0.53025530865E+02  0.36626564056E+03  0.10671199301E+04  0.98330548962E+03 0.  0.
   -9000010    2    1    2    0  502 -0.18679676922E+03 -0.53025530865E+02 -0.95909812789E+02  0.10305601090E+04  0.10075468754E+04 0.  0.
        -13    1    3    3    0    0  0.39069552049E+02  0.49775362268E+03  0.50044851741E+02  0.50178640590E+03  0.10566000000E+00 0.  1.
         13    1    4    4    0    0  0.33061940910E+03  0.19213291873E+03 -0.22493597076E+03  0.44364451336E+03  0.10566000000E+00 0. -1.
          4    1    3    3  501    0  0.14772721718E+03 -0.44472809182E+03  0.31622078882E+03  0.56533352424E+03  0.00000000000E+00 0.  1.
         -4    1    4    4    0  502 -0.51741617833E+03 -0.24515844959E+03  0.12902615797E+03  0.58691559567E+03  0.00000000000E+00 0. -1.
</event>
<event>
 8    1  0.6759491E-006  0.1066261E+04  0.7818608E-02  0.8721013E-01
         21   -1    0    0  503  502  0.00000000000E+00  0.00000000000E+00  0.15939113356E+04  0.15939113356E+04  0.00000000000E+00 0. -1.
         21   -1    0    0  501  503 -0.00000000000E+00 -0.00000000000E+00 -0.70700788565E+03  0.70700788565E+03  0.00000000000E+00 0. -1.
    9000010    2    1    2  501    0  0.46733222751E+02 -0.29388251423E+03  0.28321485106E+03  0.10756225547E+04  0.99408364937E+03 0.  0.
   -9000010    2    1    2    0  502 -0.46733222751E+02  0.29388251423E+03  0.60368859890E+03  0.12252966666E+04  0.10238950486E+04 0.  0.
        -13    1    3    3    0    0 -0.10866044786E+03 -0.51325577415E+03 -0.16758582250E+03  0.55074821987E+03  0.10566000000E+00 0.  1.
         13    1    4    4    0    0 -0.31478497982E+03 -0.81679207775E+02  0.68360453895E+03  0.75701800067E+03  0.10566000000E+00 0. -1.
          4    1    3    3  501    0  0.15539367061E+03  0.21937325992E+03  0.45080067356E+03  0.52487433479E+03  0.00000000000E+00 0.  1.
         -4    1    4    4    0  502  0.26805175706E+03  0.37556172200E+03 -0.79915940049E+02  0.46827866594E+03  0.00000000000E+00 0. -1.
</event>
<event>
 8    1  0.7258571E-006  0.1122403E+04  0.7818608E-02  0.8676682E-01
         21   -1    0    0  501  502  0.00000000000E+00  0.00000000000E+00  0.14953365773E+04  0.14953365773E+04  0.00000000000E+00 0.  1.
         21   -1    0    0  502  503 -0.00000000000E+00 -0.00000000000E+00 -0.10065256354E+04  0.10065256354E+04  0.00000000000E+00 0.  1.
    9000010    2    1    2  501    0 -0.16833002185E+03 -0.40043150968E+03  0.80185926045E+03  0.13794081959E+04  0.10349436251E+04 0.  0.
   -9000010    2    1    2    0  503  0.16833002185E+03  0.40043150968E+03 -0.31304831854E+03  0.11224540168E+04  0.98652084619E+03 0.  0.
        -13    1    3    3    0    0 -0.34719398826E+03 -0.52110792363E+03  0.93541299165E+03  0.11256529704E+04  0.10566000000E+00 0.  1.
         13    1    4    4    0    0 -0.41131893758E+02  0.19498300381E+03 -0.64754534198E+03  0.67751397443E+03  0.10566000000E+00 0. -1.
          4    1    3    3  501    0  0.17886396641E+03  0.12067641395E+03 -0.13355373120E+03  0.25375522552E+03  0.00000000000E+00 0.  1.
         -4    1    4    4    0  503  0.20946191561E+03  0.20544850587E+03  0.33449702344E+03  0.44494004241E+03  0.00000000000E+00 0. -1.
</event>
<event>
 8    1  0.6759491E-006  0.1203661E+04  0.7818608E-02  0.8608493E-01
         21   -1    0    0  503  502  0.00000000000E+00  0.00000000000E+00  0.18668768778E+04  0.18668768778E+04  0.00000000000E+00 0. -1.
         21   -1    0    0  501  503 -0.00000000000E+00 -0.00000000000E+00 -0.95014695696E+03  0.95014695696E+03  0.00000000000E+00 0. -1.
    9000010    2    1    2  501    0  0.44145102466E+03 -0.45977651902E+03 -0.17515035861E+03  0.11919080189E+04  0.99181330035E+03 0.  0.
   -9000010    2    1    2    0  502 -0.44145102466E+03  0.45977651902E+03  0.10918802794E+04  0.16251158158E+04  0.10210413389E+04 0.  0.
        -13    1    3    3    0    0  0.48569098294E+03 -0.68411008588E+03 -0.34491648653E+03  0.90712167561E+03  0.10566000000E+00 0.  1.
         13    1    4    4    0    0 -0.11571829390E+03  0.75795374753E+02 -0.19737245602E+03  0.24102190759E+03  0.10566000000E+00 0. -1.
          4    1    3    3  501    0 -0.44239958286E+02  0.22433356686E+03  0.16976612792E+03  0.28478634328E+03  0.00000000000E+00 0.  1.
         -4    1    4    4    0  502 -0.32573273075E+03  0.38398114427E+03  0.12892527354E+04  0.13840939083E+04  0.00000000000E+00 0. -1.
</event>
<event>
 8    1  0.6759491E-006  0.1009972E+04  0.7818608E-02  0.8767924E-01
         21   -1    0    0  501  502  0.00000000000E+00  0.00000000000E+00  0.99030035350E+03  0.99030035350E+03  0.00000000000E+00 0.  1.
         21   -1    0    0  502  503 -0.00000000000E+00 -0.00000000000E+00 -0.13723063478E+04  0.13723063478E+04  0.00000000000E+00 0.  1.
    9000010    2    1    2  501    0 -0.64015838540E+02  0.11489966645E+03  0.40799950010E+03  0.10892686931E+04  0.10013704273E+04 0.  0.
   -9000010    2    1    2    0  503  0.64015838540E+02 -0.11489966645E+03 -0.79000549438E+03  0.12733380082E+04  0.98993991794E+03 0.  0.
        -13    1    3    3    0    0  0.93646054367E+02 -0.32158074557E+03  0.51375150204E+03  0.61328979808E+03  0.10566000000E+00 0.  1.
         13    1    4    4    0    0 -0.17773680456E+03  0.22224787002E+03 -0.80945041934E+03  0.85801776203E+03  0.10566000000E+00 0. -1.
          4    1    3    3  501    0 -0.15766189291E+03  0.43648041201E+03 -0.10575200194E+03  0.47597889497E+03  0.00000000000E+00 0.  1.
         -4    1    4    4    0  503  0.24175264310E+03 -0.33714753647E+03  0.19444924963E+02  0.41532024620E+03  0.00000000000E+00 0. -1.
</event>
<event>
 8    1  0.6759491E-006  0.1150994E+04  0.7818608E-02  0.8652261E-01
         21   -1    0    0  501  502  0.00000000000E+00  0.00000000000E+00  0.11733799502E+04  0.11733799502E+04  0.00000000000E+00 0.  1.
         21   -1    0    0  502  503 -0.00000000000E+00 -0.00000000000E+00 -0.11588911387E+04  0.11588911387E+04  0.00000000000E+00 0.  1.
    9000010    2    1    2  501    0  0.52400609995E+03 -0.43850444224E+02 -0.27475967057E+03  0.11454889995E+04  0.97987086758E+03 0.  0.
   -9000010    2    1    2    0  503 -0.52400609995E+03  0.43850444224E+02  0.28924848203E+03  0.11867820895E+04  0.10238563323E+04 0.  0.
        -13    1    3    3    0    0  0.44922523526E+03  0.30891534909E+03  0.17170013939E+03  0.57158809813E+03  0.10566000000E+00 0.  1.
         13    1    4    4    0    0 -0.79966861856E+01  0.10296288318E+03  0.58164952603E+03  0.59074654852E+03  0.10566000000E+00 0. -1.
          4    1    3    3  501    0  0.74780864691E+02 -0.35276579331E+03 -0.44645980997E+03  0.57390090135E+03  0.00000000000E+00 0.  1.
         -4    1    4    4    0  503 -0.51600941376E+03 -0.59112438951E+02 -0.29240104400E+03  0.59603554094E+03  0.00000000000E+00 0. -1.
</event>
<event>
 8    1  0.6759491E-006  0.1025340E+04  0.7818608E-02  0.8763595E-01
         21   -1    0    0  501  502  0.00000000000E+00  0.00000000000E+00  0.13241805116E+04  0.13241805116E+04  0.00000000000E+00 0.  1.
         21   -1    0    0  502  503 -0.00000000000E+00 -0.00000000000E+00 -0.15096045154E+04  0.15096045154E+04  0.00000000000E+00 0.  1.
    9000010    2    1    2  501    0  0.16098459827E+03 -0.86233451532E+02  0.90875551623E+03  0.13700943172E+04  0.10089447957E+04 0.  0.
   -9000010    2    1    2    0  503 -0.16098459827E+03  0.86233451532E+02 -0.10941795200E+04  0.14636907099E+04  0.95488712580E+03 0.  0.
        -13    1    3    3    0    0  0.14468986636E+03 -0.42440671834E+03  0.92834646752E+03  0.10309623635E+04  0.10566000000E+00 0.  1.
         13    1    4    4    0    0 -0.42189412289E+03  0.36837256911E+03 -0.81415676318E+03  0.98820253328E+03  0.10566000000E+00 0. -1.
          4    1    3    3  501    0  0.16294731904E+02  0.33817326681E+03 -0.19590951288E+02  0.33913195374E+03  0.00000000000E+00 0.  1.
         -4    1    4    4    0  503  0.26090952462E+03 -0.28213911757E+03 -0.28002275686E+03  0.47548817658E+03  0.00000000000E+00 0. -1.
</event>
<event>
 8    1  0.6759491E-006  0.1013937E+04  0.7818608E-02  0.8764599E-01
         21   -1    0    0  503  502  0.00000000000E+00  0.00000000000E+00  0.19317001589E+04  0.19317001589E+04  0.00000000000E+00 0. -1.
         21   -1    0    0  501  503 -0.00000000000E+00 -0.00000000000E+00 -0.53327163821E+03  0.53327163821E+03  0.00000000000E+00 0. -1.
    9000010    2    1    2  501    0  0.23585618931E+02 -0.67156510715E+02  0.85263206803E+03  0.13247827800E+04  0.10114354614E+04 0.  0.
   -9000010    2    1    2    0  502 -0.23585618931E+02  0.67156510715E+02  0.54579645264E+03  0.11401890171E+04  0.99853440028E+03 0.  0.
        -13    1    3    3    0    0 -0.46174505579E+03  0.12832210295E+03  0.50731093218E+03  0.69788211879E+03  0.10566000000E+00 0.  1.
         13    1    4    4    0    0  0.57041217806E+02  0.47534862417E+03  0.54324431278E+03  0.72410248554E+03  0.10566000000E+00 0. -1.
          4    1    3    3  501    0  0.48533067472E+03 -0.19547861366E+03  0.34532113585E+03  0.62690066126E+03  0.00000000000E+00 0.  1.
         -4    1    4    4    0  502 -0.80626836737E+02 -0.40819211346E+03  0.25521398629E+01  0.41608653151E+03  0.00000000000E+00 0. -1.
</event>
<event>
 8    1  0.6759491E-006  0.1352968E+04  0.7818608E-02  0.8509350E-01
         21   -1    0    0  501  502  0.00000000000E+00  0.00000000000E+00  0.10695320667E+04  0.10695320667E+04  0.00000000000E+00 0.  1.
         21   -1    0    0  502  503 -0.00000000000E+00 -0.00000000000E+00 -0.17254304358E+04  0.17254304358E+04  0.00000000000E+00 0.  1.
    9000010    2    1    2  501    0  0.78581669847E+03 -0.20627153473E+03 -0.63629184616E+03  0.14418527421E+04  0.10069837074E+04 0.  0.
   -9000010    2    1    2    0  503 -0.78581669847E+03  0.20627153473E+03 -0.19606522949E+02  0.13531097604E+04  0.10818806673E+04 0.  0.
        -13    1    3    3    0    0  0.47649111247E+02  0.19943993813E+03 -0.55968104583E+03  0.59606175095E+03  0.10566000000E+00 0.  1.
         13    1    4    4    0    0 -0.32506569071E+03  0.62800641310E+03  0.10867687309E+03  0.71545120874E+03  0.10566000000E+00 0. -1.
          4    1    3    3  501    0  0.73816758723E+03 -0.40571147286E+03 -0.76610800332E+02  0.84579099119E+03  0.00000000000E+00 0.  1.
         -4    1    4    4    0  503 -0.46075100776E+03 -0.42173487837E+03 -0.12828339604E+03  0.63765855164E+03  0.00000000000E+00 0. -1.
</event>
<event>
 8    1  0.6759491E-006  0.1016942E+04  0.7818608E-02  0.8758897E-01
         21   -1    0    0  501  502  0.00000000000E+00  0.00000000000E+00  0.12633015397E+04  0.12633015397E+04  0.00000000000E+00 0.  1.
         21   -1    0    0  502  503 -0.00000000000E+00 -0.00000000000E+00 -0.89156249250E+03  0.89156249250E+03  0.00000000000E+00 0.  1.
    9000010    2    1    2  501    0  0.97211241370E+02  0.21094271317E+03  0.49452277574E+03  0.11308069812E+04  0.99006302796E+03 0.  0.
   -9000010    2    1    2    0  503 -0.97211241370E+02 -0.21094271317E+03 -0.12278372854E+03  0.10240570510E+04  0.98978287820E+03 0.  0.
        -13    1    3    3    0    0  0.26793627202E+03 -0.26150068020E+03 -0.63761665929E+02  0.37978679916E+03  0.10566000000E+00 0.  1.
         13    1    4    4    0    0 -0.46070222334E+03 -0.35700573975E+03  0.70754197071E+02  0.58711651686E+03  0.10566000000E+00 0. -1.
          4    1    3    3  501    0 -0.17072503065E+03  0.47244339337E+03  0.55828444167E+03  0.75102018205E+03  0.00000000000E+00 0.  1.
         -4    1    4    4    0  503  0.36349098197E+03  0.14606302658E+03 -0.19353792561E+03  0.43694053412E+03  0.00000000000E+00 0. -1.
</event>
<event>
 8    1  0.6759491E-006  0.1025698E+04  0.7818608E-02  0.8753045E-01
         21   -1    0    0  501  502  0.00000000000E+00  0.00000000000E+00  0.10713733675E+04  0.10713733675E+04  0.00000000000E+00 0.  1.
         21   -1    0    0  502  503 -0.00000000000E+00 -0.00000000000E+00 -0.10415321902E+04  0.10415321902E+04  0.00000000000E+00 0.  1.
    9000010    2    1    2  501    0 -0.17724196357E+03  0.62930886931E+02  0.28664653214E+03  0.10649988363E+04  0.10083061424E+04 0.  0.
   -9000010    2    1    2    0  503  0.17724196357E+03 -0.62930886931E+02 -0.25680535489E+03  0.10479067214E+04  0.99839095361E+03 0.  0.
        -13    1    3    3    0    0 -0.39443775487E+03  0.23224811790E+02 -0.26166034147E+03  0.47390577103E+03  0.10566000000E+00 0.  1.
         13    1    4    4    0    0  0.25252052822E+02 -0.16147542632E+03  0.36517776166E+03  0.40008347660E+03  0.10566000000E+00 0. -1.
          4    1    3    3  501    0  0.21719579131E+03  0.39706075141E+02  0.54830687362E+03  0.59109306528E+03  0.00000000000E+00 0.  1.
         -4    1    4    4    0  503  0.15198991075E+03  0.98544539384E+02 -0.62198311655E+03  0.64782324479E+03  0.00000000000E+00 0. -1.
</event>
<event>
 8    1  0.6759491E-006  0.1090990E+04  0.7818608E-02  0.8705579E-01
         21   -1    0    0  503  502  0.00000000000E+00  0.00000000000E+00  0.14860102678E+04  0.14860102678E+04  0.00000000000E+00 0.  1.
         21   -1    0    0  501  503 -0.00000000000E+00 -0.00000000000E+00 -0.92178544358E+03  0.92178544358E+03  0.00000000000E+00 0.  1.
    9000010    2    1    2  501    0  0.13684783061E+03 -0.22978985649E+03 -0.21493861152E+03  0.11119615126E+04  0.10576999063E+04 0.  0.
   -9000010    2    1    2    0  502 -0.13684783061E+03  0.22978985649E+03  0.77916343576E+03  0.12958341988E+04  0.10002799130E+04 0.  0.
        -13    1    3    3    0    0 -0.18272237694E+03 -0.21989161567E+03 -0.56784766012E+03  0.63575999084E+03  0.10566000000E+00 0.  1.
         13    1    4    4    0    0 -0.28827373082E+03  0.43383606199E+03  0.49538369626E+02  0.52322990529E+03  0.10566000000E+00 0. -1.
          4    1    3    3  501    0  0.31957020755E+03 -0.98982408248E+01  0.35290904860E+03  0.47620152174E+03  0.00000000000E+00 0.  1.
         -4    1    4    4    0  502  0.15142590022E+03 -0.20404620550E+03  0.72962506614E+03  0.77260429352E+03  0.00000000000E+00 0. -1.
</event>
<event>
 8    1  0.6759491E-006  0.1132142E+04  0.7818608E-02  0.8660587E-01
         21   -1    0    0  501  502  0.00000000000E+00  0.00000000000E+00  0.17229432324E+04  0.17229432324E+04  0.00000000000E+00 0. -1.
         21   -1    0    0  502  503 -0.00000000000E+00 -0.00000000000E+00 -0.16633398815E+04  0.16633398815E+04  0.00000000000E+00 0. -1.
    9000010    2    1    2  501    0 -0.17534888006E+03 -0.50219090635E+03  0.12909995701E+04  0.17135364536E+04  0.99326952610E+03 0.  0.
   -9000010    2    1    2    0  503  0.17534888006E+03  0.50219090635E+03 -0.12313962193E+04  0.16727466603E+04  0.99940072265E+03 0.  0.
        -13    1    3    3    0    0 -0.56352678888E+03 -0.46906199199E+03  0.90987876650E+03  0.11685294070E+04  0.10566000000E+00 0.  1.
         13    1    4    4    0    0  0.76258525737E+02 -0.17831561983E+03  0.65588627648E+02  0.20472836214E+03  0.10566000000E+00 0. -1.
          4    1    3    3  501    0  0.38817790882E+03 -0.33128914354E+02  0.38112080365E+03  0.54500704659E+03  0.00000000000E+00 0.  1.
         -4    1    4    4    0  503  0.99090354320E+02  0.68050652618E+03 -0.12969848469E+04  0.14680182981E+04  0.00000000000E+00 0. -1.
</event>
<event>
 8    1  0.7024084E-006  0.1035167E+04  0.7818608E-02  0.8752944E-01
         21   -1    0    0  501  502  0.00000000000E+00  0.00000000000E+00  0.15436140197E+04  0.15436140197E+04  0.00000000000E+00 0.  1.
         21   -1    0    0  502  503 -0.00000000000E+00 -0.00000000000E+00 -0.84008538786E+03  0.84008538786E+03  0.00000000000E+00 0.  1.
    9000010    2    1    2  501    0 -0.12608127930E+03 -0.80117515636E+02  0.90457760682E+03  0.13747111085E+04  0.10243313330E+04 0.  0.
   -9000010    2    1    2    0  503  0.12608127930E+03  0.80117515636E+02 -0.20104897501E+03  0.10089882990E+04  0.97740543884E+03 0.  0.
        -13    1    3    3    0    0  0.60756183788E+01  0.45892687279E+03  0.27341425295E+03  0.53423417393E+03  0.10566000000E+00 0.  1.
         13    1    4    4    0    0  0.42282985021E+03 -0.64427360412E+02  0.21434822807E+03  0.47841523914E+03  0.10566000000E+00 0. -1.
          4    1    3    3  501    0 -0.13215689768E+03 -0.53904438843E+03  0.63116335388E+03  0.84047693459E+03  0.00000000000E+00 0.  1.
         -4    1    4    4    0  503 -0.29674857091E+03  0.14454487605E+03 -0.41539720309E+03  0.53057305987E+03  0.00000000000E+00 0. -1.
</event>
<event>
 8    1  0.6759491E-006  0.1015799E+04  0.7818608E-02  0.8760264E-01
         21   -1    0    0  503  502  0.00000000000E+00  0.00000000000E+00  0.80590892658E+03  0.80590892658E+03  0.00000000000E+00 0.  1.
         21   -1    0    0  501  503 -0.00000000000E+00 -0.00000000000E+00 -0.13130076123E+04  0.13130076123E+04  0.00000000000E+00 0.  1.
    9000010    2    1    2  501    0 -0.21870860717E+03 -0.23768645579E+02 -0.42560838838E+03  0.10998540596E+04  0.99001921640E+03 0.  0.
   -9000010    2    1    2    0  502  0.21870860717E+03  0.23768645579E+02 -0.81490297351E+02  0.10190624793E+04  0.99169010519E+03 0.  0.
        -13    1    3    3    0    0  0.36138450984E+03  0.14198432641E+02  0.27626219316E+02  0.36271694005E+03  0.10566000000E+00 0.  1.
         13    1    4    4    0    0  0.66756158121E+02  0.45439705656E+03  0.17948244729E+03  0.49309941159E+03  0.10566000000E+00 0. -1.
          4    1    3    3  501    0 -0.58009311701E+03 -0.37967078219E+02 -0.45323460770E+03  0.73713711957E+03  0.00000000000E+00 0.  1.
         -4    1    4    4    0  502  0.15195244905E+03 -0.43062841099E+03 -0.26097274464E+03  0.52596306768E+03  0.00000000000E+00 0. -1.
</event>
<event>
 8    1  0.6759491E-006  0.1028979E+04  0.7818608E-02  0.8754891E-01
         21   -1    0    0  503  502  0.00000000000E+00  0.00000000000E+00  0.41284455229E+03  0.41284455229E+03  0.00000000000E+00 0.  1.
         21   -1    0    0  501  503 -0.00000000000E+00 -0.00000000000E+00 -0.25756391669E+04  0.25756391669E+04  0.00000000000E+00 0.  1.
    9000010    2    1    2  501    0 -0.15815821063E+03 -0.18871225016E+03 -0.13398206831E+04  0.16708786877E+04  0.96751733482E+03 0.  0.
   -9000010    2    1    2    0  502  0.15815821063E+03  0.18871225016E+03 -0.82297393150E+03  0.13176050315E+04  0.99908487832E+03 0.  0.
        -13    1    3    3    0    0 -0.40858769447E+03  0.23630364489E+03 -0.86921329059E+03  0.98909811059E+03  0.10566000000E+00 0.  1.
         13    1    4    4    0    0  0.74894333727E+02 -0.29681273335E+03 -0.76205494128E+03  0.82123973637E+03  0.10566000000E+00 0. -1.
          4    1    3    3  501    0  0.25042948384E+03 -0.42501589506E+03 -0.47060739248E+03  0.68178057708E+03  0.00000000000E+00 0.  1.
         -4    1    4    4    0  502  0.83263876901E+02  0.48552498351E+03 -0.60918990216E+02  0.49636529510E+03  0.00000000000E+00 0. -1.
</event>
<event>
 8    1  0.6759491E-006  0.1125593E+04  0.7818608E-02  0.8668475E-01
         21   -1    0    0  503  502  0.00000000000E+00  0.00000000000E+00  0.16424107117E+04  0.16424107117E+04  0.00000000000E+00 0. -1.
         21   -1    0    0  501  503 -0.00000000000E+00 -0.00000000000E+00 -0.78613456936E+03  0.78613456936E+03  0.00000000000E+00 0. -1.
    9000010    2    1    2  501    0 -0.41945158430E+03  0.25502729577E+03  0.20663519132E+03  0.11444031468E+04  0.10129076498E+04 0.  0.
   -9000010    2    1    2    0  502  0.41945158430E+03 -0.25502729577E+03  0.64964095106E+03  0.12841421343E+04  0.99297991048E+03 0.  0.
        -13    1    3    3    0    0  0.15227373603E+03  0.46710345987E+03 -0.25408013322E+02  0.49195376939E+03  0.10566000000E+00 0.  1.
         13    1    4    4    0    0  0.31083253325E+03  0.27685043860E+03 -0.26444097637E+02  0.41708791705E+03  0.10566000000E+00 0. -1.
          4    1    3    3  501    0 -0.57172532033E+03 -0.21207616410E+03  0.23204320465E+03  0.65244937743E+03  0.00000000000E+00 0.  1.
         -4    1    4    4    0  502  0.10861905104E+03 -0.53187773438E+03  0.67608504870E+03  0.86705421725E+03  0.00000000000E+00 0. -1.
</event>
<event>
 8    1  0.6759491E-006  0.1109089E+04  0.7818608E-02  0.8680808E-01
         21   -1    0    0  501  502  0.00000000000E+00  0.00000000000E+00  0.13595174482E+04  0.13595174482E+04  0.00000000000E+00 0.  1.
         21   -1    0    0  502  503 -0.00000000000E+00 -0.00000000000E+00 -0.10731513451E+04  0.10731513451E+04  0.00000000000E+00 0.  1.
    9000010    2    1    2  501    0  0.14564907024E+03  0.45174543276E+03  0.63781844787E+03  0.12692271580E+04  0.98936222810E+03 0.  0.
   -9000010    2    1    2    0  503 -0.14564907024E+03 -0.45174543276E+03 -0.35145234480E+03  0.11634416353E+04  0.10023921890E+04 0.  0.
        -13    1    3    3    0    0  0.22924607570E+03 -0.22136821211E+03 -0.26539366013E+02  0.31978429866E+03  0.10566000000E+00 0.  1.
         13    1    4    4    0    0  0.20305347751E+03 -0.59979448818E+03  0.19093222673E+02  0.63352087976E+03  0.10566000000E+00 0. -1.
          4    1    3    3  501    0 -0.83597005456E+02  0.67311364487E+03  0.66435781388E+03  0.94944285931E+03  0.00000000000E+00 0.  1.
         -4    1    4    4    0  503 -0.34870254776E+03  0.14804905542E+03 -0.37054556747E+03  0.52992075558E+03  0.00000000000E+00 0. -1.
</event>
<event>
 8    1  0.6759491E-006  0.1019674E+04  0.7818608E-02  0.8757329E-01
         21   -1    0    0  501  502  0.00000000000E+00  0.00000000000E+00  0.12969802198E+04  0.12969802198E+04  0.00000000000E+00 0. -1.
         21   -1    0    0  502  503 -0.00000000000E+00 -0.00000000000E+00 -0.12026760354E+04  0.12026760354E+04  0.00000000000E+00 0. -1.
    9000010    2    1    2  501    0  0.10013273038E+03 -0.16249328135E+03  0.77200593342E+03  0.12789562069E+04  0.10016512306E+04 0.  0.
   -9000010    2    1    2    0  503 -0.10013273038E+03  0.16249328135E+03 -0.67770174910E+03  0.12207000483E+04  0.99719522513E+03 0.  0.
        -13    1    3    3    0    0  0.17703804092E+03 -0.46309748748E+03  0.56407102508E+02  0.49898248789E+03  0.10566000000E+00 0.  1.
         13    1    4    4    0    0 -0.97666454311E+02  0.43154199892E+03 -0.80840995572E+03  0.92157143011E+03  0.10566000000E+00 0. -1.
          4    1    3    3  501    0 -0.76905310542E+02  0.30060420612E+03  0.71559883091E+03  0.77997371900E+03  0.00000000000E+00 0.  1.
         -4    1    4    4    0  503 -0.24662760713E+01 -0.26904871757E+03  0.13070820662E+03  0.29912861819E+03  0.00000000000E+00 0. -1.
</event>
<event>
 8    1  0.6759491E-006  0.1011644E+04  0.7818608E-02  0.8765193E-01
         21   -1    0    0  503  502  0.00000000000E+00  0.00000000000E+00  0.10785552884E+04  0.10785552884E+04  0.00000000000E+00 0. -1.
         21   -1    0    0  501  503 -0.00000000000E+00 -0.00000000000E+00 -0.10569925214E+04  0.10569925214E+04  0.00000000000E+00 0. -1.
    9000010    2    1    2  501    0  0.23124082082E+02  0.10007826110E+03  0.36144170308E+03  0.10683354826E+04  0.10000751057E+04 0.  0.
   -9000010    2    1    2    0  502 -0.23124082082E+02 -0.10007826110E+03 -0.33987893613E+03  0.10672123272E+04  0.10064164539E+04 0.  0.
        -13    1    3    3    0    0 -0.19873778123E+03 -0.27006730714E+03 -0.17630962710E+03  0.37883789653E+03  0.10566000000E+00 0.  1.
         13    1    4    4    0    0  0.37052157043E+03 -0.17988481087E+03  0.14583848849E+03  0.43693667187E+03  0.10566000000E+00 0. -1.
          4    1    3    3  501    0  0.22186186331E+03  0.37014556824E+03  0.53775133018E+03  0.68949758607E+03  0.00000000000E+00 0.  1.
         -4    1    4    4    0  502 -0.39364565252E+03  0.79806549768E+02 -0.48571742461E+03  0.63027565533E+03  0.00000000000E+00 0. -1.
</event>
<event>
 8    1  0.6759491E-006  0.1062981E+04  0.7818608E-02  0.8718378E-01
         21   -1    0    0  501  502  0.00000000000E+00  0.00000000000E+00  0.88414430013E+03  0.88414430013E+03  0.00000000000E+00 0.  1.
         21   -1    0    0  502  503 -0.00000000000E+00 -0.00000000000E+00 -0.12950165342E+04  0.12950165342E+04  0.00000000000E+00 0.  1.
    9000010    2    1    2  501    0  0.34551345769E+03  0.98711233123E+02 -0.64707236663E+02  0.10612345517E+04  0.99644783617E+03 0.  0.
   -9000010    2    1    2    0  503 -0.34551345769E+03 -0.98711233123E+02 -0.34616499741E+03  0.11179262827E+04  0.10004026744E+04 0.  0.
        -13    1    3    3    0    0  0.25469104163E+03 -0.33626071359E+03  0.27356999828E+03  0.50277166717E+03  0.10566000000E+00 0.  1.
         13    1    4    4    0    0 -0.19329436283E+03 -0.21488209709E+03 -0.67675170491E+03  0.73588715685E+03  0.10566000000E+00 0. -1.
          4    1    3    3  501    0  0.90822416064E+02  0.43497194671E+03 -0.33827723494E+03  0.55846288450E+03  0.00000000000E+00 0.  1.
         -4    1    4    4    0  503 -0.15221909486E+03  0.11617086396E+03  0.33058670750E+03  0.38203912581E+03  0.00000000000E+00 0. -1.
</event>
<event>
 8    1  0.6759491E-006  0.1036021E+04  0.7818608E-02  0.8743098E-01
         21   -1    0    0  501  502  0.00000000000E+00  0.00000000000E+00  0.11344983767E+04  0.11344983767E+04  0.00000000000E+00 0. -1.
         21   -1    0    0  502  503 -0.00000000000E+00 -0.00000000000E+00 -0.11863058682E+04  0.11863058682E+04  0.00000000000E+00 0. -1.
    9000010    2    1    2  501    0 -0.18792891410E+03 -0.22064190026E+03  0.50345124722E+03  0.11453676372E+04  0.98711890930E+03 0.  0.
   -9000010    2    1    2    0  503  0.18792891410E+03  0.22064190026E+03 -0.55525873867E+03  0.11754366077E+04  0.99465512961E+03 0.  0.
        -13    1    3    3    0    0  0.16227802720E+03 -0.40247275115E+03 -0.79741076406E+02  0.44122230674E+03  0.10566000000E+00 0.  1.
         13    1    4    4    0    0  0.27387687051E+03  0.22134983128E+03 -0.82250052519E+03  0.89471303395E+03  0.10566000000E+00 0. -1.
          4    1    3    3  501    0 -0.35020694130E+03  0.18183085089E+03  0.58319232362E+03  0.70414533045E+03  0.00000000000E+00 0.  1.
         -4    1    4    4    0  503 -0.85947956411E+02 -0.70793101902E+00  0.26724178652E+03  0.28072357372E+03  0.00000000000E+00 0. -1.
</event>
<event>
 8    1  0.6759491E-006  0.1159363E+04  0.7818608E-02  0.8640781E-01
         21   -1    0    0  503  502  0.00000000000E+00  0.00000000000E+00  0.12471802819E+04  0.12471802819E+04  0.00000000000E+00 0.  1.
         21   -1    0    0  501  503 -0.00000000000E+00 -0.00000000000E+00 -0.12030247120E+04  0.12030247120E+04  0.00000000000E+00 0.  1.
    9000010    2    1    2  501    0  0.17894074751E+03  0.54642577950E+03 -0.39482356116E+03  0.12105177080E+04  0.98937685106E+03 0.  0.
   -9000010    2    1    2    0  502 -0.17894074751E+03 -0.54642577950E+03  0.43897913103E+03  0.12396872859E+04  0.10067377840E+04 0.  0.
        -13    1    3    3    0    0 -0.20406088643E+03 -0.64522793432E+02  0.18682634725E+03  0.28409176587E+03  0.10566000000E+00 0.  1.
         13    1    4    4    0    0  0.37914141455E+03 -0.89332963509E+02  0.32920105042E+03  0.51000189545E+03  0.10566000000E+00 0. -1.
          4    1    3    3  501    0  0.38300163394E+03  0.61094857294E+03 -0.58164990841E+03  0.92642594217E+03  0.00000000000E+00 0.  1.
         -4    1    4    4    0  502 -0.55808216206E+03 -0.45709281599E+03  0.10977808061E+03  0.72968539044E+03  0.00000000000E+00 0. -1.
</event>
<event>
 8    1  0.6759491E-006  0.1007649E+04  0.7818608E-02  0.8773537E-01
         21   -1    0    0  503  502  0.00000000000E+00  0.00000000000E+00  0.29365699160E+04  0.29365699160E+04  0.00000000000E+00 0.  1.
         21   -1    0    0  501  503 -0.00000000000E+00 -0.00000000000E+00 -0.39390913569E+03  0.39390913569E+03  0.00000000000E+00 0.  1.
    9000010    2    1    2  501    0 -0.65016117744E+02  0.83508416849E+02  0.62401102862E+03  0.11633211584E+04  0.97607663766E+03 0.  0.
   -9000010    2    1    2    0  502  0.65016117744E+02 -0.83508416849E+02  0.19186497517E+04  0.21671578932E+04  0.10020757024E+04 0.  0.
        -13    1    3    3    0    0 -0.17647059419E+03 -0.42552322717E+03  0.28740947984E+03  0.54296971162E+03  0.10566000000E+00 0.  1.
         13    1    4    4    0    0  0.49970306965E+03 -0.20014572535E+03  0.12519179863E+04  0.13627399329E+04  0.10566000000E+00 0. -1.
          4    1    3    3  501    0  0.11145447645E+03  0.50903164401E+03  0.33660154878E+03  0.62035144682E+03  0.00000000000E+00 0.  1.
         -4    1    4    4    0  502 -0.43468695191E+03  0.11663730850E+03  0.66673176535E+03  0.80441796028E+03  0.00000000000E+00 0. -1.
</event>
<event>
 8    1  0.6759491E-006  0.1034397E+04  0.7818608E-02  0.8744958E-01
         21   -1    0    0  503  502  0.00000000000E+00  0.00000000000E+00  0.17525336144E+04  0.17525336144E+04  0.00000000000E+00 0.  1.
         21   -1    0    0  501  503 -0.00000000000E+00 -0.00000000000E+00 -0.11467124535E+04  0.11467124535E+04  0.00000000000E+00 0.  1.
    9000010    2    1    2  501    0 -0.18866078411E+03 -0.14101446902E+03 -0.69250735676E+03  0.12448065369E+04  0.10072233631E+04 0.  0.
   -9000010    2    1    2    0  502  0.18866078411E+03  0.14101446902E+03  0.12983285177E+04  0.16544395311E+04  0.99801565630E+03 0.  0.
        -13    1    3    3    0    0 -0.17003577922E+03  0.42892414104E+03 -0.35506818983E+03  0.58220401542E+03  0.10566000000E+00 0.  1.
         13    1    4    4    0    0  0.29722551813E+03  0.23280068855E+03  0.30618711182E+02  0.37878316470E+03  0.10566000000E+00 0. -1.
          4    1    3    3  501    0 -0.18625004892E+02 -0.56993861005E+03 -0.33743916692E+03  0.66260252143E+03  0.00000000000E+00 0.  1.
         -4    1    4    4    0  502 -0.10856473403E+03 -0.91786219537E+02  0.12677098065E+04  0.12756563664E+04  0.00000000000E+00 0. -1.
</event>
<event>
 8    1  0.6759491E-006  0.1034798E+04  0.7818608E-02  0.8745303E-01
         21   -1    0    0  503  502  0.00000000000E+00  0.00000000000E+00  0.15615324735E+04  0.15615324735E+04  0.00000000000E+00 0. -1.
         21   -1    0    0  501  503 -0.00000000000E+00 -0.00000000000E+00 -0.97452996883E+03  0.97452996883E+03  0.00000000000E+00 0. -1.
    9000010    2    1    2  501    0 -0.21841229435E+03 -0.17222063977E+03 -0.40742984678E+03  0.11008961742E+04  0.98417957059E+03 0.  0.
   -9000010    2    1    2    0  502  0.21841229435E+03  0.17222063977E+03  0.99443235147E+03  0.14351662682E+04  0.99671592574E+03 0.  0.
        -13    1    3    3    0    0  0.30163783692E+03 -0.69131082387E+02  0.13926260457E+03  0.33935022530E+03  0.10566000000E+00 0.  1.
         13    1    4    4    0    0  0.11746670450E+03  0.41425666131E+03  0.25467748821E+02  0.43134165750E+03  0.10566000000E+00 0. -1.
          4    1    3    3  501    0 -0.52005013127E+03 -0.10308955738E+03 -0.54669245135E+03  0.76154594887E+03  0.00000000000E+00 0.  1.
         -4    1    4    4    0  502  0.10094558984E+03 -0.24203602154E+03  0.96896460265E+03  0.10038246107E+04  0.00000000000E+00 0. -1.
</event>
<event>
 8    1  0.6759491E-006  0.1027671E+04  0.7818608E-02  0.8754878E-01
         21   -1    0    0  503  502  0.00000000000E+00  0.00000000000E+00  0.21701763735E+04  0.21701763735E+04  0.00000000000E+00 0.  1.
         21   -1    0    0  501  503 -0.00000000000E+00 -0.00000000000E+00 -0.55650361229E+03  0.55650361229E+03  0.00000000000E+00 0.  1.
    9000010    2    1    2  501    0 -0.12600568941E+03 -0.15267379261E+03  0.29270318169E+03  0.10685420870E+04  0.10084246716E+04 0.  0.
   -9000010    2    1    2    0  502  0.12600568941E+03  0.15267379261E+03  0.13209695795E+04  0.16581378988E+04  0.98248355750E+03 0.  0.
        -13    1    3    3    0    0 -0.38206147405E+03  0.21507407372E+03  0.41536113524E+03  0.60394760615E+03  0.10566000000E+00 0.  1.
         13    1    4    4    0    0  0.15081006770E+03 -0.28077317533E+03  0.11469441650E+04  0.11904025291E+04  0.10566000000E+00 0. -1.
          4    1    3    3  501    0  0.25605578464E+03 -0.36774786633E+03 -0.12265795355E+03  0.46459448082E+03  0.00000000000E+00 0.  1.
         -4    1    4    4    0  502 -0.24804378293E+02  0.43344696794E+03  0.17402541455E+03  0.46773536975E+03  0.00000000000E+00 0. -1.
</event>
<event>
 8    1  0.6759491E-006  0.1120013E+04  0.7818608E-02  0.8677710E-01
         21   -1    0    0  503  502  0.00000000000E+00  0.00000000000E+00  0.14181625500E+04  0.14181625500E+04  0.00000000000E+00 0. -1.
         21   -1    0    0  501  503 -0.00000000000E+00 -0.00000000000E+00 -0.11173524902E+04  0.11173524902E+04  0.00000000000E+00 0. -1.
    9000010    2    1    2  501    0  0.40128761360E+03  0.17807102361E+03  0.76462643366E+03  0.13232632279E+04  0.98672739340E+03 0.  0.
   -9000010    2    1    2    0  502 -0.40128761360E+03 -0.17807102361E+03 -0.46381637387E+03  0.12122518123E+04  0.10303823511E+04 0.  0.
        -13    1    3    3    0    0  0.34822025136E+03  0.41642914615E+03  0.89476675232E+03  0.10465553638E+04  0.10566000000E+00 0.  1.
         13    1    4    4    0    0 -0.42204055256E+03  0.24197582137E+03 -0.59791938277E+03  0.77082950488E+03  0.10566000000E+00 0. -1.
          4    1    3    3  501    0  0.53067362245E+02 -0.23835812254E+03 -0.13014031866E+03  0.27670786410E+03  0.00000000000E+00 0.  1.
         -4    1    4    4    0  502  0.20752938958E+02 -0.42004684498E+03  0.13410300891E+03  0.44142230738E+03  0.00000000000E+00 0. -1.
</event>
<event>
 8    1  0.6759491E-006  0.1006450E+04  0.7818608E-02  0.8771571E-01
         21   -1    0    0  501  502  0.00000000000E+00  0.00000000000E+00  0.10241156574E+04  0.10241156574E+04  0.00000000000E+00 0. -1.
         21   -1    0    0  502  503 -0.00000000000E+00 -0.00000000000E+00 -0.10289115543E+04  0.10289115543E+04  0.00000000000E+00 0. -1.
    9000010    2    1    2  501    0 -0.21912930351E+02  0.73241633307E+02  0.22930186996E+03  0.10197101514E+04  0.99064874299E+03 0.  0.
   -9000010    2    1    2    0  503  0.21912930351E+02 -0.73241633307E+02 -0.23409776685E+03  0.10333170603E+04  0.10035426595E+04 0.  0.
        -13    1    3    3    0    0 -0.32601244615E+03 -0.20035464942E+03  0.42017554965E+03  0.56830766691E+03  0.10566000000E+00 0.  1.
         13    1    4    4    0    0 -0.97122740306E+01  0.14771169993E+03 -0.59270966317E+03  0.61091556744E+03  0.10566000000E+00 0. -1.
          4    1    3    3  501    0  0.30409951580E+03  0.27359628273E+03 -0.19087367969E+03  0.45140248452E+03  0.00000000000E+00 0.  1.
         -4    1    4    4    0  503  0.31625204382E+02 -0.22095333324E+03  0.35861189632E+03  0.42240149290E+03  0.00000000000E+00 0. -1.
</event>
<event>
 8    1  0.6759491E-006  0.1028509E+04  0.7818608E-02  0.8749616E-01
         21   -1    0    0  503  502  0.00000000000E+00  0.00000000000E+00  0.10232695023E+04  0.10232695023E+04  0.00000000000E+00 0. -1.
         21   -1    0    0  501  503 -0.00000000000E+00 -0.00000000000E+00 -0.12454859375E+04  0.12454859375E+04  0.00000000000E+00 0. -1.
    9000010    2    1    2  501    0  0.20824572742E+03 -0.15087748304E+03 -0.58510145031E+03  0.11781063131E+04  0.98967695742E+03 0.  0.
   -9000010    2    1    2    0  502 -0.20824572742E+03  0.15087748304E+03  0.36288501510E+03  0.10906491266E+04  0.99584119484E+03 0.  0.
        -13    1    3    3    0    0 -0.29181784308E+03  0.11180762834E+03 -0.52378790782E+03  0.60992817842E+03  0.10566000000E+00 0.  1.
         13    1    4    4    0    0  0.90210553290E+02  0.36808466491E+03 -0.19150336612E+03  0.42461490184E+03  0.10566000000E+00 0. -1.
          4    1    3    3  501    0  0.50006357050E+03 -0.26268511138E+03 -0.61313542493E+02  0.56817813472E+03  0.00000000000E+00 0.  1.
         -4    1    4    4    0  502 -0.29845628071E+03 -0.21720718187E+03  0.55438838122E+03  0.66603422478E+03  0.00000000000E+00 0. -1.
</event>
<event>
 8    1  0.8358617E-006  0.1054766E+04  0.7818608E-02  0.8730067E-01
         21   -1    0    0  503  502  0.00000000000E+00  0.00000000000E+00  0.15554327672E+04  0.15554327672E+04  0.00000000000E+00 0. -1.
         21   -1    0    0  501  503 -0.00000000000E+00 -0.00000000000E+00 -0.83814523396E+03  0.83814523396E+03  0.00000000000E+00 0. -1.
    9000010    2    1    2  501    0  0.47715096060E+02 -0.29177384634E+03  0.84925675586E+03  0.13541670423E+04  0.10124833990E+04 0.  0.
   -9000010    2    1    2    0  502 -0.47715096060E+02  0.29177384634E+03 -0.13196922264E+03  0.10394109588E+04  0.98769962934E+03 0.  0.
        -13    1    3    3    0    0 -0.47133143075E+03 -0.56307196254E+02  0.29343832254E+03  0.55805902758E+03  0.10566000000E+00 0.  1.
         13    1    4    4    0    0 -0.94107388037E+02 -0.17809829456E+03 -0.43431003967E+03  0.47874881173E+03  0.10566000000E+00 0. -1.
          4    1    3    3  501    0  0.51904652681E+03 -0.23546665009E+03  0.55581843332E+03  0.79610801473E+03  0.00000000000E+00 0.  1.
         -4    1    4    4    0  502  0.46392291977E+02  0.46987214090E+03  0.30234081702E+03  0.56066214710E+03  0.00000000000E+00 0. -1.
</event>
<event>
 8    1  0.6759491E-006  0.1096030E+04  0.7818608E-02  0.8706390E-01
         21   -1    0    0  501  502  0.00000000000E+00  0.00000000000E+00  0.19404247134E+04  0.19404247134E+04  0.00000000000E+00 0.  1.
         21   -1    0    0  502  503 -0.00000000000E+00 -0.00000000000E+00 -0.76274074724E+03  0.76274074724E+03  0.00000000000E+00 0.  1.
    9000010    2    1    2  501    0  0.17175709529E+03  0.82268701272E+02  0.12744766105E+04  0.16809440179E+04  0.10793579211E+04 0.  0.
   -9000010    2    1    2    0  503 -0.17175709529E+03 -0.82268701272E+02 -0.96792644264E+02  0.10222214427E+04  0.99964955011E+03 0.  0.
        -13    1    3    3    0    0  0.96465681414E+02 -0.49514137471E+03  0.70123080646E+03  0.86382594528E+03  0.10566000000E+00 0.  1.
         13    1    4    4    0    0 -0.36739438664E+03  0.37209011462E+03 -0.54025428293E+02  0.52568854544E+03  0.10566000000E+00 0. -1.
          4    1    3    3  501    0  0.75291413874E+02  0.57741007599E+03  0.57324580399E+03  0.81711807265E+03  0.00000000000E+00 0.  1.
         -4    1    4    4    0  503  0.19563729136E+03 -0.45435881589E+03 -0.42767215971E+02  0.49653289731E+03  0.00000000000E+00 0. -1.
</event>
<event>
 8    1  0.6759491E-006  0.1039453E+04  0.7818608E-02  0.8743109E-01
         21   -1    0    0  501  502  0.00000000000E+00  0.00000000000E+00  0.83487733186E+03  0.83487733186E+03  0.00000000000E+00 0. -1.
         21   -1    0    0  502  503 -0.00000000000E+00 -0.00000000000E+00 -0.12875636010E+04  0.12875636010E+04  0.00000000000E+00 0. -1.
    9000010    2    1    2  501    0  0.16841998097E+03  0.18754652651E+03 -0.94291171964E+02  0.10229369943E+04  0.98689932598E+03 0.  0.
   -9000010    2    1    2    0  503 -0.16841998097E+03 -0.18754652651E+03 -0.35839509722E+03  0.10995039386E+04  0.10084259396E+04 0.  0.
        -13    1    3    3    0    0 -0.28715958879E+03 -0.23102909284E+03  0.86135983883E+02  0.37848974894E+03  0.10566000000E+00 0.  1.
         13    1    4    4    0    0  0.33939404569E+03 -0.21086421794E+03 -0.42902494843E+03  0.58627165563E+03  0.10566000000E+00 0. -1.
          4    1    3    3  501    0  0.45557956976E+03  0.41857561935E+03 -0.18042715585E+03  0.64444724537E+03  0.00000000000E+00 0.  1.
         -4    1    4    4    0  503 -0.50781402666E+03  0.23317691424E+02  0.70629851209E+02  0.51323228297E+03  0.00000000000E+00 0. -1.
</event>
<event>
 8    1  0.6759491E-006  0.1118961E+04  0.7818608E-02  0.8676134E-01
         21   -1    0    0  503  502  0.00000000000E+00  0.00000000000E+00  0.86467740610E+03  0.86467740610E+03  0.00000000000E+00 0.  1.
         21   -1    0    0  501  503 -0.00000000000E+00 -0.00000000000E+00 -0.18488847231E+04  0.18488847231E+04  0.00000000000E+00 0.  1.
    9000010    2    1    2  501    0 -0.45999982342E+03 -0.15965769515E+03 -0.11568779229E+04  0.16094847932E+04  0.10074643188E+04 0.  0.
   -9000010    2    1    2    0  502  0.45999982342E+03  0.15965769515E+03  0.17267060589E+03  0.11040773361E+04  0.97574648793E+03 0.  0.
        -13    1    3    3    0    0 -0.50512777304E+03  0.11486413514E+03 -0.11437585113E+03  0.53049946572E+03  0.10566000000E+00 0.  1.
         13    1    4    4    0    0  0.36370616315E+03 -0.25005984128E+03  0.42551561567E+03  0.61308698215E+03  0.10566000000E+00 0. -1.
          4    1    3    3  501    0  0.45127949624E+02 -0.27452183030E+03 -0.10425020718E+04  0.10789853275E+04  0.00000000000E+00 0.  1.
         -4    1    4    4    0  502  0.96293660271E+02  0.40971753643E+03 -0.25284500979E+03  0.49099035392E+03  0.00000000000E+00 0. -1.
</event>
<event>
 8    1  0.6759491E-006  0.1088655E+04  0.7818608E-02  0.8695851E-01
         21   -1    0    0  503  502  0.00000000000E+00  0.00000000000E+00  0.58549507427E+03  0.58549507427E+03  0.00000000000E+00 0. -1.
         21   -1    0    0  501  503 -0.00000000000E+00 -0.00000000000E+00 -0.20459378922E+04  0.20459378922E+04  0.00000000000E+00 0.  1.
    9000010    2    1    2  501    0  0.24274280034E+03  0.37526280126E+03 -0.87492834689E+03  0.13953114913E+04  0.99078166531E+03 0.  0.
   -9000010    2    1    2    0  502 -0.24274280034E+03 -0.37526280126E+03 -0.58551447099E+03  0.12361214752E+04  0.99268467728E+03 0.  0.
        -13    1    3    3    0    0  0.27319745068E+02  0.52028800623E+03 -0.41835766113E+02  0.52268175823E+03  0.10566000000E+00 0.  1.
         13    1    4    4    0    0  0.32035538416E+03  0.11458964409E+03 -0.21913563984E+03  0.40469593340E+03  0.10566000000E+00 0. -1.
          4    1    3    3  501    0  0.21542305527E+03 -0.14502520496E+03 -0.83309258078E+03  0.87262973303E+03  0.00000000000E+00 0.  1.
         -4    1    4    4    0  502 -0.56309818450E+03 -0.48985244535E+03 -0.36637883115E+03  0.83142554178E+03  0.00000000000E+00 0. -1.
</event>
<event>
 8    1  0.8760361E-006  0.1075300E+04  0.7818608E-02  0.8710045E-01
         21   -1    0    0  501  502  0.00000000000E+00  0.00000000000E+00  0.11606363123E+04  0.11606363123E+04  0.00000000000E+00 0.  1.
         21   -1    0    0  502  503 -0.00000000000E+00 -0.00000000000E+00 -0.11594863954E+04  0.11594863954E+04  0.00000000000E+00 0.  1.
    9000010    2    1    2  501    0 -0.25288499679E+03 -0.20509496291E+03  0.45342914686E+03  0.11669912683E+04  0.10248199176E+04 0.  0.
   -9000010    2    1    2    0  503  0.25288499679E+03  0.20509496291E+03 -0.45227922999E+03  0.11531314394E+04  0.10095250613E+04 0.  0.
        -13    1    3    3    0    0  0.34996599780E+03 -0.30405800629E+03  0.21765597333E+03  0.51215388771E+03  0.10566000000E+00 0.  1.
         13    1    4    4    0    0  0.31532789951E+03  0.36022897419E+03 -0.70373804848E+03  0.85114267318E+03  0.10566000000E+00 0. -1.
          4    1    3    3  501    0 -0.60285099458E+03  0.98963043377E+02  0.23577317353E+03  0.65483738056E+03  0.00000000000E+00 0.  1.
         -4    1    4    4    0  503 -0.62442902725E+02 -0.15513401128E+03  0.25145881849E+03  0.30198876627E+03  0.00000000000E+00 0. -1.
</event>
<event>
 8    1  0.6759491E-006  0.1114349E+04  0.7818608E-02  0.8674177E-01
         21   -1    0    0  501  502  0.00000000000E+00  0.00000000000E+00  0.62132342724E+03  0.62132342724E+03  0.00000000000E+00 0. -1.
         21   -1    0    0  502  503 -0.00000000000E+00 -0.00000000000E+00 -0.20495647931E+04  0.20495647931E+04  0.00000000000E+00 0. -1.
    9000010    2    1    2  501    0  0.18518689325E+03 -0.51092182006E+03 -0.50080786105E+03  0.12217127745E+04  0.97285060421E+03 0.  0.
   -9000010    2    1    2    0  503 -0.18518689325E+03  0.51092182006E+03 -0.92743350479E+03  0.14491754458E+04  0.97192657913E+03 0.  0.
        -13    1    3    3    0    0 -0.10626647539E+03 -0.33211726695E+02  0.25676822914E+03  0.27986696347E+03  0.10566000000E+00 0.  1.
         13    1    4    4    0    0  0.15876407983E+03 -0.20903314715E+03 -0.57445121678E+02  0.26870214518E+03  0.10566000000E+00 0. -1.
          4    1    3    3  501    0  0.29145336864E+03 -0.47771009337E+03 -0.75757609019E+03  0.94184581107E+03  0.00000000000E+00 0.  1.
         -4    1    4    4    0  503 -0.34395097309E+03  0.71995496722E+03 -0.86998838311E+03  0.11804733006E+04  0.00000000000E+00 0. -1.
</event>
<event>
 8    1  0.6759491E-006  0.1019405E+04  0.7818608E-02  0.8758306E-01
         21   -1    0    0  503  502  0.00000000000E+00  0.00000000000E+00  0.15557074182E+04  0.15557074182E+04  0.00000000000E+00 0.  1.
         21   -1    0    0  501  503 -0.00000000000E+00 -0.00000000000E+00 -0.82770717427E+03  0.82770717427E+03  0.00000000000E+00 0.  1.
    9000010    2    1    2  501    0  0.13733063570E+03  0.10464322163E+03 -0.16642952340E+03  0.10329015712E+04  0.10046775414E+04 0.  0.
   -9000010    2    1    2    0  502 -0.13733063570E+03 -0.10464322163E+03  0.89442976731E+03  0.13505130212E+04  0.99703104490E+03 0.  0.
        -13    1    3    3    0    0  0.25550330681E+02 -0.42648369928E+03  0.83547589125E+02  0.43534052874E+03  0.10566000000E+00 0.  1.
         13    1    4    4    0    0 -0.58966778462E+01  0.44384932536E+03  0.45359635220E+03  0.63465475364E+03  0.10566000000E+00 0. -1.
          4    1    3    3  501    0  0.11178030502E+03  0.53112692091E+03 -0.24997711253E+03  0.59756104249E+03  0.00000000000E+00 0.  1.
         -4    1    4    4    0  502 -0.13143395786E+03 -0.54849254699E+03  0.44083341511E+03  0.71585826758E+03  0.00000000000E+00 0. -1.
</event>
<event>
 8    1  0.6759491E-006  0.1166071E+04  0.7818608E-02  0.8633798E-01
         21   -1    0    0  503  502  0.00000000000E+00  0.00000000000E+00  0.83060859062E+03  0.83060859062E+03  0.00000000000E+00 0.  1.
         21   -1    0    0  501  503 -0.00000000000E+00 -0.00000000000E+00 -0.18020455923E+04  0.18020455923E+04  0.00000000000E+00 0.  1.
    9000010    2    1    2  501    0 -0.51962306877E+03  0.25505413938E+03 -0.89345073141E+03  0.14639780610E+04  0.10049461708E+04 0.  0.
   -9000010    2    1    2    0  502  0.51962306877E+03 -0.25505413938E+03 -0.77986270298E+02  0.11686761219E+04  0.10122555369E+04 0.  0.
        -13    1    3    3    0    0 -0.70975841424E+02 -0.37111351085E+03 -0.39418209431E+03  0.54602412276E+03  0.10566000000E+00 0.  1.
         13    1    4    4    0    0 -0.24749061997E+03 -0.23013776512E+03 -0.19821827452E+03  0.39179777109E+03  0.10566000000E+00 0. -1.
          4    1    3    3  501    0 -0.44864722734E+03  0.62616765023E+03 -0.49926863710E+03  0.91795393828E+03  0.00000000000E+00 0.  1.
         -4    1    4    4    0  502  0.76711368874E+03 -0.24916374258E+02  0.12023200422E+03  0.77687835083E+03  0.00000000000E+00 0. -1.
</event>
<event>
 8    1  0.6759491E-006  0.1036631E+04  0.7818608E-02  0.8744148E-01
         21   -1    0    0  503  502  0.00000000000E+00  0.00000000000E+00  0.79215375958E+03  0.79215375958E+03  0.00000000000E+00 0.  1.
         21   -1    0    0  501  503 -0.00000000000E+00 -0.00000000000E+00 -0.14835443199E+04  0.14835443199E+04  0.00000000000E+00 0.  1.
    9000010    2    1    2  501    0 -0.67841625802E+02  0.20833370542E+03  0.85927602182E+01  0.10366662108E+04  0.10132115169E+04 0.  0.
   -9000010    2    1    2    0  502  0.67841625802E+02 -0.20833370542E+03 -0.69998332052E+03  0.12390318687E+04  0.99860798296E+03 0.  0.
        -13    1    3    3    0    0  0.46363141947E+03 -0.83720372069E+00  0.34597191511E+02  0.46492125231E+03  0.10566000000E+00 0.  1.
         13    1    4    4    0    0 -0.40393373531E+03 -0.85595011866E+02 -0.34828109945E+02  0.41436937264E+03  0.10566000000E+00 0. -1.
          4    1    3    3  501    0 -0.53147304527E+03  0.20917090914E+03 -0.26004431293E+02  0.57174495846E+03  0.00000000000E+00 0.  1.
         -4    1    4    4    0  502  0.47177536111E+03 -0.12273869355E+03 -0.66515521058E+03  0.82466249606E+03  0.00000000000E+00 0. -1.
</event>
<event>
 8    1  0.6759491E-006  0.1083671E+04  0.7818608E-02  0.8700484E-01
         21   -1    0    0  503  502  0.00000000000E+00  0.00000000000E+00  0.23436417797E+04  0.23436417797E+04  0.00000000000E+00 0. -1.
         21   -1    0    0  501  503 -0.00000000000E+00 -0.00000000000E+00 -0.60596342841E+03  0.60596342841E+03  0.00000000000E+00 0. -1.
    9000010    2    1    2  501    0 -0.38852241872E+03 -0.24177774996E+03  0.25162187556E+03  0.11125004356E+04  0.98231232336E+03 0.  0.
   -9000010    2    1    2    0  502  0.38852241872E+03  0.24177774996E+03  0.14860564757E+04  0.18371047726E+04  0.97835778020E+03 0.  0.
        -13    1    3    3    0    0 -0.43316007295E+03 -0.46419639792E+03  0.47592445990E+03  0.79347970820E+03  0.10566000000E+00 0.  1.
         13    1    4    4    0    0  0.55722272125E+03 -0.48888974690E+02  0.36782966406E+03  0.66946692663E+03  0.10566000000E+00 0. -1.
          4    1    3    3  501    0  0.44637654228E+02  0.22241864796E+03 -0.22430258434E+03  0.31902072735E+03  0.00000000000E+00 0.  1.
         -4    1    4    4    0  502 -0.16870030253E+03  0.29066672465E+03  0.11182268117E+04  0.11676378459E+04  0.00000000000E+00 0. -1.
</event>
<event>
 8    1  0.6759491E-006  0.1469498E+04  0.7818608E-02  0.8430018E-01
         21   -1    0    0  501  502  0.00000000000E+00  0.00000000000E+00  0.19964964150E+04  0.19964964150E+04  0.00000000000E+00 0.  1.
         21   -1    0    0  502  503 -0.00000000000E+00 -0.00000000000E+00 -0.10787432695E+04  0.10787432695E+04  0.00000000000E+00 0. -1.
    9000010    2    1    2  501    0 -0.60549079382E+03 -0.87029001783E+03  0.60914008169E+03  0.15736848304E+04  0.99066063294E+03 0.  0.
   -9000010    2    1    2    0  503  0.60549079382E+03  0.87029001783E+03  0.30861306388E+03  0.15015548541E+04  0.10175466280E+04 0.  0.
        -13    1    3    3    0    0 -0.55253309803E+03 -0.99168972695E+03  0.76516694560E+03  0.13690222075E+04  0.10566000000E+00 0.  1.
         13    1    4    4    0    0  0.50857982486E+03  0.18797749618E+03  0.54905523665E+03  0.77165448316E+03  0.10566000000E+00 0. -1.
          4    1    3    3  501    0 -0.52957695790E+02  0.12139970912E+03 -0.15602686391E+03  0.20466262282E+03  0.00000000000E+00 0.  1.
         -4    1    4    4    0  503  0.96910968960E+02  0.68231252166E+03 -0.24044217277E+03  0.72990037098E+03  0.00000000000E+00 0. -1.
</event>
<event>
 8    1  0.6759491E-006  0.9967024E+03  0.7818608E-02  0.8780752E-01
         21   -1    0    0  503  502  0.00000000000E+00  0.00000000000E+00  0.10523200263E+04  0.10523200263E+04  0.00000000000E+00 0.  1.
         21   -1    0    0  501  503 -0.00000000000E+00 -0.00000000000E+00 -0.98926896620E+03  0.98926896620E+03  0.00000000000E+00 0.  1.
    9000010    2    1    2  501    0 -0.11621190797E+02 -0.51413093062E+02 -0.21415571520E+03  0.10194500072E+04  0.99530763512E+03 0.  0.
   -9000010    2    1    2    0  502  0.11621190797E+02  0.51413093062E+02  0.27720677528E+03  0.10221389853E+04  0.98241852121E+03 0.  0.
        -13    1    3    3    0    0 -0.19597264724E+03  0.33354812455E+02  0.35959073141E+03  0.41088115953E+03  0.10566000000E+00 0.  1.
         13    1    4    4    0    0 -0.46401462650E+03  0.11967171658E+03  0.25090589579E+03  0.54091096593E+03  0.10566000000E+00 0. -1.
          4    1    3    3  501    0  0.18435145645E+03 -0.84767905517E+02 -0.57374644661E+03  0.60856884762E+03  0.00000000000E+00 0.  1.
         -4    1    4    4    0  502  0.47563581730E+03 -0.68258623514E+02  0.26300879495E+02  0.48122801939E+03  0.00000000000E+00 0. -1.
</event>
<event>
 8    1  0.6759491E-006  0.1042643E+04  0.7818608E-02  0.8740466E-01
         21   -1    0    0  503  502  0.00000000000E+00  0.00000000000E+00  0.68858407785E+03  0.68858407785E+03  0.00000000000E+00 0. -1.
         21   -1    0    0  501  503 -0.00000000000E+00 -0.00000000000E+00 -0.23728314682E+04  0.23728314682E+04  0.00000000000E+00 0. -1.
    9000010    2    1    2  501    0 -0.22680657505E+03 -0.21217264542E+02 -0.17515988630E+04  0.20384317304E+04  0.10174546417E+04 0.  0.
   -9000010    2    1    2    0  502  0.22680657505E+03  0.21217264542E+02  0.67351472630E+02  0.10229838156E+04  0.99502174417E+03 0.  0.
        -13    1    3    3    0    0 -0.37004107140E+03  0.32728853437E+03 -0.40105730715E+03  0.63631372296E+03  0.10566000000E+00 0.  1.
         13    1    4    4    0    0 -0.30704522750E+03 -0.24821125272E+03 -0.89345319466E+02  0.40480636727E+03  0.10566000000E+00 0. -1.
          4    1    3    3  501    0  0.14323449635E+03 -0.34850579891E+03 -0.13505415558E+04  0.14021180074E+04  0.00000000000E+00 0.  1.
         -4    1    4    4    0  502  0.53385180255E+03  0.26942851726E+03  0.15669679210E+03  0.61817744835E+03  0.00000000000E+00 0. -1.
</event>
<event>
 8    1  0.6759491E-006  0.1097085E+04  0.7818608E-02  0.8689380E-01
         21   -1    0    0  503  502  0.00000000000E+00  0.00000000000E+00  0.19036941211E+04  0.19036941211E+04  0.00000000000E+00 0. -1.
         21   -1    0    0  501  503 -0.00000000000E+00 -0.00000000000E+00 -0.11969306068E+04  0.11969306068E+04  0.00000000000E+00 0. -1.
    9000010    2    1    2  501    0 -0.38578198808E+03  0.20558676954E+03 -0.71366175927E+03  0.13087815762E+04  0.10062318050E+04 0.  0.
   -9000010    2    1    2    0  502  0.38578198808E+03 -0.20558676954E+03  0.14204252736E+04  0.17918431517E+04  0.10009996305E+04 0.  0.
        -13    1    3    3    0    0  0.30323010968E+03 -0.11722610469E+03 -0.30173596875E+03  0.44354826687E+03  0.10566000000E+00 0.  1.
         13    1    4    4    0    0  0.33790299442E+03 -0.10063721941E+03  0.15665148551E+04  0.16057008084E+04  0.10566000000E+00 0. -1.
          4    1    3    3  501    0 -0.68901209776E+03  0.32281287423E+03 -0.41192579052E+03  0.86523330930E+03  0.00000000000E+00 0.  1.
         -4    1    4    4    0  502  0.47878993653E+02 -0.10494955012E+03 -0.14608958158E+03  0.18614234325E+03  0.00000000000E+00 0. -1.
</event>
<event>
 8    1  0.6759491E-006  0.1030639E+04  0.7818608E-02  0.8754140E-01
         21   -1    0    0  501  502  0.00000000000E+00  0.00000000000E+00  0.96284165728E+03  0.96284165728E+03  0.00000000000E+00 0. -1.
         21   -1    0    0  502  503 -0.00000000000E+00 -0.00000000000E+00 -0.11149070132E+04  0.11149070132E+04  0.00000000000E+00 0. -1.
    9000010    2    1    2  501    0  0.28210960725E+02 -0.22951098803E+03 -0.29208311388E+03  0.10712283911E+04  0.10043637631E+04 0.  0.
   -9000010    2    1    2    0  503 -0.28210960725E+02  0.22951098803E+03  0.14001775793E+03  0.10065202794E+04  0.96953955483E+03 0.  0.
        -13    1    3    3    0    0  0.31881687359E+03 -0.50561270564E+03 -0.42980898647E+02  0.59927938042E+03  0.10566000000E+00 0.  1.
         13    1    4    4    0    0 -0.44188779133E+03  0.34117405265E+03  0.14947446642E+03  0.57793354428E+03  0.10566000000E+00 0. -1.
          4    1    3    3  501    0 -0.29060591287E+03  0.27610171761E+03 -0.24910221523E+03  0.47194901069E+03  0.00000000000E+00 0.  1.
         -4    1    4    4    0  503  0.41367683061E+03 -0.11166306462E+03 -0.94567084875E+01  0.42858673512E+03  0.00000000000E+00 0. -1.
</event>
<event>
 8    1  0.6759491E-006  0.1014756E+04  0.7818608E-02  0.8764983E-01
         21   -1    0    0  503  502  0.00000000000E+00  0.00000000000E+00  0.77572593466E+03  0.77572593466E+03  0.00000000000E+00 0. -1.
         21   -1    0    0  501  503 -0.00000000000E+00 -0.00000000000E+00 -0.15589879751E+04  0.15589879751E+04  0.00000000000E+00 0. -1.
    9000010    2    1    2  501    0  0.35099195960E+02 -0.14615446557E+03 -0.86053328569E+03  0.13170200614E+04  0.98561210675E+03 0.  0.
   -9000010    2    1    2    0  502 -0.35099195960E+02  0.14615446557E+03  0.77271245259E+02  0.10176938484E+04  0.10035620769E+04 0.  0.
        -13    1    3    3    0    0 -0.45381307825E+02 -0.22316539905E+03  0.16767078965E+03  0.28279986438E+03  0.10566000000E+00 0.  1.
         13    1    4    4    0    0  0.30537265512E+02 -0.30511361301E+03 -0.29764789902E+03  0.42734192911E+03  0.10566000000E+00 0. -1.
          4    1    3    3  501    0  0.80480503785E+02  0.77010933475E+02 -0.10282040753E+04  0.10342201970E+04  0.00000000000E+00 0.  1.
         -4    1    4    4    0  502 -0.65636461472E+02  0.45126807858E+03  0.37491914427E+03  0.59035191925E+03  0.00000000000E+00 0. -1.
</event>
<event>
 8    1  0.6759491E-006  0.1052842E+04  0.7818608E-02  0.8730691E-01
         21   -1    0    0  501  502  0.00000000000E+00  0.00000000000E+00  0.83660645039E+03  0.83660645039E+03  0.00000000000E+00 0.  1.
         21   -1    0    0  502  503 -0.00000000000E+00 -0.00000000000E+00 -0.13893006275E+04  0.13893006275E+04  0.00000000000E+00 0.  1.
    9000010    2    1    2  501    0  0.16721022118E+03 -0.22041221801E+03 -0.55421940626E+03  0.11730643753E+04  0.99618275149E+03 0.  0.
   -9000010    2    1    2    0  503 -0.16721022118E+03  0.22041221801E+03  0.15252291412E+01  0.10528427026E+04  0.10158418313E+04 0.  0.
        -13    1    3    3    0    0  0.27287165407E+03  0.32163818925E+03 -0.49091216169E+02  0.42464105200E+03  0.10566000000E+00 0.  1.
         13    1    4    4    0    0 -0.84678121214E+02  0.59829473097E+03 -0.17295092128E+03  0.62852128178E+03  0.10566000000E+00 0. -1.
          4    1    3    3  501    0 -0.10566143289E+03 -0.54205040726E+03 -0.50512819009E+03  0.74842332328E+03  0.00000000000E+00 0.  1.
         -4    1    4    4    0  503 -0.82532099963E+02 -0.37788251295E+03  0.17447615042E+03  0.42432142084E+03  0.00000000000E+00 0. -1.
</event>
<event>
 7    1  0.6759491E-006  0.1439848E+04  0.7818608E-02  0.8495340E-01
         21   -1    0    0  503  502  0.00000000000E+00  0.00000000000E+00  0.36638687467E+04  0.36638687467E+04  0.00000000000E+00 0.  1.
         21   -1    0    0  501  503 -0.00000000000E+00 -0.00000000000E+00 -0.62155252923E+03  0.62155252923E+03  0.00000000000E+00 0.  1.
    9000010    2    1    2  501    0  0.76391964552E+03  0.66352102577E+03  0.54673075727E+03  0.15401551729E+04  0.10243681268E+04 0.  0.
        -13    1    3    3    0    0  0.10252079468E+02  0.36011195873E+03  0.62764502978E+03  0.72368779355E+03  0.10566000000E+00 0.  1.
         13    1    1    2    0    0 -0.55694352092E+02  0.76161233618E+02  0.42415115152E+03  0.43451881992E+03  0.10566000000E+00 0. -1.
          4    1    3    3  501    0  0.75366756605E+03  0.30340906704E+03 -0.80914272515E+02  0.81646737937E+03  0.00000000000E+00 0.  1.
         -4    1    1    2    0  502 -0.70822529343E+03 -0.73968225939E+03  0.20714343087E+04  0.23107472831E+04  0.00000000000E+00 0. -1.
</event>
<event>
 8    1  0.6759491E-006  0.1037492E+04  0.7818608E-02  0.8741004E-01
         21   -1    0    0  501  502  0.00000000000E+00  0.00000000000E+00  0.48535647519E+03  0.48535647519E+03  0.00000000000E+00 0. -1.
         21   -1    0    0  502  503 -0.00000000000E+00 -0.00000000000E+00 -0.22943858506E+04  0.22943858506E+04  0.00000000000E+00 0. -1.
    9000010    2    1    2  501    0  0.19026878972E+03  0.19659618750E+03 -0.11701773817E+04  0.15613329839E+04  0.99679150705E+03 0.  0.
   -9000010    2    1    2    0  503 -0.19026878972E+03 -0.19659618750E+03 -0.63885199366E+03  0.12184093419E+04  0.10007682955E+04 0.  0.
        -13    1    3    3    0    0  0.48066299134E+03 -0.28950543449E+02 -0.10803758531E+04  0.11828300979E+04  0.10566000000E+00 0.  1.
         13    1    4    4    0    0 -0.57818498994E+03  0.43565527839E+02 -0.38912580345E+03  0.69829416429E+03  0.10566000000E+00 0. -1.
          4    1    3    3  501    0 -0.29039420162E+03  0.22554673095E+03 -0.89801528585E+02  0.37850288600E+03  0.00000000000E+00 0.  1.
         -4    1    4    4    0  503  0.38791620022E+03 -0.24016171533E+03 -0.24972619021E+03  0.52011517761E+03  0.00000000000E+00 0. -1.
</event>
<event>
 8    1  0.6759491E-006  0.9952383E+03  0.7818608E-02  0.8802099E-01
         21   -1    0    0  501  502  0.00000000000E+00  0.00000000000E+00  0.75845759282E+03  0.75845759282E+03  0.00000000000E+00 0. -1.
         21   -1    0    0  502  503 -0.00000000000E+00 -0.00000000000E+00 -0.12676378854E+04  0.12676378854E+04  0.00000000000E+00 0. -1.
    9000010    2    1    2  501    0 -0.19207155556E+02  0.87104209757E+01  0.11862604061E+02  0.90271439409E+03  0.90239003190E+03 0.  0.
   -9000010    2    1    2    0  503  0.19207155556E+02 -0.87104209757E+01 -0.52104289662E+03  0.11233810841E+04  0.99501486107E+03 0.  0.
        -13    1    3    3    0    0  0.13006590056E+03  0.42391604413E+03  0.95615003890E+02  0.45361237978E+03  0.10566000000E+00 0.  1.
         13    1    4    4    0    0  0.96722499079E+02 -0.32445515494E+03 -0.68139189172E+03  0.76086878675E+03  0.10566000000E+00 0. -1.
          4    1    3    3  501    0 -0.14927305612E+03 -0.41520562315E+03 -0.83752399829E+02  0.44910201431E+03  0.00000000000E+00 0.  1.
         -4    1    4    4    0  503 -0.77515343523E+02  0.31574473396E+03  0.16034899509E+03  0.36251229736E+03  0.00000000000E+00 0. -1.
</event>
<event>
 8    1  0.6759491E-006  0.1019221E+04  0.7818608E-02  0.8762511E-01
         21   -1    0    0  501  502  0.00000000000E+00  0.00000000000E+00  0.12161666723E+04  0.12161666723E+04  0.00000000000E+00 0.  1.
         21   -1    0    0  502  503 -0.00000000000E+00 -0.00000000000E+00 -0.94219642693E+03  0.94219642693E+03  0.00000000000E+00 0.  1.
    9000010    2    1    2  501    0  0.76662031205E+02  0.15867123460E+03  0.50202417848E+03  0.11139398390E+04  0.97866238372E+03 0.  0.
   -9000010    2    1    2    0  503 -0.76662031205E+02 -0.15867123460E+03 -0.22805393311E+03  0.10444232603E+04  0.10038713675E+04 0.  0.
        -13    1    3    3    0    0 -0.29555988542E+03 -0.28674982664E+03  0.24439779319E+03  0.47886470055E+03  0.10566000000E+00 0.  1.
         13    1    4    4    0    0 -0.33211730271E+03  0.32605124963E+03 -0.16071968009E+03  0.49238414564E+03  0.10566000000E+00 0. -1.
          4    1    3    3  501    0  0.37222191663E+03  0.44542106125E+03  0.25762638530E+03  0.63507513841E+03  0.00000000000E+00 0.  1.
         -4    1    4    4    0  503  0.25545527150E+03 -0.48472248423E+03 -0.67334253022E+02  0.55203911464E+03  0.00000000000E+00 0. -1.
</event>
<event>
 8    1  0.6759491E-006  0.1014587E+04  0.7818608E-02  0.8764627E-01
         21   -1    0    0  501  502  0.00000000000E+00  0.00000000000E+00  0.14674345345E+04  0.14674345345E+04  0.00000000000E+00 0.  1.
         21   -1    0    0  502  503 -0.00000000000E+00 -0.00000000000E+00 -0.69513248049E+03  0.69513248049E+03  0.00000000000E+00 0.  1.
    9000010    2    1    2  501    0  0.12205632499E+03  0.74432920911E+02  0.47477053470E+03  0.11201755035E+04  0.10044640819E+04 0.  0.
   -9000010    2    1    2    0  503 -0.12205632499E+03 -0.74432920911E+02  0.29753151932E+03  0.10423915115E+04  0.98874519066E+03 0.  0.
        -13    1    3    3    0    0 -0.79335025314E+02  0.46653651491E+03  0.48720026573E+03  0.67920135165E+03  0.10566000000E+00 0.  1.
         13    1    4    4    0    0 -0.40063602940E+03 -0.10321232403E+03 -0.20906047471E+03  0.46353889280E+03  0.10566000000E+00 0. -1.
          4    1    3    3  501    0  0.20139135031E+03 -0.39210359400E+03 -0.12429731025E+02  0.44097415187E+03  0.00000000000E+00 0.  1.
         -4    1    4    4    0  503  0.27857970440E+03  0.28779403116E+02  0.50659199403E+03  0.57885261869E+03  0.00000000000E+00 0. -1.
</event>
<event>
 8    1  0.6759491E-006  0.1027970E+04  0.7818608E-02  0.8750839E-01
         21   -1    0    0  501  502  0.00000000000E+00  0.00000000000E+00  0.15263317039E+04  0.15263317039E+04  0.00000000000E+00 0. -1.
         21   -1    0    0  502  503 -0.00000000000E+00 -0.00000000000E+00 -0.75927648108E+03  0.75927648108E+03  0.00000000000E+00 0. -1.
    9000010    2    1    2  501    0 -0.10599553143E+03  0.15095847167E+03  0.73658220585E+03  0.12571869060E+04  0.10019690902E+04 0.  0.
   -9000010    2    1    2    0  503  0.10599553143E+03 -0.15095847167E+03  0.30473016920E+02  0.10284212790E+04  0.10112854243E+04 0.  0.
        -13    1    3    3    0    0  0.32513327942E+02  0.35335608215E+03  0.89665478626E+03  0.96431709213E+03  0.10566000000E+00 0.  1.
         13    1    4    4    0    0  0.26365113216E+03 -0.81909969587E+02  0.47629752915E+03  0.55052748346E+03  0.10566000000E+00 0. -1.
          4    1    3    3  501    0 -0.13850885937E+03 -0.20239761048E+03 -0.16007258041E+03  0.29286981383E+03  0.00000000000E+00 0.  1.
         -4    1    4    4    0  503 -0.15765560073E+03 -0.69048502086E+02 -0.44582451223E+03  0.47789379551E+03  0.00000000000E+00 0. -1.
</event>
<event>
 8    1  0.6759491E-006  0.1019792E+04  0.7818608E-02  0.8756527E-01
         21   -1    0    0  501  502  0.00000000000E+00  0.00000000000E+00  0.83249885692E+03  0.83249885692E+03  0.00000000000E+00 0. -1.
         21   -1    0    0  502  503 -0.00000000000E+00 -0.00000000000E+00 -0.13463457818E+04  0.13463457818E+04  0.00000000000E+00 0. -1.
    9000010    2    1    2  501    0  0.19841755224E+03  0.14959264557E+02  0.38340386537E+02  0.10191521768E+04  0.99880321869E+03 0.  0.
   -9000010    2    1    2    0  503 -0.19841755224E+03 -0.14959264557E+02 -0.55218731138E+03  0.11596924619E+04  0.10001912190E+04 0.  0.
        -13    1    3    3    0    0 -0.38066471113E+03  0.15064721756E+03 -0.67866517765E+02  0.41497720643E+03  0.10566000000E+00 0.  1.
         13    1    4    4    0    0  0.85418540140E+02  0.30291682683E+03 -0.65023904291E+03  0.72240276513E+03  0.10566000000E+00 0. -1.
          4    1    3    3  501    0  0.57908226337E+03 -0.13568795300E+03  0.10620690430E+03  0.60417497040E+03  0.00000000000E+00 0.  1.
         -4    1    4    4    0  503 -0.28383609238E+03 -0.31787609138E+03  0.98051731532E+02  0.43728969673E+03  0.00000000000E+00 0. -1.
</event>
<event>
 8    1  0.6759491E-006  0.1042419E+04  0.7818608E-02  0.8736229E-01
         21   -1    0    0  503  502  0.00000000000E+00  0.00000000000E+00  0.20106844151E+04  0.20106844151E+04  0.00000000000E+00 0. -1.
         21   -1    0    0  501  503 -0.00000000000E+00 -0.00000000000E+00 -0.93675268061E+03  0.93675268061E+03  0.00000000000E+00 0. -1.
    9000010    2    1    2  501    0 -0.25228236148E+03 -0.14983816452E+03 -0.42335413613E+03  0.11230187680E+04  0.99792011870E+03 0.  0.
   -9000010    2    1    2    0  502  0.25228236148E+03  0.14983816452E+03  0.14972858706E+04  0.18244183277E+04  0.10002696589E+04 0.  0.
        -13    1    3    3    0    0 -0.15295757218E+03 -0.22275611794E+03  0.29158455458E+03  0.39753977235E+03  0.10566000000E+00 0.  1.
         13    1    4    4    0    0  0.34919039271E+03  0.32084225264E+03  0.15500004525E+04  0.16209179792E+04  0.10566000000E+00 0. -1.
          4    1    3    3  501    0 -0.99324789307E+02  0.72917953419E+02 -0.71493869071E+03  0.72547899568E+03  0.00000000000E+00 0.  1.
         -4    1    4    4    0  502 -0.96908031225E+02 -0.17100408812E+03 -0.52714581908E+02  0.20350034844E+03  0.00000000000E+00 0. -1.
</event>
<event>
 8    1  0.6759491E-006  0.1031175E+04  0.7818608E-02  0.8746875E-01
         21   -1    0    0  503  502  0.00000000000E+00  0.00000000000E+00  0.14105112600E+04  0.14105112600E+04  0.00000000000E+00 0.  1.
         21   -1    0    0  501  503 -0.00000000000E+00 -0.00000000000E+00 -0.12637708094E+04  0.12637708094E+04  0.00000000000E+00 0.  1.
    9000010    2    1    2  501    0  0.21147648641E+03 -0.82742129672E+02 -0.77885802572E+03  0.12886217695E+04  0.10011781442E+04 0.  0.
   -9000010    2    1    2    0  502 -0.21147648641E+03  0.82742129672E+02  0.92559847632E+03  0.13856602998E+04  0.10058595145E+04 0.  0.
        -13    1    3    3    0    0 -0.30830617839E+03 -0.32820448837E+03 -0.30791407817E+03  0.54551074831E+03  0.10566000000E+00 0.  1.
         13    1    4    4    0    0 -0.12716158407E+03  0.39012694205E+03  0.38373537657E+01  0.41034599526E+03  0.10566000000E+00 0. -1.
          4    1    3    3  501    0  0.51978266479E+03  0.24546235870E+03 -0.47094394754E+03  0.74311102124E+03  0.00000000000E+00 0.  1.
         -4    1    4    4    0  502 -0.84314902334E+02 -0.30738481238E+03  0.92176112255E+03  0.97531430456E+03  0.00000000000E+00 0. -1.
</event>
<event>
 8    1  0.6759491E-006  0.1023167E+04  0.7818608E-02  0.8754894E-01
         21   -1    0    0  501  502  0.00000000000E+00  0.00000000000E+00  0.55085047921E+03  0.55085047921E+03  0.00000000000E+00 0. -1.
         21   -1    0    0  502  503 -0.00000000000E+00 -0.00000000000E+00 -0.19790533545E+04  0.19790533545E+04  0.00000000000E+00 0. -1.
    9000010    2    1    2  501    0 -0.16180400559E+03  0.12636745690E+03 -0.98558419938E+03  0.14151029174E+04  0.99448015686E+03 0.  0.
   -9000010    2    1    2    0  503  0.16180400559E+03 -0.12636745690E+03 -0.44261867589E+03  0.11148009163E+04  0.10023574813E+04 0.  0.
        -13    1    3    3    0    0 -0.37493809753E+02 -0.31101814767E+03 -0.89927261480E+03  0.95227586384E+03  0.10566000000E+00 0.  1.
         13    1    4    4    0    0  0.17456586082E+03 -0.13299642630E+03 -0.76308345035E+03  0.79401363498E+03  0.10566000000E+00 0. -1.
          4    1    3    3  501    0 -0.12431019584E+03  0.43738560457E+03 -0.86311584572E+02  0.46282705356E+03  0.00000000000E+00 0.  1.
         -4    1    4    4    0  503 -0.12761855226E+02  0.66289693950E+01  0.32046477446E+03  0.32078728131E+03  0.00000000000E+00 0. -1.
</event>
<event>
 8    1  0.6759491E-006  0.1051398E+04  0.7818608E-02  0.8729403E-01
         21   -1    0    0  501  502  0.00000000000E+00  0.00000000000E+00  0.26304015879E+04  0.26304015879E+04  0.00000000000E+00 0. -1.
         21   -1    0    0  502  503 -0.00000000000E+00 -0.00000000000E+00 -0.42933076965E+03  0.42933076965E+03  0.00000000000E+00 0. -1.
    9000010    2    1    2  501    0 -0.25168963923E+02 -0.33330988036E+03  0.13607840831E+04  0.17196424274E+04  0.99684893758E+03 0.  0.
   -9000010    2    1    2    0  503  0.25168963923E+02  0.33330988036E+03  0.84028673510E+03  0.13400899301E+04  0.98895412956E+03 0.  0.
        -13    1    3    3    0    0  0.26964734514E+03 -0.10658890596E+03  0.13130457598E+04  0.13446784241E+04  0.10566000000E+00 0.  1.
         13    1    4    4    0    0 -0.34431721998E+03  0.48517247727E+03  0.29479476805E+03  0.66396584785E+03  0.10566000000E+00 0. -1.
          4    1    3    3  501    0 -0.29481630907E+03 -0.22672097440E+03  0.47738323296E+02  0.37496400339E+03  0.00000000000E+00 0.  1.
         -4    1    4    4    0  503  0.36948618390E+03 -0.15186259691E+03  0.54549196705E+03  0.67612408222E+03  0.00000000000E+00 0. -1.
</event>
<event>
 8    1  0.6759491E-006  0.1152026E+04  0.7818608E-02  0.8657667E-01
         21   -1    0    0  503  502  0.00000000000E+00  0.00000000000E+00  0.13368575782E+04  0.13368575782E+04  0.00000000000E+00 0.  1.
         21   -1    0    0  501  503 -0.00000000000E+00 -0.00000000000E+00 -0.98103876222E+03  0.98103876222E+03  0.00000000000E+00 0.  1.
    9000010    2    1    2  501    0  0.21664543647E+03 -0.52864233781E+03 -0.80255869201E+02  0.10860987577E+04  0.92020190198E+03 0.  0.
   -9000010    2    1    2    0  502 -0.21664543647E+03  0.52864233781E+03  0.43607468516E+03  0.12317975827E+04  0.10003830203E+04 0.  0.
        -13    1    3    3    0    0  0.17318496271E+02 -0.70173070768E+03  0.17011421033E+03  0.72226364448E+03  0.10566000000E+00 0.  1.
         13    1    4    4    0    0 -0.37407852673E+03  0.12392306980E+02  0.56421579082E+03  0.67707295265E+03  0.10566000000E+00 0. -1.
          4    1    3    3  501    0  0.19932694020E+03  0.17308836987E+03 -0.25037007953E+03  0.36383511319E+03  0.00000000000E+00 0.  1.
         -4    1    4    4    0  502  0.15743309026E+03  0.51625003083E+03 -0.12814110567E+03  0.55472463007E+03  0.00000000000E+00 0. -1.
</event>
<event>
 8    1  0.6759491E-006  0.1180703E+04  0.7818608E-02  0.8622035E-01
         21   -1    0    0  503  502  0.00000000000E+00  0.00000000000E+00  0.11312964864E+04  0.11312964864E+04  0.00000000000E+00 0. -1.
         21   -1    0    0  501  503 -0.00000000000E+00 -0.00000000000E+00 -0.13297039421E+04  0.13297039421E+04  0.00000000000E+00 0. -1.
    9000010    2    1    2  501    0 -0.54352761228E+02 -0.61299076411E+03 -0.43945484998E+03  0.12559431387E+04  0.10027764971E+04 0.  0.
   -9000010    2    1    2    0  502  0.54352761228E+02  0.61299076411E+03  0.24104739429E+03  0.12050572897E+04  0.10076444441E+04 0.  0.
        -13    1    3    3    0    0  0.67127617305E+02  0.34048516128E+02  0.27458949218E+03  0.28471884173E+03  0.10566000000E+00 0.  1.
         13    1    4    4    0    0 -0.16023327585E+03  0.48161922587E+03  0.58781071899E+03  0.77662940579E+03  0.10566000000E+00 0. -1.
          4    1    3    3  501    0 -0.12148037853E+03 -0.64703928024E+03 -0.71404434216E+03  0.97122429701E+03  0.00000000000E+00 0.  1.
         -4    1    4    4    0  502  0.21458603708E+03  0.13137153824E+03 -0.34676332470E+03  0.42842788392E+03  0.00000000000E+00 0. -1.
</event>
<event>
 8    1  0.6759491E-006  0.1041054E+04  0.7818608E-02  0.8748395E-01
         21   -1    0    0  503  502  0.00000000000E+00  0.00000000000E+00  0.56584201729E+03  0.56584201729E+03  0.00000000000E+00 0. -1.
         21   -1    0    0  501  503 -0.00000000000E+00 -0.00000000000E+00 -0.18517196014E+04  0.18517196014E+04  0.00000000000E+00 0. -1.
    9000010    2    1    2  501    0 -0.97384726607E+02 -0.13194009061E+03 -0.51255339264E+03  0.11603901915E+04  0.10280576072E+04 0.  0.
   -9000010    2    1    2    0  502  0.97384726607E+02  0.13194009061E+03 -0.77332419151E+03  0.12571714272E+04  0.97752632692E+03 0.  0.
        -13    1    3    3    0    0 -0.55224108620E+03 -0.42452070030E+02 -0.40039718958E+03  0.68344006037E+03  0.10566000000E+00 0.  1.
         13    1    4    4    0    0  0.44878016625E+03 -0.38804678671E+02 -0.73837152293E+03  0.86492887438E+03  0.10566000000E+00 0. -1.
          4    1    3    3  501    0  0.45485635959E+03 -0.89488020578E+02 -0.11215620306E+03  0.47695013111E+03  0.00000000000E+00 0.  1.
         -4    1    4    4    0  502 -0.35139543964E+03  0.17074476928E+03 -0.34952668579E+02  0.39224255286E+03  0.00000000000E+00 0. -1.
</event>
<event>
 8    1  0.7929923E-006  0.1021484E+04  0.7818608E-02  0.8760768E-01
         21   -1    0    0  501  502  0.00000000000E+00  0.00000000000E+00  0.14096201586E+04  0.14096201586E+04  0.00000000000E+00 0.  1.
         21   -1    0    0  502  503 -0.00000000000E+00 -0.00000000000E+00 -0.72907697981E+03  0.72907697981E+03  0.00000000000E+00 0.  1.
    9000010    2    1    2  501    0 -0.15513048526E+03 -0.30957107699E+02  0.23410496359E+03  0.10479670314E+04  0.10091610154E+04 0.  0.
   -9000010    2    1    2    0  503  0.15513048526E+03  0.30957107699E+02  0.44643821517E+03  0.10907301070E+04  0.98252800281E+03 0.  0.
        -13    1    3    3    0    0 -0.37545958924E+02  0.37871196579E+03 -0.20814332990E+03  0.43376964971E+03  0.10566000000E+00 0.  1.
         13    1    4    4    0    0  0.53249540607E+03 -0.37521665670E+02  0.45279173163E+02  0.53573262694E+03  0.10566000000E+00 0. -1.
          4    1    3    3  501    0 -0.11758452634E+03 -0.40966907349E+03  0.44224829349E+03  0.61419738171E+03  0.00000000000E+00 0.  1.
         -4    1    4    4    0  503 -0.37736492080E+03  0.68478773369E+02  0.40115904200E+03  0.55499748003E+03  0.00000000000E+00 0. -1.
</event>
<event>
 8    1  0.6759491E-006  0.1046871E+04  0.7818608E-02  0.8733885E-01
         21   -1    0    0  503  502  0.00000000000E+00  0.00000000000E+00  0.14876993112E+04  0.14876993112E+04  0.00000000000E+00 0.  1.
         21   -1    0    0  501  503 -0.00000000000E+00 -0.00000000000E+00 -0.75517557487E+03  0.75517557487E+03  0.00000000000E+00 0.  1.
    9000010    2    1    2  501    0 -0.22174616700E+03 -0.15732931683E+03  0.15979549550E+03  0.10495785137E+04  0.10010777091E+04 0.  0.
   -9000010    2    1    2    0  502  0.22174616700E+03  0.15732931683E+03  0.57272824078E+03  0.11932963723E+04  0.10109474357E+04 0.  0.
        -13    1    3    3    0    0  0.57191521219E+02 -0.53336661774E+03  0.21546903779E+03  0.57808108119E+03  0.10566000000E+00 0.  1.
         13    1    4    4    0    0 -0.39510080360E+03  0.16711685171E+03  0.26008049731E+03  0.50167176857E+03  0.10566000000E+00 0. -1.
          4    1    3    3  501    0 -0.27893768822E+03  0.37603730091E+03 -0.55673542292E+02  0.47149743254E+03  0.00000000000E+00 0.  1.
         -4    1    4    4    0  502  0.61684697060E+03 -0.97875348795E+01  0.31264774347E+03  0.69162460372E+03  0.00000000000E+00 0. -1.
</event>
<event>
 8    1  0.6759491E-006  0.1052147E+04  0.7818608E-02  0.8733710E-01
         21   -1    0    0  501  502  0.00000000000E+00  0.00000000000E+00  0.15151471046E+04  0.15151471046E+04  0.00000000000E+00 0. -1.
         21   -1    0    0  502  503 -0.00000000000E+00 -0.00000000000E+00 -0.92579387458E+03  0.92579387458E+03  0.00000000000E+00 0. -1.
    9000010    2    1    2  501    0 -0.28281179095E+03  0.22694446906E+02  0.88675582590E+03  0.13759906437E+04  0.10131716586E+04 0.  0.
   -9000010    2    1    2    0  503  0.28281179095E+03 -0.22694446906E+02 -0.29740259584E+03  0.10649503355E+04  0.98243237222E+03 0.  0.
        -13    1    3    3    0    0 -0.66676037278E+03  0.29492015184E+01  0.59001958522E+03  0.89033769695E+03  0.10566000000E+00 0.  1.
         13    1    4    4    0    0 -0.22744398580E+03 -0.34840662006E+03 -0.14607661586E+03  0.44097202682E+03  0.10566000000E+00 0. -1.
          4    1    3    3  501    0  0.38394858182E+03  0.19745245388E+02  0.29673624068E+03  0.48565294680E+03  0.00000000000E+00 0.  1.
         -4    1    4    4    0  503  0.51025577675E+03  0.32571217315E+03 -0.15132597998E+03  0.62397830865E+03  0.00000000000E+00 0. -1.
</event>
<event>
 8    1  0.6759491E-006  0.1033060E+04  0.7818608E-02  0.8785555E-01
         21   -1    0    0  503  502  0.00000000000E+00  0.00000000000E+00  0.15004890839E+04  0.15004890839E+04  0.00000000000E+00 0.  1.
         21   -1    0    0  501  503 -0.00000000000E+00 -0.00000000000E+00 -0.67379575581E+03  0.67379575581E+03  0.00000000000E+00 0.  1.
    9000010    2    1    2  501    0 -0.39501821697E+02 -0.16193583465E+03  0.88989378609E+02  0.10368862163E+04  0.10195245498E+04 0.  0.
   -9000010    2    1    2    0  502  0.39501821697E+02  0.16193583465E+03  0.73770394952E+03  0.11373986234E+04  0.84952039586E+03 0.  0.
        -13    1    3    3    0    0 -0.68718089756E+02 -0.59410578800E+03  0.21074772298E+02  0.59843798375E+03  0.10566000000E+00 0.  1.
         13    1    4    4    0    0 -0.96996003213E+02  0.47933022141E+03  0.27866974280E+03  0.56286989839E+03  0.10566000000E+00 0. -1.
          4    1    3    3  501    0  0.29216268059E+02  0.43216995335E+03  0.67914606311E+02  0.43844823258E+03  0.00000000000E+00 0.  1.
         -4    1    4    4    0  502  0.13649782491E+03 -0.31739438676E+03  0.45903420672E+03  0.57452872504E+03  0.00000000000E+00 0. -1.
</event>
<event>
 8    1  0.6759491E-006  0.1215296E+04  0.7818608E-02  0.8598828E-01
         21   -1    0    0  501  502  0.00000000000E+00  0.00000000000E+00  0.12902306184E+04  0.12902306184E+04  0.00000000000E+00 0.  1.
         21   -1    0    0  502  503 -0.00000000000E+00 -0.00000000000E+00 -0.12196866481E+04  0.12196866481E+04  0.00000000000E+00 0.  1.
    9000010    2    1    2  501    0  0.34254638676E+03 -0.56211619635E+03  0.38248056047E+03  0.12552267887E+04  0.99799311953E+03 0.  0.
   -9000010    2    1    2    0  503 -0.34254638676E+03  0.56211619635E+03 -0.31193659015E+03  0.12546904779E+04  0.10215826514E+04 0.  0.
        -13    1    3    3    0    0  0.56597378130E+03 -0.33179089483E+03  0.58230527247E+03  0.87720633862E+03  0.10566000000E+00 0.  1.
         13    1    4    4    0    0 -0.89549316937E+02 -0.23875473229E+03 -0.32700317930E+03  0.41467335674E+03  0.10566000000E+00 0. -1.
          4    1    3    3  501    0 -0.22342739453E+03 -0.23032530153E+03 -0.19982471199E+03  0.37802045007E+03  0.00000000000E+00 0.  1.
         -4    1    4    4    0  503 -0.25299706983E+03  0.80087092864E+03  0.15066589146E+02  0.84001712113E+03  0.00000000000E+00 0. -1.
</event>
<event>
 8    1  0.7438285E-006  0.1015218E+04  0.7818608E-02  0.8762835E-01
         21   -1    0    0  501  502  0.00000000000E+00  0.00000000000E+00  0.66929849468E+03  0.66929849468E+03  0.00000000000E+00 0.  1.
         21   -1    0    0  502  503 -0.00000000000E+00 -0.00000000000E+00 -0.16895380165E+04  0.16895380165E+04  0.00000000000E+00 0.  1.
    9000010    2    1    2  501    0  0.12014370735E+03  0.18363028054E+03 -0.13878933600E+03  0.10143579653E+04  0.98056361939E+03 0.  0.
   -9000010    2    1    2    0  503 -0.12014370735E+03 -0.18363028054E+03 -0.88145018579E+03  0.13444785458E+04  0.99121820998E+03 0.  0.
        -13    1    3    3    0    0  0.32422624602E+03 -0.31860819668E+03 -0.12753569574E+03  0.47212202496E+03  0.10566000000E+00 0.  1.
         13    1    4    4    0    0 -0.36658159858E+03 -0.32955102682E+03 -0.93135963987E+03  0.10537631317E+04  0.10566000000E+00 0. -1.
          4    1    3    3  501    0 -0.20408253867E+03  0.50223847722E+03 -0.11253640257E+02  0.54223594035E+03  0.00000000000E+00 0.  1.
         -4    1    4    4    0  503  0.24643789123E+03  0.14592074628E+03  0.49909454082E+02  0.29071541417E+03  0.00000000000E+00 0. -1.
</event>
<event>
 8    1  0.6759491E-006  0.1020465E+04  0.7818608E-02  0.8760988E-01
         21   -1    0    0  503  502  0.00000000000E+00  0.00000000000E+00  0.14457288521E+04  0.14457288521E+04  0.00000000000E+00 0.  1.
         21   -1    0    0  501  503 -0.00000000000E+00 -0.00000000000E+00 -0.73059226950E+03  0.73059226950E+03  0.00000000000E+00 0.  1.
    9000010    2    1    2  501    0  0.12653408259E+02  0.17755232101E+03  0.56917572927E+03  0.11684646123E+04  0.10048201849E+04 0.  0.
   -9000010    2    1    2    0  502 -0.12653408259E+02 -0.17755232101E+03  0.14596085335E+03  0.10078565093E+04  0.98121620307E+03 0.  0.
        -13    1    3    3    0    0  0.28698209975E+03  0.50037605246E+03  0.21269786611E+03  0.61479696881E+03  0.10566000000E+00 0.  1.
         13    1    4    4    0    0 -0.29910680537E+01 -0.23158414045E+03 -0.39835001977E+03  0.46078510177E+03  0.10566000000E+00 0. -1.
          4    1    3    3  501    0 -0.27432869149E+03 -0.32282373145E+03  0.35647786316E+03  0.55366764353E+03  0.00000000000E+00 0.  1.
         -4    1    4    4    0  502 -0.96623402048E+01  0.54031819439E+02  0.54431087312E+03  0.54707140752E+03  0.00000000000E+00 0. -1.
</event>
<event>
 8    1  0.6759491E-006  0.1016575E+04  0.7818608E-02  0.8764950E-01
         21   -1    0    0  503  502  0.00000000000E+00  0.00000000000E+00  0.18064503637E+04  0.18064503637E+04  0.00000000000E+00 0. -1.
         21   -1    0    0  501  503 -0.00000000000E+00 -0.00000000000E+00 -0.58059049495E+03  0.58059049495E+03  0.00000000000E+00 0. -1.
    9000010    2    1    2  501    0 -0.10504733766E+03 -0.14929261052E+03  0.38594810496E+03  0.10873734889E+04  0.10000509676E+04 0.  0.
   -9000010    2    1    2    0  502  0.10504733766E+03  0.14929261052E+03  0.83991176382E+03  0.12996673698E+04  0.97486423385E+03 0.  0.
        -13    1    3    3    0    0 -0.34048336751E+03 -0.32374985245E+03 -0.13571752602E+03  0.48904207237E+03  0.10566000000E+00 0.  1.
         13    1    4    4    0    0  0.11724776194E+03  0.55734223418E+03  0.59477562979E+03  0.82348980846E+03  0.10566000000E+00 0. -1.
          4    1    3    3  501    0  0.23543602986E+03  0.17445724193E+03  0.52166563098E+03  0.59833141650E+03  0.00000000000E+00 0.  1.
         -4    1    4    4    0  502 -0.12200424287E+02 -0.40804962366E+03  0.24513613404E+03  0.47617756135E+03  0.00000000000E+00 0. -1.
</event>
<event>
 8    1  0.6759491E-006  0.1126904E+04  0.7818608E-02  0.8685007E-01
         21   -1    0    0  501  502  0.00000000000E+00  0.00000000000E+00  0.99789383540E+03  0.99789383540E+03  0.00000000000E+00 0.  1.
         21   -1    0    0  502  503 -0.00000000000E+00 -0.00000000000E+00 -0.20723526229E+04  0.20723526229E+04  0.00000000000E+00 0.  1.
    9000010    2    1    2  501    0  0.54357244506E+02  0.20984626175E+03  0.46540566279E+03  0.12192270131E+04  0.11058579994E+04 0.  0.
   -9000010    2    1    2    0  503 -0.54357244506E+02 -0.20984626175E+03 -0.15398644502E+04  0.18510194452E+04  0.10040419800E+04 0.  0.
        -13    1    3    3    0    0  0.10997219105E+03  0.66203296739E+03  0.28861269790E+03  0.73053325267E+03  0.10566000000E+00 0.  1.
         13    1    4    4    0    0  0.39684431153E+03 -0.86231561014E+02 -0.24511976114E+03  0.47434691753E+03  0.10566000000E+00 0. -1.
          4    1    3    3  501    0 -0.55614946542E+02 -0.45218670564E+03  0.17679296489E+03  0.48869376042E+03  0.00000000000E+00 0.  1.
         -4    1    4    4    0  503 -0.45120155603E+03 -0.12361470073E+03 -0.12947446891E+04  0.13766725276E+04  0.00000000000E+00 0. -1.
</event>
<event>
 8    1  0.6759491E-006  0.1035198E+04  0.7818608E-02  0.8748387E-01
         21   -1    0    0  501  502  0.00000000000E+00  0.00000000000E+00  0.12326181739E+04  0.12326181739E+04  0.00000000000E+00 0. -1.
         21   -1    0    0  502  503 -0.00000000000E+00 -0.00000000000E+00 -0.93728270195E+03  0.93728270195E+03  0.00000000000E+00 0. -1.
    9000010    2    1    2  501    0  0.18830822376E+03  0.29702967679E+02  0.48293499105E+03  0.11178418166E+04  0.98995043707E+03 0.  0.
   -9000010    2    1    2    0  503 -0.18830822376E+03 -0.29702967679E+02 -0.18759951909E+03  0.10520590593E+04  0.10174932094E+04 0.  0.
        -13    1    3    3    0    0  0.12395541112E+03  0.38012300347E+03  0.61863661707E+03  0.73659331849E+03  0.10566000000E+00 0.  1.
         13    1    4    4    0    0  0.56812267114E+02 -0.36983338919E+03 -0.42822124492E+03  0.56866318258E+03  0.10566000000E+00 0. -1.
          4    1    3    3  501    0  0.64352812644E+02 -0.35042003579E+03 -0.13570162601E+03  0.38124849807E+03  0.00000000000E+00 0.  1.
         -4    1    4    4    0  503 -0.24512049088E+03  0.34013042152E+03  0.24062172583E+03  0.48339587672E+03  0.00000000000E+00 0. -1.
</event>
<event>
 8    1  0.6759491E-006  0.1056270E+04  0.7818608E-02  0.8736214E-01
         21   -1    0    0  501  502  0.00000000000E+00  0.00000000000E+00  0.15284270493E+04  0.15284270493E+04  0.00000000000E+00 0.  1.
         21   -1    0    0  502  503 -0.00000000000E+00 -0.00000000000E+00 -0.70973392541E+03  0.70973392541E+03  0.00000000000E+00 0.  1.
    9000010    2    1    2  501    0  0.89896796834E+02 -0.16243238931E+03  0.59961924119E+03  0.12145983418E+04  0.10398269964E+04 0.  0.
   -9000010    2    1    2    0  503 -0.89896796834E+02  0.16243238931E+03  0.21907388266E+03  0.10235626328E+04  0.98245680926E+03 0.  0.
        -13    1    3    3    0    0  0.38727240745E+03  0.14866731533E+02  0.74446423073E+03  0.83930205485E+03  0.10566000000E+00 0.  1.
         13    1    4    4    0    0 -0.19623638046E+03 -0.32247869794E+03  0.34501064014E+03  0.51140353989E+03  0.10566000000E+00 0. -1.
          4    1    3    3  501    0 -0.29737561061E+03 -0.17729912084E+03 -0.14484498954E+03  0.37529628699E+03  0.00000000000E+00 0.  1.
         -4    1    4    4    0  503  0.10633958363E+03  0.48491108725E+03 -0.12593675748E+03  0.51215909293E+03  0.00000000000E+00 0. -1.
</event>
<event>
 8    1  0.6759491E-006  0.1014610E+04  0.7818608E-02  0.8765357E-01
         21   -1    0    0  503  502  0.00000000000E+00  0.00000000000E+00  0.21313760179E+04  0.21313760179E+04  0.00000000000E+00 0.  1.
         21   -1    0    0  501  503 -0.00000000000E+00 -0.00000000000E+00 -0.49674823021E+03  0.49674823021E+03  0.00000000000E+00 0.  1.
    9000010    2    1    2  501    0  0.33022125550E+02  0.24729351856E+02  0.54402614205E+03  0.11512589380E+04  0.10137705349E+04 0.  0.
   -9000010    2    1    2    0  502 -0.33022125550E+02 -0.24729351856E+02  0.10906016456E+04  0.14768653101E+04  0.99499607696E+03 0.  0.
        -13    1    3    3    0    0  0.51064267433E+03  0.12354009415E+03  0.25081260645E+03  0.58217271528E+03  0.10566000000E+00 0.  1.
         13    1    4    4    0    0  0.14902278751E+03  0.32732321403E+03  0.49707409956E+02  0.36306902293E+03  0.10566000000E+00 0. -1.
          4    1    3    3  501    0 -0.47762054878E+03 -0.98810742293E+02  0.29321353560E+03  0.56908622270E+03  0.00000000000E+00 0.  1.
         -4    1    4    4    0  502 -0.18204491306E+03 -0.35205256589E+03  0.10408942357E+04  0.11137962872E+04  0.00000000000E+00 0. -1.
</event>
<event>
 8    1  0.6759491E-006  0.1035884E+04  0.7818608E-02  0.8761617E-01
         21   -1    0    0  503  502  0.00000000000E+00  0.00000000000E+00  0.85435858157E+03  0.85435858157E+03  0.00000000000E+00 0.  1.
         21   -1    0    0  501  503 -0.00000000000E+00 -0.00000000000E+00 -0.13362227161E+04  0.13362227161E+04  0.00000000000E+00 0.  1.
    9000010    2    1    2  501    0  0.27514241893E+03  0.30040019053E+02 -0.65296219612E+03  0.12245057233E+04  0.99822286257E+03 0.  0.
   -9000010    2    1    2    0  502 -0.27514241893E+03 -0.30040019053E+02  0.17109806157E+03  0.96607557440E+03  0.90962723978E+03 0.  0.
        -13    1    3    3    0    0  0.48976535709E+03 -0.57502658241E+02  0.39081952373E+02  0.49467572295E+03  0.10566000000E+00 0.  1.
         13    1    4    4    0    0  0.19700009129E+03  0.23931554569E+03  0.27298154253E+03  0.41303740763E+03  0.10566000000E+00 0. -1.
          4    1    3    3  501    0 -0.21462293816E+03  0.87542677293E+02 -0.69204414850E+03  0.72983000034E+03  0.00000000000E+00 0.  1.
         -4    1    4    4    0  502 -0.47214251022E+03 -0.26935556474E+03 -0.10188348096E+03  0.55303816677E+03  0.00000000000E+00 0. -1.
</event>
<event>
 8    1  0.6759491E-006  0.1027993E+04  0.7818608E-02  0.8753912E-01
         21   -1    0    0  501  502  0.00000000000E+00  0.00000000000E+00  0.17046775162E+04  0.17046775162E+04  0.00000000000E+00 0. -1.
         21   -1    0    0  502  503 -0.00000000000E+00 -0.00000000000E+00 -0.64286284926E+03  0.64286284926E+03  0.00000000000E+00 0. -1.
    9000010    2    1    2  501    0  0.14020706575E+02  0.11899317317E+03  0.80490697581E+03  0.12879316183E+04  0.99826682713E+03 0.  0.
   -9000010    2    1    2    0  503 -0.14020706575E+02 -0.11899317317E+03  0.25690769117E+03  0.10596087472E+04  0.10209863760E+04 0.  0.
        -13    1    3    3    0    0 -0.30854183311E+03  0.48267992240E+02  0.89310491615E+03  0.94613120881E+03  0.10566000000E+00 0.  1.
         13    1    4    4    0    0 -0.48893466823E+03 -0.22944065170E+03  0.12197328555E+03  0.55369451506E+03  0.10566000000E+00 0. -1.
          4    1    3    3  501    0  0.32256253969E+03  0.70725180926E+02 -0.88197940345E+02  0.34180040946E+03  0.00000000000E+00 0.  1.
         -4    1    4    4    0  503  0.47491396166E+03  0.11044747854E+03  0.13493440562E+03  0.50591423217E+03  0.00000000000E+00 0. -1.
</event>
<event>
 8    1  0.6759491E-006  0.1077953E+04  0.7818608E-02  0.8704699E-01
         21   -1    0    0  501  502  0.00000000000E+00  0.00000000000E+00  0.24366683965E+04  0.24366683965E+04  0.00000000000E+00 0. -1.
         21   -1    0    0  502  503 -0.00000000000E+00 -0.00000000000E+00 -0.50193276041E+03  0.50193276041E+03  0.00000000000E+00 0. -1.
    9000010    2    1    2  501    0  0.37690190725E+03 -0.10799428724E+03  0.12967013123E+04  0.16859753648E+04  0.10036736638E+04 0.  0.
   -9000010    2    1    2    0  503 -0.37690190725E+03  0.10799428724E+03  0.63803432378E+03  0.12526257921E+04  0.10041243763E+04 0.  0.
        -13    1    3    3    0    0  0.54689170794E+03 -0.29814492152E+03  0.36927641675E+03  0.72411740593E+03  0.10566000000E+00 0.  1.
         13    1    4    4    0    0 -0.71596582444E+03 -0.40969081940E+01  0.36870149684E+03  0.80533511742E+03  0.10566000000E+00 0. -1.
          4    1    3    3  501    0 -0.16998980069E+03  0.19015063428E+03  0.92742489560E+03  0.96185795886E+03  0.00000000000E+00 0.  1.
         -4    1    4    4    0  503  0.33906391719E+03  0.11209119543E+03  0.26933282693E+03  0.44729067472E+03  0.00000000000E+00 0. -1.
</event>
<event>
 8    1  0.6759491E-006  0.1032742E+04  0.7818608E-02  0.8745063E-01
         21   -1    0    0  503  502  0.00000000000E+00  0.00000000000E+00  0.57506499514E+03  0.57506499514E+03  0.00000000000E+00 0.  1.
         21   -1    0    0  501  503 -0.00000000000E+00 -0.00000000000E+00 -0.19596117955E+04  0.19596117955E+04  0.00000000000E+00 0.  1.
    9000010    2    1    2  501    0  0.14747712903E+03 -0.24456911528E+03 -0.99167837057E+03  0.14297329553E+04  0.98951845710E+03 0.  0.
   -9000010    2    1    2    0  502 -0.14747712903E+03  0.24456911528E+03 -0.39286842975E+03  0.11049438353E+04  0.99246749087E+03 0.  0.
        -13    1    3    3    0    0 -0.17971091108E+03 -0.30574491128E+03  0.29307869366E+02  0.35585801200E+03  0.10566000000E+00 0.  1.
         13    1    4    4    0    0 -0.18455883951E+03  0.43066843572E+03 -0.64011387183E+03  0.79327362671E+03  0.10566000000E+00 0. -1.
          4    1    3    3  501    0  0.32718804012E+03  0.61175795996E+02 -0.10209862399E+04  0.10738749433E+04  0.00000000000E+00 0.  1.
         -4    1    4    4    0  502  0.37081710471E+02 -0.18609932044E+03  0.24724544208E+03  0.31167020863E+03  0.00000000000E+00 0. -1.
</event>
<event>
 8    1  0.6759491E-006  0.1029711E+04  0.7818608E-02  0.8747397E-01
         21   -1    0    0  501  502  0.00000000000E+00  0.00000000000E+00  0.23423851211E+04  0.23423851211E+04  0.00000000000E+00 0. -1.
         21   -1    0    0  502  503 -0.00000000000E+00 -0.00000000000E+00 -0.48912601046E+03  0.48912601046E+03  0.00000000000E+00 0. -1.
    9000010    2    1    2  501    0  0.11817139975E+03 -0.19476466829E+03  0.53812179137E+03  0.11618433363E+04  0.10041947620E+04 0.  0.
   -9000010    2    1    2    0  503 -0.11817139975E+03  0.19476466829E+03  0.13151373193E+04  0.16696677953E+04  0.10031483551E+04 0.  0.
        -13    1    3    3    0    0 -0.36925820800E+03 -0.33051885009E+03  0.40132582686E+03  0.63769645201E+03  0.10566000000E+00 0.  1.
         13    1    4    4    0    0 -0.43488583987E+03 -0.20383091234E+03  0.86831885174E+03  0.99229550739E+03  0.10566000000E+00 0. -1.
          4    1    3    3  501    0  0.48742960774E+03  0.13575418180E+03  0.13679596451E+03  0.52414688427E+03  0.00000000000E+00 0.  1.
         -4    1    4    4    0  503  0.31671444013E+03  0.39859558063E+03  0.44681846754E+03  0.67737228790E+03  0.00000000000E+00 0. -1.
</event>
<event>
 8    1  0.6759491E-006  0.1002400E+04  0.7818608E-02  0.8775370E-01
         21   -1    0    0  501  502  0.00000000000E+00  0.00000000000E+00  0.10972456459E+04  0.10972456459E+04  0.00000000000E+00 0. -1.
         21   -1    0    0  502  503 -0.00000000000E+00 -0.00000000000E+00 -0.23376862055E+04  0.23376862055E+04  0.00000000000E+00 0. -1.
    9000010    2    1    2  501    0 -0.98179218660E+02  0.26646083104E+02  0.72629139824E+03  0.12274809407E+04  0.98430741743E+03 0.  0.
   -9000010    2    1    2    0  503  0.98179218660E+02 -0.26646083104E+02 -0.19667319578E+04  0.22074509107E+04  0.99722402525E+03 0.  0.
        -13    1    3    3    0    0  0.20949368803E+03  0.26011432652E+03  0.76949159022E+03  0.83884705804E+03  0.10566000000E+00 0.  1.
         13    1    4    4    0    0  0.18275258707E+02  0.18524001640E+03  0.37992531947E+02  0.18997708390E+03  0.10566000000E+00 0. -1.
          4    1    3    3  501    0 -0.30767290669E+03 -0.23346824342E+03 -0.43200191982E+02  0.38863388271E+03  0.00000000000E+00 0.  1.
         -4    1    4    4    0  503  0.79903959953E+02 -0.21188609951E+03 -0.20047244898E+04  0.20174738268E+04  0.00000000000E+00 0. -1.
</event>
<event>
 8    1  0.6759491E-006  0.1000952E+04  0.7818608E-02  0.8784011E-01
         21   -1    0    0  503  502  0.00000000000E+00  0.00000000000E+00  0.37963261423E+03  0.37963261423E+03  0.00000000000E+00 0. -1.
         21   -1    0    0  501  503 -0.00000000000E+00 -0.00000000000E+00 -0.25482193626E+04  0.25482193626E+04  0.00000000000E+00 0. -1.
    9000010    2    1    2  501    0  0.31122050326E+02 -0.86022598435E+02 -0.97460397571E+03  0.13970533852E+04  0.99676315249E+03 0.  0.
   -9000010    2    1    2    0  502 -0.31122050326E+02  0.86022598435E+02 -0.11939827727E+04  0.15307985917E+04  0.95361470066E+03 0.  0.
        -13    1    3    3    0    0  0.43111454909E+03 -0.21234591032E+03 -0.81913856251E+03  0.94970444657E+03  0.10566000000E+00 0.  1.
         13    1    4    4    0    0 -0.11721633842E+03 -0.40521401597E+03 -0.33973727924E+03  0.54162671537E+03  0.10566000000E+00 0. -1.
          4    1    3    3  501    0 -0.39999249876E+03  0.12632331189E+03 -0.15546541320E+03  0.44734893863E+03  0.00000000000E+00 0.  1.
         -4    1    4    4    0  502  0.86094288097E+02  0.49123661441E+03 -0.85424549345E+03  0.98917187629E+03  0.00000000000E+00 0. -1.
</event>
<event>
 8    1  0.6759491E-006  0.1011209E+04  0.7818608E-02  0.8764152E-01
         21   -1    0    0  503  502  0.00000000000E+00  0.00000000000E+00  0.97492511530E+03  0.97492511530E+03  0.00000000000E+00 0. -1.
         21   -1    0    0  501  503 -0.00000000000E+00 -0.00000000000E+00 -0.10630227747E+04  0.10630227747E+04  0.00000000000E+00 0. -1.
    9000010    2    1    2  501    0  0.78699972760E+02  0.23744511223E+02 -0.16212500986E+03  0.10241229025E+04  0.10078619514E+04 0.  0.
   -9000010    2    1    2    0  502 -0.78699972760E+02 -0.23744511223E+02  0.74027350453E+02  0.10138249876E+04  0.10077715859E+04 0.  0.
        -13    1    3    3    0    0  0.10858454958E+03 -0.48456146586E+03 -0.26987385324E+02  0.49731152081E+03  0.10566000000E+00 0.  1.
         13    1    4    4    0    0 -0.18189897689E+03  0.24636399301E+03 -0.37226997138E+03  0.48204501615E+03  0.10566000000E+00 0. -1.
          4    1    3    3  501    0 -0.29884576816E+02  0.50830597708E+03 -0.13513762454E+03  0.52681138165E+03  0.00000000000E+00 0.  1.
         -4    1    4    4    0  502  0.10319900413E+03 -0.27010850423E+03  0.44629732184E+03  0.53177997141E+03  0.00000000000E+00 0. -1.
</event>
<event>
 8    1  0.6759491E-006  0.1151457E+04  0.7818608E-02  0.8664101E-01
         21   -1    0    0  501  502  0.00000000000E+00  0.00000000000E+00  0.63487998440E+03  0.63487998440E+03  0.00000000000E+00 0. -1.
         21   -1    0    0  502  503 -0.00000000000E+00 -0.00000000000E+00 -0.19745493549E+04  0.19745493549E+04  0.00000000000E+00 0. -1.
    9000010    2    1    2  501    0 -0.26603479495E+03  0.10581730665E+03 -0.41778772727E+03  0.11343972288E+04  0.10150559951E+04 0.  0.
   -9000010    2    1    2    0  503  0.26603479495E+03 -0.10581730665E+03 -0.92188164321E+03  0.14750321105E+04  0.11152946464E+04 0.  0.
        -13    1    3    3    0    0 -0.17918021939E+03  0.16541985539E+03 -0.74854729038E+03  0.78726891001E+03  0.10566000000E+00 0.  1.
         13    1    4    4    0    0  0.38699695695E+03  0.31282042166E+03 -0.49754585640E+02  0.50009878109E+03  0.10566000000E+00 0. -1.
          4    1    3    3  501    0 -0.86854575560E+02 -0.59602548736E+02  0.33075956311E+03  0.34712831878E+03  0.00000000000E+00 0.  1.
         -4    1    4    4    0  503 -0.12096216200E+03 -0.41863772831E+03 -0.87212705757E+03  0.97493332938E+03  0.00000000000E+00 0. -1.
</event>
<event>
 8    1  0.6759491E-006  0.1015602E+04  0.7818608E-02  0.8765835E-01
         21   -1    0    0  503  502  0.00000000000E+00  0.00000000000E+00  0.10488813559E+04  0.10488813559E+04  0.00000000000E+00 0. -1.
         21   -1    0    0  501  503 -0.00000000000E+00 -0.00000000000E+00 -0.10594663577E+04  0.10594663577E+04  0.00000000000E+00 0. -1.
    9000010    2    1    2  501    0 -0.11454762531E+03 -0.62852372088E+02 -0.32895159708E+03  0.10675470364E+04  0.10071623218E+04 0.  0.
   -9000010    2    1    2    0  502  0.11454762531E+03  0.62852372088E+02  0.31836659532E+03  0.10408006773E+04  0.98226125938E+03 0.  0.
        -13    1    3    3    0    0  0.36538314334E+03 -0.19725010971E+02  0.14318390386E+03  0.39293200301E+03  0.10566000000E+00 0.  1.
         13    1    4    4    0    0  0.22904224163E+03  0.46575581059E+03  0.73135456752E+01  0.51907833962E+03  0.10566000000E+00 0. -1.
          4    1    3    3  501    0 -0.47993076866E+03 -0.43127361117E+02 -0.47213550094E+03  0.67461503335E+03  0.00000000000E+00 0.  1.
         -4    1    4    4    0  502 -0.11449461632E+03 -0.40290343850E+03  0.31105304964E+03  0.52172233766E+03  0.00000000000E+00 0. -1.
</event>
<event>
 8    1  0.6759491E-006  0.1022830E+04  0.7818608E-02  0.8756573E-01
         21   -1    0    0  501  502  0.00000000000E+00  0.00000000000E+00  0.82002139909E+03  0.82002139909E+03  0.00000000000E+00 0. -1.
         21   -1    0    0  502  503 -0.00000000000E+00 -0.00000000000E+00 -0.14507002808E+04  0.14507002808E+04  0.00000000000E+00 0. -1.
    9000010    2    1    2  501    0  0.24628094082E+03  0.61271298238E+02  0.95715159669E+02  0.10272991187E+04  0.99084489889E+03 0.  0.
   -9000010    2    1    2    0  503 -0.24628094082E+03 -0.61271298238E+02 -0.72639404143E+03  0.12434225612E+04  0.97675119073E+03 0.  0.
        -13    1    3    3    0    0 -0.26174749744E+03  0.40967801626E+02  0.36573590164E+03  0.45161141936E+03  0.10566000000E+00 0.  1.
         13    1    4    4    0    0  0.16168427329E+03 -0.73497645179E+02 -0.80792028427E+03  0.82721152372E+03  0.10566000000E+00 0. -1.
          4    1    3    3  501    0  0.50802843826E+03  0.20303496612E+02 -0.27002074197E+03  0.57568769932E+03  0.00000000000E+00 0.  1.
         -4    1    4    4    0  503 -0.40796521411E+03  0.12226346941E+02  0.81526242844E+02  0.41621103752E+03  0.00000000000E+00 0. -1.
</event>
<event>
 8    1  0.6759491E-006  0.1025598E+04  0.7818608E-02  0.8767402E-01
         21   -1    0    0  501  502  0.00000000000E+00  0.00000000000E+00  0.23377318797E+04  0.23377318797E+04  0.00000000000E+00 0. -1.
         21   -1    0    0  502  503 -0.00000000000E+00 -0.00000000000E+00 -0.53213393175E+03  0.53213393175E+03  0.00000000000E+00 0. -1.
    9000010    2    1    2  501    0 -0.15362082398E+03  0.14124730055E+03  0.15867062078E+04  0.18893086616E+04  0.10041416591E+04 0.  0.
   -9000010    2    1    2    0  503  0.15362082398E+03 -0.14124730055E+03  0.21889174018E+03  0.98055714988E+03  0.93275322180E+03 0.  0.
        -13    1    3    3    0    0  0.70835936225E+02 -0.24860799105E+02 -0.12995760416E+03  0.15008257473E+03  0.10566000000E+00 0.  1.
         13    1    4    4    0    0  0.19741911018E+03  0.13974949845E+03 -0.30210037841E+03  0.38699984131E+03  0.10566000000E+00 0. -1.
          4    1    3    3  501    0 -0.22445676021E+03  0.16610809965E+03  0.17166638120E+04  0.17392260869E+04  0.00000000000E+00 0.  1.
         -4    1    4    4    0  503 -0.43798286195E+02 -0.28099679900E+03  0.52099211858E+03  0.59355730856E+03  0.00000000000E+00 0. -1.
</event>
<event>
 8    1  0.6759491E-006  0.1028712E+04  0.7818608E-02  0.8759254E-01
         21   -1    0    0  503  502  0.00000000000E+00  0.00000000000E+00  0.46240708877E+03  0.46240708877E+03  0.00000000000E+00 0.  1.
         21   -1    0    0  501  503 -0.00000000000E+00 -0.00000000000E+00 -0.22161760314E+04  0.22161760314E+04  0.00000000000E+00 0.  1.
    9000010    2    1    2  501    0 -0.13023318793E+03 -0.65051541350E+02 -0.69226900736E+03  0.12003984343E+04  0.96980804095E+03 0.  0.
   -9000010    2    1    2    0  502  0.13023318793E+03  0.65051541350E+02 -0.10614999353E+04  0.14781846859E+04  0.10183592032E+04 0.  0.
        -13    1    3    3    0    0 -0.40301989550E+03  0.18851219400E+03 -0.36720845305E+02  0.44644183843E+03  0.10566000000E+00 0.  1.
         13    1    4    4    0    0  0.44707882976E+03  0.37536148968E+03 -0.64203554668E+03  0.86774730326E+03  0.10566000000E+00 0. -1.
          4    1    3    3  501    0  0.27278670757E+03 -0.25356373535E+03 -0.65554816205E+03  0.75395659589E+03  0.00000000000E+00 0.  1.
         -4    1    4    4    0  502 -0.31684564183E+03 -0.31030994833E+03 -0.41946438863E+03  0.61043738263E+03  0.00000000000E+00 0. -1.
</event>
<event>
 8    1  0.6759491E-006  0.1267091E+04  0.7818608E-02  0.8559576E-01
         21   -1    0    0  503  502  0.00000000000E+00  0.00000000000E+00  0.68715397148E+03  0.68715397148E+03  0.00000000000E+00 0.  1.
         21   -1    0    0  501  503 -0.00000000000E+00 -0.00000000000E+00 -0.24594000659E+04  0.24594000659E+04  0.00000000000E+00 0. -1.
    9000010    2    1    2  501    0 -0.77061305665E+03  0.40336225324E+02 -0.12684724879E+04  0.17929141665E+04  0.10050110754E+04 0.  0.
   -9000010    2    1    2    0  502  0.77061305665E+03 -0.40336225324E+02 -0.50377360652E+03  0.13536398709E+04  0.99150469456E+03 0.  0.
        -13    1    3    3    0    0  0.36189070113E+02 -0.25621648975E+03 -0.73985779793E+03  0.78380234162E+03  0.10566000000E+00 0.  1.
         13    1    4    4    0    0 -0.18191266665E+02  0.94946037189E+02  0.24144779962E+03  0.26008214715E+03  0.10566000000E+00 0. -1.
          4    1    3    3  501    0 -0.80680212677E+03  0.29655271508E+03 -0.52861468997E+03  0.10091118248E+04  0.00000000000E+00 0.  1.
         -4    1    4    4    0  502  0.78880432332E+03 -0.13528226251E+03 -0.74522140614E+03  0.10935577238E+04  0.00000000000E+00 0. -1.
</event>
<event>
 8    1  0.6759491E-006  0.1038001E+04  0.7818608E-02  0.8740052E-01
         21   -1    0    0  503  502  0.00000000000E+00  0.00000000000E+00  0.13578300096E+04  0.13578300096E+04  0.00000000000E+00 0.  1.
         21   -1    0    0  501  503 -0.00000000000E+00 -0.00000000000E+00 -0.11662330041E+04  0.11662330041E+04  0.00000000000E+00 0.  1.
    9000010    2    1    2  501    0  0.27386252455E+03 -0.42393118741E+02 -0.61891851182E+03  0.12071037960E+04  0.99861984312E+03 0.  0.
   -9000010    2    1    2    0  502 -0.27386252455E+03  0.42393118741E+02  0.81051551735E+03  0.13169592178E+04  0.10003241067E+04 0.  0.
        -13    1    3    3    0    0 -0.16491538026E+03 -0.22577854838E+03 -0.67272220933E+03  0.72851095918E+03  0.10566000000E+00 0.  1.
         13    1    4    4    0    0  0.25896918346E+03 -0.57668216701E+01  0.73167899645E+03  0.77617811051E+03  0.10566000000E+00 0. -1.
          4    1    3    3  501    0  0.43877790481E+03  0.18338542964E+03  0.53803697510E+02  0.47859283678E+03  0.00000000000E+00 0.  1.
         -4    1    4    4    0  502 -0.53283170801E+03  0.48159940411E+02  0.78836520893E+02  0.54078110724E+03  0.00000000000E+00 0. -1.
</event>
<event>
 8    1  0.6759491E-006  0.1039988E+04  0.7818608E-02  0.8753452E-01
         21   -1    0    0  503  502  0.00000000000E+00  0.00000000000E+00  0.56854123161E+03  0.56854123161E+03  0.00000000000E+00 0. -1.
         21   -1    0    0  501  503 -0.00000000000E+00 -0.00000000000E+00 -0.18077440243E+04  0.18077440243E+04  0.00000000000E+00 0. -1.
    9000010    2    1    2  501    0  0.13980219252E+02  0.29250226994E+03 -0.74173814051E+03  0.12234428488E+04  0.92783829985E+03 0.  0.
   -9000010    2    1    2    0  502 -0.13980219252E+02 -0.29250226994E+03 -0.49746465217E+03  0.11528424071E+04  0.99790856849E+03 0.  0.
        -13    1    3    3    0    0 -0.44379253989E+03  0.92791371301E+02 -0.47730933539E+03  0.65832079556E+03  0.10566000000E+00 0.  1.
         13    1    4    4    0    0 -0.10681263846E+03 -0.58615327737E+03 -0.58260561024E+03  0.83331501400E+03  0.10566000000E+00 0. -1.
          4    1    3    3  501    0  0.45777275914E+03  0.19971089864E+03 -0.26442880513E+03  0.56512205321E+03  0.00000000000E+00 0.  1.
         -4    1    4    4    0  502  0.92832419204E+02  0.29365100743E+03  0.85140958068E+02  0.31952739313E+03  0.00000000000E+00 0. -1.
</event>
<event>
 8    1  0.6759491E-006  0.1091130E+04  0.7818608E-02  0.8709315E-01
         21   -1    0    0  503  502  0.00000000000E+00  0.00000000000E+00  0.18651018773E+04  0.18651018773E+04  0.00000000000E+00 0.  1.
         21   -1    0    0  501  503 -0.00000000000E+00 -0.00000000000E+00 -0.68979411254E+03  0.68979411254E+03  0.00000000000E+00 0.  1.
    9000010    2    1    2  501    0  0.44032694694E+02 -0.87558033585E+02  0.10396460963E+04  0.14553644320E+04  0.10137141299E+04 0.  0.
   -9000010    2    1    2    0  502 -0.44032694694E+02  0.87558033585E+02  0.13566166850E+03  0.10995315578E+04  0.10867199597E+04 0.  0.
        -13    1    3    3    0    0 -0.10715714683E+03 -0.53354198063E+03  0.49845722077E+03  0.73797649781E+03  0.10566000000E+00 0.  1.
         13    1    4    4    0    0 -0.17119800159E+03  0.56345185139E+03  0.10812063378E+01  0.58888702207E+03  0.10566000000E+00 0. -1.
          4    1    3    3  501    0  0.15118984152E+03  0.44598394705E+03  0.54118887551E+03  0.71738793423E+03  0.00000000000E+00 0.  1.
         -4    1    4    4    0  502  0.12716530689E+03 -0.47589381781E+03  0.13458046216E+03  0.51064453576E+03  0.00000000000E+00 0. -1.
</event>
<event>
 8    1  0.6759491E-006  0.1103659E+04  0.7818608E-02  0.8687047E-01
         21   -1    0    0  503  502  0.00000000000E+00  0.00000000000E+00  0.28055345887E+04  0.28055345887E+04  0.00000000000E+00 0. -1.
         21   -1    0    0  501  503 -0.00000000000E+00 -0.00000000000E+00 -0.51653807036E+03  0.51653807036E+03  0.00000000000E+00 0. -1.
    9000010    2    1    2  501    0  0.43107040734E+03  0.15451038363E+02  0.44203888435E+03  0.11704883770E+04  0.99427573373E+03 0.  0.
   -9000010    2    1    2    0  502 -0.43107040734E+03 -0.15451038363E+02  0.18469576340E+04  0.21515842821E+04  0.10158749876E+04 0.  0.
        -13    1    3    3    0    0  0.25819273258E+03 -0.27988986537E+03  0.66197957702E+03  0.76368762950E+03  0.10566000000E+00 0.  1.
         13    1    4    4    0    0 -0.56644555800E+02 -0.46135367075E+03  0.49214067024E+03  0.67694775698E+03  0.10566000000E+00 0. -1.
          4    1    3    3  501    0  0.17287767476E+03  0.29534090373E+03 -0.21994069268E+03  0.40680074747E+03  0.00000000000E+00 0.  1.
         -4    1    4    4    0  502 -0.37442585154E+03  0.44590263239E+03  0.13548169638E+04  0.14746365251E+04  0.00000000000E+00 0. -1.
</event>
<event>
 8    1  0.6759491E-006  0.1063612E+04  0.7818608E-02  0.8732870E-01
         21   -1    0    0  503  502  0.00000000000E+00  0.00000000000E+00  0.25425238863E+04  0.25425238863E+04  0.00000000000E+00 0. -1.
         21   -1    0    0  501  503 -0.00000000000E+00 -0.00000000000E+00 -0.62035238703E+03  0.62035238703E+03  0.00000000000E+00 0. -1.
    9000010    2    1    2  501    0  0.74372344637E+02 -0.99030793112E+02  0.18462439768E+04  0.20965577335E+04  0.98569729860E+03 0.  0.
   -9000010    2    1    2    0  502 -0.74372344637E+02  0.99030793112E+02  0.75927522482E+02  0.10663185398E+04  0.10563767775E+04 0.  0.
        -13    1    3    3    0    0  0.98406907991E+02  0.44097443151E+03  0.79196114477E+03  0.91178113316E+03  0.10566000000E+00 0.  1.
         13    1    4    4    0    0 -0.55450767754E+03  0.63064686228E+02  0.15307863596E+03  0.57869594698E+03  0.10566000000E+00 0. -1.
          4    1    3    3  501    0 -0.24034563354E+02 -0.54000522462E+03  0.10542828321E+04  0.11847766004E+04  0.00000000000E+00 0.  1.
         -4    1    4    4    0  502  0.48013533290E+03  0.35966106884E+02 -0.77151113478E+02  0.48762259285E+03  0.00000000000E+00 0. -1.
</event>
<event>
 8    1  0.6759491E-006  0.1098732E+04  0.7818608E-02  0.8704494E-01
         21   -1    0    0  501  502  0.00000000000E+00  0.00000000000E+00  0.25102561327E+04  0.25102561327E+04  0.00000000000E+00 0. -1.
         21   -1    0    0  502  503 -0.00000000000E+00 -0.00000000000E+00 -0.55260121300E+03  0.55260121300E+03  0.00000000000E+00 0. -1.
    9000010    2    1    2  501    0  0.73086163481E+02  0.10957032940E+03  0.33788982531E+03  0.11495134325E+04  0.10908090360E+04 0.  0.
   -9000010    2    1    2    0  503 -0.73086163481E+02 -0.10957032940E+03  0.16197650944E+04  0.19133439133E+04  0.10099003540E+04 0.  0.
        -13    1    3    3    0    0  0.28781827479E+03  0.28792884949E+03 -0.26456694598E+03  0.48552864152E+03  0.10566000000E+00 0.  1.
         13    1    4    4    0    0  0.20621012997E+03 -0.27988195521E+02 -0.53581707127E+02  0.21488826700E+03  0.10566000000E+00 0. -1.
          4    1    3    3  501    0 -0.21473211130E+03 -0.17835852009E+03  0.60245677129E+03  0.66398479093E+03  0.00000000000E+00 0.  1.
         -4    1    4    4    0  503 -0.27929629345E+03 -0.81582133878E+02  0.16733468015E+04  0.16984556463E+04  0.00000000000E+00 0. -1.
</event>
<event>
 8    1  0.6759491E-006  0.1071418E+04  0.7818608E-02  0.8715429E-01
         21   -1    0    0  503  502  0.00000000000E+00  0.00000000000E+00  0.95624405619E+03  0.95624405619E+03  0.00000000000E+00 0. -1.
         21   -1    0    0  501  503 -0.00000000000E+00 -0.00000000000E+00 -0.14396697479E+04  0.14396697479E+04  0.00000000000E+00 0. -1.
    9000010    2    1    2  501    0 -0.21220875206E+03  0.18143530244E+03 -0.75408505630E+03  0.12908374028E+04  0.10097849301E+04 0.  0.
   -9000010    2    1    2    0  502  0.21220875206E+03 -0.18143530244E+03  0.27065936457E+03  0.11050764013E+04  0.10344012943E+04 0.  0.
        -13    1    3    3    0    0 -0.52775114342E+03  0.15319013609E+03 -0.92436767761E+02  0.55725492764E+03  0.10566000000E+00 0.  1.
         13    1    4    4    0    0 -0.36497620821E+03  0.39253458463E+02  0.31753691736E+03  0.48536395788E+03  0.10566000000E+00 0. -1.
          4    1    3    3  501    0  0.31554239136E+03  0.28245166353E+02 -0.66164828854E+03  0.73358247518E+03  0.00000000000E+00 0.  1.
         -4    1    4    4    0  502  0.57718496027E+03 -0.22068876090E+03 -0.46877552791E+02  0.61971244340E+03  0.00000000000E+00 0. -1.
</event>
<event>
 8    1  0.6759491E-006  0.1040972E+04  0.7818608E-02  0.8750157E-01
         21   -1    0    0  501  502  0.00000000000E+00  0.00000000000E+00  0.98188127580E+03  0.98188127580E+03  0.00000000000E+00 0.  1.
         21   -1    0    0  502  503 -0.00000000000E+00 -0.00000000000E+00 -0.11570563561E+04  0.11570563561E+04  0.00000000000E+00 0.  1.
    9000010    2    1    2  501    0  0.82530023198E+02 -0.27544838927E+03 -0.42397445354E+03  0.11240007154E+04  0.10004700151E+04 0.  0.
   -9000010    2    1    2    0  503 -0.82530023198E+02  0.27544838927E+03  0.24879937321E+03  0.10149369165E+04  0.94101689492E+03 0.  0.
        -13    1    3    3    0    0 -0.31965197024E+03 -0.27987882186E+03  0.12553583872E+03  0.44302234139E+03  0.10566000000E+00 0.  1.
         13    1    4    4    0    0  0.33311490513E+03 -0.16363617831E+03  0.15871940996E+03  0.40365108836E+03  0.10566000000E+00 0. -1.
          4    1    3    3  501    0  0.40218199344E+03  0.44304325871E+01 -0.54951029226E+03  0.68097837402E+03  0.00000000000E+00 0.  1.
         -4    1    4    4    0  503 -0.41564492833E+03  0.43908456758E+03  0.90079963249E+02  0.61128582816E+03  0.00000000000E+00 0. -1.
</event>
<event>
 8    1  0.6759491E-006  0.1004127E+04  0.7818608E-02  0.8774264E-01
         21   -1    0    0  503  502  0.00000000000E+00  0.00000000000E+00  0.16681474985E+04  0.16681474985E+04  0.00000000000E+00 0.  1.
         21   -1    0    0  501  503 -0.00000000000E+00 -0.00000000000E+00 -0.11727965463E+04  0.11727965463E+04  0.00000000000E+00 0.  1.
    9000010    2    1    2  501    0 -0.35935334164E+02 -0.17322485923E+02 -0.74803714155E+03  0.12521304991E+04  0.10033343435E+04 0.  0.
   -9000010    2    1    2    0  502  0.35935334164E+02  0.17322485923E+02  0.12433880938E+04  0.15888135457E+04  0.98829303070E+03 0.  0.
        -13    1    3    3    0    0 -0.69131122889E+02 -0.34091693716E+03 -0.84408614023E+03  0.91295393831E+03  0.10566000000E+00 0.  1.
         13    1    4    4    0    0  0.92750399947E+02  0.49645613763E+03  0.59123913477E+03  0.77758283091E+03  0.10566000000E+00 0. -1.
          4    1    3    3  501    0  0.33195788724E+02  0.32359445124E+03  0.96048998674E+02  0.33917656081E+03  0.00000000000E+00 0.  1.
         -4    1    4    4    0  502 -0.56815065783E+02 -0.47913365171E+03  0.65214895899E+03  0.81123071479E+03  0.00000000000E+00 0. -1.
</event>
<event>
 8    1  0.6759491E-006  0.1024853E+04  0.7818608E-02  0.8751876E-01
         21   -1    0    0  501  502  0.00000000000E+00  0.00000000000E+00  0.13675716296E+04  0.13675716296E+04  0.00000000000E+00 0. -1.
         21   -1    0    0  502  503 -0.00000000000E+00 -0.00000000000E+00 -0.79087027195E+03  0.79087027195E+03  0.00000000000E+00 0. -1.
    9000010    2    1    2  501    0  0.12466149339E+03  0.21216386194E+03  0.47541850785E+03  0.11285966022E+04  0.99355600785E+03 0.  0.
   -9000010    2    1    2    0  503 -0.12466149339E+03 -0.21216386194E+03  0.10128284977E+03  0.10298452993E+04  0.99487141507E+03 0.  0.
        -13    1    3    3    0    0 -0.39588577655E+03 -0.10452561487E+03  0.13791674350E+03  0.43205577364E+03  0.10566000000E+00 0.  1.
         13    1    4    4    0    0 -0.21153465639E+03 -0.35163009647E+03 -0.35642772452E+03  0.54353598737E+03  0.10566000000E+00 0. -1.
          4    1    3    3  501    0  0.52054726994E+03  0.31668947681E+03  0.33750176435E+03  0.69654082860E+03  0.00000000000E+00 0.  1.
         -4    1    4    4    0  503  0.86873163002E+02  0.13946623452E+03  0.45771057429E+03  0.48630931190E+03  0.00000000000E+00 0. -1.
</event>
<event>
 8    1  0.6759491E-006  0.1052507E+04  0.7818608E-02  0.8727304E-01
         21   -1    0    0  503  502  0.00000000000E+00  0.00000000000E+00  0.92299909153E+03  0.92299909153E+03  0.00000000000E+00 0. -1.
         21   -1    0    0  501  503 -0.00000000000E+00 -0.00000000000E+00 -0.12654907370E+04  0.12654907370E+04  0.00000000000E+00 0. -1.
    9000010    2    1    2  501    0 -0.26228839863E+02 -0.30481253807E+03 -0.42527468846E+03  0.11351782495E+04  0.10070613001E+04 0.  0.
   -9000010    2    1    2    0  502  0.26228839863E+02  0.30481253807E+03  0.82783042983E+02  0.10533115790E+04  0.10044966973E+04 0.  0.
        -13    1    3    3    0    0  0.35562534983E+03 -0.26367941264E+03 -0.57263575926E+03  0.72381485619E+03  0.10566000000E+00 0.  1.
         13    1    4    4    0    0 -0.30219279235E+02  0.54423577440E+03  0.38226429794E+03  0.66575655282E+03  0.10566000000E+00 0. -1.
          4    1    3    3  501    0 -0.38185418969E+03 -0.41133125430E+02  0.14736107080E+03  0.41136339334E+03  0.00000000000E+00 0.  1.
         -4    1    4    4    0  502  0.56448119098E+02 -0.23942323633E+03 -0.29948125496E+03  0.38755502618E+03  0.00000000000E+00 0. -1.
</event>
<event>
 8    1  0.6759491E-006  0.1073271E+04  0.7818608E-02  0.8715205E-01
         21   -1    0    0  503  502  0.00000000000E+00  0.00000000000E+00  0.15377640553E+04  0.15377640553E+04  0.00000000000E+00 0. -1.
         21   -1    0    0  501  503 -0.00000000000E+00 -0.00000000000E+00 -0.12818103357E+04  0.12818103357E+04  0.00000000000E+00 0. -1.
    9000010    2    1    2  501    0 -0.63071402972E+02  0.39008070959E+03 -0.79736426385E+03  0.13370487657E+04  0.99788209264E+03 0.  0.
   -9000010    2    1    2    0  502  0.63071402972E+02 -0.39008070959E+03  0.10533179834E+04  0.14825256252E+04  0.96553741172E+03 0.  0.
        -13    1    3    3    0    0 -0.12201036555E+03  0.71586704856E+03 -0.65021035671E+03  0.97474390465E+03  0.10566000000E+00 0.  1.
         13    1    4    4    0    0 -0.34839981337E+03 -0.31987281115E+03  0.16482940648E+03  0.50086903445E+03  0.10566000000E+00 0. -1.
          4    1    3    3  501    0  0.58938962577E+02 -0.32578633898E+03 -0.14715390714E+03  0.36230486108E+03  0.00000000000E+00 0.  1.
         -4    1    4    4    0  502  0.41147121634E+03 -0.70207898437E+02  0.88848857693E+03  0.98165659078E+03  0.00000000000E+00 0. -1.
</event>
<event>
 8    1  0.6759491E-006  0.9896778E+03  0.7818608E-02  0.8788457E-01
         21   -1    0    0  501  502  0.00000000000E+00  0.00000000000E+00  0.55473623028E+03  0.55473623028E+03  0.00000000000E+00 0. -1.
         21   -1    0    0  502  503 -0.00000000000E+00 -0.00000000000E+00 -0.18848186047E+04  0.18848186047E+04  0.00000000000E+00 0. -1.
    9000010    2    1    2  501    0  0.10707942859E+03  0.13489601638E+03 -0.10139743971E+04  0.14169001994E+04  0.97457639916E+03 0.  0.
   -9000010    2    1    2    0  503 -0.10707942859E+03 -0.13489601638E+03 -0.31610797727E+03  0.10226546355E+04  0.95720181312E+03 0.  0.
        -13    1    3    3    0    0 -0.35054365500E+03 -0.17305879400E+03 -0.21540963372E+03  0.44635358373E+03  0.10566000000E+00 0.  1.
         13    1    4    4    0    0  0.27763335580E+03 -0.39649248744E+03 -0.27230216712E+03  0.55536929536E+03  0.10566000000E+00 0. -1.
          4    1    3    3  501    0  0.45762308359E+03  0.30795481038E+03 -0.79856476340E+03  0.97054661568E+03  0.00000000000E+00 0.  1.
         -4    1    4    4    0  503 -0.38471278439E+03  0.26159647106E+03 -0.43805810153E+02  0.46728534018E+03  0.00000000000E+00 0. -1.
</event>
<event>
 8    1  0.6759491E-006  0.1007204E+04  0.7818608E-02  0.8769475E-01
         21   -1    0    0  501  502  0.00000000000E+00  0.00000000000E+00  0.20780270370E+04  0.20780270370E+04  0.00000000000E+00 0. -1.
         21   -1    0    0  502  503 -0.00000000000E+00 -0.00000000000E+00 -0.59088696801E+03  0.59088696801E+03  0.00000000000E+00 0. -1.
    9000010    2    1    2  501    0  0.12142839823E+03  0.96262382198E+02  0.13068281797E+04  0.16456971783E+04  0.98818419804E+03 0.  0.
   -9000010    2    1    2    0  503 -0.12142839823E+03 -0.96262382198E+02  0.18031188934E+03  0.10232168268E+04  0.99521304001E+03 0.  0.
        -13    1    3    3    0    0 -0.26583715798E+02 -0.83559377281E+02 -0.14817240074E+03  0.17217414144E+03  0.10566000000E+00 0.  1.
         13    1    4    4    0    0  0.17850157910E+03  0.22665887919E+03  0.42913775927E+03  0.51710375056E+03  0.10566000000E+00 0. -1.
          4    1    3    3  501    0  0.14801211403E+03  0.17982175948E+03  0.14550005804E+04  0.14735230368E+04  0.00000000000E+00 0.  1.
         -4    1    4    4    0  503 -0.29992997733E+03 -0.32292126139E+03 -0.24882586992E+03  0.50611307620E+03  0.00000000000E+00 0. -1.
</event>
<event>
 8    1  0.6759491E-006  0.1036575E+04  0.7818608E-02  0.8744546E-01
         21   -1    0    0  503  502  0.00000000000E+00  0.00000000000E+00  0.63337456588E+03  0.63337456588E+03  0.00000000000E+00 0.  1.
         21   -1    0    0  501  503 -0.00000000000E+00 -0.00000000000E+00 -0.22449411157E+04  0.22449411157E+04  0.00000000000E+00 0.  1.
    9000010    2    1    2  501    0 -0.22402693314E+03  0.14350374369E+03 -0.15290301818E+04  0.18384597854E+04  0.98550479166E+03 0.  0.
   -9000010    2    1    2    0  502  0.22402693314E+03 -0.14350374369E+03 -0.82536368009E+02  0.10398558962E+04  0.10018516066E+04 0.  0.
        -13    1    3    3    0    0 -0.14269997305E+03 -0.41923031933E+03 -0.79441724235E+03  0.90951421597E+03  0.10566000000E+00 0.  1.
         13    1    4    4    0    0  0.34263636971E+03  0.36420880754E+03  0.48100687320E+02  0.50235587448E+03  0.10566000000E+00 0. -1.
          4    1    3    3  501    0 -0.81326960087E+02  0.56273406302E+03 -0.73461293950E+03  0.92894556945E+03  0.00000000000E+00 0.  1.
         -4    1    4    4    0  502 -0.11860943657E+03 -0.50771255123E+03 -0.13063705533E+03  0.53750002172E+03  0.00000000000E+00 0. -1.
</event>
<event>
 8    1  0.6759491E-006  0.1053982E+04  0.7818608E-02  0.8726894E-01
         21   -1    0    0  501  502  0.00000000000E+00  0.00000000000E+00  0.86256556593E+03  0.86256556593E+03  0.00000000000E+00 0. -1.
         21   -1    0    0  502  503 -0.00000000000E+00 -0.00000000000E+00 -0.13908095121E+04  0.13908095121E+04  0.00000000000E+00 0. -1.
    9000010    2    1    2  501    0  0.24368244049E+03 -0.20842008332E+03  0.54698018144E+02  0.10489255203E+04  0.99721252053E+03 0.  0.
   -9000010    2    1    2    0  503 -0.24368244049E+03  0.20842008332E+03 -0.58294196426E+03  0.12044495576E+04  0.10040205876E+04 0.  0.
        -13    1    3    3    0    0  0.11217544287E+03 -0.59384975328E+03 -0.10137694512E+03  0.61279536194E+03  0.10566000000E+00 0.  1.
         13    1    4    4    0    0 -0.62173201811E+03  0.25663867291E+03 -0.35940776488E+03  0.76261921258E+03  0.10566000000E+00 0. -1.
          4    1    3    3  501    0  0.13150699761E+03  0.38542966995E+03  0.15607496326E+03  0.43613015839E+03  0.00000000000E+00 0.  1.
         -4    1    4    4    0  503  0.37804957763E+03 -0.48218589586E+02 -0.22353419938E+03  0.44183034507E+03  0.00000000000E+00 0. -1.
</event>
<event>
 8    1  0.6759491E-006  0.1289901E+04  0.7818608E-02  0.8543999E-01
         21   -1    0    0  501  502  0.00000000000E+00  0.00000000000E+00  0.12051192064E+04  0.12051192064E+04  0.00000000000E+00 0.  1.
         21   -1    0    0  502  503 -0.00000000000E+00 -0.00000000000E+00 -0.16247016754E+04  0.16247016754E+04  0.00000000000E+00 0.  1.
    9000010    2    1    2  501    0 -0.74211665336E+03  0.30390533168E+03 -0.77422730092E+03  0.15044172800E+04  0.10103206723E+04 0.  0.
   -9000010    2    1    2    0  503  0.74211665336E+03 -0.30390533168E+03  0.35464483192E+03  0.13254036018E+04  0.99389444761E+03 0.  0.
        -13    1    3    3    0    0 -0.56479840922E+03  0.13977778879E+02  0.93366963340E+02  0.57263428326E+03  0.10566000000E+00 0.  1.
         13    1    4    4    0    0  0.53763541268E+03  0.19799117116E+03  0.50419673060E+03  0.76319505707E+03  0.10566000000E+00 0. -1.
          4    1    3    3  501    0 -0.17731824414E+03  0.28992755280E+03 -0.86759426426E+03  0.93178299671E+03  0.00000000000E+00 0.  1.
         -4    1    4    4    0  503  0.20448124068E+03 -0.50189650284E+03 -0.14955189868E+03  0.56220854471E+03  0.00000000000E+00 0. -1.
</event>
<event>
 8    1  0.6759491E-006  0.1049748E+04  0.7818608E-02  0.8730114E-01
         21   -1    0    0  503  502  0.00000000000E+00  0.00000000000E+00  0.83899042773E+03  0.83899042773E+03  0.00000000000E+00 0.  1.
         21   -1    0    0  501  503 -0.00000000000E+00 -0.00000000000E+00 -0.14000995343E+04  0.14000995343E+04  0.00000000000E+00 0.  1.
    9000010    2    1    2  501    0  0.31444292431E+01 -0.29549491933E+03 -0.56668102528E+03  0.11893269666E+04  0.10030175045E+04 0.  0.
   -9000010    2    1    2    0  502 -0.31444292431E+01  0.29549491933E+03  0.55719187495E+01  0.10497629953E+04  0.10072954707E+04 0.  0.
        -13    1    3    3    0    0 -0.36935243676E+03  0.15236177366E+03 -0.43782071775E+03  0.59272449306E+03  0.10566000000E+00 0.  1.
         13    1    4    4    0    0 -0.44036106332E+03 -0.52344742760E+02  0.15778484584E+03  0.47069513161E+03  0.10566000000E+00 0. -1.
          4    1    3    3  501    0  0.37249686600E+03 -0.44785669299E+03 -0.12886030753E+03  0.59660247359E+03  0.00000000000E+00 0.  1.
         -4    1    4    4    0  502  0.43721663407E+03  0.34783966209E+03 -0.15221292709E+03  0.57906786373E+03  0.00000000000E+00 0. -1.
</event>
<event>
 8    1  0.6759491E-006  0.1100015E+04  0.7818608E-02  0.8695550E-01
         21   -1    0    0  503  502  0.00000000000E+00  0.00000000000E+00  0.26867075891E+04  0.26867075891E+04  0.00000000000E+00 0.  1.
         21   -1    0    0  501  503 -0.00000000000E+00 -0.00000000000E+00 -0.51695550974E+03  0.51695550974E+03  0.00000000000E+00 0.  1.
    9000010    2    1    2  501    0  0.77542142099E+02  0.41647829655E+03  0.41714382563E+03  0.11344437398E+04  0.96617114025E+03 0.  0.
   -9000010    2    1    2    0  502 -0.77542142099E+02 -0.41647829655E+03  0.17526082537E+04  0.20692193590E+04  0.10151680203E+04 0.  0.
        -13    1    3    3    0    0  0.10898222540E+03 -0.29513159061E+03  0.25238410809E+03  0.40333302668E+03  0.10566000000E+00 0.  1.
         13    1    4    4    0    0 -0.46629911986E+03  0.69968076126E+02  0.65148878431E+03  0.80421890559E+03  0.10566000000E+00 0. -1.
          4    1    3    3  501    0 -0.31440083304E+02  0.71160988716E+03  0.16475971753E+03  0.73111071314E+03  0.00000000000E+00 0.  1.
         -4    1    4    4    0  502  0.38875697776E+03 -0.48644637268E+03  0.11011194694E+04  0.12650004534E+04  0.00000000000E+00 0. -1.
</event>
<event>
 8    1  0.6759491E-006  0.1011984E+04  0.7818608E-02  0.8765205E-01
         21   -1    0    0  501  502  0.00000000000E+00  0.00000000000E+00  0.44315814729E+03  0.44315814729E+03  0.00000000000E+00 0.  1.
         21   -1    0    0  502  503 -0.00000000000E+00 -0.00000000000E+00 -0.23042059511E+04  0.23042059511E+04  0.00000000000E+00 0.  1.
    9000010    2    1    2  501    0 -0.85178712034E+02 -0.59433981800E+02 -0.83985071612E+03  0.13150894181E+04  0.10066395289E+04 0.  0.
   -9000010    2    1    2    0  503  0.85178712034E+02  0.59433981800E+02 -0.10211970877E+04  0.14322746803E+04  0.99888911130E+03 0.  0.
        -13    1    3    3    0    0  0.34429703364E+03 -0.33953646573E+03 -0.29273114566E+03  0.56525834247E+03  0.10566000000E+00 0.  1.
         13    1    4    4    0    0 -0.22496609108E+03 -0.36056802215E+03 -0.22695893148E+03  0.48179809929E+03  0.10566000000E+00 0. -1.
          4    1    3    3  501    0 -0.42947574568E+03  0.28010248393E+03 -0.54711957046E+03  0.74983107565E+03  0.00000000000E+00 0.  1.
         -4    1    4    4    0  503  0.31014480312E+03  0.42000200395E+03 -0.79423815620E+03  0.95047658098E+03  0.00000000000E+00 0. -1.
</event>
<event>
 8    1  0.6759491E-006  0.1038629E+04  0.7818608E-02  0.8739190E-01
         21   -1    0    0  501  502  0.00000000000E+00  0.00000000000E+00  0.63241124464E+03  0.63241124464E+03  0.00000000000E+00 0. -1.
         21   -1    0    0  502  503 -0.00000000000E+00 -0.00000000000E+00 -0.18373175893E+04  0.18373175893E+04  0.00000000000E+00 0. -1.
    9000010    2    1    2  501    0 -0.63025934206E+01  0.22521164583E+03 -0.27146904032E+03  0.10735204004E+04  0.10138987140E+04 0.  0.
   -9000010    2    1    2    0  503  0.63025934206E+01 -0.22521164583E+03 -0.93343730438E+03  0.13962084336E+04  0.10135742601E+04 0.  0.
        -13    1    3    3    0    0  0.42444207466E+03 -0.16344001809E+03 -0.16399286446E+03  0.48348462749E+03  0.10566000000E+00 0.  1.
         13    1    4    4    0    0 -0.46397431795E+03 -0.14735066907E+03 -0.21074884246E+03  0.53047099181E+03  0.10566000000E+00 0. -1.
          4    1    3    3  501    0 -0.43074466808E+03  0.38865166392E+03 -0.10747617585E+03  0.59003577292E+03  0.00000000000E+00 0.  1.
         -4    1    4    4    0  503  0.47027691137E+03 -0.77860976758E+02 -0.72268846192E+03  0.86573744176E+03  0.00000000000E+00 0. -1.
</event>
<event>
 8    1  0.6759491E-006  0.1150329E+04  0.7818608E-02  0.8649890E-01
         21   -1    0    0  501  502  0.00000000000E+00  0.00000000000E+00  0.74877823219E+03  0.74877823219E+03  0.00000000000E+00 0. -1.
         21   -1    0    0  502  503 -0.00000000000E+00 -0.00000000000E+00 -0.22700520708E+04  0.22700520708E+04  0.00000000000E+00 0. -1.
    9000010    2    1    2  501    0 -0.38041090053E+03 -0.41755508248E+03 -0.17778345232E+02  0.11257493179E+04  0.97361735656E+03 0.  0.
   -9000010    2    1    2    0  503  0.38041090053E+03  0.41755508248E+03 -0.15034954934E+04  0.18930809851E+04  0.10020939165E+04 0.  0.
        -13    1    3    3    0    0  0.41439818887E+02 -0.11342619328E+03 -0.43975573665E+03  0.45603495370E+03  0.10566000000E+00 0.  1.
         13    1    4    4    0    0 -0.36535483454E+02  0.11429362583E+03  0.13191710075E+03  0.17832556488E+03  0.10566000000E+00 0. -1.
          4    1    3    3  501    0 -0.42185071942E+03 -0.30412888920E+03  0.42197739142E+03  0.66971436418E+03  0.00000000000E+00 0.  1.
         -4    1    4    4    0  503  0.41694638398E+03  0.30326145665E+03 -0.16354125941E+04  0.17147554202E+04  0.00000000000E+00 0. -1.
</event>
<event>
 8    1  0.6759491E-006  0.1024575E+04  0.7818608E-02  0.8754271E-01
         21   -1    0    0  503  502  0.00000000000E+00  0.00000000000E+00  0.47047091190E+03  0.47047091190E+03  0.00000000000E+00 0.  1.
         21   -1    0    0  501  503 -0.00000000000E+00 -0.00000000000E+00 -0.23384229137E+04  0.23384229137E+04  0.00000000000E+00 0.  1.
    9000010    2    1    2  501    0  0.10137545360E+03 -0.19535065562E+03 -0.12699373886E+04  0.16317154582E+04  0.10006575361E+04 0.  0.
   -9000010    2    1    2    0  502 -0.10137545360E+03  0.19535065562E+03 -0.59801461319E+03  0.11771783673E+04  0.98979218511E+03 0.  0.
        -13    1    3    3    0    0 -0.31493382910E+03  0.15845701503E+03 -0.91404370901E+03  0.97967742420E+03  0.10566000000E+00 0.  1.
         13    1    4    4    0    0  0.35330090079E+03  0.72828514552E+02 -0.60711307004E+03  0.70619530586E+03  0.10566000000E+00 0. -1.
          4    1    3    3  501    0  0.41630928270E+03 -0.35380767066E+03 -0.35589367958E+03  0.65203803404E+03  0.00000000000E+00 0.  1.
         -4    1    4    4    0  502 -0.45467635439E+03  0.12252214107E+03  0.90984568513E+01  0.47098306149E+03  0.00000000000E+00 0. -1.
</event>
<event>
 8    1  0.6759491E-006  0.1088524E+04  0.7818608E-02  0.8698190E-01
         21   -1    0    0  503  502  0.00000000000E+00  0.00000000000E+00  0.12341895788E+04  0.12341895788E+04  0.00000000000E+00 0.  1.
         21   -1    0    0  501  503 -0.00000000000E+00 -0.00000000000E+00 -0.95697301386E+03  0.95697301386E+03  0.00000000000E+00 0.  1.
    9000010    2    1    2  501    0  0.40040444671E+03 -0.66522354930E+02  0.23567200212E+03  0.11018459595E+04  0.99688228049E+03 0.  0.
   -9000010    2    1    2    0  502 -0.40040444671E+03  0.66522354930E+02  0.41544562824E+02  0.10893166332E+04  0.10100177385E+04 0.  0.
        -13    1    3    3    0    0  0.58215964434E+03 -0.81031405833E+02 -0.20694923891E+03  0.62314038457E+03  0.10566000000E+00 0.  1.
         13    1    4    4    0    0 -0.71785505562E+03  0.18056148067E+03 -0.43355191734E+02  0.74148365659E+03  0.10566000000E+00 0. -1.
          4    1    3    3  501    0 -0.18175519763E+03  0.14509050904E+02  0.44262124104E+03  0.47870557490E+03  0.00000000000E+00 0.  1.
         -4    1    4    4    0  502  0.31745060891E+03 -0.11403912574E+03  0.84899754558E+02  0.34783297662E+03  0.00000000000E+00 0. -1.
</event>
<event>
 8    1  0.6759491E-006  0.1059670E+04  0.7818608E-02  0.8729216E-01
         21   -1    0    0  501  502  0.00000000000E+00  0.00000000000E+00  0.14134380523E+04  0.14134380523E+04  0.00000000000E+00 0.  1.
         21   -1    0    0  502  503 -0.00000000000E+00 -0.00000000000E+00 -0.86086006823E+03  0.86086006823E+03  0.00000000000E+00 0.  1.
    9000010    2    1    2  501    0 -0.33409701488E+03  0.12125281144E+03  0.65039812292E+03  0.12101231490E+04  0.95658625210E+03 0.  0.
   -9000010    2    1    2    0  503  0.33409701488E+03 -0.12125281144E+03 -0.97820138816E+02  0.10641749716E+04  0.99828679797E+03 0.  0.
        -13    1    3    3    0    0 -0.45277487562E+03  0.37130607376E+03  0.99977742002E+02  0.59402764958E+03  0.10566000000E+00 0.  1.
         13    1    4    4    0    0  0.12077233398E+03 -0.40403212777E+03  0.31045922149E+03  0.52365337419E+03  0.10566000000E+00 0. -1.
          4    1    3    3  501    0  0.11867786074E+03 -0.25005326232E+03  0.55042038092E+03  0.61609549938E+03  0.00000000000E+00 0.  1.
         -4    1    4    4    0  503  0.21332468090E+03  0.28277931633E+03 -0.40827936030E+03  0.54052159742E+03  0.00000000000E+00 0. -1.
</event>
<event>
 7    1  0.6759491E-006  0.9004479E+03  0.7818608E-02  0.8874211E-01
         21   -1    0    0  501  502  0.00000000000E+00  0.00000000000E+00  0.12470722053E+04  0.12470722053E+04  0.00000000000E+00 0. -1.
         21   -1    0    0  502  503 -0.00000000000E+00 -0.00000000000E+00 -0.77226942609E+03  0.77226942609E+03  0.00000000000E+00 0. -1.
   -9000010    2    1    2    0  503 -0.75020577285E+02  0.33738998869E+03 -0.82638768210E+02  0.10856729760E+04  0.10258638084E+04 0.  0.
        -13    1    1    2    0    0  0.23985395034E+03 -0.46717881479E+03  0.31225341598E+03  0.61097313315E+03  0.10566000000E+00 0.  1.
         13    1    3    3    0    0 -0.46149104763E+03 -0.98290279608E+02  0.85439772937E+02  0.47951530953E+03  0.10566000000E+00 0. -1.
          4    1    1    2  501    0 -0.16483337306E+03  0.12978882609E+03  0.24518813140E+03  0.32269552218E+03  0.00000000000E+00 0.  1.
         -4    1    3    3    0  503  0.38647047035E+03  0.43568026830E+03 -0.16807854115E+03  0.60615766648E+03  0.00000000000E+00 0. -1.
</event>
<event>
 8    1  0.9474737E-006  0.1033814E+04  0.7818608E-02  0.8763899E-01
         21   -1    0    0  503  502  0.00000000000E+00  0.00000000000E+00  0.16827894596E+04  0.16827894596E+04  0.00000000000E+00 0. -1.
         21   -1    0    0  501  503 -0.00000000000E+00 -0.00000000000E+00 -0.95143684072E+03  0.95143684072E+03  0.00000000000E+00 0. -1.
    9000010    2    1    2  501    0  0.17001049103E+03  0.11305920230E+03 -0.46320029360E+03  0.10544390867E+04  0.92498720279E+03 0.  0.
   -9000010    2    1    2    0  502 -0.17001049103E+03 -0.11305920230E+03  0.11945529125E+04  0.15797872136E+04  0.10134520360E+04 0.  0.
        -13    1    3    3    0    0  0.50615821325E+03  0.16643248209E+03 -0.47509801487E+03  0.71387256764E+03  0.10566000000E+00 0.  1.
         13    1    4    4    0    0 -0.13771559300E+03 -0.55585931619E+03  0.81264868247E+03  0.99415444285E+03  0.10566000000E+00 0. -1.
          4    1    3    3  501    0 -0.33614772222E+03 -0.53373279782E+02  0.11897721270E+02  0.34056651908E+03  0.00000000000E+00 0.  1.
         -4    1    4    4    0  502 -0.32294898035E+02  0.44280011388E+03  0.38190423005E+03  0.58563277079E+03  0.00000000000E+00 0. -1.
</event>
<event>
 8    1  0.6759491E-006  0.1002666E+04  0.7818608E-02  0.8778884E-01
         21   -1    0    0  503  502  0.00000000000E+00  0.00000000000E+00  0.88417180598E+03  0.88417180598E+03  0.00000000000E+00 0. -1.
         21   -1    0    0  501  503 -0.00000000000E+00 -0.00000000000E+00 -0.11519572240E+04  0.11519572240E+04  0.00000000000E+00 0. -1.
    9000010    2    1    2  501    0  0.95689025667E+01 -0.48328427096E+02 -0.33786133561E+03  0.10310168558E+04  0.97284031272E+03 0.  0.
   -9000010    2    1    2    0  502 -0.95689025667E+01  0.48328427096E+02  0.70075917622E+02  0.10051121742E+04  0.10014552649E+04 0.  0.
        -13    1    3    3    0    0  0.35706176944E+03 -0.35712695934E+03 -0.22367007433E+03  0.55232335239E+03  0.10566000000E+00 0.  1.
         13    1    4    4    0    0  0.60265484968E+02 -0.40344376455E+03 -0.22024098992E+03  0.46357836947E+03  0.10566000000E+00 0. -1.
          4    1    3    3  501    0 -0.34749286687E+03  0.30879853224E+03 -0.11419126128E+03  0.47869350340E+03  0.00000000000E+00 0.  1.
         -4    1    4    4    0  502 -0.69834387534E+02  0.45177219165E+03  0.29031690754E+03  0.54153380470E+03  0.00000000000E+00 0. -1.
</event>
<event>
 8    1  0.6759491E-006  0.1081622E+04  0.7818608E-02  0.8711070E-01
         21   -1    0    0  503  502  0.00000000000E+00  0.00000000000E+00  0.11202018146E+04  0.11202018146E+04  0.00000000000E+00 0.  1.
         21   -1    0    0  501  503 -0.00000000000E+00 -0.00000000000E+00 -0.11580386926E+04  0.11580386926E+04  0.00000000000E+00 0.  1.
    9000010    2    1    2  501    0 -0.67298108027E+02 -0.25519063780E+03 -0.43687158594E+03  0.11665177899E+04  0.10489307292E+04 0.  0.
   -9000010    2    1    2    0  502  0.67298108027E+02  0.25519063780E+03  0.39903470794E+03  0.11117227172E+04  0.10035175160E+04 0.  0.
        -13    1    3    3    0    0  0.59141829872E+02 -0.62621551233E+03 -0.45149359879E+03  0.77426746338E+03  0.10566000000E+00 0.  1.
         13    1    4    4    0    0 -0.29132249895E+03 -0.23140318714E+03 -0.25734597934E+02  0.37293231840E+03  0.10566000000E+00 0. -1.
          4    1    3    3  501    0 -0.12643993790E+03  0.37102487454E+03  0.14622012850E+02  0.39225032655E+03  0.00000000000E+00 0.  1.
         -4    1    4    4    0  502  0.35862060697E+03  0.48659382493E+03  0.42476930588E+03  0.73879039884E+03  0.00000000000E+00 0. -1.
</event>
<event>
 8    1  0.6759491E-006  0.1095917E+04  0.7818608E-02  0.8690766E-01
         21   -1    0    0  501  502  0.00000000000E+00  0.00000000000E+00  0.19475283723E+04  0.19475283723E+04  0.00000000000E+00 0. -1.
         21   -1    0    0  502  503 -0.00000000000E+00 -0.00000000000E+00 -0.66392911161E+03  0.66392911161E+03  0.00000000000E+00 0. -1.
    9000010    2    1    2  501    0 -0.61259320587E+02  0.45349007380E+03  0.10055064339E+04  0.14873050125E+04  0.99580473006E+03 0.  0.
   -9000010    2    1    2    0  503  0.61259320587E+02 -0.45349007380E+03  0.27809282686E+03  0.11241524714E+04  0.98842157363E+03 0.  0.
        -13    1    3    3    0    0  0.46728185842E+03  0.22873235959E+03  0.44164560070E+03  0.68243803771E+03  0.10566000000E+00 0.  1.
         13    1    4    4    0    0 -0.19980166358E+03 -0.65642508872E+03  0.37187369204E+03  0.78045157177E+03  0.10566000000E+00 0. -1.
          4    1    3    3  501    0 -0.52854117901E+03  0.22475771421E+03  0.56386083317E+03  0.80486697484E+03  0.00000000000E+00 0.  1.
         -4    1    4    4    0  503  0.26106098417E+03  0.20293501493E+03 -0.93780865180E+02  0.34370089964E+03  0.00000000000E+00 0. -1.
</event>
<event>
 8    1  0.6759491E-006  0.1004770E+04  0.7818608E-02  0.8772484E-01
         21   -1    0    0  501  502  0.00000000000E+00  0.00000000000E+00  0.85025692429E+03  0.85025692429E+03  0.00000000000E+00 0. -1.
         21   -1    0    0  502  503 -0.00000000000E+00 -0.00000000000E+00 -0.13732290761E+04  0.13732290761E+04  0.00000000000E+00 0. -1.
    9000010    2    1    2  501    0 -0.68432825514E+02 -0.17927466142E+03  0.16148489950E+03  0.10077378928E+04  0.97603065111E+03 0.  0.
   -9000010    2    1    2    0  503  0.68432825514E+02  0.17927466142E+03 -0.68445705136E+03  0.12157481077E+04  0.98627559552E+03 0.  0.
        -13    1    3    3    0    0 -0.10965155093E+03 -0.52275113789E+03 -0.13634356121E+03  0.55125474387E+03  0.10566000000E+00 0.  1.
         13    1    4    4    0    0  0.33528327999E+02 -0.22862704509E+03  0.15742593614E+03  0.27960223722E+03  0.10566000000E+00 0. -1.
          4    1    3    3  501    0  0.41218725416E+02  0.34347647648E+03  0.29782846071E+03  0.45648314890E+03  0.00000000000E+00 0.  1.
         -4    1    4    4    0  503  0.34904497516E+02  0.40790170651E+03 -0.84188298750E+03  0.93614587045E+03  0.00000000000E+00 0. -1.
</event>
<event>
 8    1  0.6759491E-006  0.1026532E+04  0.7818608E-02  0.8752128E-01
         21   -1    0    0  503  502  0.00000000000E+00  0.00000000000E+00  0.16736656016E+04  0.16736656016E+04  0.00000000000E+00 0.  1.
         21   -1    0    0  501  503 -0.00000000000E+00 -0.00000000000E+00 -0.64942148759E+03  0.64942148759E+03  0.00000000000E+00 0.  1.
    9000010    2    1    2  501    0 -0.17530454245E+03 -0.50244667146E+02  0.73944767368E+03  0.12577810207E+04  0.10009865258E+04 0.  0.
   -9000010    2    1    2    0  502  0.17530454245E+03  0.50244667146E+02  0.28479644035E+03  0.10653060685E+04  0.10102038398E+04 0.  0.
        -13    1    3    3    0    0  0.19233841395E+03  0.35100468482E+03  0.55273807790E+03  0.68243516041E+03  0.10566000000E+00 0.  1.
         13    1    4    4    0    0 -0.42471819133E+02  0.48131629221E+03  0.32242303055E+03  0.58088368058E+03  0.10566000000E+00 0. -1.
          4    1    3    3  501    0 -0.36764295640E+03 -0.40124935196E+03  0.18670959579E+03  0.57534586033E+03  0.00000000000E+00 0.  1.
         -4    1    4    4    0  502  0.21777636158E+03 -0.43107162507E+03 -0.37626590203E+02  0.48442238789E+03  0.00000000000E+00 0. -1.
</event>
<event>
 8    1  0.6759491E-006  0.1026592E+04  0.7818608E-02  0.8754568E-01
         21   -1    0    0  501  502  0.00000000000E+00  0.00000000000E+00  0.69270050398E+03  0.69270050398E+03  0.00000000000E+00 0. -1.
         21   -1    0    0  502  503 -0.00000000000E+00 -0.00000000000E+00 -0.15395638667E+04  0.15395638667E+04  0.00000000000E+00 0. -1.
    9000010    2    1    2  501    0  0.11380268675E+03 -0.32699371815E+02 -0.23151692511E+03  0.10523736097E+04  0.10197400784E+04 0.  0.
   -9000010    2    1    2    0  503 -0.11380268675E+03  0.32699371815E+02 -0.61534643757E+03  0.11798907609E+04  0.99973529948E+03 0.  0.
        -13    1    3    3    0    0 -0.17354920084E+03  0.19951620305E+02 -0.57529550639E+03  0.60123400029E+03  0.10566000000E+00 0.  1.
         13    1    4    4    0    0  0.30868788281E+03 -0.82884801788E+02  0.10534252517E+03  0.33653403711E+03  0.10566000000E+00 0. -1.
          4    1    3    3  501    0  0.28735188759E+03 -0.52650992120E+02  0.34377858128E+03  0.45113960945E+03  0.00000000000E+00 0.  1.
         -4    1    4    4    0  503 -0.42249056956E+03  0.11558417360E+03 -0.72068896274E+03  0.84335672380E+03  0.00000000000E+00 0. -1.
</event>
<event>
 8    1  0.7376517E-006  0.1021236E+04  0.7818608E-02  0.8755581E-01
         21   -1    0    0  503  502  0.00000000000E+00  0.00000000000E+00  0.10014606766E+04  0.10014606766E+04  0.00000000000E+00 0. -1.
         21   -1    0    0  501  503 -0.00000000000E+00 -0.00000000000E+00 -0.11807348568E+04  0.11807348568E+04  0.00000000000E+00 0. -1.
    9000010    2    1    2  501    0  0.92027398699E+01 -0.19678592281E+03  0.28939265980E+03  0.10585536586E+04  0.99898866196E+03 0.  0.
   -9000010    2    1    2    0  502 -0.92027398699E+01  0.19678592281E+03 -0.46866684004E+03  0.11236418748E+04  0.10020544226E+04 0.  0.
        -13    1    3    3    0    0 -0.52876016888E+02  0.35897514565E+03 -0.10088781936E+03  0.37661305291E+03  0.10566000000E+00 0.  1.
         13    1    4    4    0    0 -0.38379495206E+03  0.61818133067E+02 -0.59074930591E+03  0.70718088238E+03  0.10566000000E+00 0. -1.
          4    1    3    3  501    0  0.62078756758E+02 -0.55576106847E+03  0.39028047916E+03  0.68194060568E+03  0.00000000000E+00 0.  1.
         -4    1    4    4    0  502  0.37459221219E+03  0.13496778974E+03  0.12208246587E+03  0.41646099238E+03  0.00000000000E+00 0. -1.
</event>
<event>
 8    1  0.6759491E-006  0.1083705E+04  0.7818608E-02  0.8703729E-01
         21   -1    0    0  501  502  0.00000000000E+00  0.00000000000E+00  0.25103420484E+04  0.25103420484E+04  0.00000000000E+00 0.  1.
         21   -1    0    0  502  503 -0.00000000000E+00 -0.00000000000E+00 -0.87584486034E+03  0.87584486034E+03  0.00000000000E+00 0.  1.
    9000010    2    1    2  501    0  0.39393605508E+03  0.11954476828E+03  0.19804405449E+04  0.22486050204E+04  0.98214215817E+03 0.  0.
   -9000010    2    1    2    0  503 -0.39393605508E+03 -0.11954476828E+03 -0.34594335690E+03  0.11375818883E+04  0.10024665477E+04 0.  0.
        -13    1    3    3    0    0  0.14555746244E+03 -0.39860650610E+03  0.12448392829E+04  0.13151802055E+04  0.10566000000E+00 0.  1.
         13    1    4    4    0    0 -0.78473923972E+00 -0.35461870792E+03 -0.53514387480E+03  0.64197665201E+03  0.10566000000E+00 0. -1.
          4    1    3    3  501    0  0.24837859263E+03  0.51815127438E+03  0.73560126201E+03  0.93342481491E+03  0.00000000000E+00 0.  1.
         -4    1    4    4    0  503 -0.39315131584E+03  0.23507393964E+03  0.18920051790E+03  0.49560523627E+03  0.00000000000E+00 0. -1.
</event>
<event>
 8    1  0.6759491E-006  0.1047146E+04  0.7818608E-02  0.8732625E-01
         21   -1    0    0  501  502  0.00000000000E+00  0.00000000000E+00  0.15886403452E+04  0.15886403452E+04  0.00000000000E+00 0. -1.
         21   -1    0    0  502  503 -0.00000000000E+00 -0.00000000000E+00 -0.73016274554E+03  0.73016274554E+03  0.00000000000E+00 0. -1.
    9000010    2    1    2  501    0 -0.34654306058E+02  0.30704615832E+03  0.14809704062E+03  0.10575664077E+04  0.10005177205E+04 0.  0.
   -9000010    2    1    2    0  503  0.34654306058E+02 -0.30704615832E+03  0.71038055908E+03  0.12612366831E+04  0.99528848471E+03 0.  0.
        -13    1    3    3    0    0 -0.32686898923E+03  0.19927987889E+03 -0.31753227758E+03  0.49737567765E+03  0.10566000000E+00 0.  1.
         13    1    4    4    0    0 -0.36689217654E+03 -0.19907286510E+03  0.73439473954E+03  0.84473399331E+03  0.10566000000E+00 0. -1.
          4    1    3    3  501    0  0.29221468317E+03  0.10776627943E+03  0.46562931820E+03  0.56019073003E+03  0.00000000000E+00 0.  1.
         -4    1    4    4    0  503  0.40154648260E+03 -0.10797329323E+03 -0.24014180457E+02  0.41650268979E+03  0.00000000000E+00 0. -1.
</event>
<event>
 8    1  0.6759491E-006  0.1054979E+04  0.7818608E-02  0.8726849E-01
         21   -1    0    0  501  502  0.00000000000E+00  0.00000000000E+00  0.87844662633E+03  0.87844662633E+03  0.00000000000E+00 0.  1.
         21   -1    0    0  502  503 -0.00000000000E+00 -0.00000000000E+00 -0.13136941138E+04  0.13136941138E+04  0.00000000000E+00 0.  1.
    9000010    2    1    2  501    0  0.26103943952E+03  0.21482002706E+03  0.13608297519E+02  0.10550664001E+04  0.99934513052E+03 0.  0.
   -9000010    2    1    2    0  503 -0.26103943952E+03 -0.21482002706E+03 -0.44885578498E+03  0.11370743400E+04  0.98852278980E+03 0.  0.
        -13    1    3    3    0    0 -0.30121893907E+03 -0.35184334098E+02 -0.24275941797E+03  0.38846226689E+03  0.10566000000E+00 0.  1.
         13    1    4    4    0    0 -0.37020131190E+03  0.16759529711E+03  0.13712743513E+03  0.42888359677E+03  0.10566000000E+00 0. -1.
          4    1    3    3  501    0  0.56225837859E+03  0.25000436115E+03  0.25636771549E+03  0.66660413323E+03  0.00000000000E+00 0.  1.
         -4    1    4    4    0  503  0.10916187238E+03 -0.38241532417E+03 -0.58598322011E+03  0.70819074322E+03  0.00000000000E+00 0. -1.
</event>
<event>
 8    1  0.6759491E-006  0.1051196E+04  0.7818608E-02  0.8736034E-01
         21   -1    0    0  503  502  0.00000000000E+00  0.00000000000E+00  0.19804510402E+04  0.19804510402E+04  0.00000000000E+00 0.  1.
         21   -1    0    0  501  503 -0.00000000000E+00 -0.00000000000E+00 -0.58549634157E+03  0.58549634157E+03  0.00000000000E+00 0.  1.
    9000010    2    1    2  501    0 -0.16359830677E+03  0.15983936981E+03  0.34719886580E+03  0.11070499592E+04  0.10260114666E+04 0.  0.
   -9000010    2    1    2    0  502  0.16359830677E+03 -0.15983936981E+03  0.10477558328E+04  0.14588974226E+04  0.98907854813E+03 0.  0.
        -13    1    3    3    0    0 -0.55582982815E+03 -0.91912542816E+02  0.77815448937E+02  0.56872662031E+03  0.10566000000E+00 0.  1.
         13    1    4    4    0    0 -0.15218519353E+03  0.36684020731E+03  0.34971025617E+03  0.52917799015E+03  0.10566000000E+00 0. -1.
          4    1    3    3  501    0  0.39223152139E+03  0.25175191263E+03  0.26938341686E+03  0.53832333886E+03  0.00000000000E+00 0.  1.
         -4    1    4    4    0  502  0.31578350029E+03 -0.52667957712E+03  0.69804557668E+03  0.92971943248E+03  0.00000000000E+00 0. -1.
</event>
<event>
 8    1  0.6759491E-006  0.1060306E+04  0.7818608E-02  0.8723047E-01
         21   -1    0    0  503  502  0.00000000000E+00  0.00000000000E+00  0.84035815167E+03  0.84035815167E+03  0.00000000000E+00 0.  1.
         21   -1    0    0  501  503 -0.00000000000E+00 -0.00000000000E+00 -0.15549681472E+04  0.15549681472E+04  0.00000000000E+00 0.  1.
    9000010    2    1    2  501    0  0.32313812265E+03 -0.43747897021E+02 -0.82091772508E+03  0.13297041212E+04  0.99391901771E+03 0.  0.
   -9000010    2    1    2    0  502 -0.32313812265E+03  0.43747897021E+02  0.10630772956E+03  0.10656221777E+04  0.10089188111E+04 0.  0.
        -13    1    3    3    0    0  0.21300466489E+03  0.47241117537E+03 -0.41345799884E+03  0.66294104855E+03  0.10566000000E+00 0.  1.
         13    1    4    4    0    0  0.33794503193E+03 -0.14924228109E+03  0.69873806882E+02  0.37598199840E+03  0.10566000000E+00 0. -1.
          4    1    3    3  501    0  0.11013345776E+03 -0.51615907240E+03 -0.40745972624E+03  0.66676307265E+03  0.00000000000E+00 0.  1.
         -4    1    4    4    0  502 -0.66108315458E+03  0.19299017811E+03  0.36433922679E+02  0.68964017925E+03  0.00000000000E+00 0. -1.
</event>
<event>
 8    1  0.6759491E-006  0.1019003E+04  0.7818608E-02  0.8757241E-01
         21   -1    0    0  503  502  0.00000000000E+00  0.00000000000E+00  0.19728413493E+04  0.19728413493E+04  0.00000000000E+00 0.  1.
         21   -1    0    0  501  503 -0.00000000000E+00 -0.00000000000E+00 -0.83095832372E+03  0.83095832372E+03  0.00000000000E+00 0.  1.
    9000010    2    1    2  501    0 -0.19739023866E+03 -0.90703145695E+02 -0.27858346189E+03  0.10563974786E+04  0.99557868634E+03 0.  0.
   -9000010    2    1    2    0  502  0.19739023866E+03  0.90703145695E+02  0.14204664874E+04  0.17474021943E+04  0.99423308129E+03 0.  0.
        -13    1    3    3    0    0 -0.16885930227E+03 -0.39339447354E+02 -0.65390720562E+03  0.67650255048E+03  0.10566000000E+00 0.  1.
         13    1    4    4    0    0  0.37961910435E+03  0.17836363945E+03  0.14786449499E+04  0.15369824824E+04  0.10566000000E+00 0. -1.
          4    1    3    3  501    0 -0.28530936397E+02 -0.51363698341E+02  0.37532374373E+03  0.37989492817E+03  0.00000000000E+00 0.  1.
         -4    1    4    4    0  502 -0.18222886569E+03 -0.87660493752E+02 -0.58178462495E+02  0.21041971189E+03  0.00000000000E+00 0. -1.
</event>
<event>
 8    1  0.6759491E-006  0.1159321E+04  0.7818608E-02  0.8659114E-01
         21   -1    0    0  503  502  0.00000000000E+00  0.00000000000E+00  0.10657819307E+04  0.10657819307E+04  0.00000000000E+00 0.  1.
         21   -1    0    0  501  503 -0.00000000000E+00 -0.00000000000E+00 -0.15687944406E+04  0.15687944406E+04  0.00000000000E+00 0.  1.
    9000010    2    1    2  501    0 -0.72734900932E+02  0.37688602682E+03 -0.93911893242E+03  0.14919680061E+04  0.10939335990E+04 0.  0.
   -9000010    2    1    2    0  502  0.72734900932E+02 -0.37688602682E+03  0.43610642249E+03  0.11426083652E+04  0.98388597992E+03 0.  0.
        -13    1    3    3    0    0  0.21744695842E+03  0.29723449609E+03  0.12281686909E+03  0.38822096787E+03  0.10566000000E+00 0.  1.
         13    1    4    4    0    0 -0.37073346590E+03 -0.24940053392E+03  0.50697171694E+03  0.67576938522E+03  0.10566000000E+00 0. -1.
          4    1    3    3  501    0 -0.29018185935E+03  0.79651530728E+02 -0.10619358015E+04  0.11037470382E+04  0.00000000000E+00 0.  1.
         -4    1    4    4    0  502  0.44346836683E+03 -0.12748549290E+03 -0.70865294450E+02  0.46683897999E+03  0.00000000000E+00 0. -1.
</event>
<event>
 8    1  0.6759491E-006  0.1013766E+04  0.7818608E-02  0.8765607E-01
         21   -1    0    0  503  502  0.00000000000E+00  0.00000000000E+00  0.19739891010E+04  0.19739891010E+04  0.00000000000E+00 0. -1.
         21   -1    0    0  501  503 -0.00000000000E+00 -0.00000000000E+00 -0.57649862909E+03  0.57649862909E+03  0.00000000000E+00 0. -1.
    9000010    2    1    2  501    0 -0.16464434167E+03  0.10601171891E+03  0.27795157682E+03  0.10511799723E+04  0.99467382161E+03 0.  0.
   -9000010    2    1    2    0  502  0.16464434167E+03 -0.10601171891E+03  0.11195388950E+04  0.14993077577E+04  0.97785999562E+03 0.  0.
        -13    1    3    3    0    0  0.37422956500E+03  0.17392523129E+03 -0.51597723719E+02  0.41588470717E+03  0.10566000000E+00 0.  1.
         13    1    4    4    0    0  0.15967036307E+03  0.39069877885E+03  0.23049219184E+03  0.48090209222E+03  0.10566000000E+00 0. -1.
          4    1    3    3  501    0 -0.53887390667E+03 -0.67913512387E+02  0.32954930054E+03  0.63529526516E+03  0.00000000000E+00 0.  1.
         -4    1    4    4    0  502  0.49739786021E+01 -0.49671049775E+03  0.88904670321E+03  0.10184056655E+04  0.00000000000E+00 0. -1.
</event>
<event>
 8    1  0.6759491E-006  0.9909863E+03  0.7818608E-02  0.8785155E-01
         21   -1    0    0  501  502  0.00000000000E+00  0.00000000000E+00  0.78837659843E+03  0.78837659843E+03  0.00000000000E+00 0. -1.
         21   -1    0    0  502  503 -0.00000000000E+00 -0.00000000000E+00 -0.15025401616E+04  0.15025401616E+04  0.00000000000E+00 0. -1.
    9000010    2    1    2  501    0 -0.66512189401E+02 -0.45387407882E+02  0.12507770792E+03  0.99884844435E+03  0.98770941761E+03 0.  0.
   -9000010    2    1    2    0  503  0.66512189401E+02  0.45387407882E+02 -0.83924127108E+03  0.12920683157E+04  0.97909689669E+03 0.  0.
        -13    1    3    3    0    0 -0.47584209083E+03  0.17987792722E+03 -0.21542420320E+02  0.50916191053E+03  0.10566000000E+00 0.  1.
         13    1    4    4    0    0  0.25008319079E+03  0.62676970594E+02 -0.10090126243E+04  0.10414300227E+04  0.10566000000E+00 0. -1.
          4    1    3    3  501    0  0.40932990142E+03 -0.22526533510E+03  0.14662012824E+03  0.48968653382E+03  0.00000000000E+00 0.  1.
         -4    1    4    4    0  503 -0.18357100138E+03 -0.17289562712E+02  0.16977135323E+03  0.25063829298E+03  0.00000000000E+00 0. -1.
</event>
<event>
 8    1  0.6759491E-006  0.1050046E+04  0.7818608E-02  0.8736309E-01
         21   -1    0    0  503  502  0.00000000000E+00  0.00000000000E+00  0.11445791823E+04  0.11445791823E+04  0.00000000000E+00 0.  1.
         21   -1    0    0  501  503 -0.00000000000E+00 -0.00000000000E+00 -0.99106941983E+03  0.99106941983E+03  0.00000000000E+00 0.  1.
    9000010    2    1    2  501    0 -0.70473454792E+02  0.28243428856E+03  0.33288287902E+03  0.10703916978E+04  0.97477779028E+03 0.  0.
   -9000010    2    1    2    0  502  0.70473454792E+02 -0.28243428856E+03 -0.17937311657E+03  0.10652569043E+04  0.10088914322E+04 0.  0.
        -13    1    3    3    0    0 -0.42394008844E+03  0.37265792688E+03  0.40986341421E+03  0.69755799653E+03  0.10566000000E+00 0.  1.
         13    1    4    4    0    0 -0.32478186635E+03  0.41053091385E+02  0.23875295544E+03  0.40518094959E+03  0.10566000000E+00 0. -1.
          4    1    3    3  501    0  0.35346663365E+03 -0.90223638326E+02 -0.76980535195E+02  0.37283370128E+03  0.00000000000E+00 0.  1.
         -4    1    4    4    0  502  0.39525532114E+03 -0.32348737994E+03 -0.41812607200E+03  0.66007595469E+03  0.00000000000E+00 0. -1.
</event>
<event>
 8    1  0.6759491E-006  0.1077498E+04  0.7818608E-02  0.8705673E-01
         21   -1    0    0  501  502  0.00000000000E+00  0.00000000000E+00  0.15401221430E+04  0.15401221430E+04  0.00000000000E+00 0. -1.
         21   -1    0    0  502  503 -0.00000000000E+00 -0.00000000000E+00 -0.10815378574E+04  0.10815378574E+04  0.00000000000E+00 0. -1.
    9000010    2    1    2  501    0 -0.27958627760E+03  0.26283375972E+03  0.95301109744E+03  0.14361394147E+04  0.10035019654E+04 0.  0.
   -9000010    2    1    2    0  503  0.27958627760E+03 -0.26283375972E+03 -0.49442681183E+03  0.11855205857E+04  0.10068520820E+04 0.  0.
        -13    1    3    3    0    0 -0.12613793492E+03 -0.29663740844E+03  0.75868907678E+03  0.82432618368E+03  0.10566000000E+00 0.  1.
         13    1    4    4    0    0  0.53233791242E+03 -0.49356838213E+03 -0.26177787980E+03  0.77170011686E+03  0.10566000000E+00 0. -1.
          4    1    3    3  501    0 -0.15344834269E+03  0.55947116817E+03  0.19432202066E+03  0.61181323097E+03  0.00000000000E+00 0.  1.
         -4    1    4    4    0  503 -0.25275163482E+03  0.23073462241E+03 -0.23264893203E+03  0.41382046887E+03  0.00000000000E+00 0. -1.
</event>
<event>
 8    1  0.6759491E-006  0.1052391E+04  0.7818608E-02  0.8729434E-01
         21   -1    0    0  501  502  0.00000000000E+00  0.00000000000E+00  0.11164264949E+04  0.11164264949E+04  0.00000000000E+00 0. -1.
         21   -1    0    0  502  503 -0.00000000000E+00 -0.00000000000E+00 -0.10602545284E+04  0.10602545284E+04  0.00000000000E+00 0. -1.
    9000010    2    1    2  501    0  0.16027977859E+03  0.25075306768E+03 -0.26903546504E+03  0.10862348258E+04  0.10094351425E+04 0.  0.
   -9000010    2    1    2    0  503 -0.16027977859E+03 -0.25075306768E+03  0.32520743156E+03  0.10904461974E+04  0.99736970456E+03 0.  0.
        -13    1    3    3    0    0  0.92435258562E+02  0.29052438799E+03 -0.63900009842E+03  0.70800412004E+03  0.10566000000E+00 0.  1.
         13    1    4    4    0    0  0.44995948733E+01  0.38386868071E+03  0.14611639862E+03  0.41076200347E+03  0.10566000000E+00 0. -1.
          4    1    3    3  501    0  0.67844520023E+02 -0.39771320310E+02  0.36996463338E+03  0.37823070575E+03  0.00000000000E+00 0.  1.
         -4    1    4    4    0  503 -0.16477937346E+03 -0.63462174839E+03  0.17909103294E+03  0.67968419397E+03  0.00000000000E+00 0. -1.
</event>
<event>
 8    1  0.6759491E-006  0.1124598E+04  0.7818608E-02  0.8684897E-01
         21   -1    0    0  503  502  0.00000000000E+00  0.00000000000E+00  0.81690867298E+03  0.81690867298E+03  0.00000000000E+00 0. -1.
         21   -1    0    0  501  503 -0.00000000000E+00 -0.00000000000E+00 -0.20187776562E+04  0.20187776562E+04  0.00000000000E+00 0. -1.
    9000010    2    1    2  501    0 -0.26828351845E+03 -0.53063185594E+02 -0.13865878944E+04  0.17853141747E+04  0.10908386523E+04 0.  0.
   -9000010    2    1    2    0  502  0.26828351845E+03  0.53063185594E+02  0.18471891122E+03  0.10503721545E+04  0.99718044448E+03 0.  0.
        -13    1    3    3    0    0  0.19524855223E+03 -0.24101184760E+03 -0.12189318397E+04  0.12577772255E+04  0.10566000000E+00 0.  1.
         13    1    4    4    0    0  0.18283123156E+03  0.50993189168E+03  0.21901705856E+03  0.58431693154E+03  0.10566000000E+00 0. -1.
          4    1    3    3  501    0 -0.46353207067E+03  0.18794866201E+03 -0.16765605468E+03  0.52753694919E+03  0.00000000000E+00 0.  1.
         -4    1    4    4    0  502  0.85452286885E+02 -0.45686870608E+03 -0.34298147339E+02  0.46605522296E+03  0.00000000000E+00 0. -1.
</event>
<event>
 8    1  0.6759491E-006  0.1030724E+04  0.7818608E-02  0.8751292E-01
         21   -1    0    0  503  502  0.00000000000E+00  0.00000000000E+00  0.62250943530E+03  0.62250943530E+03  0.00000000000E+00 0. -1.
         21   -1    0    0  501  503 -0.00000000000E+00 -0.00000000000E+00 -0.21382491156E+04  0.21382491156E+04  0.00000000000E+00 0. -1.
    9000010    2    1    2  501    0  0.22151010890E+03  0.15498168846E+03 -0.10578892595E+03  0.10142324846E+04  0.97179739862E+03 0.  0.
   -9000010    2    1    2    0  502 -0.22151010890E+03 -0.15498168846E+03 -0.14099507544E+04  0.17465260662E+04  0.99463868730E+03 0.  0.
        -13    1    3    3    0    0  0.21271550549E+03  0.39959535266E+03 -0.41892320757E+03  0.61678277955E+03  0.10566000000E+00 0.  1.
         13    1    4    4    0    0 -0.20178292453E+02 -0.61792395461E+02  0.15387509159E+03  0.16704196658E+03  0.10566000000E+00 0. -1.
          4    1    3    3  501    0  0.87946034135E+01 -0.24461366419E+03  0.31313428162E+03  0.39744970510E+03  0.00000000000E+00 0.  1.
         -4    1    4    4    0  502 -0.20133181645E+03 -0.93189293002E+02 -0.15638258459E+04  0.15794840997E+04  0.00000000000E+00 0. -1.
</event>
<event>
 8    1  0.6759491E-006  0.1101952E+04  0.7818608E-02  0.8697102E-01
         21   -1    0    0  503  502  0.00000000000E+00  0.00000000000E+00  0.13383375243E+04  0.13383375243E+04  0.00000000000E+00 0.  1.
         21   -1    0    0  501  503 -0.00000000000E+00 -0.00000000000E+00 -0.13203788772E+04  0.13203788772E+04  0.00000000000E+00 0.  1.
    9000010    2    1    2  501    0 -0.26707774116E+03  0.15032239496E+03 -0.77653855881E+03  0.13480767551E+04  0.10584760092E+04 0.  0.
   -9000010    2    1    2    0  502  0.26707774116E+03 -0.15032239496E+03  0.79449720591E+03  0.13106396464E+04  0.99630473768E+03 0.  0.
        -13    1    3    3    0    0  0.94776673386E+02  0.33325034594E+03 -0.86610970580E+03  0.93283677271E+03  0.10566000000E+00 0.  1.
         13    1    4    4    0    0  0.15011436461E+03 -0.54138551847E+03  0.21440915672E+03  0.60133509770E+03  0.10566000000E+00 0. -1.
          4    1    3    3  501    0 -0.36185441455E+03 -0.18292795098E+03  0.89571146983E+02  0.41523998236E+03  0.00000000000E+00 0.  1.
         -4    1    4    4    0  502  0.11696337655E+03  0.39106312351E+03  0.58008804919E+03  0.70930454872E+03  0.00000000000E+00 0. -1.
</event>
<event>
 8    1  0.6759491E-006  0.1057689E+04  0.7818608E-02  0.8728373E-01
         21   -1    0    0  503  502  0.00000000000E+00  0.00000000000E+00  0.14041699589E+04  0.14041699589E+04  0.00000000000E+00 0.  1.
         21   -1    0    0  501  503 -0.00000000000E+00 -0.00000000000E+00 -0.90052996014E+03  0.90052996014E+03  0.00000000000E+00 0.  1.
    9000010    2    1    2  501    0 -0.71976271473E+02  0.19853760488E+03  0.68328668131E+03  0.12592004371E+04  0.10363914742E+04 0.  0.
   -9000010    2    1    2    0  502  0.71976271473E+02 -0.19853760488E+03 -0.17964668255E+03  0.10454994819E+04  0.10080667001E+04 0.  0.
        -13    1    3    3    0    0 -0.36940187919E+03  0.28837832117E+03 -0.41655146030E+02  0.47048375830E+03  0.10566000000E+00 0.  1.
         13    1    4    4    0    0  0.43301972964E+03  0.20328190662E+03 -0.70933404378E+01  0.47841399066E+03  0.10566000000E+00 0. -1.
          4    1    3    3  501    0  0.29742560771E+03 -0.89840716285E+02  0.72494182734E+03  0.78871667882E+03  0.00000000000E+00 0.  1.
         -4    1    4    4    0  502 -0.36104345817E+03 -0.40181951151E+03 -0.17255334211E+03  0.56708549125E+03  0.00000000000E+00 0. -1.
</event>
<event>
 8    1  0.6759491E-006  0.1068133E+04  0.7818608E-02  0.8723123E-01
         21   -1    0    0  501  502  0.00000000000E+00  0.00000000000E+00  0.80175358230E+03  0.80175358230E+03  0.00000000000E+00 0. -1.
         21   -1    0    0  502  503 -0.00000000000E+00 -0.00000000000E+00 -0.14817214554E+04  0.14817214554E+04  0.00000000000E+00 0. -1.
    9000010    2    1    2  501    0 -0.12615138514E+03  0.22384325902E+03 -0.10606290686E+02  0.10229380809E+04  0.99008577781E+03 0.  0.
   -9000010    2    1    2    0  503  0.12615138514E+03 -0.22384325902E+03 -0.66936158240E+03  0.12605369568E+04  0.10367683033E+04 0.  0.
        -13    1    3    3    0    0  0.21052435874E+03  0.13954708801E+02  0.39983738040E+03  0.45208979358E+03  0.10566000000E+00 0.  1.
         13    1    4    4    0    0 -0.71044637510E+02 -0.34687100169E+03  0.16771970383E+03  0.39178660333E+03  0.10566000000E+00 0. -1.
          4    1    3    3  501    0 -0.33667574388E+03  0.20988855022E+03 -0.41044367109E+03  0.57084828735E+03  0.00000000000E+00 0.  1.
         -4    1    4    4    0  503  0.19719602265E+03  0.12302774267E+03 -0.83708128623E+03  0.86875035342E+03  0.00000000000E+00 0. -1.
</event>
<event>
 8    1  0.6759491E-006  0.1101190E+04  0.7818608E-02  0.8685104E-01
         21   -1    0    0  501  502  0.00000000000E+00  0.00000000000E+00  0.68056672256E+03  0.68056672256E+03  0.00000000000E+00 0. -1.
         21   -1    0    0  502  503 -0.00000000000E+00 -0.00000000000E+00 -0.18552916213E+04  0.18552916213E+04  0.00000000000E+00 0. -1.
    9000010    2    1    2  501    0  0.37469719545E+03  0.35542542559E+02 -0.33247400824E+03  0.11494940410E+04  0.10339904852E+04 0.  0.
   -9000010    2    1    2    0  503 -0.37469719545E+03 -0.35542542559E+02 -0.84225089048E+03  0.13863643028E+04  0.10348710823E+04 0.  0.
        -13    1    3    3    0    0  0.30028830672E+03 -0.47385785164E+03 -0.29371182842E+03  0.63323058993E+03  0.10566000000E+00 0.  1.
         13    1    4    4    0    0 -0.25459401080E+03 -0.41071006642E+03 -0.30619268776E+02  0.48418841351E+03  0.10566000000E+00 0. -1.
          4    1    3    3  501    0  0.74408888733E+02  0.50940039420E+03 -0.38762179824E+02  0.51626345107E+03  0.00000000000E+00 0.  1.
         -4    1    4    4    0  503 -0.12010318465E+03  0.37516752386E+03 -0.81163162170E+03  0.90217588932E+03  0.00000000000E+00 0. -1.
</event>
<event>
 8    1  0.6759491E-006  0.9877746E+03  0.7818608E-02  0.8820895E-01
         21   -1    0    0  503  502  0.00000000000E+00  0.00000000000E+00  0.78096905157E+03  0.78096905157E+03  0.00000000000E+00 0. -1.
         21   -1    0    0  501  503 -0.00000000000E+00 -0.00000000000E+00 -0.11394747639E+04  0.11394747639E+04  0.00000000000E+00 0. -1.
    9000010    2    1    2  501    0 -0.61973887642E+02 -0.16660538887E+03 -0.37717419546E+03  0.93249277045E+03  0.83407689986E+03 0.  0.
   -9000010    2    1    2    0  502  0.61973887642E+02  0.16660538887E+03  0.18668483176E+02  0.98795104497E+03  0.97164841205E+03 0.  0.
        -13    1    3    3    0    0 -0.15253150848E+03  0.18371944856E+03 -0.49695160302E+03  0.55134345355E+03  0.10566000000E+00 0.  1.
         13    1    4    4    0    0  0.14588584382E+03  0.45106946906E+03 -0.29332763970E+03  0.55748314838E+03  0.10566000000E+00 0. -1.
          4    1    3    3  501    0  0.90557620841E+02 -0.35032483743E+03  0.11977740756E+03  0.38114931691E+03  0.00000000000E+00 0.  1.
         -4    1    4    4    0  502 -0.83911956181E+02 -0.28446408019E+03  0.31199612287E+03  0.43046789659E+03  0.00000000000E+00 0. -1.
</event>
<event>
 8    1  0.6759491E-006  0.1064100E+04  0.7818608E-02  0.8720934E-01
         21   -1    0    0  503  502  0.00000000000E+00  0.00000000000E+00  0.65836160114E+03  0.65836160114E+03  0.00000000000E+00 0. -1.
         21   -1    0    0  501  503 -0.00000000000E+00 -0.00000000000E+00 -0.21796712326E+04  0.21796712326E+04  0.00000000000E+00 0. -1.
    9000010    2    1    2  501    0 -0.10150097185E+03 -0.35297355030E+03 -0.14289828078E+04  0.17699354280E+04  0.97764348299E+03 0.  0.
   -9000010    2    1    2    0  502  0.10150097185E+03  0.35297355030E+03 -0.92326823715E+02  0.10680974058E+04  0.99870668936E+03 0.  0.
        -13    1    3    3    0    0  0.36590383380E+03  0.11293728709E+03 -0.48006072556E+03  0.61408367328E+03  0.10566000000E+00 0.  1.
         13    1    4    4    0    0  0.14231780260E+03  0.35430364579E+03  0.41223102155E+03  0.56188954133E+03  0.10566000000E+00 0. -1.
          4    1    3    3  501    0 -0.46740480565E+03 -0.46591083739E+03 -0.94892208221E+03  0.11558517547E+04  0.00000000000E+00 0.  1.
         -4    1    4    4    0  502 -0.40816830755E+02 -0.13300954915E+01 -0.50455784526E+03  0.50620786446E+03  0.00000000000E+00 0. -1.
</event>
<event>
 8    1  0.6759491E-006  0.1015446E+04  0.7818608E-02  0.8760722E-01
         21   -1    0    0  503  502  0.00000000000E+00  0.00000000000E+00  0.11055402442E+04  0.11055402442E+04  0.00000000000E+00 0. -1.
         21   -1    0    0  501  503 -0.00000000000E+00 -0.00000000000E+00 -0.11566831304E+04  0.11566831304E+04  0.00000000000E+00 0. -1.
    9000010    2    1    2  501    0 -0.10555167538E+02 -0.14646112895E+03 -0.52554451481E+03  0.11414255492E+04  0.10025432527E+04 0.  0.
   -9000010    2    1    2    0  502  0.10555167538E+02  0.14646112895E+03  0.47440162854E+03  0.11207978254E+04  0.10047729029E+04 0.  0.
        -13    1    3    3    0    0  0.22663127779E+03  0.28185158033E+03  0.72159601362E+02  0.36879407348E+03  0.10566000000E+00 0.  1.
         13    1    4    4    0    0 -0.36398781063E+03 -0.12714708157E+02 -0.13464131484E+03  0.38830025099E+03  0.10566000000E+00 0. -1.
          4    1    3    3  501    0 -0.23718644533E+03 -0.42831270927E+03 -0.59770411617E+03  0.77263147571E+03  0.00000000000E+00 0.  1.
         -4    1    4    4    0  502  0.37454297817E+03  0.15917583710E+03  0.60904294338E+03  0.73249757439E+03  0.00000000000E+00 0. -1.
</event>
<event>
 8    1  0.6759491E-006  0.1007090E+04  0.7818608E-02  0.8794635E-01
         21   -1    0    0  501  502  0.00000000000E+00  0.00000000000E+00  0.49925502425E+03  0.49925502425E+03  0.00000000000E+00 0.  1.
         21   -1    0    0  502  503 -0.00000000000E+00 -0.00000000000E+00 -0.18493357786E+04  0.18493357786E+04  0.00000000000E+00 0.  1.
    9000010    2    1    2  501    0 -0.26111279244E+02 -0.19143044556E+02 -0.86149241606E+03  0.13252918711E+04  0.10065689771E+04 0.  0.
   -9000010    2    1    2    0  503  0.26111279244E+02  0.19143044556E+02 -0.48858833828E+03  0.10232989317E+04  0.89853986236E+03 0.  0.
        -13    1    3    3    0    0  0.42963036207E+03  0.72554032755E+02 -0.71604865414E+03  0.83819569430E+03  0.10566000000E+00 0.  1.
         13    1    4    4    0    0 -0.32121623009E+03 -0.28973682738E+03 -0.26731861681E+03  0.50851406045E+03  0.10566000000E+00 0. -1.
          4    1    3    3  501    0 -0.45574164131E+03 -0.91697077310E+02 -0.14544376192E+03  0.48709617684E+03  0.00000000000E+00 0.  1.
         -4    1    4    4    0  503  0.34732750934E+03  0.30887987193E+03 -0.22126972147E+03  0.51478487125E+03  0.00000000000E+00 0. -1.
</event>
<event>
 8    1  0.6759491E-006  0.1019167E+04  0.7818608E-02  0.8762426E-01
         21   -1    0    0  503  502  0.00000000000E+00  0.00000000000E+00  0.14682221559E+04  0.14682221559E+04  0.00000000000E+00 0. -1.
         21   -1    0    0  501  503 -0.00000000000E+00 -0.00000000000E+00 -0.10629753052E+04  0.10629753052E+04  0.00000000000E+00 0. -1.
    9000010    2    1    2  501    0  0.51368127532E+02 -0.50674133333E+02 -0.54787690237E+03  0.11357953294E+04  0.99229802871E+03 0.  0.
   -9000010    2    1    2    0  502 -0.51368127532E+02  0.50674133333E+02  0.95312375313E+03  0.13954021317E+04  0.10166098898E+04 0.  0.
        -13    1    3    3    0    0  0.19875072993E+03 -0.44830997406E+03 -0.67498162792E+02  0.49501484688E+03  0.10566000000E+00 0.  1.
         13    1    4    4    0    0  0.15495030611E+03 -0.31919789729E+03  0.90141374336E+03  0.96873300908E+03  0.10566000000E+00 0. -1.
          4    1    3    3  501    0 -0.14738260240E+03  0.39763584072E+03 -0.48037873958E+03  0.64078048250E+03  0.00000000000E+00 0.  1.
         -4    1    4    4    0  502 -0.20631843364E+03  0.36987203062E+03  0.51710009774E+02  0.42666912263E+03  0.00000000000E+00 0. -1.
</event>
<event>
 8    1  0.6759491E-006  0.1169524E+04  0.7818608E-02  0.8663087E-01
         21   -1    0    0  503  502  0.00000000000E+00  0.00000000000E+00  0.22518360568E+04  0.22518360568E+04  0.00000000000E+00 0. -1.
         21   -1    0    0  501  503 -0.00000000000E+00 -0.00000000000E+00 -0.10646445507E+04  0.10646445507E+04  0.00000000000E+00 0. -1.
    9000010    2    1    2  501    0 -0.18534705097E+03  0.27306411506E+03 -0.60370565012E+03  0.11775323086E+04  0.95561722760E+03 0.  0.
   -9000010    2    1    2    0  502  0.18534705097E+03 -0.27306411506E+03  0.17908971562E+04  0.21389482988E+04  0.11219936099E+04 0.  0.
        -13    1    3    3    0    0 -0.24083341686E+03 -0.24915049696E+03 -0.54943550291E+03  0.64958147128E+03  0.10566000000E+00 0.  1.
         13    1    4    4    0    0  0.40517690927E+03  0.20095706986E+03  0.26077174047E+03  0.52206702973E+03  0.10566000000E+00 0. -1.
          4    1    3    3  501    0  0.55486365894E+02  0.52221461201E+03 -0.54270147209E+02  0.52795083737E+03  0.00000000000E+00 0.  1.
         -4    1    4    4    0  502 -0.21982985831E+03 -0.47402118492E+03  0.15301254158E+04  0.16168812691E+04  0.00000000000E+00 0. -1.
</event>
<event>
 8    1  0.6759491E-006  0.1055134E+04  0.7818608E-02  0.8732335E-01
         21   -1    0    0  503  502  0.00000000000E+00  0.00000000000E+00  0.13250766905E+04  0.13250766905E+04  0.00000000000E+00 0.  1.
         21   -1    0    0  501  503 -0.00000000000E+00 -0.00000000000E+00 -0.12517224657E+04  0.12517224657E+04  0.00000000000E+00 0.  1.
    9000010    2    1    2  501    0 -0.67285147005E+02  0.18574763854E+03  0.80031201129E+03  0.13243138343E+04  0.10364739940E+04 0.  0.
   -9000010    2    1    2    0  502  0.67285147005E+02 -0.18574763854E+03 -0.72695778651E+03  0.12524853219E+04  0.10006110044E+04 0.  0.
        -13    1    3    3    0    0  0.31074882394E+03  0.48242236220E+03  0.46026983731E+03  0.73562524524E+03  0.10566000000E+00 0.  1.
         13    1    4    4    0    0 -0.11476056757E+03  0.17722709202E+03  0.16792970756E+03  0.26977736721E+03  0.10566000000E+00 0. -1.
          4    1    3    3  501    0 -0.37803397095E+03 -0.29667472366E+03  0.34004217398E+03  0.58868858910E+03  0.00000000000E+00 0.  1.
         -4    1    4    4    0  502  0.18204571458E+03 -0.36297473056E+03 -0.89488749407E+03  0.98270795471E+03  0.00000000000E+00 0. -1.
</event>
<event>
 8    1  0.6759491E-006  0.1047864E+04  0.7818608E-02  0.8738328E-01
         21   -1    0    0  501  502  0.00000000000E+00  0.00000000000E+00  0.12107209235E+04  0.12107209235E+04  0.00000000000E+00 0.  1.
         21   -1    0    0  502  503 -0.00000000000E+00 -0.00000000000E+00 -0.94005449972E+03  0.94005449972E+03  0.00000000000E+00 0.  1.
    9000010    2    1    2  501    0 -0.28963207501E+02  0.28145295651E+03  0.40831087791E+03  0.10939094638E+04  0.97461043907E+03 0.  0.
   -9000010    2    1    2    0  503  0.28963207501E+02 -0.28145295651E+03 -0.13764445415E+03  0.10568659594E+04  0.10089425287E+04 0.  0.
        -13    1    3    3    0    0  0.64876136392E+02  0.48849923037E+03  0.61403289205E+03  0.78732256085E+03  0.10566000000E+00 0.  1.
         13    1    4    4    0    0 -0.23662699244E+03  0.96306946550E+02 -0.43724574113E+03  0.50641012115E+03  0.10566000000E+00 0. -1.
          4    1    3    3  501    0 -0.93839343893E+02 -0.20704627386E+03 -0.20572201414E+03  0.30658690299E+03  0.00000000000E+00 0.  1.
         -4    1    4    4    0  503  0.26559019994E+03 -0.37775990306E+03  0.29960128698E+03  0.55045583822E+03  0.00000000000E+00 0. -1.
</event>
<event>
 8    1  0.6759491E-006  0.1186079E+04  0.7818608E-02  0.8636178E-01
         21   -1    0    0  503  502  0.00000000000E+00  0.00000000000E+00  0.18801672906E+04  0.18801672906E+04  0.00000000000E+00 0. -1.
         21   -1    0    0  501  503 -0.00000000000E+00 -0.00000000000E+00 -0.84073879898E+03  0.84073879898E+03  0.00000000000E+00 0. -1.
    9000010    2    1    2  501    0 -0.20500132202E+03  0.43548797405E+03 -0.75374162986E+02  0.10931562745E+04  0.97858778781E+03 0.  0.
   -9000010    2    1    2    0  502  0.20500132202E+03 -0.43548797405E+03  0.11148026546E+04  0.16277498151E+04  0.10840245312E+04 0.  0.
        -13    1    3    3    0    0 -0.52872170792E+03  0.30254387098E+02 -0.18880610130E+03  0.56223636259E+03  0.10566000000E+00 0.  1.
         13    1    4    4    0    0 -0.19162636478E+03 -0.57830207614E+03  0.23649806831E+03  0.65351763742E+03  0.10566000000E+00 0. -1.
          4    1    3    3  501    0  0.32372038589E+03  0.40523358695E+03  0.11343193831E+03  0.53091991191E+03  0.00000000000E+00 0.  1.
         -4    1    4    4    0  502  0.39662768680E+03  0.14281410209E+03  0.87830458631E+03  0.97423217768E+03  0.00000000000E+00 0. -1.
</event>
<event>
 8    1  0.6759491E-006  0.1085092E+04  0.7818608E-02  0.8699252E-01
         21   -1    0    0  503  502  0.00000000000E+00  0.00000000000E+00  0.66535679241E+03  0.66535679241E+03  0.00000000000E+00 0. -1.
         21   -1    0    0  501  503 -0.00000000000E+00 -0.00000000000E+00 -0.18544872797E+04  0.18544872797E+04  0.00000000000E+00 0. -1.
    9000010    2    1    2  501    0 -0.33956817668E+03 -0.20650272672E+03 -0.31706664355E+03  0.11304668977E+04  0.10096901641E+04 0.  0.
   -9000010    2    1    2    0  502  0.33956817668E+03  0.20650272672E+03 -0.87206384375E+03  0.13893771745E+04  0.10059441648E+04 0.  0.
        -13    1    3    3    0    0 -0.63198094873E+03 -0.49024370964E+02  0.49512703735E+02  0.63581037071E+03  0.10566000000E+00 0.  1.
         13    1    4    4    0    0  0.19842111550E+03  0.36444779769E+03 -0.10395678468E+04  0.11193276802E+04  0.10566000000E+00 0. -1.
          4    1    3    3  501    0  0.29241277205E+03 -0.15747835576E+03 -0.36657934729E+03  0.49465652695E+03  0.00000000000E+00 0.  1.
         -4    1    4    4    0  502  0.14114706119E+03 -0.15794507096E+03  0.16750400307E+03  0.27004949429E+03  0.00000000000E+00 0. -1.
</event>
<event>
 8    1  0.6759491E-006  0.1054290E+04  0.7818608E-02  0.8725190E-01
         21   -1    0    0  501  502  0.00000000000E+00  0.00000000000E+00  0.16516984595E+04  0.16516984595E+04  0.00000000000E+00 0.  1.
         21   -1    0    0  502  503 -0.00000000000E+00 -0.00000000000E+00 -0.75556496321E+03  0.75556496321E+03  0.00000000000E+00 0. -1.
    9000010    2    1    2  501    0  0.67116139074E+02  0.31690619691E+03  0.84605886879E+03  0.13517847538E+04  0.10032807670E+04 0.  0.
   -9000010    2    1    2    0  503 -0.67116139074E+02 -0.31690619691E+03  0.50074627470E+02  0.10554786689E+04  0.10032914025E+04 0.  0.
        -13    1    3    3    0    0 -0.19808861945E+03  0.61211610034E+03  0.41362880949E+03  0.76486209518E+03  0.10566000000E+00 0.  1.
         13    1    4    4    0    0  0.40650554156E+03  0.41159537078E+02  0.18195427110E+03  0.44726751587E+03  0.10566000000E+00 0. -1.
          4    1    3    3  501    0  0.26520475852E+03 -0.29520990343E+03  0.43243005930E+03  0.58692265863E+03  0.00000000000E+00 0.  1.
         -4    1    4    4    0  503 -0.47362168064E+03 -0.35806573399E+03 -0.13187964363E+03  0.60821115300E+03  0.00000000000E+00 0. -1.
</event>
<event>
 8    1  0.6759491E-006  0.1291426E+04  0.7818608E-02  0.8589741E-01
         21   -1    0    0  503  502  0.00000000000E+00  0.00000000000E+00  0.36685384960E+04  0.36685384960E+04  0.00000000000E+00 0.  1.
         21   -1    0    0  501  503 -0.00000000000E+00 -0.00000000000E+00 -0.39855556484E+03  0.39855556484E+03  0.00000000000E+00 0.  1.
    9000010    2    1    2  501    0 -0.10713879050E+03  0.23545279728E+03  0.92420358044E+03  0.13893220649E+04  0.10045629904E+04 0.  0.
   -9000010    2    1    2    0  502  0.10713879050E+03 -0.23545279728E+03  0.23457793507E+04  0.26777719960E+04  0.12652530814E+04 0.  0.
        -13    1    3    3    0    0 -0.55098504776E+03  0.12216905706E+03  0.62544321283E+03  0.84243042739E+03  0.10566000000E+00 0.  1.
         13    1    4    4    0    0 -0.40250733082E+03  0.17008150101E+03  0.17197075764E+04  0.17743545384E+04  0.10566000000E+00 0. -1.
          4    1    3    3  501    0  0.44384625726E+03  0.11328374023E+03  0.29876036761E+03  0.54689163747E+03  0.00000000000E+00 0.  1.
         -4    1    4    4    0  502  0.50964612132E+03 -0.40553429830E+03  0.62607177430E+03  0.90341745757E+03  0.00000000000E+00 0. -1.
</event>
<event>
 8    1  0.6759491E-006  0.1019967E+04  0.7818608E-02  0.8757618E-01
         21   -1    0    0  503  502  0.00000000000E+00  0.00000000000E+00  0.97213565148E+03  0.97213565148E+03  0.00000000000E+00 0.  1.
         21   -1    0    0  501  503 -0.00000000000E+00 -0.00000000000E+00 -0.10840271751E+04  0.10840271751E+04  0.00000000000E+00 0.  1.
    9000010    2    1    2  501    0 -0.10460554770E+03  0.14132247664E+03  0.87311610159E+02  0.10169255054E+04  0.99779747606E+03 0.  0.
   -9000010    2    1    2    0  502  0.10460554770E+03 -0.14132247664E+03 -0.19920313378E+03  0.10392373212E+04  0.10046979438E+04 0.  0.
        -13    1    3    3    0    0  0.99685056693E+02  0.44352017168E+03  0.34469305820E+03  0.57049151506E+03  0.10566000000E+00 0.  1.
         13    1    4    4    0    0  0.50979922342E+02 -0.57783991955E+03 -0.10671898766E+03  0.58981936099E+03  0.10566000000E+00 0. -1.
          4    1    3    3  501    0 -0.20429060440E+03 -0.30219769504E+03 -0.25738144804E+03  0.44643399034E+03  0.00000000000E+00 0.  1.
         -4    1    4    4    0  502  0.53625625363E+02  0.43651744291E+03 -0.92484146122E+02  0.44941796019E+03  0.00000000000E+00 0. -1.
</event>
<event>
 8    1  0.6759491E-006  0.1013625E+04  0.7818608E-02  0.8763829E-01
         21   -1    0    0  501  502  0.00000000000E+00  0.00000000000E+00  0.97336158911E+03  0.97336158911E+03  0.00000000000E+00 0.  1.
         21   -1    0    0  502  503 -0.00000000000E+00 -0.00000000000E+00 -0.10692949770E+04  0.10692949770E+04  0.00000000000E+00 0.  1.
    9000010    2    1    2  501    0 -0.35201561261E+02  0.14928268252E+03 -0.19599447676E+03  0.10323995845E+04  0.10019533911E+04 0.  0.
   -9000010    2    1    2    0  503  0.35201561261E+02 -0.14928268252E+03  0.10006108890E+03  0.10102569816E+04  0.99352024548E+03 0.  0.
        -13    1    3    3    0    0 -0.15701569824E+03 -0.33355354614E+03  0.17823720592E+03  0.40948798562E+03  0.10566000000E+00 0.  1.
         13    1    4    4    0    0  0.47468776321E+03 -0.15136441617E+03 -0.12898498165E+03  0.51466182652E+03  0.10566000000E+00 0. -1.
          4    1    3    3  501    0  0.12181413697E+03  0.48283622865E+03 -0.37423168268E+03  0.62291159886E+03  0.00000000000E+00 0.  1.
         -4    1    4    4    0  503 -0.43948620195E+03  0.20817336574E+01  0.22904607055E+03  0.49559515509E+03  0.00000000000E+00 0. -1.
</event>
<event>
 8    1  0.6759491E-006  0.1037086E+04  0.7818608E-02  0.8766990E-01
         21   -1    0    0  503  502  0.00000000000E+00  0.00000000000E+00  0.18628489931E+04  0.18628489931E+04  0.00000000000E+00 0.  1.
         21   -1    0    0  501  503 -0.00000000000E+00 -0.00000000000E+00 -0.55243014886E+03  0.55243014886E+03  0.00000000000E+00 0.  1.
    9000010    2    1    2  501    0  0.18206190730E+03 -0.17201657322E+03  0.31596215418E+03  0.97844549578E+03  0.89150842160E+03 0.  0.
   -9000010    2    1    2    0  502 -0.18206190730E+03  0.17201657322E+03  0.99445669004E+03  0.14368336462E+04  0.10063849059E+04 0.  0.
        -13    1    3    3    0    0  0.33540429966E+03  0.28733247088E+03  0.15811486190E+03  0.46910160282E+03  0.10566000000E+00 0.  1.
         13    1    4    4    0    0 -0.15978001291E+03 -0.28687943898E+03  0.91296731288E+03  0.97022615435E+03  0.10566000000E+00 0. -1.
          4    1    3    3  501    0 -0.15334239236E+03 -0.45934904410E+03  0.15784729228E+03  0.50934389295E+03  0.00000000000E+00 0.  1.
         -4    1    4    4    0  502 -0.22281894390E+02  0.45889601220E+03  0.81489377166E+02  0.46660749182E+03  0.00000000000E+00 0. -1.
</event>
<event>
 8    1  0.6759491E-006  0.1090967E+04  0.7818608E-02  0.8696820E-01
         21   -1    0    0  503  502  0.00000000000E+00  0.00000000000E+00  0.16652597727E+04  0.16652597727E+04  0.00000000000E+00 0. -1.
         21   -1    0    0  501  503 -0.00000000000E+00 -0.00000000000E+00 -0.74493007820E+03  0.74493007820E+03  0.00000000000E+00 0. -1.
    9000010    2    1    2  501    0 -0.32766701804E+03 -0.22046785706E+03  0.17676338653E+03  0.10899244495E+04  0.10003590656E+04 0.  0.
   -9000010    2    1    2    0  502  0.32766701804E+03  0.22046785706E+03  0.74356630794E+03  0.13202654014E+04  0.10169749875E+04 0.  0.
        -13    1    3    3    0    0 -0.63458929247E+03 -0.33094817683E+03  0.24535345677E+03  0.75659011081E+03  0.10566000000E+00 0.  1.
         13    1    4    4    0    0  0.23491270974E+03 -0.34483210784E+03  0.49266308578E+02  0.42014324238E+03  0.10566000000E+00 0. -1.
          4    1    3    3  501    0  0.30692227443E+03  0.11048031977E+03 -0.68590070241E+02  0.33333433866E+03  0.00000000000E+00 0.  1.
         -4    1    4    4    0  502  0.92754308304E+02  0.56529996490E+03  0.69429999936E+03  0.90012215901E+03  0.00000000000E+00 0. -1.
</event>
<event>
 8    1  0.6759491E-006  0.1076143E+04  0.7818608E-02  0.8716847E-01
         21   -1    0    0  503  502  0.00000000000E+00  0.00000000000E+00  0.90294266883E+03  0.90294266883E+03  0.00000000000E+00 0.  1.
         21   -1    0    0  501  503 -0.00000000000E+00 -0.00000000000E+00 -0.12534582677E+04  0.12534582677E+04  0.00000000000E+00 0.  1.
    9000010    2    1    2  501    0 -0.13937680854E+03 -0.18500167076E+03 -0.17937046351E+02  0.10762924995E+04  0.10509197371E+04 0.  0.
   -9000010    2    1    2    0  502  0.13937680854E+03  0.18500167076E+03 -0.33257855251E+03  0.10801084371E+04  0.10011864109E+04 0.  0.
        -13    1    3    3    0    0 -0.39866737653E+03 -0.64213343201E+02  0.40095345039E+03  0.56905422510E+03  0.10566000000E+00 0.  1.
         13    1    4    4    0    0  0.16200118608E+03  0.51506790102E+03 -0.47573167660E+03  0.71962487883E+03  0.10566000000E+00 0. -1.
          4    1    3    3  501    0  0.25929056799E+03 -0.12078832756E+03 -0.41889049674E+03  0.50723827437E+03  0.00000000000E+00 0.  1.
         -4    1    4    4    0  502 -0.22624377533E+02 -0.33006623026E+03  0.14315312409E+03  0.36048355823E+03  0.00000000000E+00 0. -1.
</event>
<event>
 8    1  0.6759491E-006  0.1248730E+04  0.7818608E-02  0.8584247E-01
         21   -1    0    0  503  502  0.00000000000E+00  0.00000000000E+00  0.76618736204E+03  0.76618736204E+03  0.00000000000E+00 0.  1.
         21   -1    0    0  501  503 -0.00000000000E+00 -0.00000000000E+00 -0.21773187068E+04  0.21773187068E+04  0.00000000000E+00 0.  1.
    9000010    2    1    2  501    0  0.46559591553E+03  0.51551786012E+03 -0.12319277136E+04  0.17541298439E+04  0.10376836691E+04 0.  0.
   -9000010    2    1    2    0  502 -0.46559591553E+03 -0.51551786012E+03 -0.17920363116E+03  0.11893762249E+04  0.94866413571E+03 0.  0.
        -13    1    3    3    0    0 -0.12666199806E+03  0.62854152395E+03 -0.70998585834E+03  0.95665439908E+03  0.10566000000E+00 0.  1.
         13    1    4    4    0    0 -0.53308417866E+03 -0.75554057933E+03 -0.16787720862E+03  0.93978884697E+03  0.10566000000E+00 0. -1.
          4    1    3    3  501    0  0.59225791359E+03 -0.11302366384E+03 -0.52194185525E+03  0.79747544480E+03  0.00000000000E+00 0.  1.
         -4    1    4    4    0  502  0.67488263130E+02  0.24002271921E+03 -0.11326422536E+02  0.24958737797E+03  0.00000000000E+00 0. -1.
</event>
<event>
 8    1  0.6759491E-006  0.1019564E+04  0.7818608E-02  0.8756917E-01
         21   -1    0    0  503  502  0.00000000000E+00  0.00000000000E+00  0.19217036295E+04  0.19217036295E+04  0.00000000000E+00 0.  1.
         21   -1    0    0  501  503 -0.00000000000E+00 -0.00000000000E+00 -0.10621030592E+04  0.10621030592E+04  0.00000000000E+00 0.  1.
    9000010    2    1    2  501    0 -0.19492489744E+03  0.66704232000E+02 -0.61618455561E+03  0.11912993321E+04  0.99853168291E+03 0.  0.
   -9000010    2    1    2    0  502  0.19492489744E+03 -0.66704232000E+02  0.14757851259E+04  0.17925073567E+04  0.99634116435E+03 0.  0.
        -13    1    3    3    0    0 -0.56913243355E+03 -0.12086700587E+03 -0.24306382512E+03  0.63055578204E+03  0.10566000000E+00 0.  1.
         13    1    4    4    0    0  0.30595273796E+03  0.41866258850E+03  0.79203247532E+03  0.94667887586E+03  0.10566000000E+00 0. -1.
          4    1    3    3  501    0  0.37420753611E+03  0.18757123787E+03 -0.37312073049E+03  0.56074355001E+03  0.00000000000E+00 0.  1.
         -4    1    4    4    0  502 -0.11102784052E+03 -0.48536682050E+03  0.68375265054E+03  0.84582848080E+03  0.00000000000E+00 0. -1.
</event>
<event>
 8    1  0.6759491E-006  0.1116116E+04  0.7818608E-02  0.8679372E-01
         21   -1    0    0  503  502  0.00000000000E+00  0.00000000000E+00  0.13181486394E+04  0.13181486394E+04  0.00000000000E+00 0. -1.
         21   -1    0    0  501  503 -0.00000000000E+00 -0.00000000000E+00 -0.10364828724E+04  0.10364828724E+04  0.00000000000E+00 0. -1.
    9000010    2    1    2  501    0 -0.25001406058E+03  0.33398552834E+03  0.54134301692E+03  0.12404708799E+04  0.10352112723E+04 0.  0.
   -9000010    2    1    2    0  502  0.25001406058E+03 -0.33398552834E+03 -0.25967724992E+03  0.11141606320E+04  0.99993413587E+03 0.  0.
        -13    1    3    3    0    0  0.90315555867E+02 -0.30103952446E+03  0.39585875947E+03  0.50545609456E+03  0.10566000000E+00 0.  1.
         13    1    4    4    0    0 -0.12776716521E+03 -0.29976720906E+03  0.29675208509E+03  0.44073420482E+03  0.10566000000E+00 0. -1.
          4    1    3    3  501    0 -0.34032961645E+03  0.63502505280E+03  0.14548425745E+03  0.73501478535E+03  0.00000000000E+00 0.  1.
         -4    1    4    4    0  502  0.37778122579E+03 -0.34218319283E+02 -0.55642933500E+03  0.67342642715E+03  0.00000000000E+00 0. -1.
</event>
<event>
 8    1  0.6759491E-006  0.1032587E+04  0.7818608E-02  0.8752926E-01
         21   -1    0    0  503  502  0.00000000000E+00  0.00000000000E+00  0.15222280030E+04  0.15222280030E+04  0.00000000000E+00 0. -1.
         21   -1    0    0  501  503 -0.00000000000E+00 -0.00000000000E+00 -0.10006760814E+04  0.10006760814E+04  0.00000000000E+00 0. -1.
    9000010    2    1    2  501    0 -0.61734185564E+02  0.15850009263E+03 -0.45450502144E+03  0.11281890141E+04  0.10184803621E+04 0.  0.
   -9000010    2    1    2    0  502  0.61734185564E+02 -0.15850009263E+03  0.97605694310E+03  0.13947150704E+04  0.98163617613E+03 0.  0.
        -13    1    3    3    0    0 -0.13782005834E+02 -0.43430452518E+03 -0.23677507626E+03  0.49484625105E+03  0.10566000000E+00 0.  1.
         13    1    4    4    0    0 -0.28483070176E+03 -0.44318452454E+03  0.66738246551E+03  0.85025902988E+03  0.10566000000E+00 0. -1.
          4    1    3    3  501    0 -0.47952179730E+02  0.59280461781E+03 -0.21772994518E+03  0.63334276302E+03  0.00000000000E+00 0.  1.
         -4    1    4    4    0  502  0.34656488732E+03  0.28468443191E+03  0.30867447759E+03  0.54445604048E+03  0.00000000000E+00 0. -1.
</event>
<event>
 8    1  0.6759491E-006  0.1050195E+04  0.7818608E-02  0.8739147E-01
         21   -1    0    0  503  502  0.00000000000E+00  0.00000000000E+00  0.10030875490E+04  0.10030875490E+04  0.00000000000E+00 0.  1.
         21   -1    0    0  501  503 -0.00000000000E+00 -0.00000000000E+00 -0.14283723854E+04  0.14283723854E+04  0.00000000000E+00 0.  1.
    9000010    2    1    2  501    0  0.19839686587E+03 -0.64526637262E+02 -0.83288756401E+03  0.13049393104E+04  0.98266978500E+03 0.  0.
   -9000010    2    1    2    0  502 -0.19839686587E+03  0.64526637262E+02  0.40760272760E+03  0.11265206239E+04  0.10292636831E+04 0.  0.
        -13    1    3    3    0    0 -0.18701261779E+03  0.37259808789E+03 -0.28449031776E+03  0.50471556977E+03  0.10566000000E+00 0.  1.
         13    1    4    4    0    0 -0.52957812164E+03  0.32341890561E+03  0.16886205345E+03  0.64309189054E+03  0.10566000000E+00 0. -1.
          4    1    3    3  501    0  0.38540948366E+03 -0.43712472515E+03 -0.54839724625E+03  0.80022374067E+03  0.00000000000E+00 0.  1.
         -4    1    4    4    0  502  0.33118125576E+03 -0.25889226834E+03  0.23874067415E+03  0.48342873339E+03  0.00000000000E+00 0. -1.
</event>
<event>
 8    1  0.6759491E-006  0.1065680E+04  0.7818608E-02  0.8718346E-01
         21   -1    0    0  501  502  0.00000000000E+00  0.00000000000E+00  0.11190272096E+04  0.11190272096E+04  0.00000000000E+00 0. -1.
         21   -1    0    0  502  503 -0.00000000000E+00 -0.00000000000E+00 -0.10676159552E+04  0.10676159552E+04  0.00000000000E+00 0. -1.
    9000010    2    1    2  501    0  0.30199929209E+03 -0.14445632576E+03  0.29801988570E+03  0.10928013995E+04  0.99665833862E+03 0.  0.
   -9000010    2    1    2    0  503 -0.30199929209E+03  0.14445632576E+03 -0.24660863130E+03  0.10938417654E+04  0.10117325675E+04 0.  0.
        -13    1    3    3    0    0  0.46950284788E+02  0.35598697813E+03 -0.13496613041E+03  0.38359734796E+03  0.10566000000E+00 0.  1.
         13    1    4    4    0    0  0.31798504428E+03  0.87662429705E+02  0.14288304390E+03  0.35946455370E+03  0.10566000000E+00 0. -1.
          4    1    3    3  501    0  0.25504900730E+03 -0.50044330390E+03  0.43298601611E+03  0.70920405151E+03  0.00000000000E+00 0.  1.
         -4    1    4    4    0  503 -0.61998433636E+03  0.56793896058E+02 -0.38949167520E+03  0.73437721167E+03  0.00000000000E+00 0. -1.
</event>
<event>
 8    1  0.6759491E-006  0.1151954E+04  0.7818608E-02  0.8646292E-01
         21   -1    0    0  501  502  0.00000000000E+00  0.00000000000E+00  0.87004327154E+03  0.87004327154E+03  0.00000000000E+00 0. -1.
         21   -1    0    0  502  503 -0.00000000000E+00 -0.00000000000E+00 -0.17545509765E+04  0.17545509765E+04  0.00000000000E+00 0. -1.
    9000010    2    1    2  501    0  0.24963078748E+03  0.47783018040E+03 -0.93230288004E+03  0.14716486557E+04  0.10029575735E+04 0.  0.
   -9000010    2    1    2    0  503 -0.24963078748E+03 -0.47783018040E+03  0.47795175119E+02  0.11529455923E+04  0.10180186387E+04 0.  0.
        -13    1    3    3    0    0 -0.17770450139E+02  0.23648224937E+03 -0.10624890668E+04  0.10886333963E+04  0.10566000000E+00 0.  1.
         13    1    4    4    0    0 -0.19352927227E+03  0.30090341636E+03 -0.66434073200E+02  0.36388176988E+03  0.10566000000E+00 0. -1.
          4    1    3    3  501    0  0.26740123762E+03  0.24134793104E+03  0.13018618680E+03  0.38301525939E+03  0.00000000000E+00 0.  1.
         -4    1    4    4    0  503 -0.56101515203E+02 -0.77873359676E+03  0.11422924832E+03  0.78906382245E+03  0.00000000000E+00 0. -1.
</event>
<event>
 8    1  0.6759491E-006  0.1049845E+04  0.7818608E-02  0.8733347E-01
         21   -1    0    0  503  502  0.00000000000E+00  0.00000000000E+00  0.74722671892E+03  0.74722671892E+03  0.00000000000E+00 0. -1.
         21   -1    0    0  501  503 -0.00000000000E+00 -0.00000000000E+00 -0.17548354771E+04  0.17548354771E+04  0.00000000000E+00 0. -1.
    9000010    2    1    2  501    0 -0.23230155762E+03  0.15005950687E+03 -0.10226466148E+04  0.14521092493E+04  0.99314314376E+03 0.  0.
   -9000010    2    1    2    0  502  0.23230155762E+03 -0.15005950687E+03  0.15037856620E+02  0.10499529467E+04  0.10127651178E+04 0.  0.
        -13    1    3    3    0    0 -0.95799394741E+01  0.48064175949E+03 -0.92384065454E+03  0.10414364322E+04  0.10566000000E+00 0.  1.
         13    1    4    4    0    0  0.26413537146E+02  0.36724418927E+03 -0.23796098023E+03  0.43839640597E+03  0.10566000000E+00 0. -1.
          4    1    3    3  501    0 -0.22272161814E+03 -0.33058225262E+03 -0.98805960246E+02  0.41067281711E+03  0.00000000000E+00 0.  1.
         -4    1    4    4    0  502  0.20588802047E+03 -0.51730369614E+03  0.25299883685E+03  0.61155654069E+03  0.00000000000E+00 0. -1.
</event>
<event>
 8    1  0.6759491E-006  0.1099372E+04  0.7818608E-02  0.8689603E-01
         21   -1    0    0  501  502  0.00000000000E+00  0.00000000000E+00  0.72662533672E+03  0.72662533672E+03  0.00000000000E+00 0. -1.
         21   -1    0    0  502  503 -0.00000000000E+00 -0.00000000000E+00 -0.17405817594E+04  0.17405817594E+04  0.00000000000E+00 0. -1.
    9000010    2    1    2  501    0  0.99148948820E+02  0.43593448523E+03 -0.80558459050E+03  0.13629324394E+04  0.10043649299E+04 0.  0.
   -9000010    2    1    2    0  503 -0.99148948820E+02 -0.43593448523E+03 -0.20837183217E+03  0.11042746567E+04  0.98799509489E+03 0.  0.
        -13    1    3    3    0    0  0.11022960856E+03 -0.24365321951E+03 -0.59344375736E+03  0.65091701644E+03  0.10566000000E+00 0.  1.
         13    1    4    4    0    0 -0.12758297560E+02 -0.23724224127E+03 -0.60629899978E+03  0.65118748721E+03  0.10566000000E+00 0. -1.
          4    1    3    3  501    0 -0.11080659743E+02  0.67958770474E+03 -0.21214083314E+03  0.71201542296E+03  0.00000000000E+00 0.  1.
         -4    1    4    4    0  503 -0.86390651260E+02 -0.19869224396E+03  0.39792716761E+03  0.45308716949E+03  0.00000000000E+00 0. -1.
</event>
<event>
 7    1  0.6759491E-006  0.1355508E+04  0.7818608E-02  0.8497842E-01
         21   -1    0    0  503  502  0.00000000000E+00  0.00000000000E+00  0.25760730340E+04  0.25760730340E+04  0.00000000000E+00 0. -1.
         21   -1    0    0  501  503 -0.00000000000E+00 -0.00000000000E+00 -0.95327547169E+03  0.95327547169E+03  0.00000000000E+00 0. -1.
    9000010    2    1    2  501    0  0.66748331763E+03 -0.19572895375E+03 -0.12083953697E+03  0.12225228220E+04  0.99805613773E+03 0.  0.
        -13    1    3    3    0    0 -0.22058094576E+03  0.14399811599E+03  0.45601189038E+01  0.26346198376E+03  0.10566000000E+00 0.  1.
         13    1    1    2    0    0 -0.16230450765E+03  0.52880193058E+03  0.15886478379E+04  0.16821938648E+04  0.10566000000E+00 0. -1.
          4    1    3    3  501    0  0.88806426338E+03 -0.33972706974E+03 -0.12539965587E+03  0.95906083827E+03  0.00000000000E+00 0.  1.
         -4    1    1    2    0  502 -0.50517880998E+03 -0.33307297683E+03  0.15498926145E+03  0.62463181884E+03  0.00000000000E+00 0. -1.
</event>
<event>
 8    1  0.6759491E-006  0.1022674E+04  0.7818608E-02  0.8754507E-01
         21   -1    0    0  501  502  0.00000000000E+00  0.00000000000E+00  0.65591592805E+03  0.65591592805E+03  0.00000000000E+00 0. -1.
         21   -1    0    0  502  503 -0.00000000000E+00 -0.00000000000E+00 -0.17335144724E+04  0.17335144724E+04  0.00000000000E+00 0. -1.
    9000010    2    1    2  501    0 -0.35734254871E+02  0.99452999644E+01 -0.19383786382E+03  0.10408822277E+04  0.10220013936E+04 0.  0.
   -9000010    2    1    2    0  503  0.35734254871E+02 -0.99452999644E+01 -0.88376068053E+03  0.13485481728E+04  0.10179260228E+04 0.  0.
        -13    1    3    3    0    0 -0.34019051083E+03  0.29676076343E+03  0.17405944341E+03  0.48383182551E+03  0.10566000000E+00 0.  1.
         13    1    4    4    0    0  0.44296872799E+03 -0.20378879904E+03 -0.19475474503E+03  0.52505294063E+03  0.10566000000E+00 0. -1.
          4    1    3    3  501    0  0.30445625596E+03 -0.28681546346E+03 -0.36789730723E+03  0.55705040215E+03  0.00000000000E+00 0.  1.
         -4    1    4    4    0  503 -0.40723447312E+03  0.19384349908E+03 -0.68900593550E+03  0.82349523216E+03  0.00000000000E+00 0. -1.
</event>
<event>
 8    1  0.6759491E-006  0.1053182E+04  0.7818608E-02  0.8730754E-01
         21   -1    0    0  501  502  0.00000000000E+00  0.00000000000E+00  0.23686269132E+04  0.23686269132E+04  0.00000000000E+00 0. -1.
         21   -1    0    0  502  503 -0.00000000000E+00 -0.00000000000E+00 -0.72698525663E+03  0.72698525663E+03  0.00000000000E+00 0. -1.
    9000010    2    1    2  501    0  0.24470381244E+03 -0.12432541541E+03  0.17653333715E+04  0.20556248946E+04  0.10167866198E+04 0.  0.
   -9000010    2    1    2    0  503 -0.24470381244E+03  0.12432541541E+03 -0.12369171489E+03  0.10399872752E+04  0.99545825001E+03 0.  0.
        -13    1    3    3    0    0  0.24070512889E+03 -0.45938218154E+03  0.16000405242E+04  0.16819930553E+04  0.10566000000E+00 0.  1.
         13    1    4    4    0    0 -0.39270896984E+03  0.41365645251E+03  0.17702005598E+03  0.59721696818E+03  0.10566000000E+00 0. -1.
          4    1    3    3  501    0  0.39986835505E+01  0.33505676613E+03  0.16529284725E+03  0.37363183931E+03  0.00000000000E+00 0.  1.
         -4    1    4    4    0  503  0.14800515740E+03 -0.28933103710E+03 -0.30071177087E+03  0.44277030703E+03  0.00000000000E+00 0. -1.
</event>
<event>
 8    1  0.6759491E-006  0.1332458E+04  0.7818608E-02  0.8514542E-01
         21   -1    0    0  501  502  0.00000000000E+00  0.00000000000E+00  0.19839371181E+04  0.19839371181E+04  0.00000000000E+00 0.  1.
         21   -1    0    0  502  503 -0.00000000000E+00 -0.00000000000E+00 -0.12511559735E+04  0.12511559735E+04  0.00000000000E+00 0.  1.
    9000010    2    1    2  501    0  0.85417385000E+03 -0.13842849344E+03  0.12380249008E+04  0.18188321370E+04  0.10132468967E+04 0.  0.
   -9000010    2    1    2    0  503 -0.85417385000E+03  0.13842849344E+03 -0.50524375631E+03  0.14162609546E+04  0.10008738305E+04 0.  0.
        -13    1    3    3    0    0  0.13078361413E+03  0.40011927441E+03  0.49916880602E+03  0.65296959772E+03  0.10566000000E+00 0.  1.
         13    1    4    4    0    0 -0.98312622784E+03 -0.12805467209E+03 -0.52063035958E+03  0.11198174679E+04  0.10566000000E+00 0. -1.
          4    1    3    3  501    0  0.72339023586E+03 -0.53854776786E+03  0.73885609481E+03  0.11658625393E+04  0.00000000000E+00 0.  1.
         -4    1    4    4    0  503  0.12895237785E+03  0.26648316553E+03  0.15386603270E+02  0.29644348673E+03  0.00000000000E+00 0. -1.
</event>
<event>
 8    1  0.6759491E-006  0.1017444E+04  0.7818608E-02  0.8759878E-01
         21   -1    0    0  501  502  0.00000000000E+00  0.00000000000E+00  0.15203904886E+04  0.15203904886E+04  0.00000000000E+00 0.  1.
         21   -1    0    0  502  503 -0.00000000000E+00 -0.00000000000E+00 -0.87637946739E+03  0.87637946739E+03  0.00000000000E+00 0.  1.
    9000010    2    1    2  501    0 -0.18052490246E+03 -0.87973038609E+02  0.89509700180E+03  0.13551350849E+04  0.99742867399E+03 0.  0.
   -9000010    2    1    2    0  503  0.18052490246E+03  0.87973038609E+02 -0.25108598056E+03  0.10416348711E+04  0.99077269806E+03 0.  0.
        -13    1    3    3    0    0 -0.21891590523E+03 -0.38446720528E+03  0.95292778802E+03  0.10506239031E+04  0.10566000000E+00 0.  1.
         13    1    4    4    0    0 -0.53768337473E+02  0.33692819807E+03  0.25845815559E+03  0.42803302924E+03  0.10566000000E+00 0. -1.
          4    1    3    3  501    0  0.38391002769E+02  0.29649416667E+03 -0.57830786224E+02  0.30451118173E+03  0.00000000000E+00 0.  1.
         -4    1    4    4    0  503  0.23429323994E+03 -0.24895515946E+03 -0.50954413615E+03  0.61360184190E+03  0.00000000000E+00 0. -1.
</event>
<event>
 8    1  0.6759491E-006  0.1051584E+04  0.7818608E-02  0.8727858E-01
         21   -1    0    0  503  502  0.00000000000E+00  0.00000000000E+00  0.10978335568E+04  0.10978335568E+04  0.00000000000E+00 0. -1.
         21   -1    0    0  501  503 -0.00000000000E+00 -0.00000000000E+00 -0.10181965652E+04  0.10181965652E+04  0.00000000000E+00 0. -1.
    9000010    2    1    2  501    0  0.30106683638E+03  0.95071956214E+02  0.15531448103E+03  0.10629914284E+04  0.10030694253E+04 0.  0.
   -9000010    2    1    2    0  502 -0.30106683638E+03 -0.95071956214E+02 -0.75677489386E+02  0.10530386936E+04  0.10017402313E+04 0.  0.
        -13    1    3    3    0    0 -0.11422378380E+03 -0.14282561710E+03  0.46041744270E+03  0.49540938868E+03  0.10566000000E+00 0.  1.
         13    1    4    4    0    0  0.43322305564E+02 -0.91580459263E+02  0.42969079506E+03  0.44147252826E+03  0.10566000000E+00 0. -1.
          4    1    3    3  501    0  0.41529062018E+03  0.23789757331E+03 -0.30510296167E+03  0.56758203973E+03  0.00000000000E+00 0.  1.
         -4    1    4    4    0  502 -0.34438914194E+03 -0.34914969511E+01 -0.50536828445E+03  0.61156616532E+03  0.00000000000E+00 0. -1.
</event>
<event>
 8    1  0.6759491E-006  0.1016484E+04  0.7818608E-02  0.8759827E-01
         21   -1    0    0  503  502  0.00000000000E+00  0.00000000000E+00  0.56329549695E+03  0.56329549695E+03  0.00000000000E+00 0. -1.
         21   -1    0    0  501  503 -0.00000000000E+00 -0.00000000000E+00 -0.19060316537E+04  0.19060316537E+04  0.00000000000E+00 0. -1.
    9000010    2    1    2  501    0  0.12248865661E+03  0.81788293378E+02 -0.42525985975E+03  0.11018552129E+04  0.10057565143E+04 0.  0.
   -9000010    2    1    2    0  502 -0.12248865661E+03 -0.81788293378E+02 -0.91747629702E+03  0.13674719377E+04  0.10032566715E+04 0.  0.
        -13    1    3    3    0    0 -0.27813406259E+03 -0.21993712293E+03 -0.48062963844E+03  0.59727360173E+03  0.10566000000E+00 0.  1.
         13    1    4    4    0    0 -0.17410317207E+03 -0.23191338607E+03 -0.10929949018E+04  0.11308110362E+04  0.10566000000E+00 0. -1.
          4    1    3    3  501    0  0.40062271920E+03  0.30172541631E+03  0.55369778681E+02  0.50458161122E+03  0.00000000000E+00 0.  1.
         -4    1    4    4    0  502  0.51614515454E+02  0.15012509269E+03  0.17551860479E+03  0.23666090147E+03  0.00000000000E+00 0. -1.
</event>
<event>
 8    1  0.6759491E-006  0.1028229E+04  0.7818608E-02  0.8756476E-01
         21   -1    0    0  503  502  0.00000000000E+00  0.00000000000E+00  0.18987924807E+04  0.18987924807E+04  0.00000000000E+00 0.  1.
         21   -1    0    0  501  503 -0.00000000000E+00 -0.00000000000E+00 -0.74698274752E+03  0.74698274752E+03  0.00000000000E+00 0.  1.
    9000010    2    1    2  501    0 -0.99783903998E+01 -0.18259032403E+03 -0.11615494344E+03  0.10347689049E+04  0.10118378926E+04 0.  0.
   -9000010    2    1    2    0  502  0.99783903998E+01  0.18259032403E+03  0.12679646766E+04  0.16110063233E+04  0.97681531411E+03 0.  0.
        -13    1    3    3    0    0  0.29342184343E+03 -0.47625015335E+03 -0.21809454433E+03  0.60039639256E+03  0.10566000000E+00 0.  1.
         13    1    4    4    0    0 -0.46274584246E+03  0.22272976706E+03  0.74563630125E+03  0.90538155976E+03  0.10566000000E+00 0. -1.
          4    1    3    3  501    0 -0.30340023383E+03  0.29365982932E+03  0.10193960088E+03  0.43437251234E+03  0.00000000000E+00 0.  1.
         -4    1    4    4    0  502  0.47272423286E+03 -0.40139443029E+02  0.52232837536E+03  0.70562476355E+03  0.00000000000E+00 0. -1.
</event>
<event>
 8    1  0.6759491E-006  0.1056835E+04  0.7818608E-02  0.8724175E-01
         21   -1    0    0  503  502  0.00000000000E+00  0.00000000000E+00  0.11938312012E+04  0.11938312012E+04  0.00000000000E+00 0. -1.
         21   -1    0    0  501  503 -0.00000000000E+00 -0.00000000000E+00 -0.10127065516E+04  0.10127065516E+04  0.00000000000E+00 0. -1.
    9000010    2    1    2  501    0  0.70562067518E+02 -0.34101835319E+03 -0.22372673029E+03  0.10748113528E+04  0.99191394364E+03 0.  0.
   -9000010    2    1    2    0  502 -0.70562067518E+02  0.34101835319E+03  0.40485137985E+03  0.11317264001E+04  0.99781134602E+03 0.  0.
        -13    1    3    3    0    0 -0.32486170984E+02 -0.50660528713E+03  0.24753868405E+03  0.56478286051E+03  0.10566000000E+00 0.  1.
         13    1    4    4    0    0  0.23646913188E+03 -0.17967008676E+03  0.43476463205E+03  0.52651617910E+03  0.10566000000E+00 0. -1.
          4    1    3    3  501    0  0.10304823850E+03  0.16558693394E+03 -0.47126541434E+03  0.51002849225E+03  0.00000000000E+00 0.  1.
         -4    1    4    4    0  502 -0.30703119940E+03  0.52068843995E+03 -0.29913252203E+02  0.60521022096E+03  0.00000000000E+00 0. -1.
</event>
<event>
 8    1  0.6759491E-006  0.1099146E+04  0.7818608E-02  0.8691672E-01
         21   -1    0    0  501  502  0.00000000000E+00  0.00000000000E+00  0.13089095960E+04  0.13089095960E+04  0.00000000000E+00 0.  1.
         21   -1    0    0  502  503 -0.00000000000E+00 -0.00000000000E+00 -0.95618431577E+03  0.95618431577E+03  0.00000000000E+00 0.  1.
    9000010    2    1    2  501    0 -0.33525518450E+03 -0.19467851015E+03  0.44120135362E+03  0.11623924655E+04  0.10030961311E+04 0.  0.
   -9000010    2    1    2    0  503  0.33525518450E+03  0.19467851015E+03 -0.88476073349E+02  0.11027014464E+04  0.10285070263E+04 0.  0.
        -13    1    3    3    0    0  0.31860025116E+03  0.12322484061E+03  0.81270754520E+02  0.35113448718E+03  0.10566000000E+00 0.  1.
         13    1    4    4    0    0 -0.12538831439E+03 -0.15036827182E+03  0.33509174691E+03  0.38809707106E+03  0.10566000000E+00 0. -1.
          4    1    3    3  501    0 -0.65385543566E+03 -0.31790335076E+03  0.35993059910E+03  0.81125797829E+03  0.00000000000E+00 0.  1.
         -4    1    4    4    0  503  0.46064349889E+03  0.34504678197E+03 -0.42356782026E+03  0.71460437529E+03  0.00000000000E+00 0. -1.
</event>
<event>
 8    1  0.6759491E-006  0.1035260E+04  0.7818608E-02  0.8745418E-01
         21   -1    0    0  503  502  0.00000000000E+00  0.00000000000E+00  0.65709420114E+03  0.65709420114E+03  0.00000000000E+00 0. -1.
         21   -1    0    0  501  503 -0.00000000000E+00 -0.00000000000E+00 -0.16620560392E+04  0.16620560392E+04  0.00000000000E+00 0. -1.
    9000010    2    1    2  501    0  0.28812311919E+03  0.34597781946E+02 -0.71413539695E+03  0.12576775335E+04  0.99375624517E+03 0.  0.
   -9000010    2    1    2    0  502 -0.28812311919E+03 -0.34597781946E+02 -0.29082644113E+03  0.10614727068E+04  0.97874018523E+03 0.  0.
        -13    1    3    3    0    0 -0.32363821481E+03  0.95618677112E+02 -0.31398393119E+02  0.33892550178E+03  0.10566000000E+00 0.  1.
         13    1    4    4    0    0  0.16389962533E+03  0.37504838457E+03 -0.88393775614E+02  0.41873362497E+03  0.10566000000E+00 0. -1.
          4    1    3    3  501    0  0.61176133400E+03 -0.61020895166E+02 -0.68273700383E+03  0.91875203174E+03  0.00000000000E+00 0.  1.
         -4    1    4    4    0  502 -0.45202274452E+03 -0.40964616651E+03 -0.20243266552E+03  0.64273908187E+03  0.00000000000E+00 0. -1.
</event>
<event>
 8    1  0.6759491E-006  0.1003353E+04  0.7818608E-02  0.8775034E-01
         21   -1    0    0  501  502  0.00000000000E+00  0.00000000000E+00  0.63008187655E+03  0.63008187655E+03  0.00000000000E+00 0. -1.
         21   -1    0    0  502  503 -0.00000000000E+00 -0.00000000000E+00 -0.16422002940E+04  0.16422002940E+04  0.00000000000E+00 0. -1.
    9000010    2    1    2  501    0  0.13688154072E+02 -0.37621067125E+02 -0.27761170631E+03  0.10410499270E+04  0.10025537296E+04 0.  0.
   -9000010    2    1    2    0  503 -0.13688154072E+02  0.37621067125E+02 -0.73450671119E+03  0.12312322436E+04  0.98733480571E+03 0.  0.
        -13    1    3    3    0    0 -0.28250699566E+03  0.26088903873E+03  0.17564725654E+03  0.42275910756E+03  0.10566000000E+00 0.  1.
         13    1    4    4    0    0 -0.21173242645E+03  0.42296018066E+03 -0.62599226097E+03  0.78459687534E+03  0.10566000000E+00 0. -1.
          4    1    3    3  501    0  0.29619514973E+03 -0.29851010586E+03 -0.45325896285E+03  0.61829081946E+03  0.00000000000E+00 0.  1.
         -4    1    4    4    0  503  0.19804427238E+03 -0.38533911354E+03 -0.10851445022E+03  0.44663536823E+03  0.00000000000E+00 0. -1.
</event>
<event>
 8    1  0.6759491E-006  0.1002861E+04  0.7818608E-02  0.8773784E-01
         21   -1    0    0  501  502  0.00000000000E+00  0.00000000000E+00  0.12417566129E+04  0.12417566129E+04  0.00000000000E+00 0.  1.
         21   -1    0    0  502  503 -0.00000000000E+00 -0.00000000000E+00 -0.95089077672E+03  0.95089077672E+03  0.00000000000E+00 0.  1.
    9000010    2    1    2  501    0  0.15510516174E+03 -0.17777239006E+03  0.57657460806E+03  0.11498816914E+04  0.96650348772E+03 0.  0.
   -9000010    2    1    2    0  503 -0.15510516174E+03  0.17777239006E+03 -0.28570877184E+03  0.10427656982E+04  0.97471542783E+03 0.  0.
        -13    1    3    3    0    0 -0.15359681918E+03 -0.41827953597E+03  0.61191109386E+03  0.75695769434E+03  0.10566000000E+00 0.  1.
         13    1    4    4    0    0 -0.70816945281E+02  0.11197538540E+02  0.36182389110E+03  0.36885900279E+03  0.10566000000E+00 0. -1.
          4    1    3    3  501    0  0.30870198093E+03  0.24050714591E+03 -0.35336485798E+02  0.39292399709E+03  0.00000000000E+00 0.  1.
         -4    1    4    4    0  503 -0.84288216464E+02  0.16657485152E+03 -0.64753266294E+03  0.67390669544E+03  0.00000000000E+00 0. -1.
</event>
<event>
 8    1  0.6759491E-006  0.1104957E+04  0.7818608E-02  0.8686850E-01
         21   -1    0    0  501  502  0.00000000000E+00  0.00000000000E+00  0.14995204384E+04  0.14995204384E+04  0.00000000000E+00 0. -1.
         21   -1    0    0  502  503 -0.00000000000E+00 -0.00000000000E+00 -0.84585323378E+03  0.84585323378E+03  0.00000000000E+00 0. -1.
    9000010    2    1    2  501    0  0.10882551313E+03  0.40177553088E+03  0.61319271696E+03  0.12636988541E+04  0.10235540612E+04 0.  0.
   -9000010    2    1    2    0  503 -0.10882551313E+03 -0.40177553088E+03  0.40474487669E+02  0.10816748181E+04  0.99755483982E+03 0.  0.
        -13    1    3    3    0    0 -0.17743618240E+03 -0.12670781496E+03  0.62563346616E+03  0.66253733052E+03  0.10566000000E+00 0.  1.
         13    1    4    4    0    0  0.16823282042E+03 -0.64126988307E+03 -0.13342279556E+03  0.67626252176E+03  0.10566000000E+00 0. -1.
          4    1    3    3  501    0  0.28626169553E+03  0.52848334584E+03 -0.12440749201E+02  0.60116152355E+03  0.00000000000E+00 0.  1.
         -4    1    4    4    0  503 -0.27705833355E+03  0.23949435218E+03  0.17389728323E+03  0.40541229635E+03  0.00000000000E+00 0. -1.
</event>
<event>
 8    1  0.6759491E-006  0.1060586E+04  0.7818608E-02  0.8722913E-01
         21   -1    0    0  503  502  0.00000000000E+00  0.00000000000E+00  0.93772444182E+03  0.93772444182E+03  0.00000000000E+00 0. -1.
         21   -1    0    0  501  503 -0.00000000000E+00 -0.00000000000E+00 -0.13516059291E+04  0.13516059291E+04  0.00000000000E+00 0. -1.
    9000010    2    1    2  501    0 -0.25401494311E+03  0.16899151701E+03 -0.61260457676E+03  0.12247964349E+04  0.10157559821E+04 0.  0.
   -9000010    2    1    2    0  502  0.25401494311E+03 -0.16899151701E+03  0.19872308949E+03  0.10645339360E+04  0.10003299009E+04 0.  0.
        -13    1    3    3    0    0 -0.19744117652E+03 -0.32814820508E+03  0.58804602836E+02  0.38745613321E+03  0.10566000000E+00 0.  1.
         13    1    4    4    0    0  0.78220831220E+02  0.18867852690E+03 -0.33866627999E+03  0.39549076515E+03  0.10566000000E+00 0. -1.
          4    1    3    3  501    0 -0.56573766582E+02  0.49713972209E+03 -0.67140917960E+03  0.83734030166E+03  0.00000000000E+00 0.  1.
         -4    1    4    4    0  502  0.17579411189E+03 -0.35767004391E+03  0.53738936948E+03  0.66904317089E+03  0.00000000000E+00 0. -1.
</event>
<event>
 8    1  0.6759491E-006  0.1128349E+04  0.7818608E-02  0.8666590E-01
         21   -1    0    0  503  502  0.00000000000E+00  0.00000000000E+00  0.22264365397E+04  0.22264365397E+04  0.00000000000E+00 0. -1.
         21   -1    0    0  501  503 -0.00000000000E+00 -0.00000000000E+00 -0.97128106199E+03  0.97128106199E+03  0.00000000000E+00 0. -1.
    9000010    2    1    2  501    0 -0.45477588765E+03  0.23275642779E+03 -0.40719218640E+03  0.11995732204E+04  0.10060684727E+04 0.  0.
   -9000010    2    1    2    0  502  0.45477588765E+03 -0.23275642779E+03  0.16623476641E+04  0.19981443812E+04  0.98396369312E+03 0.  0.
        -13    1    3    3    0    0 -0.11362958823E+03  0.49820707041E+03 -0.54382672066E+03  0.74623688035E+03  0.10566000000E+00 0.  1.
         13    1    4    4    0    0  0.20160299606E+03  0.25742475020E+03  0.12942592143E+04  0.13349225427E+04  0.10566000000E+00 0. -1.
          4    1    3    3  501    0 -0.34114629942E+03 -0.26545064262E+03  0.13663453426E+03  0.45333634007E+03  0.00000000000E+00 0.  1.
         -4    1    4    4    0  502  0.25317289159E+03 -0.49018117799E+03  0.36808844981E+03  0.66322183858E+03  0.00000000000E+00 0. -1.
</event>
<event>
 8    1  0.6759491E-006  0.1007713E+04  0.7818608E-02  0.8767789E-01
         21   -1    0    0  501  502  0.00000000000E+00  0.00000000000E+00  0.96982399587E+03  0.96982399587E+03  0.00000000000E+00 0. -1.
         21   -1    0    0  502  503 -0.00000000000E+00 -0.00000000000E+00 -0.11671717462E+04  0.11671717462E+04  0.00000000000E+00 0. -1.
    9000010    2    1    2  501    0 -0.50598023121E+02 -0.11506921851E+02  0.24658850639E+03  0.10374441653E+04  0.10063756433E+04 0.  0.
   -9000010    2    1    2    0  503  0.50598023121E+02  0.11506921851E+02 -0.44393625675E+03  0.10995515768E+04  0.10046102233E+04 0.  0.
        -13    1    3    3    0    0 -0.35978785138E+03  0.21992580703E+03  0.43662884856E+03  0.60700858409E+03  0.10566000000E+00 0.  1.
         13    1    4    4    0    0 -0.14736258380E+03  0.14616047699E+03 -0.71112205446E+03  0.74079228103E+03  0.10566000000E+00 0. -1.
          4    1    3    3  501    0  0.30918982826E+03 -0.23143272888E+03 -0.19004034217E+03  0.43043558119E+03  0.00000000000E+00 0.  1.
         -4    1    4    4    0  503  0.19796060692E+03 -0.13465355514E+03  0.26718579771E+03  0.35875929577E+03  0.00000000000E+00 0. -1.
</event>
<event>
 8    1  0.6759491E-006  0.1049865E+04  0.7818608E-02  0.8733339E-01
         21   -1    0    0  503  502  0.00000000000E+00  0.00000000000E+00  0.15949222002E+04  0.15949222002E+04  0.00000000000E+00 0. -1.
         21   -1    0    0  501  503 -0.00000000000E+00 -0.00000000000E+00 -0.70676232379E+03  0.70676232379E+03  0.00000000000E+00 0. -1.
    9000010    2    1    2  501    0  0.17117203435E+03  0.17482976341E+03  0.21070452672E+03  0.10522198757E+04  0.10014514256E+04 0.  0.
   -9000010    2    1    2    0  502 -0.17117203435E+03 -0.17482976341E+03  0.67745534969E+03  0.12494646482E+04  0.10209558486E+04 0.  0.
        -13    1    3    3    0    0 -0.30706867480E+03 -0.27799774289E+01  0.40331516295E+03  0.50691422464E+03  0.10566000000E+00 0.  1.
         13    1    4    4    0    0 -0.29295980218E+03 -0.42288527950E+03 -0.36217191496E+01  0.51446140120E+03  0.10566000000E+00 0. -1.
          4    1    3    3  501    0  0.47824070915E+03  0.17760974084E+03 -0.19261063623E+03  0.54530565110E+03  0.00000000000E+00 0.  1.
         -4    1    4    4    0  502  0.12178776783E+03  0.24805551609E+03  0.68107706884E+03  0.73500324704E+03  0.00000000000E+00 0. -1.
</event>
<event>
 8    1  0.6759491E-006  0.1050369E+04  0.7818608E-02  0.8734632E-01
         21   -1    0    0  503  502  0.00000000000E+00  0.00000000000E+00  0.42807352461E+03  0.42807352461E+03  0.00000000000E+00 0.  1.
         21   -1    0    0  501  503 -0.00000000000E+00 -0.00000000000E+00 -0.26368843151E+04  0.26368843151E+04  0.00000000000E+00 0.  1.
    9000010    2    1    2  501    0 -0.29768616529E+03  0.59864810624E+01 -0.14509633413E+04  0.17912478252E+04  0.10072841023E+04 0.  0.
   -9000010    2    1    2    0  502  0.29768616529E+03 -0.59864810624E+01 -0.75784744920E+03  0.12737100145E+04  0.97946493237E+03 0.  0.
        -13    1    3    3    0    0 -0.53310248516E+03 -0.18165073623E+03 -0.38156729623E+03  0.68028586813E+03  0.10566000000E+00 0.  1.
         13    1    4    4    0    0  0.29015713787E+03  0.44960268548E+03 -0.24754908870E+03  0.58958824779E+03  0.10566000000E+00 0. -1.
          4    1    3    3  501    0  0.23541631988E+03  0.18763721729E+03 -0.10693960451E+04  0.11109619571E+04  0.00000000000E+00 0.  1.
         -4    1    4    4    0  502  0.75290274140E+01 -0.45558916654E+03 -0.51029836051E+03  0.68412176669E+03  0.00000000000E+00 0. -1.
</event>
<event>
 8    1  0.6759491E-006  0.1016299E+04  0.7818608E-02  0.8762734E-01
         21   -1    0    0  503  502  0.00000000000E+00  0.00000000000E+00  0.62498786128E+03  0.62498786128E+03  0.00000000000E+00 0.  1.
         21   -1    0    0  501  503 -0.00000000000E+00 -0.00000000000E+00 -0.16489515266E+04  0.16489515266E+04  0.00000000000E+00 0.  1.
    9000010    2    1    2  501    0  0.54326710827E+02  0.78289197936E+02 -0.39212322543E+03  0.10893232586E+04  0.10118220930E+04 0.  0.
   -9000010    2    1    2    0  502 -0.54326710827E+02 -0.78289197936E+02 -0.63184043994E+03  0.11846161293E+04  0.99750310385E+03 0.  0.
        -13    1    3    3    0    0 -0.13696755157E+03  0.43804985332E+03 -0.48885402026E+03  0.67054160831E+03  0.10566000000E+00 0.  1.
         13    1    4    4    0    0 -0.24849104399E+03  0.16038065008E+03  0.15917796417E+03  0.33586810999E+03  0.10566000000E+00 0. -1.
          4    1    3    3  501    0  0.19129426240E+03 -0.35976065539E+03  0.96730794838E+02  0.41878165034E+03  0.00000000000E+00 0.  1.
         -4    1    4    4    0  502  0.19416433316E+03 -0.23866984802E+03 -0.79101840411E+03  0.84874801930E+03  0.00000000000E+00 0. -1.
</event>
<event>
 8    1  0.6759491E-006  0.1029838E+04  0.7818608E-02  0.8749201E-01
         21   -1    0    0  501  502  0.00000000000E+00  0.00000000000E+00  0.23874696339E+04  0.23874696339E+04  0.00000000000E+00 0. -1.
         21   -1    0    0  502  503 -0.00000000000E+00 -0.00000000000E+00 -0.45688874987E+03  0.45688874987E+03  0.00000000000E+00 0. -1.
    9000010    2    1    2  501    0 -0.21303717411E+02 -0.20713819028E+03  0.69743838852E+03  0.12437793058E+04  0.10085665955E+04 0.  0.
   -9000010    2    1    2    0  503  0.21303717411E+02  0.20713819028E+03  0.12331424955E+04  0.16005790780E+04  0.99892586928E+03 0.  0.
        -13    1    3    3    0    0 -0.34455526246E+03 -0.48767099143E+03  0.34705199802E+03  0.69064203844E+03  0.10566000000E+00 0.  1.
         13    1    4    4    0    0 -0.46162205160E+03  0.26448598898E+03  0.59339046648E+03  0.79696926776E+03  0.10566000000E+00 0. -1.
          4    1    3    3  501    0  0.32325154505E+03  0.28053280116E+03  0.35038639050E+03  0.55313726736E+03  0.00000000000E+00 0.  1.
         -4    1    4    4    0  503  0.48292576901E+03 -0.57347798701E+02  0.63975202903E+03  0.80360981020E+03  0.00000000000E+00 0. -1.
</event>
<event>
 8    1  0.6759491E-006  0.1169498E+04  0.7818608E-02  0.8631444E-01
         21   -1    0    0  503  502  0.00000000000E+00  0.00000000000E+00  0.97702743314E+03  0.97702743314E+03  0.00000000000E+00 0. -1.
         21   -1    0    0  501  503 -0.00000000000E+00 -0.00000000000E+00 -0.19456988249E+04  0.19456988249E+04  0.00000000000E+00 0. -1.
    9000010    2    1    2  501    0  0.49882535404E+03 -0.31421631696E+03 -0.12638697452E+04  0.17165476524E+04  0.10008049173E+04 0.  0.
   -9000010    2    1    2    0  502 -0.49882535404E+03  0.31421631696E+03  0.29519835339E+03  0.12061786057E+04  0.10100327387E+04 0.  0.
        -13    1    3    3    0    0  0.75718977926E+03 -0.40283507010E+03 -0.11109851367E+04  0.14035314178E+04  0.10566000000E+00 0.  1.
         13    1    4    4    0    0 -0.79130581636E+03  0.81199642956E+02  0.20747879250E+03  0.82207404626E+03  0.10566000000E+00 0. -1.
          4    1    3    3  501    0 -0.25836442522E+03  0.88618753136E+02 -0.15288460851E+03  0.31301623464E+03  0.00000000000E+00 0.  1.
         -4    1    4    4    0  502  0.29248046232E+03  0.23301667401E+03  0.87719560892E+02  0.38410455942E+03  0.00000000000E+00 0. -1.
</event>
<event>
 8    1  0.6759491E-006  0.1037555E+04  0.7818608E-02  0.8758397E-01
         21   -1    0    0  503  502  0.00000000000E+00  0.00000000000E+00  0.26297718163E+04  0.26297718163E+04  0.00000000000E+00 0.  1.
         21   -1    0    0  501  503 -0.00000000000E+00 -0.00000000000E+00 -0.43383301138E+03  0.43383301138E+03  0.00000000000E+00 0.  1.
    9000010    2    1    2  501    0  0.18721844985E+02  0.20881332729E+03  0.59170401419E+03  0.11944180548E+04  0.10161532050E+04 0.  0.
   -9000010    2    1    2    0  502 -0.18721844985E+02 -0.20881332729E+03  0.16042347907E+04  0.18691867729E+04  0.93612841804E+03 0.  0.
        -13    1    3    3    0    0  0.49134960164E+03  0.14172866568E+03  0.48601292339E+03  0.70549274877E+03  0.10566000000E+00 0.  1.
         13    1    4    4    0    0 -0.56897547115E+02  0.31338147176E+03  0.21425562888E+03  0.38386294869E+03  0.10566000000E+00 0. -1.
          4    1    3    3  501    0 -0.47262775665E+03  0.67084661604E+02  0.10569109081E+03  0.48892530601E+03  0.00000000000E+00 0.  1.
         -4    1    4    4    0  502  0.38175702130E+02 -0.52219479904E+03  0.13899791619E+04  0.14853238242E+04  0.00000000000E+00 0. -1.
</event>
<event>
 8    1  0.6759491E-006  0.1027586E+04  0.7818608E-02  0.8754539E-01
         21   -1    0    0  503  502  0.00000000000E+00  0.00000000000E+00  0.97484758282E+03  0.97484758282E+03  0.00000000000E+00 0.  1.
         21   -1    0    0  501  503 -0.00000000000E+00 -0.00000000000E+00 -0.13605448941E+04  0.13605448941E+04  0.00000000000E+00 0.  1.
    9000010    2    1    2  501    0  0.21418770007E+03 -0.21935892363E+03 -0.74136190485E+03  0.12479965806E+04  0.95597242793E+03 0.  0.
   -9000010    2    1    2    0  502 -0.21418770007E+03  0.21935892363E+03  0.35566459354E+03  0.10873958964E+04  0.98078429029E+03 0.  0.
        -13    1    3    3    0    0  0.50822579077E+03 -0.35906103666E+03 -0.67064169841E+03  0.91486533504E+03  0.10566000000E+00 0.  1.
         13    1    4    4    0    0 -0.24080880587E+03  0.32169131854E+03  0.65583214710E+03  0.76914888139E+03  0.10566000000E+00 0. -1.
          4    1    3    3  501    0 -0.29403809070E+03  0.13970211303E+03 -0.70720206443E+02  0.33313124555E+03  0.00000000000E+00 0.  1.
         -4    1    4    4    0  502  0.26621105800E+02 -0.10233239491E+03 -0.30016755356E+03  0.31824701497E+03  0.00000000000E+00 0. -1.
</event>
<event>
 8    1  0.6759491E-006  0.1024554E+04  0.7818608E-02  0.8754150E-01
         21   -1    0    0  501  502  0.00000000000E+00  0.00000000000E+00  0.41717497286E+03  0.41717497286E+03  0.00000000000E+00 0. -1.
         21   -1    0    0  502  503 -0.00000000000E+00 -0.00000000000E+00 -0.25095870469E+04  0.25095870469E+04  0.00000000000E+00 0. -1.
    9000010    2    1    2  501    0  0.31566449200E+02 -0.25807837373E+03 -0.11747159853E+04  0.15587396519E+04  0.99101501939E+03 0.  0.
   -9000010    2    1    2    0  503 -0.31566449200E+02  0.25807837373E+03 -0.91769608876E+03  0.13680223679E+04  0.98067232036E+03 0.  0.
        -13    1    3    3    0    0  0.21645999405E+02  0.24388091424E+03 -0.99626738655E+03  0.10259118706E+04  0.10566000000E+00 0.  1.
         13    1    4    4    0    0  0.44956494142E+03 -0.30028658665E+02 -0.35527211975E+03  0.57378449537E+03  0.10566000000E+00 0. -1.
          4    1    3    3  501    0  0.99204497943E+01 -0.50195928797E+03 -0.17844859870E+03  0.53282778126E+03  0.00000000000E+00 0.  1.
         -4    1    4    4    0  503 -0.48113139062E+03  0.28810703240E+03 -0.56242396902E+03  0.79423787248E+03  0.00000000000E+00 0. -1.
</event>
<event>
 8    1  0.6759491E-006  0.1094482E+04  0.7818608E-02  0.8699886E-01
         21   -1    0    0  503  502  0.00000000000E+00  0.00000000000E+00  0.86118597888E+03  0.86118597888E+03  0.00000000000E+00 0.  1.
         21   -1    0    0  501  503 -0.00000000000E+00 -0.00000000000E+00 -0.14879101480E+04  0.14879101480E+04  0.00000000000E+00 0.  1.
    9000010    2    1    2  501    0 -0.32522829014E+03 -0.28762096180E+00  0.55667991567E+02  0.10958966164E+04  0.10450439919E+04 0.  0.
   -9000010    2    1    2    0  502  0.32522829014E+03  0.28762096180E+00 -0.68239216068E+03  0.12531995105E+04  0.99953810769E+03 0.  0.
        -13    1    3    3    0    0 -0.58196588546E+03 -0.29485871248E+03  0.19520618020E+03  0.68097827874E+03  0.10566000000E+00 0.  1.
         13    1    4    4    0    0  0.53649989391E+03  0.28652818373E+03 -0.65883110102E+03  0.89665431860E+03  0.10566000000E+00 0. -1.
          4    1    3    3  501    0  0.25673759532E+03  0.29457109152E+03 -0.13953818863E+03  0.41491833763E+03  0.00000000000E+00 0.  1.
         -4    1    4    4    0  502 -0.21127160377E+03 -0.28624056277E+03 -0.23561059655E+02  0.35654519189E+03  0.00000000000E+00 0. -1.
</event>
<event>
 8    1  0.6759491E-006  0.1029717E+04  0.7818608E-02  0.8759572E-01
         21   -1    0    0  503  502  0.00000000000E+00  0.00000000000E+00  0.25762107672E+04  0.25762107672E+04  0.00000000000E+00 0. -1.
         21   -1    0    0  501  503 -0.00000000000E+00 -0.00000000000E+00 -0.40573792665E+03  0.40573792665E+03  0.00000000000E+00 0. -1.
    9000010    2    1    2  501    0  0.86478892365E+02  0.15478007501E+03  0.76938576902E+03  0.12431666390E+04  0.96024651017E+03 0.  0.
   -9000010    2    1    2    0  502 -0.86478892365E+02 -0.15478007501E+03  0.14010870715E+04  0.17387820548E+04  0.10143384947E+04 0.  0.
        -13    1    3    3    0    0  0.34439354664E+01 -0.10175893374E+03 -0.20675647816E+03  0.23046690373E+03  0.10566000000E+00 0.  1.
         13    1    4    4    0    0  0.38631114533E+03 -0.27660189205E+03  0.38517717196E+03  0.61164235682E+03  0.10566000000E+00 0. -1.
          4    1    3    3  501    0  0.83034956898E+02  0.25653900875E+03  0.97614224718E+03  0.10126997353E+04  0.00000000000E+00 0.  1.
         -4    1    4    4    0  502 -0.47279003769E+03  0.12182181704E+03  0.10159098995E+04  0.11271396980E+04  0.00000000000E+00 0. -1.
</event>
<event>
 8    1  0.6759491E-006  0.1036393E+04  0.7818608E-02  0.8742758E-01
         21   -1    0    0  503  502  0.00000000000E+00  0.00000000000E+00  0.12838014161E+04  0.12838014161E+04  0.00000000000E+00 0.  1.
         21   -1    0    0  501  503 -0.00000000000E+00 -0.00000000000E+00 -0.84702414730E+03  0.84702414730E+03  0.00000000000E+00 0.  1.
    9000010    2    1    2  501    0 -0.16592262206E+01  0.16948694973E+03  0.70413241970E+02  0.10315833549E+04  0.10151244329E+04 0.  0.
   -9000010    2    1    2    0  502  0.16592262206E+01 -0.16948694973E+03  0.36636402685E+03  0.10992422085E+04  0.10224393643E+04 0.  0.
        -13    1    3    3    0    0 -0.50533145330E+03  0.13354320489E+03  0.75647268592E+01  0.52273406387E+03  0.10566000000E+00 0.  1.
         13    1    4    4    0    0  0.47009749733E+03  0.10366498463E+03  0.25832412385E+03  0.54632357643E+03  0.10566000000E+00 0. -1.
          4    1    3    3  501    0  0.50367222708E+03  0.35943744835E+02  0.62848515111E+02  0.50884929103E+03  0.00000000000E+00 0.  1.
         -4    1    4    4    0  502 -0.46843827111E+03 -0.27315193436E+03  0.10803990299E+03  0.55291863210E+03  0.00000000000E+00 0. -1.
</event>
<event>
 8    1  0.6759491E-006  0.1028101E+04  0.7818608E-02  0.8752756E-01
         21   -1    0    0  503  502  0.00000000000E+00  0.00000000000E+00  0.85095776395E+03  0.85095776395E+03  0.00000000000E+00 0. -1.
         21   -1    0    0  501  503 -0.00000000000E+00 -0.00000000000E+00 -0.20781319240E+04  0.20781319240E+04  0.00000000000E+00 0. -1.
    9000010    2    1    2  501    0  0.35671660764E+02  0.21729521197E+03  0.32407196728E+03  0.10779677627E+04  0.10042420927E+04 0.  0.
   -9000010    2    1    2    0  502 -0.35671660764E+02 -0.21729521197E+03 -0.15512461274E+04  0.18511219253E+04  0.98579823405E+03 0.  0.
        -13    1    3    3    0    0 -0.41259027451E+03  0.54969956857E+02 -0.11288159887E+03  0.43127102535E+03  0.10566000000E+00 0.  1.
         13    1    4    4    0    0 -0.10057438941E+03 -0.37289489856E+03 -0.16226873707E+04  0.16680168246E+04  0.10566000000E+00 0. -1.
          4    1    3    3  501    0  0.44826193528E+03  0.16232525511E+03  0.43695356615E+03  0.64669673730E+03  0.00000000000E+00 0.  1.
         -4    1    4    4    0  502  0.64902728643E+02  0.15559968659E+03  0.71441243313E+02  0.18310510069E+03  0.00000000000E+00 0. -1.
</event>
<event>
 8    1  0.6759491E-006  0.1049804E+04  0.7818608E-02  0.8736116E-01
         21   -1    0    0  501  502  0.00000000000E+00  0.00000000000E+00  0.14080549280E+04  0.14080549280E+04  0.00000000000E+00 0. -1.
         21   -1    0    0  502  503 -0.00000000000E+00 -0.00000000000E+00 -0.10517942011E+04  0.10517942011E+04  0.00000000000E+00 0. -1.
    9000010    2    1    2  501    0 -0.54239798138E+02  0.15579247595E+03  0.82803671790E+03  0.13370610545E+04  0.10367614026E+04 0.  0.
   -9000010    2    1    2    0  503  0.54239798138E+02 -0.15579247595E+03 -0.47177599104E+03  0.11227880746E+04  0.10054189293E+04 0.  0.
        -13    1    3    3    0    0 -0.21563427455E+03 -0.23390061327E+03  0.85713196083E+03  0.91426628872E+03  0.10566000000E+00 0.  1.
         13    1    4    4    0    0 -0.38694473913E+03  0.15465330224E+03 -0.40169106760E+03  0.57879149958E+03  0.10566000000E+00 0. -1.
          4    1    3    3  501    0  0.16139447641E+03  0.38969308921E+03 -0.29095242933E+02  0.42279476576E+03  0.00000000000E+00 0.  1.
         -4    1    4    4    0  503  0.44118453727E+03 -0.31044577818E+03 -0.70084923440E+02  0.54399657500E+03  0.00000000000E+00 0. -1.
</event>
<event>
 8    1  0.6759491E-006  0.1164554E+04  0.7818608E-02  0.8637462E-01
         21   -1    0    0  501  502  0.00000000000E+00  0.00000000000E+00  0.20435634745E+04  0.20435634745E+04  0.00000000000E+00 0. -1.
         21   -1    0    0  502  503 -0.00000000000E+00 -0.00000000000E+00 -0.81994390525E+03  0.81994390525E+03  0.00000000000E+00 0. -1.
    9000010    2    1    2  501    0  0.41583760204E+03 -0.37173969801E+03  0.12619739649E+04  0.17171964377E+04  0.10222886105E+04 0.  0.
   -9000010    2    1    2    0  503 -0.41583760204E+03  0.37173969801E+03 -0.38354395684E+02  0.11463109420E+04  0.10007229396E+04 0.  0.
        -13    1    3    3    0    0  0.16147720731E+03  0.81993506893E+02 -0.13541681714E+03  0.22613170760E+03  0.10566000000E+00 0.  1.
         13    1    4    4    0    0  0.17743166973E+03 -0.66105617125E+02 -0.30771714724E+03  0.36130569316E+03  0.10566000000E+00 0. -1.
          4    1    3    3  501    0  0.25436039472E+03 -0.45373320490E+03  0.13973907820E+04  0.14910647301E+04  0.00000000000E+00 0.  1.
         -4    1    4    4    0  503 -0.59326927177E+03  0.43784531513E+03  0.26936275155E+03  0.78500524885E+03  0.00000000000E+00 0. -1.
</event>
<event>
 8    1  0.6759491E-006  0.1079632E+04  0.7818608E-02  0.8706341E-01
         21   -1    0    0  501  502  0.00000000000E+00  0.00000000000E+00  0.22036244956E+04  0.22036244956E+04  0.00000000000E+00 0. -1.
         21   -1    0    0  502  503 -0.00000000000E+00 -0.00000000000E+00 -0.57980731915E+03  0.57980731915E+03  0.00000000000E+00 0. -1.
    9000010    2    1    2  501    0 -0.32429157778E+03 -0.18874447988E+03  0.36659634100E+03  0.11262628518E+04  0.99663715968E+03 0.  0.
   -9000010    2    1    2    0  503  0.32429157778E+03  0.18874447988E+03  0.12572208355E+04  0.16571689630E+04  0.10123315843E+04 0.  0.
        -13    1    3    3    0    0 -0.13860301146E+03 -0.14554517707E+03 -0.33969220585E+03  0.39469608464E+03  0.10566000000E+00 0.  1.
         13    1    4    4    0    0  0.36983089426E+03  0.20310939499E+03  0.23567389786E+02  0.42259170568E+03  0.10566000000E+00 0. -1.
          4    1    3    3  501    0 -0.18568856633E+03 -0.43199302807E+02  0.70628854685E+03  0.73156676718E+03  0.00000000000E+00 0.  1.
         -4    1    4    4    0  503 -0.45539316475E+02 -0.14364915112E+02  0.12336534457E+04  0.12345772573E+04  0.00000000000E+00 0. -1.
</event>
<event>
 8    1  0.6759491E-006  0.1025454E+04  0.7818608E-02  0.8754164E-01
         21   -1    0    0  501  502  0.00000000000E+00  0.00000000000E+00  0.14204038062E+04  0.14204038062E+04  0.00000000000E+00 0.  1.
         21   -1    0    0  502  503 -0.00000000000E+00 -0.00000000000E+00 -0.76891160677E+03  0.76891160677E+03  0.00000000000E+00 0.  1.
    9000010    2    1    2  501    0 -0.20022966405E+03  0.40605511730E+01  0.57242264874E+03  0.11744031989E+04  0.10057071037E+04 0.  0.
   -9000010    2    1    2    0  503  0.20022966405E+03 -0.40605511730E+01  0.79069550669E+02  0.10149122141E+04  0.99180966014E+03 0.  0.
        -13    1    3    3    0    0  0.38358488315E+03 -0.10459444507E+03  0.38048735890E+03  0.55031627449E+03  0.10566000000E+00 0.  1.
         13    1    4    4    0    0 -0.18853572399E+03  0.39031153599E+03  0.14535398610E+03  0.45718334045E+03  0.10566000000E+00 0. -1.
          4    1    3    3  501    0 -0.58381454720E+03  0.10865499625E+03  0.19193528985E+03  0.62408692441E+03  0.00000000000E+00 0.  1.
         -4    1    4    4    0  503  0.38876538804E+03 -0.39437208716E+03 -0.66284435429E+02  0.55772887360E+03  0.00000000000E+00 0. -1.
</event>
<event>
 8    1  0.6759491E-006  0.1031970E+04  0.7818608E-02  0.8750962E-01
         21   -1    0    0  501  502  0.00000000000E+00  0.00000000000E+00  0.99073828468E+03  0.99073828468E+03  0.00000000000E+00 0.  1.
         21   -1    0    0  502  503 -0.00000000000E+00 -0.00000000000E+00 -0.11436093647E+04  0.11436093647E+04  0.00000000000E+00 0.  1.
    9000010    2    1    2  501    0  0.65813836809E+02  0.18302286887E+03  0.23038528187E+03  0.10573735506E+04  0.10134755132E+04 0.  0.
   -9000010    2    1    2    0  503 -0.65813836809E+02 -0.18302286887E+03 -0.38325636190E+03  0.10769740988E+04  0.98750136145E+03 0.  0.
        -13    1    3    3    0    0  0.15868094878E+03 -0.26735813487E+03 -0.24509903342E+03  0.39589589937E+03  0.10566000000E+00 0.  1.
         13    1    4    4    0    0  0.34667417618E+03  0.21337309494E+03 -0.38146581490E+02  0.40885967631E+03  0.10566000000E+00 0. -1.
          4    1    3    3  501    0 -0.92867111975E+02  0.45038100374E+03  0.47548431528E+03  0.66147765125E+03  0.00000000000E+00 0.  1.
         -4    1    4    4    0  503 -0.41248801299E+03 -0.39639596380E+03 -0.34510978041E+03  0.66811442247E+03  0.00000000000E+00 0. -1.
</event>
<event>
 8    1  0.6759491E-006  0.1112770E+04  0.7818608E-02  0.8677906E-01
         21   -1    0    0  503  502  0.00000000000E+00  0.00000000000E+00  0.97757901174E+03  0.97757901174E+03  0.00000000000E+00 0. -1.
         21   -1    0    0  501  503 -0.00000000000E+00 -0.00000000000E+00 -0.12952012318E+04  0.12952012318E+04  0.00000000000E+00 0. -1.
    9000010    2    1    2  501    0  0.46906400993E+03  0.23172518351E+02 -0.36607907385E+03  0.11714397862E+04  0.10088108214E+04 0.  0.
   -9000010    2    1    2    0  502 -0.46906400993E+03 -0.23172518351E+02  0.48456853837E+02  0.11013404573E+04  0.99500991207E+03 0.  0.
        -13    1    3    3    0    0  0.89371769227E+02  0.37634508242E+03  0.17273821996E+03  0.42362889183E+03  0.10566000000E+00 0.  1.
         13    1    4    4    0    0 -0.37261157220E+03  0.44396889134E+03 -0.12653180782E+03  0.59326054122E+03  0.10566000000E+00 0. -1.
          4    1    3    3  501    0  0.37969224071E+03 -0.35317256407E+03 -0.53881729381E+03  0.74781089439E+03  0.00000000000E+00 0.  1.
         -4    1    4    4    0  502 -0.96452437735E+02 -0.46714140969E+03  0.17498866165E+03  0.50807991606E+03  0.00000000000E+00 0. -1.
</event>
<event>
 8    1  0.6759491E-006  0.1048205E+04  0.7818608E-02  0.8738400E-01
         21   -1    0    0  503  502  0.00000000000E+00  0.00000000000E+00  0.15200494241E+04  0.15200494241E+04  0.00000000000E+00 0.  1.
         21   -1    0    0  501  503 -0.00000000000E+00 -0.00000000000E+00 -0.85794949023E+03  0.85794949023E+03  0.00000000000E+00 0.  1.
    9000010    2    1    2  501    0 -0.19547541346E+03 -0.20985669816E+03 -0.17593121815E+03  0.10628671217E+04  0.10082084377E+04 0.  0.
   -9000010    2    1    2    0  502  0.19547541346E+03  0.20985669816E+03  0.83803115207E+03  0.13151317926E+04  0.97212393713E+03 0.  0.
        -13    1    3    3    0    0 -0.60885809737E+03 -0.75429600588E+02 -0.10405117549E+03  0.62227362604E+03  0.10566000000E+00 0.  1.
         13    1    4    4    0    0  0.55974025563E+03 -0.43728946478E+02  0.55044977091E+03  0.78626734384E+03  0.10566000000E+00 0. -1.
          4    1    3    3  501    0  0.41338268391E+03 -0.13442709758E+03 -0.71880042662E+02  0.44059349570E+03  0.00000000000E+00 0.  1.
         -4    1    4    4    0  502 -0.36426484217E+03  0.25358564464E+03  0.28758138116E+03  0.52886444879E+03  0.00000000000E+00 0. -1.
</event>
<event>
 8    1  0.6759491E-006  0.1103031E+04  0.7818608E-02  0.8694904E-01
         21   -1    0    0  503  502  0.00000000000E+00  0.00000000000E+00  0.10302835982E+04  0.10302835982E+04  0.00000000000E+00 0. -1.
         21   -1    0    0  501  503 -0.00000000000E+00 -0.00000000000E+00 -0.19676417564E+04  0.19676417564E+04  0.00000000000E+00 0. -1.
    9000010    2    1    2  501    0  0.23257710681E+03  0.19670058425E+03 -0.14566721192E+04  0.18271758575E+04  0.10601390102E+04 0.  0.
   -9000010    2    1    2    0  502 -0.23257710681E+03 -0.19670058425E+03  0.51931396090E+03  0.11707494971E+04  0.10040837438E+04 0.  0.
        -13    1    3    3    0    0 -0.33357573873E+03 -0.15703184441E+03 -0.24161174630E+03  0.44080383476E+03  0.10566000000E+00 0.  1.
         13    1    4    4    0    0 -0.62488831643E+03 -0.16472545553E+03  0.39758184746E+03  0.75874318468E+03  0.10566000000E+00 0. -1.
          4    1    3    3  501    0  0.56615284554E+03  0.35373242866E+03 -0.12150603729E+04  0.13863720227E+04  0.00000000000E+00 0.  1.
         -4    1    4    4    0  502  0.39231120962E+03 -0.31975128725E+02  0.12173211343E+03  0.41200631244E+03  0.00000000000E+00 0. -1.
</event>
<event>
 8    1  0.6759491E-006  0.1116380E+04  0.7818608E-02  0.8686085E-01
         21   -1    0    0  503  502  0.00000000000E+00  0.00000000000E+00  0.10093079879E+04  0.10093079879E+04  0.00000000000E+00 0.  1.
         21   -1    0    0  501  503 -0.00000000000E+00 -0.00000000000E+00 -0.11797199149E+04  0.11797199149E+04  0.00000000000E+00 0.  1.
    9000010    2    1    2  501    0 -0.48400027371E+02  0.22150579740E+03 -0.21337132079E+03  0.11365880756E+04  0.10931137873E+04 0.  0.
   -9000010    2    1    2    0  502  0.48400027371E+02 -0.22150579740E+03  0.42959393828E+02  0.10524398272E+04  0.10268284664E+04 0.  0.
        -13    1    3    3    0    0 -0.54953526467E+03  0.14307639496E+03  0.40635503581E+02  0.56930757700E+03  0.10566000000E+00 0.  1.
         13    1    4    4    0    0 -0.18925420291E+03  0.35707873509E+03 -0.87482000304E+02  0.41349182327E+03  0.10566000000E+00 0. -1.
          4    1    3    3  501    0  0.50113523730E+03  0.78429402441E+02 -0.25400682437E+03  0.56728049857E+03  0.00000000000E+00 0.  1.
         -4    1    4    4    0  502  0.23765423028E+03 -0.57858453249E+03  0.13044139413E+03  0.63894800391E+03  0.00000000000E+00 0. -1.
</event>
<event>
 8    1  0.6759491E-006  0.1169827E+04  0.7818608E-02  0.8631432E-01
         21   -1    0    0  503  502  0.00000000000E+00  0.00000000000E+00  0.80877748785E+03  0.80877748785E+03  0.00000000000E+00 0. -1.
         21   -1    0    0  501  503 -0.00000000000E+00 -0.00000000000E+00 -0.17659400550E+04  0.17659400550E+04  0.00000000000E+00 0. -1.
    9000010    2    1    2  501    0  0.25053025668E+03  0.49285918303E+03 -0.76641287136E+03  0.13985288380E+04  0.10309309567E+04 0.  0.
   -9000010    2    1    2    0  502 -0.25053025668E+03 -0.49285918303E+03 -0.19074969581E+03  0.11761887049E+04  0.10204699110E+04 0.  0.
        -13    1    3    3    0    0  0.56303927338E+03  0.51049088625E+03 -0.26011564855E+03  0.80328969251E+03  0.10566000000E+00 0.  1.
         13    1    4    4    0    0 -0.90047029956E+02 -0.46129390159E+02 -0.56358367445E+03  0.57259318675E+03  0.10566000000E+00 0. -1.
          4    1    3    3  501    0 -0.31250901670E+03 -0.17631703220E+02 -0.50629722281E+03  0.59523914547E+03  0.00000000000E+00 0.  1.
         -4    1    4    4    0  502 -0.16048322672E+03 -0.44672979287E+03  0.37283397864E+03  0.60359551814E+03  0.00000000000E+00 0. -1.
</event>
<event>
 8    1  0.6759491E-006  0.1153371E+04  0.7818608E-02  0.8646187E-01
         21   -1    0    0  503  502  0.00000000000E+00  0.00000000000E+00  0.14763041745E+04  0.14763041745E+04  0.00000000000E+00 0. -1.
         21   -1    0    0  501  503 -0.00000000000E+00 -0.00000000000E+00 -0.13515758447E+04  0.13515758447E+04  0.00000000000E+00 0. -1.
    9000010    2    1    2  501    0  0.57354154607E+03  0.64199236771E+02 -0.76711072421E+03  0.13699221000E+04  0.97732095535E+03 0.  0.
   -9000010    2    1    2    0  502 -0.57354154607E+03 -0.64199236771E+02  0.89183905401E+03  0.14579579191E+04  0.99859548799E+03 0.  0.
        -13    1    3    3    0    0  0.68193742914E+03 -0.16750982254E+03 -0.17318765816E+03  0.72325111407E+03  0.10566000000E+00 0.  1.
         13    1    4    4    0    0 -0.65361081797E+02 -0.41975977037E+03  0.68145974440E+03  0.80303034204E+03  0.10566000000E+00 0. -1.
          4    1    3    3  501    0 -0.10839588307E+03  0.23170905931E+03 -0.59392306605E+03  0.64667098591E+03  0.00000000000E+00 0.  1.
         -4    1    4    4    0  502 -0.50818046428E+03  0.35556053360E+03  0.21037930961E+03  0.65492757709E+03  0.00000000000E+00 0. -1.
</event>
<event>
 8    1  0.6759491E-006  0.1030737E+04  0.7818608E-02  0.8753511E-01
         21   -1    0    0  501  502  0.00000000000E+00  0.00000000000E+00  0.24370330961E+04  0.24370330961E+04  0.00000000000E+00 0. -1.
         21   -1    0    0  502  503 -0.00000000000E+00 -0.00000000000E+00 -0.42796806938E+03  0.42796806938E+03  0.00000000000E+00 0. -1.
    9000010    2    1    2  501    0  0.22029908927E+03 -0.47013006336E+02  0.11482381272E+04  0.15220786482E+04  0.97341188760E+03 0.  0.
   -9000010    2    1    2    0  503 -0.22029908927E+03  0.47013006336E+02  0.86082689951E+03  0.13429225173E+04  0.10058210701E+04 0.  0.
        -13    1    3    3    0    0 -0.34258009827E+03 -0.20327325799E+02  0.14738685075E+03  0.37349326478E+03  0.10566000000E+00 0.  1.
         13    1    4    4    0    0  0.22190563126E+03  0.40216531031E+03  0.32502174014E+03  0.56268835844E+03  0.10566000000E+00 0. -1.
          4    1    3    3  501    0  0.56287918754E+03 -0.26685680537E+02  0.10008512765E+04  0.11485853834E+04  0.00000000000E+00 0.  1.
         -4    1    4    4    0  503 -0.44220472053E+03 -0.35515230397E+03  0.53580515937E+03  0.78023415888E+03  0.00000000000E+00 0. -1.
</event>
<event>
 8    1  0.6759491E-006  0.1035509E+04  0.7818608E-02  0.8744776E-01
         21   -1    0    0  503  502  0.00000000000E+00  0.00000000000E+00  0.10826264476E+04  0.10826264476E+04  0.00000000000E+00 0.  1.
         21   -1    0    0  501  503 -0.00000000000E+00 -0.00000000000E+00 -0.11480591750E+04  0.11480591750E+04  0.00000000000E+00 0.  1.
    9000010    2    1    2  501    0 -0.13061850875E+03 -0.18251977509E+03 -0.46124166613E+03  0.11221082756E+04  0.99800222673E+03 0.  0.
   -9000010    2    1    2    0  502  0.13061850875E+03  0.18251977509E+03  0.39580893870E+03  0.11085773469E+04  0.10108928504E+04 0.  0.
        -13    1    3    3    0    0 -0.32706533270E+03  0.32922552249E+03 -0.13118776701E+03  0.48225658926E+03  0.10566000000E+00 0.  1.
         13    1    4    4    0    0  0.51036222998E+03  0.21809408323E+03 -0.53627815129E+01  0.55503459849E+03  0.10566000000E+00 0. -1.
          4    1    3    3  501    0  0.19644682395E+03 -0.51174529758E+03 -0.33005389913E+03  0.63985168638E+03  0.00000000000E+00 0.  1.
         -4    1    4    4    0  502 -0.37974372123E+03 -0.35574308139E+02  0.40117172022E+03  0.55354274841E+03  0.00000000000E+00 0. -1.
</event>
<event>
 8    1  0.6759491E-006  0.1006233E+04  0.7818608E-02  0.8773908E-01
         21   -1    0    0  503  502  0.00000000000E+00  0.00000000000E+00  0.12537527385E+04  0.12537527385E+04  0.00000000000E+00 0. -1.
         21   -1    0    0  501  503 -0.00000000000E+00 -0.00000000000E+00 -0.81319597800E+03  0.81319597800E+03  0.00000000000E+00 0. -1.
    9000010    2    1    2  501    0  0.12425986803E+03  0.58731988199E+02  0.39192124657E+03  0.10595408907E+04  0.97474851851E+03 0.  0.
   -9000010    2    1    2    0  502 -0.12425986803E+03 -0.58731988199E+02  0.48635513945E+02  0.10074078258E+04  0.99680246441E+03 0.  0.
        -13    1    3    3    0    0 -0.84384745056E+02 -0.29658823947E+03 -0.17816736567E+03  0.35613058047E+03  0.10566000000E+00 0.  1.
         13    1    4    4    0    0 -0.24006485871E+02 -0.52027114096E+03 -0.55464173233E+02  0.52376966040E+03  0.10566000000E+00 0. -1.
          4    1    3    3  501    0  0.20864461309E+03  0.35532022767E+03  0.57008861223E+03  0.70341031024E+03  0.00000000000E+00 0.  1.
         -4    1    4    4    0  502 -0.10025338216E+03  0.46153915276E+03  0.10409968718E+03  0.48363816541E+03  0.00000000000E+00 0. -1.
</event>
<event>
 8    1  0.6759491E-006  0.1132789E+04  0.7818608E-02  0.8667726E-01
         21   -1    0    0  503  502  0.00000000000E+00  0.00000000000E+00  0.14549364381E+04  0.14549364381E+04  0.00000000000E+00 0.  1.
         21   -1    0    0  501  503 -0.00000000000E+00 -0.00000000000E+00 -0.10006139329E+04  0.10006139329E+04  0.00000000000E+00 0.  1.
    9000010    2    1    2  501    0  0.22852489515E+03 -0.47690314554E+03 -0.25408062871E+03  0.11194942894E+04  0.95344127249E+03 0.  0.
   -9000010    2    1    2    0  502 -0.22852489515E+03  0.47690314554E+03  0.70840313387E+03  0.13360560817E+04  0.10017737346E+04 0.  0.
        -13    1    3    3    0    0  0.54433900183E+03 -0.51413080182E+03 -0.28238726638E+03  0.80023622117E+03  0.10566000000E+00 0.  1.
         13    1    4    4    0    0 -0.17877147327E+03  0.24660755099E+03 -0.22160077208E+03  0.37667152429E+03  0.10566000000E+00 0. -1.
          4    1    3    3  501    0 -0.31581410668E+03  0.37227656278E+02  0.28306637675E+02  0.31925806819E+03  0.00000000000E+00 0.  1.
         -4    1    4    4    0  502 -0.49753421882E+02  0.23029559455E+03  0.93000390595E+03  0.95938455738E+03  0.00000000000E+00 0. -1.
</event>
<event>
 8    1  0.6759491E-006  0.1221104E+04  0.7818608E-02  0.8591103E-01
         21   -1    0    0  501  502  0.00000000000E+00  0.00000000000E+00  0.13584403636E+04  0.13584403636E+04  0.00000000000E+00 0.  1.
         21   -1    0    0  502  503 -0.00000000000E+00 -0.00000000000E+00 -0.13722843666E+04  0.13722843666E+04  0.00000000000E+00 0. -1.
    9000010    2    1    2  501    0  0.46031969401E+03 -0.54219726175E+03  0.60532186370E+03  0.13616154269E+04  0.99081275769E+03 0.  0.
   -9000010    2    1    2    0  503 -0.46031969401E+03  0.54219726175E+03 -0.61916586673E+03  0.13691093032E+04  0.99258340826E+03 0.  0.
        -13    1    3    3    0    0 -0.15739044276E+02  0.26307629108E+03  0.34632108578E+02  0.26581242738E+03  0.10566000000E+00 0.  1.
         13    1    4    4    0    0  0.19472349192E+03  0.30108003290E+03  0.94537447763E+02  0.37081500065E+03  0.10566000000E+00 0. -1.
          4    1    3    3  501    0  0.47605873828E+03 -0.80527355283E+03  0.57068975512E+03  0.10958029995E+04  0.00000000000E+00 0.  1.
         -4    1    4    4    0  503 -0.65504318592E+03  0.24111722886E+03 -0.71370331450E+03  0.99829430260E+03  0.00000000000E+00 0. -1.
</event>
<event>
 8    1  0.6759491E-006  0.1054986E+04  0.7818608E-02  0.8734939E-01
         21   -1    0    0  501  502  0.00000000000E+00  0.00000000000E+00  0.57991177174E+03  0.57991177174E+03  0.00000000000E+00 0.  1.
         21   -1    0    0  502  503 -0.00000000000E+00 -0.00000000000E+00 -0.21396050961E+04  0.21396050961E+04  0.00000000000E+00 0.  1.
    9000010    2    1    2  501    0  0.20333843656E+01 -0.13377137539E+03 -0.28309282585E+03  0.10923083801E+04  0.10464688881E+04 0.  0.
   -9000010    2    1    2    0  503 -0.20333843656E+01  0.13377137539E+03 -0.12766004985E+04  0.16272084877E+04  0.10000998521E+04 0.  0.
        -13    1    3    3    0    0 -0.29439444060E+03 -0.15591009262E+03  0.29325658464E+03  0.44381919656E+03  0.10566000000E+00 0.  1.
         13    1    4    4    0    0 -0.28479203519E+03 -0.26139729758E+03 -0.17726722819E+03  0.42527488975E+03  0.10566000000E+00 0. -1.
          4    1    3    3  501    0  0.29642782497E+03  0.22138717230E+02 -0.57634941049E+03  0.64848918356E+03  0.00000000000E+00 0.  1.
         -4    1    4    4    0  503  0.28275865083E+03  0.39516867297E+03 -0.10993332703E+04  0.12019335980E+04  0.00000000000E+00 0. -1.
</event>
<event>
 8    1  0.6759491E-006  0.1156449E+04  0.7818608E-02  0.8648014E-01
         21   -1    0    0  503  502  0.00000000000E+00  0.00000000000E+00  0.20029608310E+04  0.20029608310E+04  0.00000000000E+00 0. -1.
         21   -1    0    0  501  503 -0.00000000000E+00 -0.00000000000E+00 -0.69893414042E+03  0.69893414042E+03  0.00000000000E+00 0. -1.
    9000010    2    1    2  501    0 -0.20575892398E+03 -0.40217859353E+03  0.10373274023E+04  0.15535194083E+04  0.10645609690E+04 0.  0.
   -9000010    2    1    2    0  502  0.20575892398E+03  0.40217859353E+03  0.26669928827E+03  0.11483755630E+04  0.10215446968E+04 0.  0.
        -13    1    3    3    0    0  0.39829388196E+03 -0.36298597099E+03  0.60171539645E+03  0.80774888488E+03  0.10566000000E+00 0.  1.
         13    1    4    4    0    0 -0.23827484040E+03  0.58305385806E+03  0.84686664250E+02  0.63553012772E+03  0.10566000000E+00 0. -1.
          4    1    3    3  501    0 -0.60405280594E+03 -0.39192622535E+02  0.43561200582E+03  0.74577052344E+03  0.00000000000E+00 0.  1.
         -4    1    4    4    0  502  0.44403376438E+03 -0.18087526454E+03  0.18201262402E+03  0.51284543533E+03  0.00000000000E+00 0. -1.
</event>
<event>
 8    1  0.6759491E-006  0.1027075E+04  0.7818608E-02  0.8750288E-01
         21   -1    0    0  503  502  0.00000000000E+00  0.00000000000E+00  0.17640314940E+04  0.17640314940E+04  0.00000000000E+00 0. -1.
         21   -1    0    0  501  503 -0.00000000000E+00 -0.00000000000E+00 -0.73774522563E+03  0.73774522563E+03  0.00000000000E+00 0. -1.
    9000010    2    1    2  501    0 -0.58623090506E+02 -0.20602833806E+03  0.10618254887E+04  0.14772799794E+04  0.10044891369E+04 0.  0.
   -9000010    2    1    2    0  502  0.58623090506E+02  0.20602833806E+03 -0.35539220388E+02  0.10244967402E+04  0.10012223488E+04 0.  0.
        -13    1    3    3    0    0 -0.33543975686E+03 -0.52369278706E+02 -0.29666751051E+02  0.34079685902E+03  0.10566000000E+00 0.  1.
         13    1    4    4    0    0 -0.54391614874E+02  0.53650281587E+03  0.22949660630E+03  0.58605667189E+03  0.10566000000E+00 0. -1.
          4    1    3    3  501    0  0.27681666636E+03 -0.15365905936E+03  0.10914922398E+04  0.11364831203E+04  0.00000000000E+00 0.  1.
         -4    1    4    4    0  502  0.11301470538E+03 -0.33047447780E+03 -0.26503582669E+03  0.43844006835E+03  0.00000000000E+00 0. -1.
</event>
<event>
 8    1  0.6759491E-006  0.1118137E+04  0.7818608E-02  0.8691727E-01
         21   -1    0    0  503  502  0.00000000000E+00  0.00000000000E+00  0.14699148835E+04  0.14699148835E+04  0.00000000000E+00 0. -1.
         21   -1    0    0  501  503 -0.00000000000E+00 -0.00000000000E+00 -0.95750444093E+03  0.95750444093E+03  0.00000000000E+00 0. -1.
    9000010    2    1    2  501    0 -0.90621544495E+02  0.68288276731E+02 -0.27760401389E+03  0.10583489904E+04  0.10149694793E+04 0.  0.
   -9000010    2    1    2    0  502  0.90621544495E+02 -0.68288276731E+02  0.79001445646E+03  0.13690703340E+04  0.11123646816E+04 0.  0.
        -13    1    3    3    0    0 -0.23821656578E+03  0.38244106974E+03 -0.47854991077E+03  0.65728101471E+03  0.10566000000E+00 0.  1.
         13    1    4    4    0    0  0.47563928138E+03 -0.99342581852E+01  0.85095772902E+03  0.97491562877E+03  0.10566000000E+00 0. -1.
          4    1    3    3  501    0  0.14759502128E+03 -0.31415279301E+03  0.20094589688E+03  0.40106797571E+03  0.00000000000E+00 0.  1.
         -4    1    4    4    0  502 -0.38501773688E+03 -0.58354018545E+02 -0.60943272556E+02  0.39415470524E+03  0.00000000000E+00 0. -1.
</event>
<event>
 8    1  0.6759491E-006  0.1081141E+04  0.7818608E-02  0.8703632E-01
         21   -1    0    0  501  502  0.00000000000E+00  0.00000000000E+00  0.89565316933E+03  0.89565316933E+03  0.00000000000E+00 0.  1.
         21   -1    0    0  502  503 -0.00000000000E+00 -0.00000000000E+00 -0.15298575852E+04  0.15298575852E+04  0.00000000000E+00 0.  1.
    9000010    2    1    2  501    0 -0.36225177613E+03  0.12863389011E+03 -0.79308578859E+03  0.13408398550E+04  0.10104916732E+04 0.  0.
   -9000010    2    1    2    0  503  0.36225177613E+03 -0.12863389011E+03  0.15888137268E+03  0.10846708996E+04  0.10017457975E+04 0.  0.
        -13    1    3    3    0    0  0.16518393124E+03  0.21589910587E+03 -0.75778553502E+03  0.80506961395E+03  0.10566000000E+00 0.  1.
         13    1    4    4    0    0  0.64252395908E+02 -0.54175597541E+03  0.18103022059E+03  0.57480419205E+03  0.10566000000E+00 0. -1.
          4    1    3    3  501    0 -0.52743570737E+03 -0.87265215753E+02 -0.35300253565E+02  0.53577024104E+03  0.00000000000E+00 0.  1.
         -4    1    4    4    0  503  0.29799938022E+03  0.41312208530E+03 -0.22148847906E+02  0.50986670752E+03  0.00000000000E+00 0. -1.
</event>
<event>
 8    1  0.6759491E-006  0.1106208E+04  0.7818608E-02  0.8683240E-01
         21   -1    0    0  503  502  0.00000000000E+00  0.00000000000E+00  0.11284455181E+04  0.11284455181E+04  0.00000000000E+00 0.  1.
         21   -1    0    0  501  503 -0.00000000000E+00 -0.00000000000E+00 -0.18462701184E+04  0.18462701184E+04  0.00000000000E+00 0.  1.
    9000010    2    1    2  501    0 -0.41732565432E+03 -0.66899165409E+02 -0.13227584898E+04  0.17243506842E+04  0.10222813017E+04 0.  0.
   -9000010    2    1    2    0  502  0.41732565432E+03  0.66899165409E+02  0.60493388944E+03  0.12503649523E+04  0.10093717370E+04 0.  0.
        -13    1    3    3    0    0 -0.65904530867E+03  0.11851630305E+03 -0.46807061172E+03  0.81699262034E+03  0.10566000000E+00 0.  1.
         13    1    4    4    0    0 -0.24872911652E+03 -0.24625579553E+03  0.12476653123E+03  0.37158416101E+03  0.10566000000E+00 0. -1.
          4    1    3    3  501    0  0.24171965435E+03 -0.18541546846E+03 -0.85468787803E+03  0.90735806389E+03  0.00000000000E+00 0.  1.
         -4    1    4    4    0  502  0.66605477084E+03  0.31315496094E+03  0.48016735822E+03  0.87878079133E+03  0.00000000000E+00 0. -1.
</event>
<event>
 8    1  0.6759491E-006  0.1028802E+04  0.7818608E-02  0.8748050E-01
         21   -1    0    0  503  502  0.00000000000E+00  0.00000000000E+00  0.86582799368E+03  0.86582799368E+03  0.00000000000E+00 0. -1.
         21   -1    0    0  501  503 -0.00000000000E+00 -0.00000000000E+00 -0.13102173980E+04  0.13102173980E+04  0.00000000000E+00 0. -1.
    9000010    2    1    2  501    0  0.20926156802E+03 -0.95792340000E+02 -0.50431738274E+03  0.11457616236E+04  0.10027298237E+04 0.  0.
   -9000010    2    1    2    0  502 -0.20926156802E+03  0.95792340000E+02  0.59927978463E+02  0.10302837680E+04  0.10024603253E+04 0.  0.
        -13    1    3    3    0    0  0.40986307626E+03  0.24030259424E+03  0.38358088261E+02  0.47665966074E+03  0.10566000000E+00 0.  1.
         13    1    4    4    0    0 -0.17424178442E+03  0.46601270303E+03 -0.24013977781E+03  0.55244471476E+03  0.10566000000E+00 0. -1.
          4    1    3    3  501    0 -0.20060150824E+03 -0.33609493424E+03 -0.54267547100E+03  0.66910196290E+03  0.00000000000E+00 0.  1.
         -4    1    4    4    0  502 -0.35019783604E+02 -0.37022036303E+03  0.30006775627E+03  0.47783905324E+03  0.00000000000E+00 0. -1.
</event>
<event>
 8    1  0.6759491E-006  0.1041642E+04  0.7818608E-02  0.8750319E-01
         21   -1    0    0  503  502  0.00000000000E+00  0.00000000000E+00  0.78008064220E+03  0.78008064220E+03  0.00000000000E+00 0. -1.
         21   -1    0    0  501  503 -0.00000000000E+00 -0.00000000000E+00 -0.14602527033E+04  0.14602527033E+04  0.00000000000E+00 0. -1.
    9000010    2    1    2  501    0 -0.32016026982E+02 -0.78696586102E+02 -0.70642419479E+03  0.12585920257E+04  0.10381717418E+04 0.  0.
   -9000010    2    1    2    0  502  0.32016026982E+02  0.78696586102E+02  0.26252133697E+02  0.98174131979E+03  0.97770581762E+03 0.  0.
        -13    1    3    3    0    0  0.11971324582E+03 -0.44392986318E+03 -0.12597754302E+02  0.45996054095E+03  0.10566000000E+00 0.  1.
         13    1    4    4    0    0 -0.24928584479E+03  0.44324126157E+03  0.91442133630E+02  0.51668938767E+03  0.10566000000E+00 0. -1.
          4    1    3    3  501    0 -0.15172927280E+03  0.36523327708E+03 -0.69382644049E+03  0.79863148475E+03  0.00000000000E+00 0.  1.
         -4    1    4    4    0  502  0.28130187177E+03 -0.36454467547E+03 -0.65189999934E+02  0.46505193212E+03  0.00000000000E+00 0. -1.
</event>
<event>
 8    1  0.6759491E-006  0.1049039E+04  0.7818608E-02  0.8732364E-01
         21   -1    0    0  501  502  0.00000000000E+00  0.00000000000E+00  0.15214943265E+04  0.15214943265E+04  0.00000000000E+00 0. -1.
         21   -1    0    0  502  503 -0.00000000000E+00 -0.00000000000E+00 -0.85635840593E+03  0.85635840593E+03  0.00000000000E+00 0. -1.
    9000010    2    1    2  501    0  0.26609612855E+03  0.88632769875E+02  0.81629853275E+03  0.13292198335E+04  0.10108507078E+04 0.  0.
   -9000010    2    1    2    0  503 -0.26609612855E+03 -0.88632769875E+02 -0.15116261223E+03  0.10486328989E+04  0.99905850872E+03 0.  0.
        -13    1    3    3    0    0  0.33817744038E+03  0.49885828957E+02 -0.14002272100E+03  0.36940350658E+03  0.10566000000E+00 0.  1.
         13    1    4    4    0    0 -0.11622536624E+03 -0.36991839080E+03  0.30418382936E+03  0.49282427377E+03  0.10566000000E+00 0. -1.
          4    1    3    3  501    0 -0.72081311835E+02  0.38746940918E+02  0.95632125375E+03  0.95981632687E+03  0.00000000000E+00 0.  1.
         -4    1    4    4    0  503 -0.14987076230E+03  0.28128562092E+03 -0.45534644159E+03  0.55580862516E+03  0.00000000000E+00 0. -1.
</event>
<event>
 8    1  0.6759491E-006  0.1032180E+04  0.7818608E-02  0.8745919E-01
         21   -1    0    0  503  502  0.00000000000E+00  0.00000000000E+00  0.95646450734E+03  0.95646450734E+03  0.00000000000E+00 0.  1.
         21   -1    0    0  501  503 -0.00000000000E+00 -0.00000000000E+00 -0.12047717643E+04  0.12047717643E+04  0.00000000000E+00 0. -1.
    9000010    2    1    2  501    0 -0.18428937435E+03 -0.16875990291E+03 -0.42829712295E+03  0.11134810757E+04  0.99697502576E+03 0.  0.
   -9000010    2    1    2    0  502  0.18428937435E+03  0.16875990291E+03  0.17998986603E+03  0.10477551959E+04  0.10014749724E+04 0.  0.
        -13    1    3    3    0    0 -0.58301113106E+03 -0.43677156412E+02 -0.36915107281E+03  0.69143488388E+03  0.10566000000E+00 0.  1.
         13    1    4    4    0    0 -0.91089824886E+01  0.38718385555E+03  0.48833428161E+03  0.62326935856E+03  0.10566000000E+00 0. -1.
          4    1    3    3  501    0  0.39872175670E+03 -0.12508274650E+03 -0.59146050135E+02  0.42204619177E+03  0.00000000000E+00 0.  1.
         -4    1    4    4    0  502  0.19339835684E+03 -0.21842395264E+03 -0.30834441559E+03  0.42448583738E+03  0.00000000000E+00 0. -1.
</event>
<event>
 8    1  0.6759491E-006  0.1009469E+04  0.7818608E-02  0.8766522E-01
         21   -1    0    0  503  502  0.00000000000E+00  0.00000000000E+00  0.54997268040E+03  0.54997268040E+03  0.00000000000E+00 0.  1.
         21   -1    0    0  501  503 -0.00000000000E+00 -0.00000000000E+00 -0.21106066513E+04  0.21106066513E+04  0.00000000000E+00 0.  1.
    9000010    2    1    2  501    0  0.11514301613E+03  0.69764508435E+02 -0.12495421786E+04  0.16042626957E+04  0.99708482084E+03 0.  0.
   -9000010    2    1    2    0  502 -0.11514301613E+03 -0.69764508435E+02 -0.31109179224E+03  0.10563166359E+04  0.10004507641E+04 0.  0.
        -13    1    3    3    0    0 -0.15599151634E+03  0.24519555730E+03 -0.12479280038E+04  0.12813190580E+04  0.10566000000E+00 0.  1.
         13    1    4    4    0    0  0.22447973986E+03 -0.29257219137E+03  0.18710621936E+03  0.41351951497E+03  0.10566000000E+00 0. -1.
          4    1    3    3  501    0  0.27113453247E+03 -0.17543104887E+03 -0.16141748155E+01  0.32294363775E+03  0.00000000000E+00 0.  1.
         -4    1    4    4    0  502 -0.33962275599E+03  0.22280768294E+03 -0.49819801161E+03  0.64279712097E+03  0.00000000000E+00 0. -1.
</event>
<event>
 8    1  0.6759491E-006  0.1012994E+04  0.7818608E-02  0.8767839E-01
         21   -1    0    0  501  502  0.00000000000E+00  0.00000000000E+00  0.92221582456E+03  0.92221582456E+03  0.00000000000E+00 0.  1.
         21   -1    0    0  502  503 -0.00000000000E+00 -0.00000000000E+00 -0.12462605576E+04  0.12462605576E+04  0.00000000000E+00 0.  1.
    9000010    2    1    2  501    0  0.27495972218E+02 -0.64041140347E+02  0.22632331962E+03  0.10156271608E+04  0.98763302328E+03 0.  0.
   -9000010    2    1    2    0  503 -0.27495972218E+02  0.64041140347E+02 -0.55036805267E+03  0.11528492213E+04  0.10105934087E+04 0.  0.
        -13    1    3    3    0    0 -0.46938815099E+03 -0.13335532733E+03  0.12654906533E+03  0.50410669180E+03  0.10566000000E+00 0.  1.
         13    1    4    4    0    0 -0.28810648426E+03  0.40388325645E+03 -0.56755204476E+02  0.49934777011E+03  0.10566000000E+00 0. -1.
          4    1    3    3  501    0  0.49688412321E+03  0.69314186979E+02  0.99774254290E+02  0.51152046903E+03  0.00000000000E+00 0.  1.
         -4    1    4    4    0  503  0.26061051205E+03 -0.33984211610E+03 -0.49361284819E+03  0.65350145123E+03  0.00000000000E+00 0. -1.
</event>
<event>
 8    1  0.6759491E-006  0.1040812E+04  0.7818608E-02  0.8737638E-01
         21   -1    0    0  501  502  0.00000000000E+00  0.00000000000E+00  0.10022413074E+04  0.10022413074E+04  0.00000000000E+00 0. -1.
         21   -1    0    0  502  503 -0.00000000000E+00 -0.00000000000E+00 -0.15294089013E+04  0.15294089013E+04  0.00000000000E+00 0. -1.
    9000010    2    1    2  501    0 -0.26411643184E+03  0.12815035583E+01  0.42379626501E+03  0.11218200073E+04  0.10045485168E+04 0.  0.
   -9000010    2    1    2    0  503  0.26411643184E+03 -0.12815035583E+01 -0.95096385892E+03  0.14098302014E+04  0.10067421735E+04 0.  0.
        -13    1    3    3    0    0  0.37334829847E+03  0.10957071605E+03  0.11826043866E+03  0.40666968943E+03  0.10566000000E+00 0.  1.
         13    1    4    4    0    0 -0.49272861645E+02  0.22962073201E+03  0.12469736140E+03  0.26590024176E+03  0.10566000000E+00 0. -1.
          4    1    3    3  501    0 -0.63746473030E+03 -0.10828921249E+03  0.30553582635E+03  0.71515031784E+03  0.00000000000E+00 0.  1.
         -4    1    4    4    0  503  0.31338929348E+03 -0.23090223557E+03 -0.10756612203E+04  0.11439299596E+04  0.00000000000E+00 0. -1.
</event>
<event>
 8    1  0.6759491E-006  0.1067182E+04  0.7818608E-02  0.8719810E-01
         21   -1    0    0  501  502  0.00000000000E+00  0.00000000000E+00  0.10717596840E+04  0.10717596840E+04  0.00000000000E+00 0.  1.
         21   -1    0    0  502  503 -0.00000000000E+00 -0.00000000000E+00 -0.14277203125E+04  0.14277203125E+04  0.00000000000E+00 0.  1.
    9000010    2    1    2  501    0  0.28423578392E+03  0.24118834091E+03  0.47816937001E+03  0.11449873420E+04  0.97128176665E+03 0.  0.
   -9000010    2    1    2    0  503 -0.28423578392E+03 -0.24118834091E+03 -0.83412999844E+03  0.13544926545E+04  0.99995784923E+03 0.  0.
        -13    1    3    3    0    0  0.57516311646E+03 -0.10317460863E+03  0.32638219338E+03  0.66931529022E+03  0.10566000000E+00 0.  1.
         13    1    4    4    0    0 -0.31760027547E+03 -0.55019268836E+03 -0.23096930444E+03  0.67596505832E+03  0.10566000000E+00 0. -1.
          4    1    3    3  501    0 -0.29092733254E+03  0.34436294955E+03  0.15178717663E+03  0.47567205176E+03  0.00000000000E+00 0.  1.
         -4    1    4    4    0  503  0.33364491549E+02  0.30900434745E+03 -0.60316069400E+03  0.67852759622E+03  0.00000000000E+00 0. -1.
</event>
<event>
 8    1  0.6759491E-006  0.1150071E+04  0.7818608E-02  0.8651432E-01
         21   -1    0    0  503  502  0.00000000000E+00  0.00000000000E+00  0.35621994006E+04  0.35621994006E+04  0.00000000000E+00 0.  1.
         21   -1    0    0  501  503 -0.00000000000E+00 -0.00000000000E+00 -0.46336452668E+03  0.46336452668E+03  0.00000000000E+00 0.  1.
    9000010    2    1    2  501    0 -0.23991741201E+03  0.42578058133E+03  0.62136530954E+03  0.13071946253E+04  0.10410636255E+04 0.  0.
   -9000010    2    1    2    0  502  0.23991741201E+03 -0.42578058133E+03  0.24774695644E+04  0.27183693020E+04  0.10063929410E+04 0.  0.
        -13    1    3    3    0    0 -0.63486750894E+02  0.70572174212E+02 -0.29435056431E+03  0.30927862065E+03  0.10566000000E+00 0.  1.
         13    1    4    4    0    0  0.46214087468E+03 -0.59974410026E+03  0.12718481310E+04  0.14801570367E+04  0.10566000000E+00 0. -1.
          4    1    3    3  501    0 -0.17643066111E+03  0.35520840712E+03  0.91571587386E+03  0.99791600463E+03  0.00000000000E+00 0.  1.
         -4    1    4    4    0  502 -0.22222346268E+03  0.17396351893E+03  0.12056214334E+04  0.12382122653E+04  0.00000000000E+00 0. -1.
</event>
<event>
 8    1  0.6759491E-006  0.1053896E+04  0.7818608E-02  0.8725920E-01
         21   -1    0    0  501  502  0.00000000000E+00  0.00000000000E+00  0.68460915402E+03  0.68460915402E+03  0.00000000000E+00 0. -1.
         21   -1    0    0  502  503 -0.00000000000E+00 -0.00000000000E+00 -0.18484988508E+04  0.18484988508E+04  0.00000000000E+00 0. -1.
    9000010    2    1    2  501    0  0.22082844986E+03  0.25330754853E+03 -0.13677182280E+03  0.10627336029E+04  0.99888250596E+03 0.  0.
   -9000010    2    1    2    0  503 -0.22082844986E+03 -0.25330754853E+03 -0.10271178740E+04  0.14703744020E+04  0.99704555389E+03 0.  0.
        -13    1    3    3    0    0  0.46883222503E+03 -0.19583067701E+01 -0.40303022377E+03  0.61825630820E+03  0.10566000000E+00 0.  1.
         13    1    4    4    0    0 -0.12140816479E+03 -0.45492460065E+03 -0.56686502592E+02  0.47424646071E+03  0.10566000000E+00 0. -1.
          4    1    3    3  501    0 -0.24800377517E+03  0.25526585530E+03  0.26625840097E+03  0.44447729466E+03  0.00000000000E+00 0.  1.
         -4    1    4    4    0  503 -0.99420285074E+02  0.20161705212E+03 -0.97043137140E+03  0.99612794128E+03  0.00000000000E+00 0. -1.
</event>
<event>
 8    1  0.6759491E-006  0.1001796E+04  0.7818608E-02  0.8779191E-01
         21   -1    0    0  501  502  0.00000000000E+00  0.00000000000E+00  0.54117053596E+03  0.54117053596E+03  0.00000000000E+00 0. -1.
         21   -1    0    0  502  503 -0.00000000000E+00 -0.00000000000E+00 -0.20710339032E+04  0.20710339032E+04  0.00000000000E+00 0. -1.
    9000010    2    1    2  501    0 -0.73942297320E+02  0.42082827443E+02 -0.28869283035E+03  0.10171810956E+04  0.97163542711E+03 0.  0.
   -9000010    2    1    2    0  503  0.73942297320E+02 -0.42082827443E+02 -0.12411705369E+04  0.15950233436E+04  0.99817670642E+03 0.  0.
        -13    1    3    3    0    0  0.19493833893E+03  0.23418700955E+03  0.24396910377E+03  0.39034016727E+03  0.10566000000E+00 0.  1.
         13    1    4    4    0    0 -0.21384489632E+03  0.27226390014E+03 -0.10886400878E+04  0.11423635687E+04  0.10566000000E+00 0. -1.
          4    1    3    3  501    0 -0.26888063625E+03 -0.19210418211E+03 -0.53266193412E+03  0.62684092831E+03  0.00000000000E+00 0.  1.
         -4    1    4    4    0  503  0.28778719364E+03 -0.31434672758E+03 -0.15253044909E+03  0.45265977495E+03  0.00000000000E+00 0. -1.
</event>
<event>
 8    1  0.6759491E-006  0.1029922E+04  0.7818608E-02  0.8747790E-01
         21   -1    0    0  501  502  0.00000000000E+00  0.00000000000E+00  0.21608547261E+04  0.21608547261E+04  0.00000000000E+00 0.  1.
         21   -1    0    0  502  503 -0.00000000000E+00 -0.00000000000E+00 -0.68539419299E+03  0.68539419299E+03  0.00000000000E+00 0.  1.
    9000010    2    1    2  501    0  0.12215670042E+02  0.23870422486E+03  0.15000983049E+04  0.18196249852E+04  0.10018039892E+04 0.  0.
   -9000010    2    1    2    0  503 -0.12215670042E+02 -0.23870422486E+03 -0.24637771744E+02  0.10266239339E+04  0.99810858746E+03 0.  0.
        -13    1    3    3    0    0  0.39863134503E+03  0.26338551868E+03  0.31351412292E+03  0.57146303216E+03  0.10566000000E+00 0.  1.
         13    1    4    4    0    0 -0.44402600995E+03 -0.22250162401E+03 -0.23101810747E+03  0.54775491540E+03  0.10566000000E+00 0. -1.
          4    1    3    3  501    0 -0.38641567498E+03 -0.24681293818E+02  0.11865841819E+04  0.12481619530E+04  0.00000000000E+00 0.  1.
         -4    1    4    4    0  503  0.43181033991E+03 -0.16202600849E+02  0.20638033573E+03  0.47886901853E+03  0.00000000000E+00 0. -1.
</event>
<event>
 8    1  0.6759491E-006  0.1204849E+04  0.7818608E-02  0.8606031E-01
         21   -1    0    0  501  502  0.00000000000E+00  0.00000000000E+00  0.88300992787E+03  0.88300992787E+03  0.00000000000E+00 0.  1.
         21   -1    0    0  502  503 -0.00000000000E+00 -0.00000000000E+00 -0.19370225900E+04  0.19370225900E+04  0.00000000000E+00 0.  1.
    9000010    2    1    2  501    0  0.39512731246E+03  0.48061889167E+03  0.45037513045E+02  0.11892127910E+04  0.10124616401E+04 0.  0.
   -9000010    2    1    2    0  503 -0.39512731246E+03 -0.48061889167E+03 -0.10990501752E+04  0.16308197268E+04  0.10317662438E+04 0.  0.
        -13    1    3    3    0    0  0.15857998750E+03 -0.24912931925E+03  0.25900124236E+03  0.39280362123E+03  0.10566000000E+00 0.  1.
         13    1    4    4    0    0 -0.42028861476E+03  0.23620775928E+03 -0.51883950058E+03  0.70825917838E+03  0.10566000000E+00 0. -1.
          4    1    3    3  501    0  0.23654732496E+03  0.72974821092E+03 -0.21396372931E+03  0.79640916980E+03  0.00000000000E+00 0.  1.
         -4    1    4    4    0  503  0.25161302293E+02 -0.71682665095E+03 -0.58021067457E+03  0.92256054844E+03  0.00000000000E+00 0. -1.
</event>
<event>
 8    1  0.6759491E-006  0.1146752E+04  0.7818608E-02  0.8651667E-01
         21   -1    0    0  501  502  0.00000000000E+00  0.00000000000E+00  0.88476528376E+03  0.88476528376E+03  0.00000000000E+00 0. -1.
         21   -1    0    0  502  503 -0.00000000000E+00 -0.00000000000E+00 -0.17566225966E+04  0.17566225966E+04  0.00000000000E+00 0. -1.
    9000010    2    1    2  501    0 -0.49182787044E+03 -0.71296846519E+02  0.10866816055E+03  0.11325903623E+04  0.10119161355E+04 0.  0.
   -9000010    2    1    2    0  503  0.49182787044E+03  0.71296846519E+02 -0.98052547341E+03  0.15087975181E+04  0.10334707795E+04 0.  0.
        -13    1    3    3    0    0 -0.40495974267E+03 -0.52177482795E+03 -0.26922314879E+01  0.66049119869E+03  0.10566000000E+00 0.  1.
         13    1    4    4    0    0 -0.13681279049E+03 -0.11751628138E+03  0.12755247596E+03  0.22090147423E+03  0.10566000000E+00 0. -1.
          4    1    3    3  501    0 -0.86868127772E+02  0.45047798143E+03  0.11136039204E+03  0.47209916362E+03  0.00000000000E+00 0.  1.
         -4    1    4    4    0  503  0.62864066093E+03  0.18881312790E+03 -0.11080779494E+04  0.12878960438E+04  0.00000000000E+00 0. -1.
</event>
<event>
 8    1  0.6759491E-006  0.9995298E+03  0.7818608E-02  0.8778541E-01
         21   -1    0    0  501  502  0.00000000000E+00  0.00000000000E+00  0.29737282306E+03  0.29737282306E+03  0.00000000000E+00 0. -1.
         21   -1    0    0  502  503 -0.00000000000E+00 -0.00000000000E+00 -0.33276257570E+04  0.33276257570E+04  0.00000000000E+00 0. -1.
    9000010    2    1    2  501    0  0.11595396278E+02 -0.68847156786E+02 -0.13721195032E+04  0.16889029544E+04  0.98224583187E+03 0.  0.
   -9000010    2    1    2    0  503 -0.11595396278E+02  0.68847156786E+02 -0.16581334308E+04  0.19360956257E+04  0.99708846810E+03 0.  0.
        -13    1    3    3    0    0 -0.17295475048E+03 -0.24279884989E+03 -0.46736317980E+01  0.29813835919E+03  0.10566000000E+00 0.  1.
         13    1    4    4    0    0 -0.91523294103E+02  0.30354834036E+03 -0.64817076385E+02  0.32360372812E+03  0.10566000000E+00 0. -1.
          4    1    3    3  501    0  0.18455014676E+03  0.17395169310E+03 -0.13674458714E+04  0.13907645952E+04  0.00000000000E+00 0.  1.
         -4    1    4    4    0  503  0.79927897826E+02 -0.23470118358E+03 -0.15933163544E+04  0.16124918976E+04  0.00000000000E+00 0. -1.
</event>
<event>
 8    1  0.6759491E-006  0.1015888E+04  0.7818608E-02  0.8764890E-01
         21   -1    0    0  503  502  0.00000000000E+00  0.00000000000E+00  0.24091295013E+04  0.24091295013E+04  0.00000000000E+00 0.  1.
         21   -1    0    0  501  503 -0.00000000000E+00 -0.00000000000E+00 -0.60836264299E+03  0.60836264299E+03  0.00000000000E+00 0.  1.
    9000010    2    1    2  501    0  0.17409563674E+02 -0.65070050626E+02  0.65923198217E+02  0.10180245597E+04  0.10136522736E+04 0.  0.
   -9000010    2    1    2    0  502 -0.17409563674E+02  0.65070050626E+02  0.17348436601E+04  0.19994675846E+04  0.99179175866E+03 0.  0.
        -13    1    3    3    0    0 -0.26870134830E+03 -0.79280825177E+02 -0.38962738030E+03  0.47989099852E+03  0.10566000000E+00 0.  1.
         13    1    4    4    0    0  0.64083623909E+02  0.29705071048E+03  0.63899876219E+02  0.31053025746E+03  0.10566000000E+00 0. -1.
          4    1    3    3  501    0  0.28611091197E+03  0.14210774551E+02  0.45555057852E+03  0.53813356117E+03  0.00000000000E+00 0.  1.
         -4    1    4    4    0  502 -0.81493187583E+02 -0.23198065986E+03  0.16709437839E+04  0.16889373272E+04  0.00000000000E+00 0. -1.
</event>
<event>
 8    1  0.6759491E-006  0.1061168E+04  0.7818608E-02  0.8722247E-01
         21   -1    0    0  503  502  0.00000000000E+00  0.00000000000E+00  0.92076922256E+03  0.92076922256E+03  0.00000000000E+00 0. -1.
         21   -1    0    0  501  503 -0.00000000000E+00 -0.00000000000E+00 -0.19651979483E+04  0.19651979483E+04  0.00000000000E+00 0. -1.
    9000010    2    1    2  501    0 -0.31491781425E+03  0.13119177607E+03 -0.14164644699E+04  0.17614722981E+04  0.98996391396E+03 0.  0.
   -9000010    2    1    2    0  502  0.31491781425E+03 -0.13119177607E+03  0.37203574410E+03  0.11244948727E+04  0.10048351168E+04 0.  0.
        -13    1    3    3    0    0 -0.42158896420E+03 -0.32385408795E+03 -0.48631783312E+03  0.72050244343E+03  0.10566000000E+00 0.  1.
         13    1    4    4    0    0  0.41306905103E+03 -0.26704903222E+03 -0.19807422720E+03  0.53025902837E+03  0.10566000000E+00 0. -1.
          4    1    3    3  501    0  0.10667114995E+03  0.45504586402E+03 -0.93014663673E+03  0.10409698547E+04  0.00000000000E+00 0.  1.
         -4    1    4    4    0  502 -0.98151236777E+02  0.13585725615E+03  0.57010997131E+03  0.59423584435E+03  0.00000000000E+00 0. -1.
</event>
<event>
 8    1  0.6759491E-006  0.1013821E+04  0.7818608E-02  0.8762384E-01
         21   -1    0    0  501  502  0.00000000000E+00  0.00000000000E+00  0.51395200210E+03  0.51395200210E+03  0.00000000000E+00 0.  1.
         21   -1    0    0  502  503 -0.00000000000E+00 -0.00000000000E+00 -0.20167066301E+04  0.20167066301E+04  0.00000000000E+00 0.  1.
    9000010    2    1    2  501    0  0.84155698767E+01 -0.15581187958E+03 -0.61862300658E+03  0.11876560979E+04  0.10017406945E+04 0.  0.
   -9000010    2    1    2    0  503 -0.84155698767E+01  0.15581187958E+03 -0.88413162138E+03  0.13430025343E+04  0.99880875020E+03 0.  0.
        -13    1    3    3    0    0 -0.20311315732E+03 -0.49345053164E+03 -0.11566655948E+03  0.54601020686E+03  0.10566000000E+00 0.  1.
         13    1    4    4    0    0 -0.13616636570E+01 -0.32937514627E+03  0.57431121691E+01  0.32942804314E+03  0.10566000000E+00 0. -1.
          4    1    3    3  501    0  0.21152872720E+03  0.33763865206E+03 -0.50295644710E+03  0.64164589103E+03  0.00000000000E+00 0.  1.
         -4    1    4    4    0  503 -0.70539062197E+01  0.48518702584E+03 -0.88987473355E+03  0.10135744911E+04  0.00000000000E+00 0. -1.
</event>
<event>
 8    1  0.6759491E-006  0.1050360E+04  0.7818608E-02  0.8764021E-01
         21   -1    0    0  501  502  0.00000000000E+00  0.00000000000E+00  0.29286125017E+04  0.29286125017E+04  0.00000000000E+00 0. -1.
         21   -1    0    0  502  503 -0.00000000000E+00 -0.00000000000E+00 -0.45911882972E+03  0.45911882972E+03  0.00000000000E+00 0. -1.
    9000010    2    1    2  501    0 -0.15021571891E+03  0.28961188167E+03  0.20800655830E+04  0.22675036231E+04  0.84170068719E+03 0.  0.
   -9000010    2    1    2    0  503  0.15021571891E+03 -0.28961188167E+03  0.38942808903E+03  0.11202277084E+04  0.99840676978E+03 0.  0.
        -13    1    3    3    0    0  0.81780806742E+02  0.34519621871E+03  0.19753823269E+04  0.20069837763E+04  0.10566000000E+00 0.  1.
         13    1    4    4    0    0 -0.12465976476E+03 -0.45362666593E+03  0.58069648051E+03  0.74734571828E+03  0.10566000000E+00 0. -1.
          4    1    3    3  501    0 -0.23199652565E+03 -0.55584337049E+02  0.10468325607E+03  0.26051984673E+03  0.00000000000E+00 0.  1.
         -4    1    4    4    0  503  0.27487548367E+03  0.16401478426E+03 -0.19126839148E+03  0.37288199012E+03  0.00000000000E+00 0. -1.
</event>
<event>
 8    1  0.6759491E-006  0.1062762E+04  0.7818608E-02  0.8724993E-01
         21   -1    0    0  503  502  0.00000000000E+00  0.00000000000E+00  0.80004156539E+03  0.80004156539E+03  0.00000000000E+00 0.  1.
         21   -1    0    0  501  503 -0.00000000000E+00 -0.00000000000E+00 -0.15632623718E+04  0.15632623718E+04  0.00000000000E+00 0.  1.
    9000010    2    1    2  501    0  0.27629011123E+03 -0.71210110686E+02 -0.80358454409E+03  0.13323701835E+04  0.10237456134E+04 0.  0.
   -9000010    2    1    2    0  502 -0.27629011123E+03  0.71210110686E+02  0.40363737732E+02  0.10309337536E+04  0.98984244584E+03 0.  0.
        -13    1    3    3    0    0  0.48797601748E+03 -0.70667032128E+02 -0.95318172621E+03  0.10731588128E+04  0.10566000000E+00 0.  1.
         13    1    4    4    0    0  0.10960586126E+03 -0.35656771658E+03  0.21293188041E+03  0.42952762215E+03  0.10566000000E+00 0. -1.
          4    1    3    3  501    0 -0.21168590625E+03 -0.54307855742E+00  0.14959718212E+03  0.25921137077E+03  0.00000000000E+00 0.  1.
         -4    1    4    4    0  502 -0.38589597249E+03  0.42777782727E+03 -0.17256814268E+03  0.60140613146E+03  0.00000000000E+00 0. -1.
</event>
<event>
 8    1  0.6759491E-006  0.1009689E+04  0.7818608E-02  0.8772810E-01
         21   -1    0    0  503  502  0.00000000000E+00  0.00000000000E+00  0.12517838716E+04  0.12517838716E+04  0.00000000000E+00 0. -1.
         21   -1    0    0  501  503 -0.00000000000E+00 -0.00000000000E+00 -0.80744144976E+03  0.80744144976E+03  0.00000000000E+00 0. -1.
    9000010    2    1    2  501    0  0.48296535997E+02 -0.56850298036E+02  0.37115720509E+03  0.10468871669E+04  0.97603819475E+03 0.  0.
   -9000010    2    1    2    0  502 -0.48296535997E+02  0.56850298036E+02  0.73185216725E+02  0.10123381544E+04  0.10069299634E+04 0.  0.
        -13    1    3    3    0    0  0.12039653836E+03  0.13972640186E+03  0.66273317379E+03  0.68792010047E+03  0.10566000000E+00 0.  1.
         13    1    4    4    0    0  0.32711864659E+03  0.27929785080E+03 -0.22343102640E+03  0.48470128237E+03  0.10566000000E+00 0. -1.
          4    1    3    3  501    0 -0.72100002362E+02 -0.19657669990E+03 -0.29157596870E+03  0.35896706646E+03  0.00000000000E+00 0.  1.
         -4    1    4    4    0  502 -0.37541518258E+03 -0.22244755277E+03  0.29661624312E+03  0.52763687203E+03  0.00000000000E+00 0. -1.
</event>
<event>
 8    1  0.6759491E-006  0.1067236E+04  0.7818608E-02  0.8714594E-01
         21   -1    0    0  501  502  0.00000000000E+00  0.00000000000E+00  0.13169748006E+04  0.13169748006E+04  0.00000000000E+00 0. -1.
         21   -1    0    0  502  503 -0.00000000000E+00 -0.00000000000E+00 -0.10158302945E+04  0.10158302945E+04  0.00000000000E+00 0. -1.
    9000010    2    1    2  501    0  0.32240992241E+02 -0.31444977267E+03 -0.30293955851E+03  0.11093985453E+04  0.10193500945E+04 0.  0.
   -9000010    2    1    2    0  503 -0.32240992241E+02  0.31444977267E+03  0.60408406463E+03  0.12234065497E+04  0.10158188262E+04 0.  0.
        -13    1    3    3    0    0 -0.28762458351E+03 -0.52048109646E+03 -0.40007143220E+03  0.71671865808E+03  0.10566000000E+00 0.  1.
         13    1    4    4    0    0 -0.43131287774E+03  0.31163741810E+03  0.62858889996E+03  0.82357312680E+03  0.10566000000E+00 0. -1.
          4    1    3    3  501    0  0.31986557575E+03  0.20603132379E+03  0.97131873696E+02  0.39267988721E+03  0.00000000000E+00 0.  1.
         -4    1    4    4    0  503  0.39907188550E+03  0.28123545725E+01 -0.24504835338E+02  0.39983342293E+03  0.00000000000E+00 0. -1.
</event>
<event>
 8    1  0.6759491E-006  0.1069319E+04  0.7818608E-02  0.8716457E-01
         21   -1    0    0  503  502  0.00000000000E+00  0.00000000000E+00  0.97424251664E+03  0.97424251664E+03  0.00000000000E+00 0. -1.
         21   -1    0    0  501  503 -0.00000000000E+00 -0.00000000000E+00 -0.11728957407E+04  0.11728957407E+04  0.00000000000E+00 0. -1.
    9000010    2    1    2  501    0 -0.22483569588E+03 -0.30490434548E+03  0.45951869372E+02  0.10501994533E+04  0.97841175758E+03 0.  0.
   -9000010    2    1    2    0  502  0.22483569588E+03  0.30490434548E+03 -0.24460509339E+03  0.10969388040E+04  0.99996266830E+03 0.  0.
        -13    1    3    3    0    0  0.21477361702E+03 -0.18338208623E+03 -0.34754222336E+03  0.44781949969E+03  0.10566000000E+00 0.  1.
         13    1    4    4    0    0  0.34705406429E+03  0.89563931951E+00  0.30173261432E+03  0.45988031858E+03  0.10566000000E+00 0. -1.
          4    1    3    3  501    0 -0.43960931290E+03 -0.12152225925E+03  0.39349409274E+03  0.60237995360E+03  0.00000000000E+00 0.  1.
         -4    1    4    4    0  502 -0.12221836841E+03  0.30400870616E+03 -0.54633770771E+03  0.63705848543E+03  0.00000000000E+00 0. -1.
</event>
<event>
 8    1  0.6759491E-006  0.1185902E+04  0.7818608E-02  0.8618169E-01
         21   -1    0    0  501  502  0.00000000000E+00  0.00000000000E+00  0.18029456984E+04  0.18029456984E+04  0.00000000000E+00 0. -1.
         21   -1    0    0  502  503 -0.00000000000E+00 -0.00000000000E+00 -0.13743080765E+04  0.13743080765E+04  0.00000000000E+00 0. -1.
    9000010    2    1    2  501    0  0.54674625851E+03 -0.32606267406E+03  0.12619720237E+04  0.17317442055E+04  0.10005579775E+04 0.  0.
   -9000010    2    1    2    0  503 -0.54674625851E+03  0.32606267406E+03 -0.83333440179E+03  0.14455095693E+04  0.99488861242E+03 0.  0.
        -13    1    3    3    0    0  0.49080241818E+03  0.15159900219E+03  0.17422575765E+03  0.54242409326E+03  0.10566000000E+00 0.  1.
         13    1    4    4    0    0  0.19211609136E+01 -0.29482288466E+03 -0.43666815870E+03  0.52688074188E+03  0.10566000000E+00 0. -1.
          4    1    3    3  501    0  0.55943840322E+02 -0.47766167625E+03  0.10877462660E+04  0.11893201123E+04  0.00000000000E+00 0.  1.
         -4    1    4    4    0  503 -0.54866741942E+03  0.62088555872E+03 -0.39666624309E+03  0.91862882741E+03  0.00000000000E+00 0. -1.
</event>
<event>
 8    1  0.6759491E-006  0.1037666E+04  0.7818608E-02  0.8748835E-01
         21   -1    0    0  501  502  0.00000000000E+00  0.00000000000E+00  0.79636550707E+03  0.79636550707E+03  0.00000000000E+00 0. -1.
         21   -1    0    0  502  503 -0.00000000000E+00 -0.00000000000E+00 -0.13634302763E+04  0.13634302763E+04  0.00000000000E+00 0. -1.
    9000010    2    1    2  501    0  0.81443264185E+02 -0.12888314453E+03 -0.49638219811E+02  0.10002785404E+04  0.98734458789E+03 0.  0.
   -9000010    2    1    2    0  503 -0.81443264185E+02  0.12888314453E+03 -0.51742654941E+03  0.11595172430E+04  0.10264044683E+04 0.  0.
        -13    1    3    3    0    0 -0.27852845020E+03  0.24059537705E+03 -0.25211199335E+03  0.44612184589E+03  0.10566000000E+00 0.  1.
         13    1    4    4    0    0  0.41588207252E+03 -0.11747651715E+03 -0.40699680801E+03  0.59363713093E+03  0.10566000000E+00 0. -1.
          4    1    3    3  501    0  0.35997171439E+03 -0.36947852158E+03  0.20247377354E+03  0.55415669448E+03  0.00000000000E+00 0.  1.
         -4    1    4    4    0  503 -0.49732533671E+03  0.24635966169E+03 -0.11042974140E+03  0.56588011206E+03  0.00000000000E+00 0. -1.
</event>
<event>
 8    1  0.6759491E-006  0.1006686E+04  0.7818608E-02  0.8771729E-01
         21   -1    0    0  501  502  0.00000000000E+00  0.00000000000E+00  0.79571257407E+03  0.79571257407E+03  0.00000000000E+00 0. -1.
         21   -1    0    0  502  503 -0.00000000000E+00 -0.00000000000E+00 -0.13276499742E+04  0.13276499742E+04  0.00000000000E+00 0. -1.
    9000010    2    1    2  501    0  0.32359442494E+02 -0.70892766036E+02 -0.51185569429E+03  0.11164765069E+04  0.98916662954E+03 0.  0.
   -9000010    2    1    2    0  503 -0.32359442494E+02  0.70892766036E+02 -0.20081705830E+02  0.10068860413E+04  0.10036649379E+04 0.  0.
        -13    1    3    3    0    0 -0.29986884796E+03 -0.11056397016E+02 -0.67711127661E+03  0.74062356293E+03  0.10566000000E+00 0.  1.
         13    1    4    4    0    0  0.17426465241E+03 -0.23913484869E+03 -0.38486761402E+03  0.48546548428E+03  0.10566000000E+00 0. -1.
          4    1    3    3  501    0  0.33222829046E+03 -0.59836369020E+02  0.16525558232E+03  0.37585294402E+03  0.00000000000E+00 0.  1.
         -4    1    4    4    0  503 -0.20662409491E+03  0.31002761473E+03  0.36478590819E+03  0.52142055704E+03  0.00000000000E+00 0. -1.
</event>
<event>
 8    1  0.6759491E-006  0.1054543E+04  0.7818608E-02  0.8727702E-01
         21   -1    0    0  503  502  0.00000000000E+00  0.00000000000E+00  0.10457714012E+04  0.10457714012E+04  0.00000000000E+00 0.  1.
         21   -1    0    0  501  503 -0.00000000000E+00 -0.00000000000E+00 -0.10872198288E+04  0.10872198288E+04  0.00000000000E+00 0.  1.
    9000010    2    1    2  501    0 -0.31751881641E+03  0.77688614063E+02 -0.21532752633E+03  0.10642091677E+04  0.98960673474E+03 0.  0.
   -9000010    2    1    2    0  502  0.31751881641E+03 -0.77688614063E+02  0.17387909873E+03  0.10687820623E+04  0.10026003372E+04 0.  0.
        -13    1    3    3    0    0 -0.19994941210E+03 -0.44000093580E+03 -0.22531698368E+03  0.53324323268E+03  0.10566000000E+00 0.  1.
         13    1    4    4    0    0  0.13679791786E+03  0.46341181097E+03  0.10149755267E+03  0.49372658551E+03  0.10566000000E+00 0. -1.
          4    1    3    3  501    0 -0.11756940431E+03  0.51768954986E+03  0.99894573499E+01  0.53096593499E+03  0.00000000000E+00 0.  1.
         -4    1    4    4    0  502  0.18072089854E+03 -0.54110042503E+03  0.72381546065E+02  0.57505547676E+03  0.00000000000E+00 0. -1.
</event>
<event>
 8    1  0.6759491E-006  0.1059171E+04  0.7818608E-02  0.8726377E-01
         21   -1    0    0  503  502  0.00000000000E+00  0.00000000000E+00  0.80310797443E+03  0.80310797443E+03  0.00000000000E+00 0. -1.
         21   -1    0    0  501  503 -0.00000000000E+00 -0.00000000000E+00 -0.15216492099E+04  0.15216492099E+04  0.00000000000E+00 0. -1.
    9000010    2    1    2  501    0 -0.12649536879E+03 -0.21498275054E+03 -0.73659695249E+03  0.12901236898E+04  0.10293810778E+04 0.  0.
   -9000010    2    1    2    0  502  0.12649536879E+03  0.21498275054E+03  0.18055717051E+02  0.10346334945E+04  0.10039530854E+04 0.  0.
        -13    1    3    3    0    0 -0.50736051777E+03  0.15064792017E+03 -0.40792663223E+03  0.66821676071E+03  0.10566000000E+00 0.  1.
         13    1    4    4    0    0 -0.30189831108E+03  0.35921942672E+03 -0.22611996663E+03  0.52087564469E+03  0.10566000000E+00 0. -1.
          4    1    3    3  501    0  0.38086514897E+03 -0.36563067071E+03 -0.32867032026E+03  0.62190692912E+03  0.00000000000E+00 0.  1.
         -4    1    4    4    0  502  0.42839367987E+03 -0.14423667618E+03  0.24417568368E+03  0.51375784978E+03  0.00000000000E+00 0. -1.
</event>
<event>
 8    1  0.6759491E-006  0.1047266E+04  0.7818608E-02  0.8740410E-01
         21   -1    0    0  501  502  0.00000000000E+00  0.00000000000E+00  0.35942140118E+04  0.35942140118E+04  0.00000000000E+00 0. -1.
         21   -1    0    0  502  503 -0.00000000000E+00 -0.00000000000E+00 -0.30201456830E+03  0.30201456830E+03  0.00000000000E+00 0. -1.
    9000010    2    1    2  501    0 -0.16368712047E+03 -0.24781943645E+03  0.20004986224E+04  0.22580435751E+04  0.10042699349E+04 0.  0.
   -9000010    2    1    2    0  503  0.16368712047E+03  0.24781943645E+03  0.12917008211E+04  0.16381850051E+04  0.96278302490E+03 0.  0.
        -13    1    3    3    0    0 -0.15300199527E+03  0.38503136135E+03  0.78719241648E+03  0.88956768799E+03  0.10566000000E+00 0.  1.
         13    1    4    4    0    0 -0.27981200321E+03  0.38458484101E+03  0.35727252685E+03  0.59484781808E+03  0.10566000000E+00 0. -1.
          4    1    3    3  501    0 -0.10685125206E+02 -0.63285079780E+03  0.12133062059E+04  0.13684758871E+04  0.00000000000E+00 0.  1.
         -4    1    4    4    0  503  0.44349912368E+03 -0.13676540456E+03  0.93442829429E+03  0.10433371870E+04  0.00000000000E+00 0. -1.
</event>
<event>
 8    1  0.6917244E-006  0.1020355E+04  0.7818608E-02  0.8756415E-01
         21   -1    0    0  501  502  0.00000000000E+00  0.00000000000E+00  0.65468113202E+03  0.65468113202E+03  0.00000000000E+00 0. -1.
         21   -1    0    0  502  503 -0.00000000000E+00 -0.00000000000E+00 -0.16000162307E+04  0.16000162307E+04  0.00000000000E+00 0. -1.
    9000010    2    1    2  501    0 -0.17655018761E+03  0.14860182551E+02 -0.36569181063E+03  0.10839072430E+04  0.10048550230E+04 0.  0.
   -9000010    2    1    2    0  503  0.17655018761E+03 -0.14860182551E+02 -0.57964328801E+03  0.11707901197E+04  0.10016847654E+04 0.  0.
        -13    1    3    3    0    0  0.28428476076E+03 -0.31805504025E+03 -0.27672086189E+03  0.50847938051E+03  0.10566000000E+00 0.  1.
         13    1    4    4    0    0 -0.11625006195E+03 -0.14322225811E+03 -0.77464916883E+03  0.79630900915E+03  0.10566000000E+00 0. -1.
          4    1    3    3  501    0 -0.46083494838E+03  0.33291522280E+03 -0.88970948740E+02  0.57542786250E+03  0.00000000000E+00 0.  1.
         -4    1    4    4    0  503  0.29280024957E+03  0.12836207556E+03  0.19500588082E+03  0.37448111053E+03  0.00000000000E+00 0. -1.
</event>
<event>
 8    1  0.6759491E-006  0.1029097E+04  0.7818608E-02  0.8768334E-01
         21   -1    0    0  501  502  0.00000000000E+00  0.00000000000E+00  0.73373884456E+03  0.73373884456E+03  0.00000000000E+00 0.  1.
         21   -1    0    0  502  503 -0.00000000000E+00 -0.00000000000E+00 -0.15351512836E+04  0.15351512836E+04  0.00000000000E+00 0.  1.
    9000010    2    1    2  501    0  0.26983433217E+03 -0.77004941429E+02  0.34648669765E+02  0.94297938928E+03  0.89959394755E+03 0.  0.
   -9000010    2    1    2    0  503 -0.26983433217E+03  0.77004941429E+02 -0.83606110885E+03  0.13259107389E+04  0.99010139988E+03 0.  0.
        -13    1    3    3    0    0  0.45523961522E+03  0.45618218183E+02  0.33662248869E+03  0.56801306336E+03  0.10566000000E+00 0.  1.
         13    1    4    4    0    0 -0.37576688022E+03 -0.12602465193E+03 -0.97884531726E+03  0.10560403058E+04  0.10566000000E+00 0. -1.
          4    1    3    3  501    0 -0.18540528305E+03 -0.12262315961E+03 -0.30197381892E+03  0.37496632592E+03  0.00000000000E+00 0.  1.
         -4    1    4    4    0  503  0.10593254805E+03  0.20302959336E+03  0.14278420840E+03  0.26987043314E+03  0.00000000000E+00 0. -1.
</event>
<event>
 8    1  0.6759491E-006  0.9990661E+03  0.7818608E-02  0.8777869E-01
         21   -1    0    0  503  502  0.00000000000E+00  0.00000000000E+00  0.11335802330E+04  0.11335802330E+04  0.00000000000E+00 0.  1.
         21   -1    0    0  501  503 -0.00000000000E+00 -0.00000000000E+00 -0.89607075446E+03  0.89607075446E+03  0.00000000000E+00 0.  1.
    9000010    2    1    2  501    0 -0.10427671275E+03  0.57902029227E+02 -0.48391901587E+02  0.10002373763E+04  0.99192074025E+03 0.  0.
   -9000010    2    1    2    0  502  0.10427671275E+03 -0.57902029227E+02  0.28590138012E+03  0.10294136112E+04  0.98169572980E+03 0.  0.
        -13    1    3    3    0    0  0.20531860254E+03  0.23984161746E+03 -0.39192918165E+03  0.50327748271E+03  0.10566000000E+00 0.  1.
         13    1    4    4    0    0  0.22151870760E+03  0.12250527664E+03  0.59855479615E+03  0.64988147825E+03  0.10566000000E+00 0. -1.
          4    1    3    3  501    0 -0.30959531529E+03 -0.18193958823E+03  0.34353728006E+03  0.49695989356E+03  0.00000000000E+00 0.  1.
         -4    1    4    4    0  502 -0.11724199485E+03 -0.18040730587E+03 -0.31265341603E+03  0.37953213292E+03  0.00000000000E+00 0. -1.
</event>
<event>
 8    1  0.6759491E-006  0.1026738E+04  0.7818608E-02  0.8751069E-01
         21   -1    0    0  503  502  0.00000000000E+00  0.00000000000E+00  0.13525313707E+04  0.13525313707E+04  0.00000000000E+00 0. -1.
         21   -1    0    0  501  503 -0.00000000000E+00 -0.00000000000E+00 -0.15974941269E+04  0.15974941269E+04  0.00000000000E+00 0. -1.
    9000010    2    1    2  501    0  0.18054225061E+03  0.51002427226E+02 -0.11804352598E+04  0.15610333763E+04  0.10040921509E+04 0.  0.
   -9000010    2    1    2    0  502 -0.18054225061E+03 -0.51002427226E+02  0.93547250366E+03  0.13889921213E+04  0.10094521069E+04 0.  0.
        -13    1    3    3    0    0  0.51033803103E+03  0.16329573862E+03 -0.10681227032E+04  0.11949880855E+04  0.10566000000E+00 0.  1.
         13    1    4    4    0    0  0.60197723781E+01  0.13438429740E+03 -0.19022241120E+03  0.23298058703E+03  0.10566000000E+00 0. -1.
          4    1    3    3  501    0 -0.32979578042E+03 -0.11229331139E+03 -0.11231255659E+03  0.36604529082E+03  0.00000000000E+00 0.  1.
         -4    1    4    4    0  502 -0.18656202299E+03 -0.18538672463E+03  0.11256949149E+04  0.11560115343E+04  0.00000000000E+00 0. -1.
</event>
<event>
 8    1  0.6759491E-006  0.1149200E+04  0.7818608E-02  0.8647259E-01
         21   -1    0    0  503  502  0.00000000000E+00  0.00000000000E+00  0.18936801191E+04  0.18936801191E+04  0.00000000000E+00 0. -1.
         21   -1    0    0  501  503 -0.00000000000E+00 -0.00000000000E+00 -0.14565911523E+04  0.14565911523E+04  0.00000000000E+00 0. -1.
    9000010    2    1    2  501    0 -0.53962772156E+03  0.10430671516E+03 -0.99459635318E+03  0.15144106794E+04  0.10010693440E+04 0.  0.
   -9000010    2    1    2    0  502  0.53962772156E+03 -0.10430671516E+03  0.14316853200E+04  0.18358605920E+04  0.10092488736E+04 0.  0.
        -13    1    3    3    0    0  0.22274587456E+03  0.27961722519E+03 -0.35688658852E+03  0.50514311387E+03  0.10566000000E+00 0.  1.
         13    1    4    4    0    0  0.72169488606E+03  0.23918804292E+03  0.96069749843E+03  0.12251506532E+04  0.10566000000E+00 0. -1.
          4    1    3    3  501    0 -0.76237359612E+03 -0.17531051004E+03 -0.63770976467E+03  0.10092675656E+04  0.00000000000E+00 0.  1.
         -4    1    4    4    0  502 -0.18206716450E+03 -0.34349475808E+03  0.47098782161E+03  0.61070993878E+03  0.00000000000E+00 0. -1.
</event>
<event>
 8    1  0.6759491E-006  0.1005264E+04  0.7818608E-02  0.8769698E-01
         21   -1    0    0  503  502  0.00000000000E+00  0.00000000000E+00  0.13550234836E+04  0.13550234836E+04  0.00000000000E+00 0. -1.
         21   -1    0    0  501  503 -0.00000000000E+00 -0.00000000000E+00 -0.81033984296E+03  0.81033984296E+03  0.00000000000E+00 0. -1.
    9000010    2    1    2  501    0 -0.14111608027E+02 -0.12314078026E+03  0.57818403364E+03  0.11595417534E+04  0.99743546753E+03 0.  0.
   -9000010    2    1    2    0  502  0.14111608027E+02  0.12314078026E+03 -0.33500392979E+02  0.10058215732E+04  0.99759308914E+03 0.  0.
        -13    1    3    3    0    0  0.31151952531E+02  0.25472430877E+03 -0.17846495728E+03  0.31257746202E+03  0.10566000000E+00 0.  1.
         13    1    4    4    0    0  0.43663911270E+03  0.29674804143E+03  0.82948411776E+02  0.53440954802E+03  0.10566000000E+00 0. -1.
          4    1    3    3  501    0 -0.45263560558E+02 -0.37786508902E+03  0.75664899091E+03  0.84696429138E+03  0.00000000000E+00 0.  1.
         -4    1    4    4    0  502 -0.42252750467E+03 -0.17360726118E+03 -0.11644880476E+03  0.47141202516E+03  0.00000000000E+00 0. -1.
</event>
<event>
 8    1  0.6759491E-006  0.1016950E+04  0.7818608E-02  0.8785011E-01
         21   -1    0    0  501  502  0.00000000000E+00  0.00000000000E+00  0.14743762230E+04  0.14743762230E+04  0.00000000000E+00 0. -1.
         21   -1    0    0  502  503 -0.00000000000E+00 -0.00000000000E+00 -0.66933720560E+03  0.66933720560E+03  0.00000000000E+00 0. -1.
    9000010    2    1    2  501    0  0.14003354210E+03 -0.61951487374E+02  0.64299749968E+03  0.11139342943E+04  0.89663618475E+03 0.  0.
   -9000010    2    1    2    0  503 -0.14003354210E+03  0.61951487374E+02  0.16204151767E+03  0.10297791342E+04  0.10053557739E+04 0.  0.
        -13    1    3    3    0    0  0.49205282946E+03 -0.14995668613E+03  0.22795509055E+03  0.56264245233E+03  0.10566000000E+00 0.  1.
         13    1    4    4    0    0 -0.32876975597E+03 -0.39919383385E+03  0.11071078150E+03  0.52886875283E+03  0.10566000000E+00 0. -1.
          4    1    3    3  501    0 -0.35201928736E+03  0.88005198758E+02  0.41504240914E+03  0.55129184200E+03  0.00000000000E+00 0.  1.
         -4    1    4    4    0  503  0.18873621387E+03  0.46114532122E+03  0.51330736174E+02  0.50091038139E+03  0.00000000000E+00 0. -1.
</event>
<event>
 8    1  0.6759491E-006  0.1076926E+04  0.7818608E-02  0.8714130E-01
         21   -1    0    0  503  502  0.00000000000E+00  0.00000000000E+00  0.10940085857E+04  0.10940085857E+04  0.00000000000E+00 0.  1.
         21   -1    0    0  501  503 -0.00000000000E+00 -0.00000000000E+00 -0.11426832508E+04  0.11426832508E+04  0.00000000000E+00 0.  1.
    9000010    2    1    2  501    0  0.63817888518E+02  0.14254420112E+03 -0.38868197249E+03  0.11449206663E+04  0.10655412166E+04 0.  0.
   -9000010    2    1    2    0  502 -0.63817888518E+02 -0.14254420112E+03  0.34000730736E+03  0.10917711703E+04  0.10256547894E+04 0.  0.
        -13    1    3    3    0    0 -0.34650522202E+03 -0.24179455183E+03  0.58490996918E+02  0.42655794690E+03  0.10566000000E+00 0.  1.
         13    1    4    4    0    0  0.38347752581E+03  0.15338218219E+03 -0.67106387661E+02  0.41843086053E+03  0.10566000000E+00 0. -1.
          4    1    3    3  501    0  0.41032311054E+03  0.38433875295E+03 -0.44717296940E+03  0.71836271940E+03  0.00000000000E+00 0.  1.
         -4    1    4    4    0  502 -0.44729541433E+03 -0.29592638331E+03  0.40711369502E+03  0.67334030972E+03  0.00000000000E+00 0. -1.
</event>
<event>
 8    1  0.6759491E-006  0.1063867E+04  0.7818608E-02  0.8720117E-01
         21   -1    0    0  501  502  0.00000000000E+00  0.00000000000E+00  0.15491748435E+04  0.15491748435E+04  0.00000000000E+00 0. -1.
         21   -1    0    0  502  503 -0.00000000000E+00 -0.00000000000E+00 -0.98590067584E+03  0.98590067584E+03  0.00000000000E+00 0. -1.
    9000010    2    1    2  501    0 -0.30080448691E+02 -0.36692731012E+03  0.94108023894E+03  0.14203676920E+04  0.99813419940E+03 0.  0.
   -9000010    2    1    2    0  503  0.30080448691E+02  0.36692731012E+03 -0.37780607130E+03  0.11147078273E+04  0.98198555413E+03 0.  0.
        -13    1    3    3    0    0 -0.12371310642E+03  0.19222718104E+03  0.80568165824E+03  0.83748383114E+03  0.10566000000E+00 0.  1.
         13    1    4    4    0    0 -0.15479572242E+02  0.67169848296E+03 -0.64037590422E+02  0.67492169421E+03  0.10566000000E+00 0. -1.
          4    1    3    3  501    0  0.93632657725E+02 -0.55915449116E+03  0.13539858070E+03  0.58288386085E+03  0.00000000000E+00 0.  1.
         -4    1    4    4    0  503  0.45560020933E+02 -0.30477117284E+03 -0.31376848088E+03  0.43978613313E+03  0.00000000000E+00 0. -1.
</event>
<event>
 8    1  0.6759491E-006  0.1056298E+04  0.7818608E-02  0.8726802E-01
         21   -1    0    0  501  502  0.00000000000E+00  0.00000000000E+00  0.48123446434E+03  0.48123446434E+03  0.00000000000E+00 0. -1.
         21   -1    0    0  502  503 -0.00000000000E+00 -0.00000000000E+00 -0.23173497974E+04  0.23173497974E+04  0.00000000000E+00 0. -1.
    9000010    2    1    2  501    0  0.14447400076E+03  0.35177860767E+03 -0.74656950369E+03  0.12810614128E+04  0.96908791857E+03 0.  0.
   -9000010    2    1    2    0  503 -0.14447400076E+03 -0.35177860767E+03 -0.10895458294E+04  0.15175228489E+04  0.98546666961E+03 0.  0.
        -13    1    3    3    0    0 -0.28939563546E+02 -0.21941792519E+03  0.10189380028E+03  0.24364745419E+03  0.10566000000E+00 0.  1.
         13    1    4    4    0    0 -0.39152332292E+02 -0.69558254883E+03 -0.72488110524E+03  0.10053957506E+04  0.10566000000E+00 0. -1.
          4    1    3    3  501    0  0.17341356430E+03  0.57119653285E+03 -0.84846330397E+03  0.10374139587E+04  0.00000000000E+00 0.  1.
         -4    1    4    4    0  503 -0.10532166846E+03  0.34380394117E+03 -0.36466472413E+03  0.51212709832E+03  0.00000000000E+00 0. -1.
</event>
<event>
 8    1  0.6759491E-006  0.1056441E+04  0.7818608E-02  0.8732492E-01
         21   -1    0    0  503  502  0.00000000000E+00  0.00000000000E+00  0.30356247847E+04  0.30356247847E+04  0.00000000000E+00 0. -1.
         21   -1    0    0  501  503 -0.00000000000E+00 -0.00000000000E+00 -0.93452218341E+03  0.93452218341E+03  0.00000000000E+00 0. -1.
    9000010    2    1    2  501    0  0.37337946842E+03  0.11487565607E+02 -0.52237633373E+03  0.11419481953E+04  0.94425868017E+03 0.  0.
   -9000010    2    1    2    0  502 -0.37337946842E+03 -0.11487565607E+02  0.26234789350E+04  0.28281987728E+04  0.98819147159E+03 0.  0.
        -13    1    3    3    0    0  0.36121698199E+03  0.33776895763E+03  0.35221216810E+02  0.49578838438E+03  0.10566000000E+00 0.  1.
         13    1    4    4    0    0 -0.71189596127E+03 -0.32739687730E+02  0.18968632275E+04  0.20263163282E+04  0.10566000000E+00 0. -1.
          4    1    3    3  501    0  0.12162486433E+02 -0.32628139202E+03 -0.55759755054E+03  0.64615981090E+03  0.00000000000E+00 0.  1.
         -4    1    4    4    0  502  0.33851649285E+03  0.21252122123E+02  0.72661570752E+03  0.80188244465E+03  0.00000000000E+00 0. -1.
</event>
<event>
 7    1  0.6759491E-006  0.1278601E+04  0.7818608E-02  0.8549613E-01
         21   -1    0    0  501  502  0.00000000000E+00  0.00000000000E+00  0.10572634234E+04  0.10572634234E+04  0.00000000000E+00 0. -1.
         21   -1    0    0  502  503 -0.00000000000E+00 -0.00000000000E+00 -0.16321870126E+04  0.16321870126E+04  0.00000000000E+00 0. -1.
    9000010    2    1    2  501    0  0.12728830418E+03  0.29662939507E+03 -0.42673843182E+03  0.11473938679E+04  0.10149954130E+04 0.  0.
        -13    1    3    3    0    0  0.48500159765E+03  0.26737770280E+03 -0.53751782620E+03  0.77177899060E+03  0.10566000000E+00 0.  1.
         13    1    1    2    0    0 -0.27311068878E+02 -0.91113707732E+03 -0.11226901294E+03  0.91843399904E+03  0.10566000000E+00 0. -1.
          4    1    3    3  501    0 -0.35771329347E+03  0.29251692268E+02  0.11077939438E+03  0.37561487729E+03  0.00000000000E+00 0.  1.
         -4    1    1    2    0  503 -0.99977235305E+02  0.61450768225E+03 -0.35916144449E+02  0.62362256900E+03  0.00000000000E+00 0. -1.
</event>
<event>
 8    1  0.6759491E-006  0.1013028E+04  0.7818608E-02  0.8776245E-01
         21   -1    0    0  503  502  0.00000000000E+00  0.00000000000E+00  0.15474267574E+04  0.15474267574E+04  0.00000000000E+00 0. -1.
         21   -1    0    0  501  503 -0.00000000000E+00 -0.00000000000E+00 -0.63396951174E+03  0.63396951174E+03  0.00000000000E+00 0. -1.
    9000010    2    1    2  501    0 -0.14022180296E+03 -0.35620537309E+02  0.56689851346E+03  0.11107288038E+04  0.94414700886E+03 0.  0.
   -9000010    2    1    2    0  502  0.14022180296E+03  0.35620537309E+02  0.34655873224E+03  0.10706674654E+04  0.10026439497E+04 0.  0.
        -13    1    3    3    0    0 -0.16003850235E+03 -0.37653050034E+03 -0.43362167071E+02  0.41142171627E+03  0.10566000000E+00 0.  1.
         13    1    4    4    0    0 -0.29359648440E+03  0.19394669852E+03 -0.15883389302E+03  0.38606014331E+03  0.10566000000E+00 0. -1.
          4    1    3    3  501    0  0.19816699386E+02  0.34090996304E+03  0.61026068053E+03  0.69930708754E+03  0.00000000000E+00 0.  1.
         -4    1    4    4    0  502  0.43381828736E+03 -0.15832616121E+03  0.50539262526E+03  0.68460732207E+03  0.00000000000E+00 0. -1.
</event>
<event>
 8    1  0.6759491E-006  0.1146330E+04  0.7818608E-02  0.8652163E-01
         21   -1    0    0  503  502  0.00000000000E+00  0.00000000000E+00  0.79156460018E+03  0.79156460018E+03  0.00000000000E+00 0.  1.
         21   -1    0    0  501  503 -0.00000000000E+00 -0.00000000000E+00 -0.22184137715E+04  0.22184137715E+04  0.00000000000E+00 0.  1.
    9000010    2    1    2  501    0  0.67006343714E+00  0.54791079353E+03  0.65633700525E+02  0.11280704539E+04  0.98388438330E+03 0.  0.
   -9000010    2    1    2    0  502 -0.67006343714E+00 -0.54791079353E+03 -0.14924828718E+04  0.18819079178E+04  0.10069089341E+04 0.  0.
        -13    1    3    3    0    0 -0.60907814425E+02  0.64871342612E+03  0.40605574576E+03  0.76773703240E+03  0.10566000000E+00 0.  1.
         13    1    4    4    0    0  0.15456288312E+03 -0.18906415311E+03 -0.14701425627E+04  0.14902865848E+04  0.10566000000E+00 0. -1.
          4    1    3    3  501    0  0.61577877862E+02 -0.10080263259E+03 -0.34042204524E+03  0.36033342152E+03  0.00000000000E+00 0.  1.
         -4    1    4    4    0  502 -0.15523294655E+03 -0.35884664042E+03 -0.22340309098E+02  0.39162133298E+03  0.00000000000E+00 0. -1.
</event>
<event>
 8    1  0.6759491E-006  0.1196131E+04  0.7818608E-02  0.8641732E-01
         21   -1    0    0  503  502  0.00000000000E+00  0.00000000000E+00  0.14692340147E+04  0.14692340147E+04  0.00000000000E+00 0. -1.
         21   -1    0    0  501  503 -0.00000000000E+00 -0.00000000000E+00 -0.92008750389E+03  0.92008750389E+03  0.00000000000E+00 0.  1.
    9000010    2    1    2  501    0 -0.24794749567E+03  0.56734074931E+03 -0.38621185511E+02  0.11967543323E+04  0.10234138213E+04 0.  0.
   -9000010    2    1    2    0  502  0.24794749567E+03 -0.56734074931E+03  0.58776769633E+03  0.11925671863E+04  0.83270171280E+03 0.  0.
        -13    1    3    3    0    0 -0.42647458567E+02  0.67955860685E+03 -0.38238789416E+03  0.78092203108E+03  0.10566000000E+00 0.  1.
         13    1    4    4    0    0  0.27353661179E+03  0.52217525105E+02  0.49170132905E+03  0.56508331782E+03  0.10566000000E+00 0. -1.
          4    1    3    3  501    0 -0.20530003711E+03 -0.11221785755E+03  0.34376670865E+03  0.41583230125E+03  0.00000000000E+00 0.  1.
         -4    1    4    4    0  502 -0.25589116114E+02 -0.61955827441E+03  0.96066367278E+02  0.62748386846E+03  0.00000000000E+00 0. -1.
</event>
<event>
 8    1  0.6759491E-006  0.1020491E+04  0.7818608E-02  0.8756134E-01
         21   -1    0    0  503  502  0.00000000000E+00  0.00000000000E+00  0.68636348559E+03  0.68636348559E+03  0.00000000000E+00 0.  1.
         21   -1    0    0  501  503 -0.00000000000E+00 -0.00000000000E+00 -0.15149184119E+04  0.15149184119E+04  0.00000000000E+00 0.  1.
    9000010    2    1    2  501    0  0.13309432807E+03 -0.11348574305E+03 -0.44572917983E+03  0.11113470183E+04  0.10029080612E+04 0.  0.
   -9000010    2    1    2    0  502 -0.13309432807E+03  0.11348574305E+03 -0.38282574649E+03  0.10899348792E+04  0.10053901605E+04 0.  0.
        -13    1    3    3    0    0 -0.15166490429E+03 -0.42112120394E+03  0.63158664894E+02  0.45203356039E+03  0.10566000000E+00 0.  1.
         13    1    4    4    0    0 -0.77143218099E+02  0.40542757343E+03 -0.59543203127E+03  0.72447353880E+03  0.10566000000E+00 0. -1.
          4    1    3    3  501    0  0.28475923236E+03  0.30763546089E+03 -0.50888784472E+03  0.65931345787E+03  0.00000000000E+00 0.  1.
         -4    1    4    4    0  502 -0.55951109971E+02 -0.29194183038E+03  0.21260628478E+03  0.36546134045E+03  0.00000000000E+00 0. -1.
</event>
<event>
 8    1  0.7613343E-006  0.1016674E+04  0.7818608E-02  0.8824384E-01
         21   -1    0    0  501  502  0.00000000000E+00  0.00000000000E+00  0.11648088104E+04  0.11648088104E+04  0.00000000000E+00 0. -1.
         21   -1    0    0  502  503 -0.00000000000E+00 -0.00000000000E+00 -0.76003782561E+03  0.76003782561E+03  0.00000000000E+00 0. -1.
    9000010    2    1    2  501    0 -0.17355418838E+03 -0.63024103573E+02 -0.70923209790E+02  0.10191450295E+04  0.99976667053E+03 0.  0.
   -9000010    2    1    2    0  503  0.17355418838E+03  0.63024103573E+02  0.47569419458E+03  0.90570160653E+03  0.74827624537E+03 0.  0.
        -13    1    3    3    0    0 -0.49282251503E+03  0.16194784575E+03  0.18663059102E+03  0.55130039428E+03  0.10566000000E+00 0.  1.
         13    1    4    4    0    0  0.14506234215E+03  0.40281222601E+03  0.23567639004E+03  0.48871683469E+03  0.10566000000E+00 0. -1.
          4    1    3    3  501    0  0.31926832665E+03 -0.22497194932E+03 -0.25755380081E+03  0.46784463521E+03  0.00000000000E+00 0.  1.
         -4    1    4    4    0  503  0.28491846228E+02 -0.33978812243E+03  0.24001780454E+03  0.41698477184E+03  0.00000000000E+00 0. -1.
</event>
<event>
 8    1  0.6759491E-006  0.1212204E+04  0.7818608E-02  0.8599850E-01
         21   -1    0    0  503  502  0.00000000000E+00  0.00000000000E+00  0.30270560688E+04  0.30270560688E+04  0.00000000000E+00 0.  1.
         21   -1    0    0  501  503 -0.00000000000E+00 -0.00000000000E+00 -0.85530775245E+03  0.85530775245E+03  0.00000000000E+00 0.  1.
    9000010    2    1    2  501    0  0.12813191699E+03 -0.65890693124E+03 -0.19626525711E+03  0.12279899011E+04  0.10093874449E+04 0.  0.
   -9000010    2    1    2    0  502 -0.12813191699E+03  0.65890693124E+03  0.23680135734E+04  0.26543739201E+04  0.99379901974E+03 0.  0.
        -13    1    3    3    0    0  0.28065710681E+03 -0.85356141752E+03  0.21069502639E+02  0.89876550901E+03  0.10566000000E+00 0.  1.
         13    1    4    4    0    0 -0.10780969696E+03  0.64568773717E+03  0.24670442098E+04  0.25524189955E+04  0.10566000000E+00 0. -1.
          4    1    3    3  501    0 -0.15252518982E+03  0.19465448629E+03 -0.21733475975E+03  0.32922439210E+03  0.00000000000E+00 0.  1.
         -4    1    4    4    0  502 -0.20322220020E+02  0.13219194067E+02 -0.99030636318E+02  0.10195492459E+03  0.00000000000E+00 0. -1.
</event>
<event>
 8    1  0.6759491E-006  0.1047222E+04  0.7818608E-02  0.8734958E-01
         21   -1    0    0  501  502  0.00000000000E+00  0.00000000000E+00  0.84258230277E+03  0.84258230277E+03  0.00000000000E+00 0. -1.
         21   -1    0    0  502  503 -0.00000000000E+00 -0.00000000000E+00 -0.22351775735E+04  0.22351775735E+04  0.00000000000E+00 0. -1.
    9000010    2    1    2  501    0 -0.15502848541E+03 -0.29066075375E+03  0.31155794899E+03  0.10775568673E+04  0.97751876791E+03 0.  0.
   -9000010    2    1    2    0  503  0.15502848541E+03  0.29066075375E+03 -0.17041532197E+04  0.20002030090E+04  0.99406054936E+03 0.  0.
        -13    1    3    3    0    0 -0.24981569174E+03  0.24756752346E+03 -0.12999257866E+03  0.37496085154E+03  0.10566000000E+00 0.  1.
         13    1    4    4    0    0  0.30016973698E+03 -0.30731766188E+03 -0.63617091227E+03  0.76763237105E+03  0.10566000000E+00 0. -1.
          4    1    3    3  501    0  0.94787206331E+02 -0.53822827722E+03  0.44155052766E+03  0.70259601575E+03  0.00000000000E+00 0.  1.
         -4    1    4    4    0  503 -0.14514125157E+03  0.59797841563E+03 -0.10679823075E+04  0.12325706380E+04  0.00000000000E+00 0. -1.
</event>
<event>
 8    1  0.6759491E-006  0.1055598E+04  0.7818608E-02  0.8731779E-01
         21   -1    0    0  501  502  0.00000000000E+00  0.00000000000E+00  0.12676579240E+04  0.12676579240E+04  0.00000000000E+00 0. -1.
         21   -1    0    0  502  503 -0.00000000000E+00 -0.00000000000E+00 -0.85854933973E+03  0.85854933973E+03  0.00000000000E+00 0. -1.
    9000010    2    1    2  501    0  0.22461129456E+03 -0.49838014710E+02  0.97970178548E+02  0.10257102361E+04  0.99476091159E+03 0.  0.
   -9000010    2    1    2    0  503 -0.22461129456E+03  0.49838014710E+02  0.31113840571E+03  0.11004970276E+04  0.10302196557E+04 0.  0.
        -13    1    3    3    0    0  0.36366165176E+03 -0.37769817496E+03 -0.20020393129E+03  0.56123732378E+03  0.10566000000E+00 0.  1.
         13    1    4    4    0    0 -0.45439089564E+03 -0.36109629068E+03  0.12181428022E+03  0.59304329287E+03  0.10566000000E+00 0. -1.
          4    1    3    3  501    0 -0.13905035720E+03  0.32786016025E+03  0.29817410984E+03  0.46447291234E+03  0.00000000000E+00 0.  1.
         -4    1    4    4    0  503  0.22977960107E+03  0.41093430539E+03  0.18932412549E+03  0.50745373475E+03  0.00000000000E+00 0. -1.
</event>
<event>
 8    1  0.6759491E-006  0.1177641E+04  0.7818608E-02  0.8628381E-01
         21   -1    0    0  503  502  0.00000000000E+00  0.00000000000E+00  0.14554194533E+04  0.14554194533E+04  0.00000000000E+00 0.  1.
         21   -1    0    0  501  503 -0.00000000000E+00 -0.00000000000E+00 -0.14070987281E+04  0.14070987281E+04  0.00000000000E+00 0.  1.
    9000010    2    1    2  501    0 -0.59363736501E+03 -0.84855085430E+02 -0.80669030564E+03  0.14072236837E+04  0.98484696284E+03 0.  0.
   -9000010    2    1    2    0  502  0.59363736501E+03  0.84855085430E+02  0.85501103082E+03  0.14552944976E+04  0.10135247927E+04 0.  0.
        -13    1    3    3    0    0  0.13349366523E+02  0.16820941173E+03 -0.72519279534E+03  0.74456511694E+03  0.10566000000E+00 0.  1.
         13    1    4    4    0    0 -0.45055957189E+02 -0.24416535699E+03  0.66835680416E+03  0.71298498558E+03  0.10566000000E+00 0. -1.
          4    1    3    3  501    0 -0.60698673153E+03 -0.25306449716E+03 -0.81497510300E+02  0.66265856681E+03  0.00000000000E+00 0.  1.
         -4    1    4    4    0  502  0.63869332220E+03  0.32902044242E+03  0.18665422666E+03  0.74230951205E+03  0.00000000000E+00 0. -1.
</event>
<event>
 8    1  0.6759491E-006  0.1083872E+04  0.7818608E-02  0.8703206E-01
         21   -1    0    0  501  502  0.00000000000E+00  0.00000000000E+00  0.18473398548E+04  0.18473398548E+04  0.00000000000E+00 0. -1.
         21   -1    0    0  502  503 -0.00000000000E+00 -0.00000000000E+00 -0.66736872794E+03  0.66736872794E+03  0.00000000000E+00 0. -1.
    9000010    2    1    2  501    0  0.33812202062E+03  0.19685278098E+03  0.90747338305E+03  0.14136075539E+04  0.10107921929E+04 0.  0.
   -9000010    2    1    2    0  503 -0.33812202062E+03 -0.19685278098E+03  0.27249774382E+03  0.11011010289E+04  0.99251747452E+03 0.  0.
        -13    1    3    3    0    0  0.20243782918E+03  0.32221669407E+03  0.10896332621E+04  0.11541686747E+04  0.10566000000E+00 0.  1.
         13    1    4    4    0    0 -0.63106861457E+03 -0.74490438329E+01  0.37924026215E+03  0.73629224642E+03  0.10566000000E+00 0. -1.
          4    1    3    3  501    0  0.13568419145E+03 -0.12536391308E+03 -0.18215987902E+03  0.25943887919E+03  0.00000000000E+00 0.  1.
         -4    1    4    4    0  503  0.29294659394E+03 -0.18940373715E+03 -0.10674251833E+03  0.36480878247E+03  0.00000000000E+00 0. -1.
</event>
<event>
 8    1  0.6759491E-006  0.1088313E+04  0.7818608E-02  0.8696963E-01
         21   -1    0    0  501  502  0.00000000000E+00  0.00000000000E+00  0.15677646960E+04  0.15677646960E+04  0.00000000000E+00 0. -1.
         21   -1    0    0  502  503 -0.00000000000E+00 -0.00000000000E+00 -0.83033875101E+03  0.83033875101E+03  0.00000000000E+00 0. -1.
    9000010    2    1    2  501    0 -0.35964245260E+03 -0.22773840489E+03  0.73707219769E+03  0.13097905658E+04  0.99552419709E+03 0.  0.
   -9000010    2    1    2    0  503  0.35964245260E+03  0.22773840489E+03  0.35374735034E+00  0.10883128812E+04  0.10016073719E+04 0.  0.
        -13    1    3    3    0    0 -0.39521492718E+03  0.23682419587E+03  0.70573138986E+03  0.84281513051E+03  0.10566000000E+00 0.  1.
         13    1    4    4    0    0  0.40674217040E+03 -0.17995480385E+03 -0.33621285962E+03  0.55755001816E+03  0.10566000000E+00 0. -1.
          4    1    3    3  501    0  0.35572474582E+02 -0.46456260076E+03  0.31340807828E+02  0.46697543534E+03  0.00000000000E+00 0.  1.
         -4    1    4    4    0  503 -0.47099717798E+02  0.40769320874E+03  0.33656660697E+03  0.53076286306E+03  0.00000000000E+00 0. -1.
</event>
<event>
 8    1  0.6759491E-006  0.1206254E+04  0.7818608E-02  0.8630508E-01
         21   -1    0    0  503  502  0.00000000000E+00  0.00000000000E+00  0.21348431247E+04  0.21348431247E+04  0.00000000000E+00 0.  1.
         21   -1    0    0  501  503 -0.00000000000E+00 -0.00000000000E+00 -0.74861443087E+03  0.74861443087E+03  0.00000000000E+00 0.  1.
    9000010    2    1    2  501    0  0.26212344029E+03 -0.55852616033E+02  0.93531462195E+02  0.12098746256E+04  0.11761038486E+04 0.  0.
   -9000010    2    1    2    0  502 -0.26212344029E+03  0.55852616033E+02  0.12926972317E+04  0.16735829300E+04  0.10285842105E+04 0.  0.
        -13    1    3    3    0    0 -0.21670608017E+03 -0.42598497584E+03  0.30709131108E+03  0.56809313438E+03  0.10566000000E+00 0.  1.
         13    1    4    4    0    0  0.24641626477E+03  0.33122307487E+03  0.85113706839E+03  0.94597252667E+03  0.10566000000E+00 0. -1.
          4    1    3    3  501    0  0.47882952046E+03  0.37013235981E+03 -0.21355984888E+03  0.64178149124E+03  0.00000000000E+00 0.  1.
         -4    1    4    4    0  502 -0.50853970506E+03 -0.27537045884E+03  0.44156016328E+03  0.72761040332E+03  0.00000000000E+00 0. -1.
</event>
<event>
 8    1  0.6759491E-006  0.1134524E+04  0.7818608E-02  0.8659146E-01
         21   -1    0    0  501  502  0.00000000000E+00  0.00000000000E+00  0.17403273825E+04  0.17403273825E+04  0.00000000000E+00 0. -1.
         21   -1    0    0  502  503 -0.00000000000E+00 -0.00000000000E+00 -0.84386166578E+03  0.84386166578E+03  0.00000000000E+00 0. -1.
    9000010    2    1    2  501    0  0.15335130751E+03  0.49474709885E+03  0.91198300029E+03  0.14495585974E+04  0.10006077249E+04 0.  0.
   -9000010    2    1    2    0  503 -0.15335130751E+03 -0.49474709885E+03 -0.15517283542E+02  0.11346304509E+04  0.10093830585E+04 0.  0.
        -13    1    3    3    0    0  0.49309742303E+03  0.18715734368E+03  0.83087435846E+03  0.98413675401E+03  0.10566000000E+00 0.  1.
         13    1    4    4    0    0 -0.32601671733E+03 -0.35412501210E+03  0.42429806293E+03  0.64165433181E+03  0.10566000000E+00 0. -1.
          4    1    3    3  501    0 -0.33974611552E+03  0.30758975517E+03  0.81108641826E+02  0.46542184336E+03  0.00000000000E+00 0.  1.
         -4    1    4    4    0  503  0.17266540982E+03 -0.14062208676E+03 -0.43981534647E+03  0.49297611912E+03  0.00000000000E+00 0. -1.
</event>
<event>
 8    1  0.6759491E-006  0.1078199E+04  0.7818608E-02  0.8706416E-01
         21   -1    0    0  501  502  0.00000000000E+00  0.00000000000E+00  0.15770562171E+04  0.15770562171E+04  0.00000000000E+00 0. -1.
         21   -1    0    0  502  503 -0.00000000000E+00 -0.00000000000E+00 -0.95681076103E+03  0.95681076103E+03  0.00000000000E+00 0. -1.
    9000010    2    1    2  501    0 -0.30909216547E+03  0.21434819404E+03  0.92490281408E+03  0.14134518449E+04  0.10004587884E+04 0.  0.
   -9000010    2    1    2    0  503  0.30909216547E+03 -0.21434819404E+03 -0.30465735800E+03  0.11204151332E+04  0.10104607117E+04 0.  0.
        -13    1    3    3    0    0 -0.63503221925E+03  0.31077479578E+03  0.48426466361E+03  0.85694758810E+03  0.10566000000E+00 0.  1.
         13    1    4    4    0    0 -0.18347558192E+03 -0.47904757631E+03 -0.86715730512E+02  0.52025906875E+03  0.10566000000E+00 0. -1.
          4    1    3    3  501    0  0.32594005377E+03 -0.96426601736E+02  0.44063815047E+03  0.55650425679E+03  0.00000000000E+00 0.  1.
         -4    1    4    4    0  503  0.49256774740E+03  0.26469938227E+03 -0.21794162749E+03  0.60015606449E+03  0.00000000000E+00 0. -1.
</event>
<event>
 8    1  0.6759491E-006  0.1008436E+04  0.7818608E-02  0.8768069E-01
         21   -1    0    0  503  502  0.00000000000E+00  0.00000000000E+00  0.13274880550E+04  0.13274880550E+04  0.00000000000E+00 0.  1.
         21   -1    0    0  501  503 -0.00000000000E+00 -0.00000000000E+00 -0.81425583024E+03  0.81425583024E+03  0.00000000000E+00 0.  1.
    9000010    2    1    2  501    0  0.11112846870E+03  0.76611193094E+02 -0.14923457419E+02  0.10085461247E+04  0.99936167855E+03 0.  0.
   -9000010    2    1    2    0  502 -0.11112846870E+03 -0.76611193094E+02  0.52815568217E+03  0.11331977606E+04  0.99346360198E+03 0.  0.
        -13    1    3    3    0    0 -0.29364098263E+03  0.22094568402E+03  0.30113211437E+03  0.47510270831E+03  0.10566000000E+00 0.  1.
         13    1    4    4    0    0 -0.52606836459E+03  0.12567701306E+03  0.27713081748E+03  0.60773689784E+03  0.10566000000E+00 0. -1.
          4    1    3    3  501    0  0.40476945133E+03 -0.14433449093E+03 -0.31605557179E+03  0.53344341637E+03  0.00000000000E+00 0.  1.
         -4    1    4    4    0  502  0.41493989589E+03 -0.20228820616E+03  0.25102486469E+03  0.52546086272E+03  0.00000000000E+00 0. -1.
</event>
<event>
 8    1  0.6759491E-006  0.1079318E+04  0.7818608E-02  0.8706098E-01
         21   -1    0    0  503  502  0.00000000000E+00  0.00000000000E+00  0.22516278979E+04  0.22516278979E+04  0.00000000000E+00 0.  1.
         21   -1    0    0  501  503 -0.00000000000E+00 -0.00000000000E+00 -0.79049552819E+03  0.79049552819E+03  0.00000000000E+00 0.  1.
    9000010    2    1    2  501    0 -0.15287904820E+03 -0.33948328079E+03 -0.17582438704E+03  0.10813696620E+04  0.99991261093E+03 0.  0.
   -9000010    2    1    2    0  502  0.15287904820E+03  0.33948328079E+03  0.16369567567E+04  0.19607537641E+04  0.10130681116E+04 0.  0.
        -13    1    3    3    0    0 -0.49887114231E+03  0.69037560862E+02  0.37640899758E+02  0.50503014755E+03  0.10566000000E+00 0.  1.
         13    1    4    4    0    0 -0.29911504623E+03  0.50728384644E+03  0.77822225761E+03  0.97592858609E+03  0.10566000000E+00 0. -1.
          4    1    3    3  501    0  0.34599209410E+03 -0.40852084165E+03 -0.21346528680E+03  0.57633951445E+03  0.00000000000E+00 0.  1.
         -4    1    4    4    0  502  0.45199409443E+03 -0.16780056565E+03  0.85873449914E+03  0.98482517801E+03  0.00000000000E+00 0. -1.
</event>
<event>
 8    1  0.6759491E-006  0.1041414E+04  0.7818608E-02  0.8741776E-01
         21   -1    0    0  501  502  0.00000000000E+00  0.00000000000E+00  0.62228612435E+03  0.62228612435E+03  0.00000000000E+00 0.  1.
         21   -1    0    0  502  503 -0.00000000000E+00 -0.00000000000E+00 -0.18121204139E+04  0.18121204139E+04  0.00000000000E+00 0.  1.
    9000010    2    1    2  501    0 -0.14178992710E+03 -0.97855415648E+02 -0.30509518615E+03  0.10851846417E+04  0.10270650262E+04 0.  0.
   -9000010    2    1    2    0  503  0.14178992710E+03  0.97855415648E+02 -0.88473910344E+03  0.13492218966E+04  0.10039703080E+04 0.  0.
        -13    1    3    3    0    0 -0.46449628054E+03 -0.92021972559E+02  0.17657499218E+03  0.50537468981E+03  0.10566000000E+00 0.  1.
         13    1    4    4    0    0 -0.29198085622E+03 -0.92983810193E+02 -0.81439174926E+03  0.87013374937E+03  0.10566000000E+00 0. -1.
          4    1    3    3  501    0  0.32270635344E+03 -0.58334430884E+01 -0.48167017832E+03  0.57980995188E+03  0.00000000000E+00 0.  1.
         -4    1    4    4    0  503  0.43377078333E+03  0.19083922584E+03 -0.70347354173E+02  0.47908814724E+03  0.00000000000E+00 0. -1.
</event>
<event>
 8    1  0.6759491E-006  0.1070647E+04  0.7818608E-02  0.8723979E-01
         21   -1    0    0  503  502  0.00000000000E+00  0.00000000000E+00  0.52843487051E+03  0.52843487051E+03  0.00000000000E+00 0. -1.
         21   -1    0    0  501  503 -0.00000000000E+00 -0.00000000000E+00 -0.21868764017E+04  0.21868764017E+04  0.00000000000E+00 0. -1.
    9000010    2    1    2  501    0 -0.11385095871E+03 -0.17196133950E+03 -0.11444313242E+04  0.15276700862E+04  0.99071695928E+03 0.  0.
   -9000010    2    1    2    0  502  0.11385095871E+03  0.17196133950E+03 -0.51401020699E+03  0.11876411860E+04  0.10505961882E+04 0.  0.
        -13    1    3    3    0    0  0.41896219013E+03  0.34304722462E+02 -0.63887323945E+03  0.76476477298E+03  0.10566000000E+00 0.  1.
         13    1    4    4    0    0  0.34339439115E+03  0.41409849630E+01  0.21497949714E+03  0.40515805679E+03  0.10566000000E+00 0. -1.
          4    1    3    3  501    0 -0.53281314884E+03 -0.20626606197E+03 -0.50555808476E+03  0.76290531323E+03  0.00000000000E+00 0.  1.
         -4    1    4    4    0  502 -0.22954343244E+03  0.16782035454E+03 -0.72898970412E+03  0.78248312921E+03  0.00000000000E+00 0. -1.
</event>
<event>
 8    1  0.6759491E-006  0.1047509E+04  0.7818608E-02  0.8733920E-01
         21   -1    0    0  501  502  0.00000000000E+00  0.00000000000E+00  0.11902587690E+04  0.11902587690E+04  0.00000000000E+00 0.  1.
         21   -1    0    0  502  503 -0.00000000000E+00 -0.00000000000E+00 -0.10387108503E+04  0.10387108503E+04  0.00000000000E+00 0.  1.
    9000010    2    1    2  501    0  0.15979752419E+03 -0.26203551083E+03  0.46670654374E+03  0.11467742337E+04  0.10015379610E+04 0.  0.
   -9000010    2    1    2    0  503 -0.15979752419E+03  0.26203551083E+03 -0.31515862504E+03  0.10821953856E+04  0.98874872236E+03 0.  0.
        -13    1    3    3    0    0 -0.15768525499E+03  0.21732192850E+03  0.50352068112E+03  0.57063696667E+03  0.10566000000E+00 0.  1.
         13    1    4    4    0    0 -0.23485806263E+03 -0.34437454818E+03 -0.64735909915E+02  0.42183277281E+03  0.10566000000E+00 0. -1.
          4    1    3    3  501    0  0.31748277918E+03 -0.47935743934E+03 -0.36814137374E+02  0.57613726701E+03  0.00000000000E+00 0.  1.
         -4    1    4    4    0  503  0.75060538445E+02  0.60641005901E+03 -0.25042271512E+03  0.66036261278E+03  0.00000000000E+00 0. -1.
</event>
<event>
 8    1  0.6759491E-006  0.1045476E+04  0.7818608E-02  0.8733783E-01
         21   -1    0    0  503  502  0.00000000000E+00  0.00000000000E+00  0.11724317019E+04  0.11724317019E+04  0.00000000000E+00 0. -1.
         21   -1    0    0  501  503 -0.00000000000E+00 -0.00000000000E+00 -0.96473047357E+03  0.96473047357E+03  0.00000000000E+00 0. -1.
    9000010    2    1    2  501    0  0.14704431389E+03  0.11126390919E+03 -0.10159684217E+03  0.10468932794E+04  0.10255056959E+04 0.  0.
   -9000010    2    1    2    0  502 -0.14704431389E+03 -0.11126390919E+03  0.30929807050E+03  0.10902688960E+04  0.10290866249E+04 0.  0.
        -13    1    3    3    0    0 -0.62821357988E+02 -0.42657821060E+03  0.86337907779E+02  0.43973826108E+03  0.10566000000E+00 0.  1.
         13    1    4    4    0    0  0.38472208885E+03  0.30777897157E+02  0.37231636993E+03  0.53626286007E+03  0.10566000000E+00 0. -1.
          4    1    3    3  501    0  0.20986567188E+03  0.53784211979E+03 -0.18793474995E+03  0.60715501833E+03  0.00000000000E+00 0.  1.
         -4    1    4    4    0  502 -0.53176640274E+03 -0.14204180634E+03 -0.63018299431E+02  0.55400603598E+03  0.00000000000E+00 0. -1.
</event>
<event>
 8    1  0.6759491E-006  0.1018626E+04  0.7818608E-02  0.8758626E-01
         21   -1    0    0  501  502  0.00000000000E+00  0.00000000000E+00  0.39221018416E+03  0.39221018416E+03  0.00000000000E+00 0. -1.
         21   -1    0    0  502  503 -0.00000000000E+00 -0.00000000000E+00 -0.28938329686E+04  0.28938329686E+04  0.00000000000E+00 0. -1.
    9000010    2    1    2  501    0  0.20279798279E+02 -0.10976253504E+03 -0.75836816879E+03  0.12699298015E+04  0.10124921417E+04 0.  0.
   -9000010    2    1    2    0  503 -0.20279798279E+02  0.10976253504E+03 -0.17432546157E+04  0.20161133512E+04  0.10066366304E+04 0.  0.
        -13    1    3    3    0    0 -0.97954988392E+02  0.31479699869E+03  0.65000077151E+02  0.33603177131E+03  0.10566000000E+00 0.  1.
         13    1    4    4    0    0  0.29515343838E+03 -0.66184032091E+02 -0.15987167495E+04  0.16270805557E+04  0.10566000000E+00 0. -1.
          4    1    3    3  501    0  0.11823478667E+03 -0.42455953372E+03 -0.82336824594E+03  0.93389803023E+03  0.00000000000E+00 0.  1.
         -4    1    4    4    0  503 -0.31543323666E+03  0.17594656713E+03 -0.14453786615E+03  0.38903279556E+03  0.00000000000E+00 0. -1.
</event>
<event>
 8    1  0.6759491E-006  0.1359541E+04  0.7818608E-02  0.8496810E-01
         21   -1    0    0  501  502  0.00000000000E+00  0.00000000000E+00  0.23847843399E+04  0.23847843399E+04  0.00000000000E+00 0.  1.
         21   -1    0    0  502  503 -0.00000000000E+00 -0.00000000000E+00 -0.99723337339E+03  0.99723337339E+03  0.00000000000E+00 0.  1.
    9000010    2    1    2  501    0  0.34376122619E+03 -0.83452632199E+03  0.15037666126E+04  0.20272307920E+04  0.10167323620E+04 0.  0.
   -9000010    2    1    2    0  503 -0.34376122619E+03  0.83452632199E+03 -0.11621564613E+03  0.13547869213E+04  0.10036610797E+04 0.  0.
        -13    1    3    3    0    0 -0.35844221616E+03 -0.31287754848E+03  0.42142839324E+03  0.63559034327E+03  0.10566000000E+00 0.  1.
         13    1    4    4    0    0 -0.49813751843E+02  0.10057152833E+04 -0.12386593866E+03  0.10145380342E+04  0.10566000000E+00 0. -1.
          4    1    3    3  501    0  0.70220344235E+03 -0.52164877352E+03  0.10823382194E+04  0.13916404487E+04  0.00000000000E+00 0.  1.
         -4    1    4    4    0  503 -0.29394747435E+03 -0.17118896134E+03  0.76502925250E+01  0.34024888704E+03  0.00000000000E+00 0. -1.
</event>
<event>
 8    1  0.6759491E-006  0.1108745E+04  0.7818608E-02  0.8682403E-01
         21   -1    0    0  503  502  0.00000000000E+00  0.00000000000E+00  0.15815031533E+04  0.15815031533E+04  0.00000000000E+00 0. -1.
         21   -1    0    0  501  503 -0.00000000000E+00 -0.00000000000E+00 -0.18250244761E+04  0.18250244761E+04  0.00000000000E+00 0. -1.
    9000010    2    1    2  501    0 -0.26547524204E+03  0.36018695649E+03 -0.14195730563E+04  0.17902315693E+04  0.99475105530E+03 0.  0.
   -9000010    2    1    2    0  502  0.26547524204E+03 -0.36018695649E+03  0.11760517335E+04  0.16162960601E+04  0.10144473995E+04 0.  0.
        -13    1    3    3    0    0 -0.55513493455E+03  0.12314755234E+03 -0.12618810851E+04  0.13840823673E+04  0.10566000000E+00 0.  1.
         13    1    4    4    0    0 -0.27580267865E+03 -0.45970325327E+03  0.74188173384E+03  0.91530471253E+03  0.10566000000E+00 0. -1.
          4    1    3    3  501    0  0.28965969250E+03  0.23703940415E+03 -0.15769197113E+03  0.40614920207E+03  0.00000000000E+00 0.  1.
         -4    1    4    4    0  502  0.54127792069E+03  0.99516296786E+02  0.43416999968E+03  0.70099134758E+03  0.00000000000E+00 0. -1.
</event>
<event>
 8    1  0.6759491E-006  0.1019795E+04  0.7818608E-02  0.8766703E-01
         21   -1    0    0  503  502  0.00000000000E+00  0.00000000000E+00  0.14475039898E+04  0.14475039898E+04  0.00000000000E+00 0.  1.
         21   -1    0    0  501  503 -0.00000000000E+00 -0.00000000000E+00 -0.69261740184E+03  0.69261740184E+03  0.00000000000E+00 0.  1.
    9000010    2    1    2  501    0  0.35515150801E+02  0.11860855536E+03  0.46244946025E+03  0.10792253307E+04  0.96723238981E+03 0.  0.
   -9000010    2    1    2    0  502 -0.35515150801E+02 -0.11860855536E+03  0.29243712770E+03  0.10608960609E+04  0.10122507906E+04 0.  0.
        -13    1    3    3    0    0 -0.75731255255E+02  0.33764769637E+03 -0.18096903665E+03  0.39050095169E+03  0.10566000000E+00 0.  1.
         13    1    4    4    0    0  0.30411504363E+03  0.41275630703E+02  0.53300182302E+03  0.61504519505E+03  0.10566000000E+00 0. -1.
          4    1    3    3  501    0  0.11124640606E+03 -0.21903914100E+03  0.64341849689E+03  0.68872437905E+03  0.00000000000E+00 0.  1.
         -4    1    4    4    0  502 -0.33963019443E+03 -0.15988418607E+03 -0.24056469532E+03  0.44585086583E+03  0.00000000000E+00 0. -1.
</event>
<event>
 8    1  0.6759491E-006  0.1081750E+04  0.7818608E-02  0.8704481E-01
         21   -1    0    0  503  502  0.00000000000E+00  0.00000000000E+00  0.17074620482E+04  0.17074620482E+04  0.00000000000E+00 0. -1.
         21   -1    0    0  501  503 -0.00000000000E+00 -0.00000000000E+00 -0.93668669666E+03  0.93668669666E+03  0.00000000000E+00 0. -1.
    9000010    2    1    2  501    0 -0.70390841579E+02 -0.39442073328E+03 -0.30995281093E+03  0.11252795038E+04  0.10048187057E+04 0.  0.
   -9000010    2    1    2    0  502  0.70390841579E+02  0.39442073328E+03  0.10807281625E+04  0.15188692411E+04  0.98917532565E+03 0.  0.
        -13    1    3    3    0    0  0.26600203418E+03 -0.28496408287E+03  0.24988750066E+03  0.46303929084E+03  0.10566000000E+00 0.  1.
         13    1    4    4    0    0  0.11451695210E+03  0.30353186811E+02 -0.17463919003E+03  0.21103152875E+03  0.10566000000E+00 0. -1.
          4    1    3    3  501    0 -0.33639287576E+03 -0.10945665041E+03 -0.55984031159E+03  0.66224021296E+03  0.00000000000E+00 0.  1.
         -4    1    4    4    0  502 -0.44126110526E+02  0.36406754647E+03  0.12553673525E+04  0.13078377123E+04  0.00000000000E+00 0. -1.
</event>
<event>
 8    1  0.6759491E-006  0.1094271E+04  0.7818608E-02  0.8710550E-01
         21   -1    0    0  501  502  0.00000000000E+00  0.00000000000E+00  0.86893817177E+03  0.86893817177E+03  0.00000000000E+00 0. -1.
         21   -1    0    0  502  503 -0.00000000000E+00 -0.00000000000E+00 -0.13632394427E+04  0.13632394427E+04  0.00000000000E+00 0. -1.
    9000010    2    1    2  501    0 -0.13939294034E+02 -0.35691661700E+03  0.58840745866E+02  0.10060475649E+04  0.93866165045E+03 0.  0.
   -9000010    2    1    2    0  503  0.13939294034E+02  0.35691661700E+03 -0.55314201685E+03  0.12261300496E+04  0.10343331341E+04 0.  0.
        -13    1    3    3    0    0 -0.99491471087E+02  0.25182364282E+03  0.24353930765E+03  0.36417729945E+03  0.10566000000E+00 0.  1.
         13    1    4    4    0    0 -0.14937452378E+02 -0.26888004099E+03  0.13017215019E+03  0.29910600759E+03  0.10566000000E+00 0. -1.
          4    1    3    3  501    0  0.85552177053E+02 -0.60874025982E+03 -0.18469856178E+03  0.64187026543E+03  0.00000000000E+00 0.  1.
         -4    1    4    4    0  503  0.28876746411E+02  0.62579665799E+03 -0.68331416704E+03  0.92702404204E+03  0.00000000000E+00 0. -1.
</event>
<event>
 8    1  0.6759491E-006  0.1099154E+04  0.7818608E-02  0.8691062E-01
         21   -1    0    0  501  502  0.00000000000E+00  0.00000000000E+00  0.14517485411E+04  0.14517485411E+04  0.00000000000E+00 0. -1.
         21   -1    0    0  502  503 -0.00000000000E+00 -0.00000000000E+00 -0.95800207494E+03  0.95800207494E+03  0.00000000000E+00 0. -1.
    9000010    2    1    2  501    0  0.81748527430E+02  0.37878495675E+03  0.70801161641E+03  0.12899077385E+04  0.10061911645E+04 0.  0.
   -9000010    2    1    2    0  503 -0.81748527430E+02 -0.37878495675E+03 -0.21426515024E+03  0.11198428776E+04  0.10285804056E+04 0.  0.
        -13    1    3    3    0    0 -0.10736505088E+03  0.23820052744E+03 -0.21432958257E+03  0.33794071455E+03  0.10566000000E+00 0.  1.
         13    1    4    4    0    0  0.73920808155E+02  0.24073742794E+03  0.23056570861E+03  0.34143718637E+03  0.10566000000E+00 0. -1.
          4    1    3    3  501    0  0.18911357831E+03  0.14058442932E+03  0.92234119898E+03  0.95196702390E+03  0.00000000000E+00 0.  1.
         -4    1    4    4    0  503 -0.15566933558E+03 -0.61952238469E+03 -0.44483085884E+03  0.77840569124E+03  0.00000000000E+00 0. -1.
</event>
<event>
 8    1  0.6759491E-006  0.1065690E+04  0.7818608E-02  0.8729568E-01
         21   -1    0    0  501  502  0.00000000000E+00  0.00000000000E+00  0.83147747924E+03  0.83147747924E+03  0.00000000000E+00 0.  1.
         21   -1    0    0  502  503 -0.00000000000E+00 -0.00000000000E+00 -0.14559306226E+04  0.14559306226E+04  0.00000000000E+00 0.  1.
    9000010    2    1    2  501    0 -0.20450608138E+02 -0.92980701738E+02 -0.71226751508E+03  0.12818037941E+04  0.10614293737E+04 0.  0.
   -9000010    2    1    2    0  503  0.20450608138E+02  0.92980701738E+02  0.87814371722E+02  0.10056043077E+04  0.99722867064E+03 0.  0.
        -13    1    3    3    0    0  0.51386497181E+03  0.21746796871E+02 -0.40661561107E+03  0.65564197452E+03  0.10566000000E+00 0.  1.
         13    1    4    4    0    0 -0.48628605366E+02  0.45704440378E+03  0.32742583073E+03  0.56432438729E+03  0.10566000000E+00 0. -1.
          4    1    3    3  501    0 -0.53431557995E+03 -0.11472749861E+03 -0.30565190401E+03  0.62616181961E+03  0.00000000000E+00 0.  1.
         -4    1    4    4    0  503  0.69079213504E+02 -0.36406370205E+03 -0.23961145901E+03  0.44127992043E+03  0.00000000000E+00 0. -1.
</event>
<event>
 8    1  0.6759491E-006  0.1018187E+04  0.7818608E-02  0.8758174E-01
         21   -1    0    0  503  502  0.00000000000E+00  0.00000000000E+00  0.10846278075E+04  0.10846278075E+04  0.00000000000E+00 0. -1.
         21   -1    0    0  501  503 -0.00000000000E+00 -0.00000000000E+00 -0.11821228847E+04  0.11821228847E+04  0.00000000000E+00 0. -1.
    9000010    2    1    2  501    0 -0.70594205582E+02 -0.14354865144E+03 -0.54684727050E+03  0.11557448714E+04  0.10055419003E+04 0.  0.
   -9000010    2    1    2    0  502  0.70594205582E+02  0.14354865144E+03  0.44935219331E+03  0.11110058209E+04  0.10034075858E+04 0.  0.
        -13    1    3    3    0    0 -0.28944637023E+03 -0.35217480162E+03 -0.68539990186E+03  0.82315206905E+03  0.10566000000E+00 0.  1.
         13    1    4    4    0    0 -0.30944255096E+03  0.17364725949E+03 -0.16236642260E+03  0.39021907876E+03  0.10566000000E+00 0. -1.
          4    1    3    3  501    0  0.21885216465E+03  0.20862615018E+03  0.13855263136E+03  0.33259280234E+03  0.00000000000E+00 0.  1.
         -4    1    4    4    0  502  0.38003675654E+03 -0.30098608052E+02  0.61171861592E+03  0.72078674210E+03  0.00000000000E+00 0. -1.
</event>
<event>
 8    1  0.6759491E-006  0.1087234E+04  0.7818608E-02  0.8705053E-01
         21   -1    0    0  501  502  0.00000000000E+00  0.00000000000E+00  0.30385838785E+04  0.30385838785E+04  0.00000000000E+00 0.  1.
         21   -1    0    0  502  503 -0.00000000000E+00 -0.00000000000E+00 -0.59214641663E+03  0.59214641663E+03  0.00000000000E+00 0.  1.
    9000010    2    1    2  501    0 -0.34831849362E+03  0.17052985295E+03  0.23356778830E+04  0.25763287353E+04  0.10157127426E+04 0.  0.
   -9000010    2    1    2    0  503  0.34831849362E+03 -0.17052985295E+03  0.11075957892E+03  0.10544015599E+04  0.97421186677E+03 0.  0.
        -13    1    3    3    0    0 -0.31565689520E+03 -0.39361607637E+03  0.87343457744E+03  0.10086926506E+04  0.10566000000E+00 0.  1.
         13    1    4    4    0    0 -0.13678954149E+03  0.73158938496E+02 -0.32378633416E+03  0.35902814694E+03  0.10566000000E+00 0. -1.
          4    1    3    3  501    0 -0.32661598421E+02  0.56414592931E+03  0.14622433056E+04  0.15676360847E+04  0.00000000000E+00 0.  1.
         -4    1    4    4    0  503  0.48510803511E+03 -0.24368879144E+03  0.43454591309E+03  0.69537341291E+03  0.00000000000E+00 0. -1.
</event>
<event>
 8    1  0.6759491E-006  0.1264818E+04  0.7818608E-02  0.8567677E-01
         21   -1    0    0  503  502  0.00000000000E+00  0.00000000000E+00  0.11464130854E+04  0.11464130854E+04  0.00000000000E+00 0.  1.
         21   -1    0    0  501  503 -0.00000000000E+00 -0.00000000000E+00 -0.18818938415E+04  0.18818938415E+04  0.00000000000E+00 0. -1.
    9000010    2    1    2  501    0 -0.21283652394E+03  0.65510708247E+03 -0.11718041184E+04  0.16903449827E+04  0.10048266484E+04 0.  0.
   -9000010    2    1    2    0  502  0.21283652394E+03 -0.65510708247E+03  0.43632336221E+03  0.13379619442E+04  0.10608013068E+04 0.  0.
        -13    1    3    3    0    0  0.30949622003E+03  0.62907947674E+02 -0.51921118010E+02  0.32006426504E+03  0.10566000000E+00 0.  1.
         13    1    4    4    0    0  0.20822097813E+03 -0.10363324221E+03  0.69203164545E+03  0.73007097880E+03  0.10566000000E+00 0. -1.
          4    1    3    3  501    0 -0.52233274398E+03  0.59219913480E+03 -0.11198830003E+04  0.13702807176E+04  0.00000000000E+00 0.  1.
         -4    1    4    4    0  502  0.46155458162E+01 -0.55147384026E+03 -0.25570828324E+03  0.60789096544E+03  0.00000000000E+00 0. -1.
</event>
<event>
 8    1  0.6759491E-006  0.1044576E+04  0.7818608E-02  0.8736943E-01
         21   -1    0    0  501  502  0.00000000000E+00  0.00000000000E+00  0.16773280830E+04  0.16773280830E+04  0.00000000000E+00 0.  1.
         21   -1    0    0  502  503 -0.00000000000E+00 -0.00000000000E+00 -0.72123480691E+03  0.72123480691E+03  0.00000000000E+00 0.  1.
    9000010    2    1    2  501    0 -0.66084174369E+02 -0.26525741040E+03  0.87883559127E+03  0.13650972338E+04  0.10081715377E+04 0.  0.
   -9000010    2    1    2    0  503  0.66084174369E+02  0.26525741040E+03  0.77257684825E+02  0.10334656561E+04  0.99365683242E+03 0.  0.
        -13    1    3    3    0    0 -0.48790582567E+03 -0.26871490372E+03  0.25640901259E+03  0.61319278136E+03  0.10566000000E+00 0.  1.
         13    1    4    4    0    0 -0.30407375220E+03  0.48521046435E+03 -0.73379140822E+02  0.57729935992E+03  0.10566000000E+00 0. -1.
          4    1    3    3  501    0  0.42182165130E+03  0.34574933196E+01  0.62242657868E+03  0.75190445245E+03  0.00000000000E+00 0.  1.
         -4    1    4    4    0  503  0.37015792657E+03 -0.21995305394E+03  0.15063682565E+03  0.45616629619E+03  0.00000000000E+00 0. -1.
</event>
<event>
 8    1  0.6759491E-006  0.1093021E+04  0.7818608E-02  0.8698656E-01
         21   -1    0    0  503  502  0.00000000000E+00  0.00000000000E+00  0.90514669485E+03  0.90514669485E+03  0.00000000000E+00 0.  1.
         21   -1    0    0  501  503 -0.00000000000E+00 -0.00000000000E+00 -0.13048462679E+04  0.13048462679E+04  0.00000000000E+00 0.  1.
    9000010    2    1    2  501    0 -0.41756533976E+03  0.14613624528E+03 -0.35062934319E+03  0.11478833681E+04  0.99948920719E+03 0.  0.
   -9000010    2    1    2    0  502  0.41756533976E+03 -0.14613624528E+03 -0.49070229901E+02  0.10621095947E+04  0.96434033854E+03 0.  0.
        -13    1    3    3    0    0  0.96564720467E+02 -0.63758160321E+02 -0.54681399927E+03  0.55892343770E+03  0.10566000000E+00 0.  1.
         13    1    4    4    0    0 -0.29054767503E+01  0.28960716609E+03 -0.29051328054E+03  0.41021790524E+03  0.10566000000E+00 0. -1.
          4    1    3    3  501    0 -0.51413006023E+03  0.20989440560E+03  0.19618465608E+03  0.58895993040E+03  0.00000000000E+00 0.  1.
         -4    1    4    4    0  502  0.42047081651E+03 -0.43574341137E+03  0.24144305063E+03  0.65189168946E+03  0.00000000000E+00 0. -1.
</event>
<event>
 8    1  0.6759491E-006  0.1055870E+04  0.7818608E-02  0.8725150E-01
         21   -1    0    0  501  502  0.00000000000E+00  0.00000000000E+00  0.93128678174E+03  0.93128678174E+03  0.00000000000E+00 0.  1.
         21   -1    0    0  502  503 -0.00000000000E+00 -0.00000000000E+00 -0.12078355782E+04  0.12078355782E+04  0.00000000000E+00 0.  1.
    9000010    2    1    2  501    0 -0.30711856242E+03  0.40928146199E+02 -0.26800222883E+03  0.10893510547E+04  0.10093877358E+04 0.  0.
   -9000010    2    1    2    0  503  0.30711856242E+03 -0.40928146199E+02 -0.85465676285E+01  0.10497713053E+04  0.10029705006E+04 0.  0.
        -13    1    3    3    0    0  0.33709275122E+03  0.49952413315E+02  0.89776346440E+02  0.35240114935E+03  0.10566000000E+00 0.  1.
         13    1    4    4    0    0  0.20656030232E+03  0.42706266245E+03  0.21575421991E+03  0.52115215698E+03  0.10566000000E+00 0. -1.
          4    1    3    3  501    0 -0.64421131364E+03 -0.90242671160E+01 -0.35777857527E+03  0.73694990531E+03  0.00000000000E+00 0.  1.
         -4    1    4    4    0  503  0.10055826009E+03 -0.46799080865E+03 -0.22430078754E+03  0.52861914830E+03  0.00000000000E+00 0. -1.
</event>
<event>
 8    1  0.6759491E-006  0.1058208E+04  0.7818608E-02  0.8724299E-01
         21   -1    0    0  501  502  0.00000000000E+00  0.00000000000E+00  0.95242387191E+03  0.95242387191E+03  0.00000000000E+00 0. -1.
         21   -1    0    0  502  503 -0.00000000000E+00 -0.00000000000E+00 -0.22350462245E+04  0.22350462245E+04  0.00000000000E+00 0. -1.
    9000010    2    1    2  501    0 -0.29654360274E+03 -0.13990425516E+02  0.46434000178E+03  0.11450003595E+04  0.10036335714E+04 0.  0.
   -9000010    2    1    2    0  503  0.29654360274E+03  0.13990425516E+02 -0.17469623544E+04  0.20424697370E+04  0.10157122222E+04 0.  0.
        -13    1    3    3    0    0  0.30609308135E+03  0.40700835637E+02 -0.92834131279E+02  0.32244025736E+03  0.10566000000E+00 0.  1.
         13    1    4    4    0    0 -0.21221196280E+03 -0.25664675071E+03 -0.12093657276E+04  0.12543791078E+04  0.10566000000E+00 0. -1.
          4    1    3    3  501    0 -0.60263668409E+03 -0.54691261153E+02  0.55717413305E+03  0.82256010212E+03  0.00000000000E+00 0.  1.
         -4    1    4    4    0  503  0.50875556554E+03  0.27063717623E+03 -0.53759662676E+03  0.78809062913E+03  0.00000000000E+00 0. -1.
</event>
<event>
 8    1  0.6759491E-006  0.1046896E+04  0.7818608E-02  0.8732253E-01
         21   -1    0    0  501  502  0.00000000000E+00  0.00000000000E+00  0.54401112822E+03  0.54401112822E+03  0.00000000000E+00 0. -1.
         21   -1    0    0  502  503 -0.00000000000E+00 -0.00000000000E+00 -0.20421279953E+04  0.20421279953E+04  0.00000000000E+00 0. -1.
    9000010    2    1    2  501    0  0.29729765718E+03 -0.11639249999E+03 -0.58811248575E+03  0.12007776826E+04  0.99702439094E+03 0.  0.
   -9000010    2    1    2    0  503 -0.29729765718E+03  0.11639249999E+03 -0.91000438130E+03  0.13853614409E+04  0.99457791896E+03 0.  0.
        -13    1    3    3    0    0 -0.10303257530E+03  0.24814494984E+02  0.24434151920E+03  0.26633486423E+03  0.10566000000E+00 0.  1.
         13    1    4    4    0    0 -0.28770650877E+03 -0.41269887195E+03 -0.33780881409E+03  0.60597871262E+03  0.10566000000E+00 0. -1.
          4    1    3    3  501    0  0.40033023248E+03 -0.14120699498E+03 -0.83245400494E+03  0.93444281837E+03  0.00000000000E+00 0.  1.
         -4    1    4    4    0  503 -0.95911484063E+01  0.52909137195E+03 -0.57219556720E+03  0.77938272827E+03  0.00000000000E+00 0. -1.
</event>
<event>
 8    1  0.6759491E-006  0.1049307E+04  0.7818608E-02  0.8738677E-01
         21   -1    0    0  501  502  0.00000000000E+00  0.00000000000E+00  0.14186393899E+04  0.14186393899E+04  0.00000000000E+00 0. -1.
         21   -1    0    0  502  503 -0.00000000000E+00 -0.00000000000E+00 -0.99759118369E+03  0.99759118369E+03  0.00000000000E+00 0. -1.
    9000010    2    1    2  501    0  0.49170848116E+01  0.13951733925E+03  0.81321028780E+03  0.12960354707E+04  0.99945370246E+03 0.  0.
   -9000010    2    1    2    0  503 -0.49170848116E+01 -0.13951733925E+03 -0.39216208157E+03  0.11201951029E+04  0.10399791848E+04 0.  0.
        -13    1    3    3    0    0  0.39168908929E+03  0.37334890552E+03  0.32720213798E+03  0.63235353892E+03  0.10566000000E+00 0.  1.
         13    1    4    4    0    0  0.47038779306E+03  0.35692282774E+02  0.12398944893E+02  0.47190291365E+03  0.10566000000E+00 0. -1.
          4    1    3    3  501    0 -0.38677200448E+03 -0.23383156627E+03  0.48600814982E+03  0.66368193174E+03  0.00000000000E+00 0.  1.
         -4    1    4    4    0  503 -0.47530487787E+03 -0.17520962202E+03 -0.40456102646E+03  0.64829218930E+03  0.00000000000E+00 0. -1.
</event>
<event>
 8    1  0.6759491E-006  0.1054007E+04  0.7818608E-02  0.8732227E-01
         21   -1    0    0  501  502  0.00000000000E+00  0.00000000000E+00  0.15109777343E+04  0.15109777343E+04  0.00000000000E+00 0.  1.
         21   -1    0    0  502  503 -0.00000000000E+00 -0.00000000000E+00 -0.84576650299E+03  0.84576650299E+03  0.00000000000E+00 0.  1.
    9000010    2    1    2  501    0  0.93156967113E+00 -0.19662771535E+03  0.79316028749E+03  0.12949995977E+04  0.10046180319E+04 0.  0.
   -9000010    2    1    2    0  503 -0.93156967113E+00  0.19662771535E+03 -0.12794905619E+03  0.10617446396E+04  0.10355034488E+04 0.  0.
        -13    1    3    3    0    0 -0.19861069646E+03  0.20552451892E+03 -0.93873669680E+02  0.30083020734E+03  0.10566000000E+00 0.  1.
         13    1    4    4    0    0 -0.25403336576E+03 -0.28716753136E+03  0.19211923629E+03  0.42884490681E+03  0.10566000000E+00 0. -1.
          4    1    3    3  501    0  0.19954226613E+03 -0.40215223427E+03  0.88703395717E+03  0.99416939033E+03  0.00000000000E+00 0.  1.
         -4    1    4    4    0  503  0.25310179609E+03  0.48379524671E+03 -0.32006829248E+03  0.63289973279E+03  0.00000000000E+00 0. -1.
</event>
<event>
 8    1  0.6759491E-006  0.1071452E+04  0.7818608E-02  0.8720600E-01
         21   -1    0    0  503  502  0.00000000000E+00  0.00000000000E+00  0.12871151270E+04  0.12871151270E+04  0.00000000000E+00 0.  1.
         21   -1    0    0  501  503 -0.00000000000E+00 -0.00000000000E+00 -0.88879711211E+03  0.88879711211E+03  0.00000000000E+00 0.  1.
    9000010    2    1    2  501    0  0.23147204332E+03  0.12792014056E+03 -0.22644970284E+02  0.10247305323E+04  0.98975603048E+03 0.  0.
   -9000010    2    1    2    0  502 -0.23147204332E+03 -0.12792014056E+03  0.42096298516E+03  0.11511817068E+04  0.10382998691E+04 0.  0.
        -13    1    3    3    0    0  0.49195780605E+03 -0.22331579859E+03  0.14010200586E+03  0.55814067406E+03  0.10566000000E+00 0.  1.
         13    1    4    4    0    0  0.22575649324E+03  0.27585061965E+03 -0.75894384571E+02  0.36444413477E+03  0.10566000000E+00 0. -1.
          4    1    3    3  501    0 -0.26048576273E+03  0.35123593914E+03 -0.16274697615E+03  0.46658985820E+03  0.00000000000E+00 0.  1.
         -4    1    4    4    0  502 -0.45722853656E+03 -0.40377076020E+03  0.49685736973E+03  0.78673757206E+03  0.00000000000E+00 0. -1.
</event>
<event>
 8    1  0.6759491E-006  0.1014992E+04  0.7818608E-02  0.8764621E-01
         21   -1    0    0  503  502  0.00000000000E+00  0.00000000000E+00  0.74989194542E+03  0.74989194542E+03  0.00000000000E+00 0. -1.
         21   -1    0    0  501  503 -0.00000000000E+00 -0.00000000000E+00 -0.14608637042E+04  0.14608637042E+04  0.00000000000E+00 0. -1.
    9000010    2    1    2  501    0 -0.45300860624E+02  0.83218747027E+02 -0.66181065049E+03  0.12116942472E+04  0.10105602821E+04 0.  0.
   -9000010    2    1    2    0  502  0.45300860624E+02 -0.83218747027E+02 -0.49161108314E+02  0.99906140248E+03  0.99334251068E+03 0.  0.
        -13    1    3    3    0    0  0.44329072605E+03 -0.15675858372E+03 -0.32486312858E+03  0.57150326757E+03  0.10566000000E+00 0.  1.
         13    1    4    4    0    0 -0.30939016434E+03 -0.17712512814E+03  0.31965136513E+03  0.47882417566E+03  0.10566000000E+00 0. -1.
          4    1    3    3  501    0 -0.48859158668E+03  0.23997733074E+03 -0.33694752191E+03  0.64019097960E+03  0.00000000000E+00 0.  1.
         -4    1    4    4    0  502  0.35469102496E+03  0.93906381116E+02 -0.36881247344E+03  0.52023722682E+03  0.00000000000E+00 0. -1.
</event>
<event>
 8    1  0.6759491E-006  0.1017834E+04  0.7818608E-02  0.8765347E-01
         21   -1    0    0  503  502  0.00000000000E+00  0.00000000000E+00  0.74647475005E+03  0.74647475005E+03  0.00000000000E+00 0. -1.
         21   -1    0    0  501  503 -0.00000000000E+00 -0.00000000000E+00 -0.14041185833E+04  0.14041185833E+04  0.00000000000E+00 0. -1.
    9000010    2    1    2  501    0 -0.19572129329E+02 -0.64977246669E+01 -0.11386156745E+03  0.10241826210E+04  0.10176248306E+04 0.  0.
   -9000010    2    1    2    0  502  0.19572129329E+02  0.64977246669E+01 -0.54378226581E+03  0.11264107124E+04  0.98624370808E+03 0.  0.
        -13    1    3    3    0    0  0.38020424927E+03 -0.28906603859E+03  0.10324382067E+03  0.48864480300E+03  0.10566000000E+00 0.  1.
         13    1    4    4    0    0 -0.45117428410E+03 -0.16054546431E+03 -0.19439229352E+03  0.51683793948E+03  0.10566000000E+00 0. -1.
          4    1    3    3  501    0 -0.39977637860E+03  0.28256831393E+03 -0.21710538812E+03  0.53553781796E+03  0.00000000000E+00 0.  1.
         -4    1    4    4    0  502  0.47074641343E+03  0.16704318898E+03 -0.34938997229E+03  0.60957277292E+03  0.00000000000E+00 0. -1.
</event>
<event>
 8    1  0.6759491E-006  0.1063092E+04  0.7818608E-02  0.8721286E-01
         21   -1    0    0  503  502  0.00000000000E+00  0.00000000000E+00  0.12818450045E+04  0.12818450045E+04  0.00000000000E+00 0.  1.
         21   -1    0    0  501  503 -0.00000000000E+00 -0.00000000000E+00 -0.13623611977E+04  0.13623611977E+04  0.00000000000E+00 0.  1.
    9000010    2    1    2  501    0 -0.31076772892E+03  0.47966751501E+02 -0.83698049984E+03  0.13394442877E+04  0.99734510180E+03 0.  0.
   -9000010    2    1    2    0  502  0.31076772892E+03 -0.47966751501E+02  0.75646430666E+03  0.13047619145E+04  0.10155235180E+04 0.  0.
        -13    1    3    3    0    0 -0.49246025861E+03 -0.31355062871E+03 -0.27081138413E+03  0.64356034683E+03  0.10566000000E+00 0.  1.
         13    1    4    4    0    0  0.57842730013E+03 -0.13525733869E+03  0.82346473458E+03  0.10153653872E+04  0.10566000000E+00 0. -1.
          4    1    3    3  501    0  0.18169252969E+03  0.36151738021E+03 -0.56616911572E+03  0.69588394085E+03  0.00000000000E+00 0.  1.
         -4    1    4    4    0  502 -0.26765957120E+03  0.87290587189E+02 -0.67000427922E+02  0.28939652729E+03  0.00000000000E+00 0. -1.
</event>
<event>
 8    1  0.6759491E-006  0.1035639E+04  0.7818608E-02  0.8742919E-01
         21   -1    0    0  501  502  0.00000000000E+00  0.00000000000E+00  0.14367580144E+04  0.14367580144E+04  0.00000000000E+00 0. -1.
         21   -1    0    0  502  503 -0.00000000000E+00 -0.00000000000E+00 -0.10571901080E+04  0.10571901080E+04  0.00000000000E+00 0. -1.
    9000010    2    1    2  501    0  0.49912827697E+02  0.16700742867E+03  0.86929989427E+03  0.13483540432E+04  0.10158708324E+04 0.  0.
   -9000010    2    1    2    0  503 -0.49912827697E+02 -0.16700742867E+03 -0.48973198785E+03  0.11455940791E+04  0.10208651246E+04 0.  0.
        -13    1    3    3    0    0 -0.15708601990E+03  0.49179510861E+03  0.80728113551E+03  0.95824907483E+03  0.10566000000E+00 0.  1.
         13    1    4    4    0    0 -0.28985208831E+03  0.76090841240E+01 -0.71595960358E+03  0.77244436459E+03  0.10566000000E+00 0. -1.
          4    1    3    3  501    0  0.20699884760E+03 -0.32478767994E+03  0.62018758757E+02  0.39010496841E+03  0.00000000000E+00 0.  1.
         -4    1    4    4    0  503  0.23993926061E+03 -0.17461651279E+03  0.22622761573E+03  0.37314971452E+03  0.00000000000E+00 0. -1.
</event>
<event>
 8    1  0.6759491E-006  0.1060115E+04  0.7818608E-02  0.8728524E-01
         21   -1    0    0  501  502  0.00000000000E+00  0.00000000000E+00  0.10292162494E+04  0.10292162494E+04  0.00000000000E+00 0. -1.
         21   -1    0    0  502  503 -0.00000000000E+00 -0.00000000000E+00 -0.13319970463E+04  0.13319970463E+04  0.00000000000E+00 0. -1.
    9000010    2    1    2  501    0 -0.30512876472E+03  0.19091240674E+03  0.39078265252E+03  0.10943767105E+04  0.95676443956E+03 0.  0.
   -9000010    2    1    2    0  503  0.30512876472E+03 -0.19091240674E+03 -0.69356344937E+03  0.12668365852E+04  0.99714270057E+03 0.  0.
        -13    1    3    3    0    0  0.23066223695E+03  0.51462365902E+01  0.46827257023E+03  0.52202563395E+03  0.10566000000E+00 0.  1.
         13    1    4    4    0    0  0.46444617191E+03  0.16123331418E+03 -0.22167626522E+02  0.49213600054E+03  0.10566000000E+00 0. -1.
          4    1    3    3  501    0 -0.53579100167E+03  0.18576617015E+03 -0.77489917712E+02  0.57235107652E+03  0.00000000000E+00 0.  1.
         -4    1    4    4    0  503 -0.15931740719E+03 -0.35214572092E+03 -0.67139582285E+03  0.77470058470E+03  0.00000000000E+00 0. -1.
</event>
<event>
 8    1  0.6759491E-006  0.1094330E+04  0.7818608E-02  0.8706224E-01
         21   -1    0    0  501  502  0.00000000000E+00  0.00000000000E+00  0.17700955452E+04  0.17700955452E+04  0.00000000000E+00 0.  1.
         21   -1    0    0  502  503 -0.00000000000E+00 -0.00000000000E+00 -0.66838465216E+03  0.66838465216E+03  0.00000000000E+00 0.  1.
    9000010    2    1    2  501    0 -0.24997116532E+03 -0.24437553673E+03  0.28897050669E+03  0.11318398340E+04  0.10369920297E+04 0.  0.
   -9000010    2    1    2    0  503  0.24997116532E+03  0.24437553673E+03  0.81274038635E+03  0.13066403634E+04  0.96153893174E+03 0.  0.
        -13    1    3    3    0    0 -0.18996157735E+03 -0.36931085268E+03 -0.30923627643E+03  0.51778662845E+03  0.10566000000E+00 0.  1.
         13    1    4    4    0    0  0.44072165112E+03  0.63148675842E+02 -0.74449997596E+01  0.44528504153E+03  0.10566000000E+00 0. -1.
          4    1    3    3  501    0 -0.60009587965E+02  0.12493531595E+03  0.59820678313E+03  0.61405320551E+03  0.00000000000E+00 0.  1.
         -4    1    4    4    0  503 -0.19075048580E+03  0.18122686088E+03  0.82018538611E+03  0.86135532188E+03  0.00000000000E+00 0. -1.
</event>
<event>
 8    1  0.6759491E-006  0.1000482E+04  0.7818608E-02  0.8776201E-01
         21   -1    0    0  503  502  0.00000000000E+00  0.00000000000E+00  0.13325262413E+04  0.13325262413E+04  0.00000000000E+00 0.  1.
         21   -1    0    0  501  503 -0.00000000000E+00 -0.00000000000E+00 -0.86643997441E+03  0.86643997441E+03  0.00000000000E+00 0.  1.
    9000010    2    1    2  501    0 -0.25053603277E+02  0.36098868486E+02  0.64441512252E+03  0.11827151103E+04  0.99076403382E+03 0.  0.
   -9000010    2    1    2    0  502  0.25053603277E+02 -0.36098868486E+02 -0.17832885562E+03  0.10162511054E+04  0.99951704194E+03 0.  0.
        -13    1    3    3    0    0 -0.28699407968E+03 -0.39281126483E+03  0.36046899109E+03  0.60547848537E+03  0.10566000000E+00 0.  1.
         13    1    4    4    0    0  0.41036235948E+03  0.12236555645E+03  0.18212818119E+03  0.46533996286E+03  0.10566000000E+00 0. -1.
          4    1    3    3  501    0  0.26194047640E+03  0.42891013331E+03  0.28394613143E+03  0.57723662495E+03  0.00000000000E+00 0.  1.
         -4    1    4    4    0  502 -0.38530875621E+03 -0.15846442493E+03 -0.36045703681E+03  0.55091114253E+03  0.00000000000E+00 0. -1.
</event>
<event>
 8    1  0.6759491E-006  0.1038668E+04  0.7818608E-02  0.8742838E-01
         21   -1    0    0  501  502  0.00000000000E+00  0.00000000000E+00  0.34793718676E+04  0.34793718676E+04  0.00000000000E+00 0. -1.
         21   -1    0    0  502  503 -0.00000000000E+00 -0.00000000000E+00 -0.31609335006E+03  0.31609335006E+03  0.00000000000E+00 0. -1.
    9000010    2    1    2  501    0 -0.15555345887E+03 -0.22306536257E+03  0.12159761691E+04  0.15884723090E+04  0.98523662042E+03 0.  0.
   -9000010    2    1    2    0  503  0.15555345887E+03  0.22306536257E+03  0.19473023485E+04  0.22069929087E+04  0.10024351490E+04 0.  0.
        -13    1    3    3    0    0 -0.46383913459E+03 -0.41567373965E+03  0.55550711422E+03  0.83457747737E+03  0.10566000000E+00 0.  1.
         13    1    4    4    0    0  0.43990888746E+03  0.28449316668E+03  0.47804956011E+03  0.70921617595E+03  0.10566000000E+00 0. -1.
          4    1    3    3  501    0  0.30828567572E+03  0.19260837708E+03  0.66046905483E+03  0.75389483164E+03  0.00000000000E+00 0.  1.
         -4    1    4    4    0  503 -0.28435542859E+03 -0.61427804112E+02  0.14692527884E+04  0.14977767327E+04  0.00000000000E+00 0. -1.
</event>
<event>
 8    1  0.6759491E-006  0.1033436E+04  0.7818608E-02  0.8745962E-01
         21   -1    0    0  503  502  0.00000000000E+00  0.00000000000E+00  0.97360586613E+03  0.97360586613E+03  0.00000000000E+00 0. -1.
         21   -1    0    0  501  503 -0.00000000000E+00 -0.00000000000E+00 -0.20559469926E+04  0.20559469926E+04  0.00000000000E+00 0. -1.
    9000010    2    1    2  501    0  0.25340143453E+03  0.96873887021E+02 -0.15798309826E+04  0.18826068727E+04  0.98729218910E+03 0.  0.
   -9000010    2    1    2    0  502 -0.25340143453E+03 -0.96873887021E+02  0.49748985617E+03  0.11469459860E+04  0.99719210825E+03 0.  0.
        -13    1    3    3    0    0  0.22561958325E+03  0.31409994366E+03 -0.16151295758E+04  0.16607849134E+04  0.10566000000E+00 0.  1.
         13    1    4    4    0    0 -0.70580925636E+02  0.36869153107E+03  0.52570905171E+03  0.64597610665E+03  0.10566000000E+00 0. -1.
          4    1    3    3  501    0  0.27781851272E+02 -0.21722605663E+03  0.35298593191E+02  0.22182195929E+03  0.00000000000E+00 0.  1.
         -4    1    4    4    0  502 -0.18282050889E+03 -0.46556541809E+03 -0.28219195541E+02  0.50096987933E+03  0.00000000000E+00 0. -1.
</event>
<event>
 8    1  0.6759491E-006  0.1145192E+04  0.7818608E-02  0.8659591E-01
         21   -1    0    0  503  502  0.00000000000E+00  0.00000000000E+00  0.23977461240E+04  0.23977461240E+04  0.00000000000E+00 0. -1.
         21   -1    0    0  501  503 -0.00000000000E+00 -0.00000000000E+00 -0.55306412892E+03  0.55306412892E+03  0.00000000000E+00 0. -1.
    9000010    2    1    2  501    0 -0.36285900796E+03  0.31151089385E+03  0.55543371681E+03  0.12263896833E+04  0.98326972137E+03 0.  0.
   -9000010    2    1    2    0  502  0.36285900796E+03 -0.31151089385E+03  0.12892482783E+04  0.17244205696E+04  0.10405572936E+04 0.  0.
        -13    1    3    3    0    0 -0.64762592144E+03  0.26131243218E+03  0.61570342631E+03  0.93101785250E+03  0.10566000000E+00 0.  1.
         13    1    4    4    0    0  0.33137210363E+03  0.27252636517E+03  0.16986850156E+03  0.46144708230E+03  0.10566000000E+00 0. -1.
          4    1    3    3  501    0  0.28476691348E+03  0.50198461671E+02 -0.60269709497E+02  0.29537183083E+03  0.00000000000E+00 0.  1.
         -4    1    4    4    0  502  0.31486904337E+02 -0.58403725903E+03  0.11193797768E+04  0.12629734873E+04  0.00000000000E+00 0. -1.
</event>
<event>
 8    1  0.6759491E-006  0.1330892E+04  0.7818608E-02  0.8517180E-01
         21   -1    0    0  503  502  0.00000000000E+00  0.00000000000E+00  0.89323177243E+03  0.89323177243E+03  0.00000000000E+00 0.  1.
         21   -1    0    0  501  503 -0.00000000000E+00 -0.00000000000E+00 -0.21263011228E+04  0.21263011228E+04  0.00000000000E+00 0.  1.
    9000010    2    1    2  501    0 -0.80345583222E+03  0.34233890797E+03 -0.10410474993E+04  0.16748593888E+04  0.97910003279E+03 0.  0.
   -9000010    2    1    2    0  502  0.80345583222E+03 -0.34233890797E+03 -0.19202185102E+03  0.13446735064E+04  0.10042595507E+04 0.  0.
        -13    1    3    3    0    0 -0.45740460041E+03 -0.11340953342E+02 -0.10855630668E+04  0.11780470147E+04  0.10566000000E+00 0.  1.
         13    1    4    4    0    0  0.61803126929E+03  0.28204777027E+03 -0.86188415964E+02  0.68479343509E+03  0.10566000000E+00 0. -1.
          4    1    3    3  501    0 -0.34605123181E+03  0.35367986131E+03  0.44515567455E+02  0.49681237412E+03  0.00000000000E+00 0.  1.
         -4    1    4    4    0  502  0.18542456294E+03 -0.62438667825E+03 -0.10583343505E+03  0.65988007129E+03  0.00000000000E+00 0. -1.
</event>
<event>
 8    1  0.6759491E-006  0.1011040E+04  0.7818608E-02  0.8771213E-01
         21   -1    0    0  503  502  0.00000000000E+00  0.00000000000E+00  0.17193053138E+04  0.17193053138E+04  0.00000000000E+00 0. -1.
         21   -1    0    0  501  503 -0.00000000000E+00 -0.00000000000E+00 -0.71499178270E+03  0.71499178270E+03  0.00000000000E+00 0. -1.
    9000010    2    1    2  501    0  0.10261817599E+02  0.15599701107E+03 -0.37779690061E+02  0.98234680178E+03  0.96909110079E+03 0.  0.
   -9000010    2    1    2    0  502 -0.10261817599E+02 -0.15599701107E+03  0.10420932211E+04  0.14519502947E+04  0.99887987483E+03 0.  0.
        -13    1    3    3    0    0  0.35962521188E+02 -0.38600181819E+03  0.13873491926E+03  0.41175004015E+03  0.10566000000E+00 0.  1.
         13    1    4    4    0    0  0.40325444594E+02 -0.22260367892E+03  0.12276997887E+04  0.12483690647E+04  0.10566000000E+00 0. -1.
          4    1    3    3  501    0 -0.25700703590E+02  0.54199882926E+03 -0.17651460932E+03  0.57059676163E+03  0.00000000000E+00 0.  1.
         -4    1    4    4    0  502 -0.50587262192E+02  0.66606667849E+02 -0.18560656754E+03  0.20358123001E+03  0.00000000000E+00 0. -1.
</event>
<event>
 8    1  0.6759491E-006  0.1046195E+04  0.7818608E-02  0.8735076E-01
         21   -1    0    0  501  502  0.00000000000E+00  0.00000000000E+00  0.90158319250E+03  0.90158319250E+03  0.00000000000E+00 0. -1.
         21   -1    0    0  502  503 -0.00000000000E+00 -0.00000000000E+00 -0.12371216864E+04  0.12371216864E+04  0.00000000000E+00 0.  1.
    9000010    2    1    2  501    0  0.23629104000E+03  0.11326701808E+03 -0.35218130244E+03  0.10923777589E+04  0.10002972685E+04 0.  0.
   -9000010    2    1    2    0  503 -0.23629104000E+03 -0.11326701808E+03  0.16642808501E+02  0.10463271201E+04  0.10128477606E+04 0.  0.
        -13    1    3    3    0    0  0.16098163683E+03 -0.44064995469E+03 -0.10282369501E+03  0.48027095830E+03  0.10566000000E+00 0.  1.
         13    1    4    4    0    0 -0.52198393865E+03 -0.31794733422E+03  0.20867968652E+03  0.64583663745E+03  0.10566000000E+00 0. -1.
          4    1    3    3  501    0  0.75309403175E+02  0.55391697277E+03 -0.24935760743E+03  0.61210680058E+03  0.00000000000E+00 0.  1.
         -4    1    4    4    0  503  0.28569289865E+03  0.20468031614E+03 -0.19203687801E+03  0.40049048262E+03  0.00000000000E+00 0. -1.
</event>
<event>
 8    1  0.6759491E-006  0.1026483E+04  0.7818608E-02  0.8766850E-01
         21   -1    0    0  501  502  0.00000000000E+00  0.00000000000E+00  0.61391039908E+03  0.61391039908E+03  0.00000000000E+00 0.  1.
         21   -1    0    0  502  503 -0.00000000000E+00 -0.00000000000E+00 -0.19765594030E+04  0.19765594030E+04  0.00000000000E+00 0.  1.
    9000010    2    1    2  501    0  0.98234405360E+02  0.52211271541E+02 -0.13587324366E+03  0.10354362129E+04  0.10204364739E+04 0.  0.
   -9000010    2    1    2    0  503 -0.98234405360E+02 -0.52211271541E+02 -0.12267757603E+04  0.15550335892E+04  0.94909150370E+03 0.  0.
        -13    1    3    3    0    0  0.36194222637E+03  0.30864391223E+03 -0.36719689913E+03  0.60091331628E+03  0.10566000000E+00 0.  1.
         13    1    4    4    0    0  0.44521515003E+02 -0.49054127820E+03 -0.58284567865E+03  0.76310026026E+03  0.10566000000E+00 0. -1.
          4    1    3    3  501    0 -0.26370782101E+03 -0.25643264069E+03  0.23132365547E+03  0.43452289658E+03  0.00000000000E+00 0.  1.
         -4    1    4    4    0  503 -0.14275592036E+03  0.43833000666E+03 -0.64393008160E+03  0.79193332897E+03  0.00000000000E+00 0. -1.
</event>
<event>
 8    1  0.6759491E-006  0.1057528E+04  0.7818608E-02  0.8730178E-01
         21   -1    0    0  501  502  0.00000000000E+00  0.00000000000E+00  0.65105568595E+03  0.65105568595E+03  0.00000000000E+00 0. -1.
         21   -1    0    0  502  503 -0.00000000000E+00 -0.00000000000E+00 -0.20999562337E+04  0.20999562337E+04  0.00000000000E+00 0. -1.
    9000010    2    1    2  501    0  0.25866492144E+03  0.27513244289E+01 -0.86171043027E+02  0.10260777757E+04  0.98918908292E+03 0.  0.
   -9000010    2    1    2    0  503 -0.25866492144E+03 -0.27513244289E+01 -0.13627295048E+04  0.17249341440E+04  0.10254028411E+04 0.  0.
        -13    1    3    3    0    0 -0.37118140688E+03 -0.29099268185E+02  0.64031970606E+02  0.37778632670E+03  0.10566000000E+00 0.  1.
         13    1    4    4    0    0 -0.27337077001E+03  0.49184557505E+03 -0.72671107710E+03  0.91910426412E+03  0.10566000000E+00 0. -1.
          4    1    3    3  501    0  0.62984632831E+03  0.31850592613E+02 -0.15020301363E+03  0.64829144900E+03  0.00000000000E+00 0.  1.
         -4    1    4    4    0  503  0.14705848575E+02 -0.49459689947E+03 -0.63601842767E+03  0.80582987987E+03  0.00000000000E+00 0. -1.
</event>
<event>
 8    1  0.6759491E-006  0.1059055E+04  0.7818608E-02  0.8721886E-01
         21   -1    0    0  503  502  0.00000000000E+00  0.00000000000E+00  0.28973948916E+04  0.28973948916E+04  0.00000000000E+00 0.  1.
         21   -1    0    0  501  503 -0.00000000000E+00 -0.00000000000E+00 -0.39245558206E+03  0.39245558206E+03  0.00000000000E+00 0.  1.
    9000010    2    1    2  501    0 -0.31273388013E+02  0.33223287832E+03  0.14670351037E+04  0.18070013256E+04  0.10008521794E+04 0.  0.
   -9000010    2    1    2    0  502  0.31273388013E+02 -0.33223287832E+03  0.10379042058E+04  0.14828491481E+04  0.10051068327E+04 0.  0.
        -13    1    3    3    0    0  0.38823450184E+03  0.45350062133E+03  0.10214593126E+04  0.11831179064E+04  0.10566000000E+00 0.  1.
         13    1    4    4    0    0  0.28215844414E+03 -0.43013163900E+03  0.10929611282E+04  0.12079696410E+04  0.10566000000E+00 0. -1.
          4    1    3    3  501    0 -0.41950788985E+03 -0.12126774301E+03  0.44557579115E+03  0.62388341924E+03  0.00000000000E+00 0.  1.
         -4    1    4    4    0  502 -0.25088505613E+03  0.97898760681E+02 -0.55056922398E+02  0.27487950712E+03  0.00000000000E+00 0. -1.
</event>
<event>
 8    1  0.6759491E-006  0.1038578E+04  0.7818608E-02  0.8745006E-01
         21   -1    0    0  503  502  0.00000000000E+00  0.00000000000E+00  0.13426310749E+04  0.13426310749E+04  0.00000000000E+00 0. -1.
         21   -1    0    0  501  503 -0.00000000000E+00 -0.00000000000E+00 -0.12122958499E+04  0.12122958499E+04  0.00000000000E+00 0. -1.
    9000010    2    1    2  501    0  0.19761745898E+03 -0.55440255409E+02 -0.69389550461E+03  0.12490534267E+04  0.10180948922E+04 0.  0.
   -9000010    2    1    2    0  502 -0.19761745898E+03  0.55440255409E+02  0.82423072969E+03  0.13058734981E+04  0.99187852847E+03 0.  0.
        -13    1    3    3    0    0  0.60284963066E+03 -0.14146463673E+01 -0.27133301929E+03  0.66109855312E+03  0.10566000000E+00 0.  1.
         13    1    4    4    0    0  0.35163009404E+03 -0.72806390813E+02  0.59932095072E+03  0.69866308527E+03  0.10566000000E+00 0. -1.
          4    1    3    3  501    0 -0.40523217168E+03 -0.54025609042E+02 -0.42256248532E+03  0.58795487361E+03  0.00000000000E+00 0.  1.
         -4    1    4    4    0  502 -0.54924755302E+03  0.12824664622E+03  0.22490977897E+03  0.60721041282E+03  0.00000000000E+00 0. -1.
</event>
<event>
 8    1  0.6759491E-006  0.1022360E+04  0.7818608E-02  0.8754519E-01
         21   -1    0    0  503  502  0.00000000000E+00  0.00000000000E+00  0.14900470537E+04  0.14900470537E+04  0.00000000000E+00 0.  1.
         21   -1    0    0  501  503 -0.00000000000E+00 -0.00000000000E+00 -0.79322858156E+03  0.79322858156E+03  0.00000000000E+00 0.  1.
    9000010    2    1    2  501    0 -0.24654662123E+03 -0.86563805939E+02 -0.43590235245E+02  0.10232891126E+04  0.98840374866E+03 0.  0.
   -9000010    2    1    2    0  502  0.24654662123E+03  0.86563805939E+02  0.74040870736E+03  0.12599865227E+04  0.98543515993E+03 0.  0.
        -13    1    3    3    0    0 -0.12237524315E+03  0.45200847045E+03 -0.46460628298E+02  0.47058044864E+03  0.10566000000E+00 0.  1.
         13    1    4    4    0    0 -0.72626182733E+02 -0.17803079750E+03 -0.17188812052E+03  0.25790514616E+03  0.10566000000E+00 0. -1.
          4    1    3    3  501    0 -0.12417137808E+03 -0.53857227639E+03  0.28703930530E+01  0.55270866393E+03  0.00000000000E+00 0.  1.
         -4    1    4    4    0  502  0.31917280396E+03  0.26459460344E+03  0.91229682788E+03  0.10020813765E+04  0.00000000000E+00 0. -1.
</event>
<event>
 8    1  0.1229173E-005  0.1014209E+04  0.7818608E-02  0.8763538E-01
         21   -1    0    0  503  502  0.00000000000E+00  0.00000000000E+00  0.14401379390E+04  0.14401379390E+04  0.00000000000E+00 0.  1.
         21   -1    0    0  501  503 -0.00000000000E+00 -0.00000000000E+00 -0.74132228739E+03  0.74132228739E+03  0.00000000000E+00 0.  1.
    9000010    2    1    2  501    0  0.14355734919E+03  0.16154220840E+03  0.58034655817E+03  0.11603550617E+04  0.98128341675E+03 0.  0.
   -9000010    2    1    2    0  502 -0.14355734919E+03 -0.16154220840E+03  0.11846909344E+03  0.10211051647E+04  0.99091686517E+03 0.  0.
        -13    1    3    3    0    0 -0.17030005215E+03 -0.14661484336E+03  0.67414824239E+03  0.71061514474E+03  0.10566000000E+00 0.  1.
         13    1    4    4    0    0 -0.31486106786E+03 -0.58939323702E+02 -0.37237636038E+03  0.49119802612E+03  0.10566000000E+00 0. -1.
          4    1    3    3  501    0  0.31385740133E+03  0.30815705176E+03 -0.93801684221E+02  0.44973991694E+03  0.00000000000E+00 0.  1.
         -4    1    4    4    0  502  0.17130371867E+03 -0.10260288470E+03  0.49084545382E+03  0.52990713858E+03  0.00000000000E+00 0. -1.
</event>
<event>
 8    1  0.6759491E-006  0.1204056E+04  0.7818608E-02  0.8607164E-01
         21   -1    0    0  501  502  0.00000000000E+00  0.00000000000E+00  0.16066574898E+04  0.16066574898E+04  0.00000000000E+00 0. -1.
         21   -1    0    0  502  503 -0.00000000000E+00 -0.00000000000E+00 -0.13826476348E+04  0.13826476348E+04  0.00000000000E+00 0.  1.
    9000010    2    1    2  501    0 -0.56675809164E+03 -0.32938896630E+03  0.10054551544E+04  0.15538935051E+04  0.98688050548E+03 0.  0.
   -9000010    2    1    2    0  503  0.56675809164E+03  0.32938896630E+03 -0.78144529935E+03  0.14354116195E+04  0.10099692747E+04 0.  0.
        -13    1    3    3    0    0 -0.80113894405E+03 -0.21629880206E+03  0.99198528269E+03  0.12933072302E+04  0.10566000000E+00 0.  1.
         13    1    4    4    0    0  0.24963588381E+03 -0.13869619881E+03  0.16729796059E+03  0.33097330532E+03  0.10566000000E+00 0. -1.
          4    1    3    3  501    0  0.23438085241E+03 -0.11309016424E+03  0.13469871733E+02  0.26058627491E+03  0.00000000000E+00 0.  1.
         -4    1    4    4    0  503  0.31712220783E+03  0.46808516512E+03 -0.94874325994E+03  0.11044383142E+04  0.00000000000E+00 0. -1.
</event>
<event>
 8    1  0.6759491E-006  0.1091345E+04  0.7818608E-02  0.8695092E-01
         21   -1    0    0  503  502  0.00000000000E+00  0.00000000000E+00  0.21064080916E+04  0.21064080916E+04  0.00000000000E+00 0. -1.
         21   -1    0    0  501  503 -0.00000000000E+00 -0.00000000000E+00 -0.58910198432E+03  0.58910198432E+03  0.00000000000E+00 0. -1.
    9000010    2    1    2  501    0  0.40840405427E+03  0.14062064117E+03  0.10568159865E+04  0.15191754351E+04  0.10022304810E+04 0.  0.
   -9000010    2    1    2    0  502 -0.40840405427E+03 -0.14062064117E+03  0.46049012077E+03  0.11763346408E+04  0.99254420535E+03 0.  0.
        -13    1    3    3    0    0 -0.22430921360E+03 -0.32279263560E+02  0.77114354566E+03  0.80375304251E+03  0.10566000000E+00 0.  1.
         13    1    4    4    0    0  0.21585335032E+03 -0.19876664172E+03 -0.12458745519E+03  0.31878345607E+03  0.10566000000E+00 0. -1.
          4    1    3    3  501    0  0.63271326787E+03  0.17289990473E+03  0.28567244086E+03  0.71542239262E+03  0.00000000000E+00 0.  1.
         -4    1    4    4    0  502 -0.62425740460E+03  0.58146000552E+02  0.58507757595E+03  0.85755118474E+03  0.00000000000E+00 0. -1.
</event>
<event>
 8    1  0.6759491E-006  0.1253559E+04  0.7818608E-02  0.8569738E-01
         21   -1    0    0  503  502  0.00000000000E+00  0.00000000000E+00  0.81754204684E+03  0.81754204684E+03  0.00000000000E+00 0.  1.
         21   -1    0    0  501  503 -0.00000000000E+00 -0.00000000000E+00 -0.20038524464E+04  0.20038524464E+04  0.00000000000E+00 0.  1.
    9000010    2    1    2  501    0  0.24505765411E+03  0.70297864108E+03 -0.91544446930E+03  0.15522396762E+04  0.10085520375E+04 0.  0.
   -9000010    2    1    2    0  502 -0.24505765411E+03 -0.70297864108E+03 -0.27086593027E+03  0.12691548171E+04  0.99154090881E+03 0.  0.
        -13    1    3    3    0    0  0.33691806786E+01  0.74127806776E+03 -0.16027733405E+03  0.75841503156E+03  0.10566000000E+00 0.  1.
         13    1    4    4    0    0 -0.40903330231E+03 -0.81811862355E+02 -0.43848487512E+03  0.60520279254E+03  0.10566000000E+00 0. -1.
          4    1    3    3  501    0  0.24168847343E+03 -0.38299426682E+02 -0.75516713525E+03  0.79382464464E+03  0.00000000000E+00 0.  1.
         -4    1    4    4    0  502  0.16397564820E+03 -0.62116677872E+03  0.16761894485E+03  0.66395202452E+03  0.00000000000E+00 0. -1.
</event>
<event>
 8    1  0.6759491E-006  0.1064750E+04  0.7818608E-02  0.8716721E-01
         21   -1    0    0  501  502  0.00000000000E+00  0.00000000000E+00  0.72516092679E+03  0.72516092679E+03  0.00000000000E+00 0.  1.
         21   -1    0    0  502  503 -0.00000000000E+00 -0.00000000000E+00 -0.19584999007E+04  0.19584999007E+04  0.00000000000E+00 0.  1.
    9000010    2    1    2  501    0  0.25712739021E+03  0.22799969285E+03 -0.11129073160E+02  0.10648077567E+04  0.10077665145E+04 0.  0.
   -9000010    2    1    2    0  503 -0.25712739021E+03 -0.22799969285E+03 -0.12222099008E+04  0.16188530708E+04  0.10043853188E+04 0.  0.
        -13    1    3    3    0    0  0.33682407139E+03  0.36715302047E+03 -0.40336483007E+03  0.64105771410E+03  0.10566000000E+00 0.  1.
         13    1    4    4    0    0 -0.18594664584E+03 -0.59535462749E+03 -0.47782008893E+03  0.78570690217E+03  0.10566000000E+00 0. -1.
          4    1    3    3  501    0 -0.79696681182E+02 -0.13915332762E+03  0.39223575691E+03  0.42375004257E+03  0.00000000000E+00 0.  1.
         -4    1    4    4    0  503 -0.71180744373E+02  0.36735493464E+03 -0.74438981186E+03  0.83314616867E+03  0.00000000000E+00 0. -1.
</event>
<event>
 8    1  0.6759491E-006  0.1061353E+04  0.7818608E-02  0.8722692E-01
         21   -1    0    0  501  502  0.00000000000E+00  0.00000000000E+00  0.93136573183E+03  0.93136573183E+03  0.00000000000E+00 0. -1.
         21   -1    0    0  502  503 -0.00000000000E+00 -0.00000000000E+00 -0.12520063444E+04  0.12520063444E+04  0.00000000000E+00 0. -1.
    9000010    2    1    2  501    0 -0.23410494860E+03  0.22643151075E+03  0.80606696234E+02  0.10644098911E+04  0.10101458414E+04 0.  0.
   -9000010    2    1    2    0  503  0.23410494860E+03 -0.22643151075E+03 -0.40124730879E+03  0.11189621851E+04  0.99247197080E+03 0.  0.
        -13    1    3    3    0    0 -0.24034788310E+03 -0.22865055124E+03  0.39156618584E+03  0.51319807925E+03  0.10566000000E+00 0.  1.
         13    1    4    4    0    0  0.11203372056E+03 -0.82651400952E+02  0.33297095892E+03  0.36090508346E+03  0.10566000000E+00 0. -1.
          4    1    3    3  501    0  0.62429345078E+01  0.45508206200E+03 -0.31095948960E+03  0.55121181188E+03  0.00000000000E+00 0.  1.
         -4    1    4    4    0  503  0.12207122803E+03 -0.14378010980E+03 -0.73421826770E+03  0.75805710162E+03  0.00000000000E+00 0. -1.
</event>
<event>
 8    1  0.1014902E-005  0.1107319E+04  0.7818608E-02  0.8680334E-01
         21   -1    0    0  503  502  0.00000000000E+00  0.00000000000E+00  0.13753955451E+04  0.13753955451E+04  0.00000000000E+00 0. -1.
         21   -1    0    0  501  503 -0.00000000000E+00 -0.00000000000E+00 -0.15613043930E+04  0.15613043930E+04  0.00000000000E+00 0. -1.
    9000010    2    1    2  501    0 -0.22596743229E+03 -0.40771510405E+03 -0.10560597696E+04  0.15283966316E+04  0.10017190923E+04 0.  0.
   -9000010    2    1    2    0  502  0.22596743229E+03  0.40771510405E+03  0.87015092168E+03  0.14083033065E+04  0.10044215699E+04 0.  0.
        -13    1    3    3    0    0 -0.28941481836E+03 -0.66119929254E+03 -0.10408959019E+04  0.12666529640E+04  0.10566000000E+00 0.  1.
         13    1    4    4    0    0  0.14220077406E+03  0.20633475866E+03 -0.19721131895E+03  0.31888463158E+03  0.10566000000E+00 0. -1.
          4    1    3    3  501    0  0.63447386075E+02  0.25348418848E+03 -0.15163867701E+02  0.26174366754E+03  0.00000000000E+00 0.  1.
         -4    1    4    4    0  502  0.83766658222E+02  0.20138034540E+03  0.10673622406E+04  0.10894186749E+04  0.00000000000E+00 0. -1.
</event>
<event>
 8    1  0.6759491E-006  0.1071450E+04  0.7818608E-02  0.8712947E-01
         21   -1    0    0  501  502  0.00000000000E+00  0.00000000000E+00  0.19983186072E+04  0.19983186072E+04  0.00000000000E+00 0.  1.
         21   -1    0    0  502  503 -0.00000000000E+00 -0.00000000000E+00 -0.61619540912E+03  0.61619540912E+03  0.00000000000E+00 0.  1.
    9000010    2    1    2  501    0  0.29012904305E+03 -0.26174672827E+03  0.10613489073E+04  0.15081336978E+04  0.99765702330E+03 0.  0.
   -9000010    2    1    2    0  503 -0.29012904305E+03  0.26174672827E+03  0.32077429080E+03  0.11063803185E+04  0.98412146209E+03 0.  0.
        -13    1    3    3    0    0 -0.22053038718E+03 -0.47044096144E+03  0.49927055337E+03  0.72056883537E+03  0.10566000000E+00 0.  1.
         13    1    4    4    0    0 -0.36710299839E+03 -0.28799510714E+03  0.26842442830E+01  0.46659726692E+03  0.10566000000E+00 0. -1.
          4    1    3    3  501    0  0.51065943023E+03  0.20869423317E+03  0.56207835391E+03  0.78756486246E+03  0.00000000000E+00 0.  1.
         -4    1    4    4    0  503  0.76973955340E+02  0.54974183541E+03  0.31809004652E+03  0.63978305158E+03  0.00000000000E+00 0. -1.
</event>
<event>
 8    1  0.6759491E-006  0.1112411E+04  0.7818608E-02  0.8678119E-01
         21   -1    0    0  501  502  0.00000000000E+00  0.00000000000E+00  0.86489568320E+03  0.86489568320E+03  0.00000000000E+00 0.  1.
         21   -1    0    0  502  503 -0.00000000000E+00 -0.00000000000E+00 -0.15132715175E+04  0.15132715175E+04  0.00000000000E+00 0.  1.
    9000010    2    1    2  501    0 -0.46509659135E+03  0.84790656764E+02 -0.19905633111E+02  0.11004999436E+04  0.99357918504E+03 0.  0.
   -9000010    2    1    2    0  503  0.46509659135E+03 -0.84790656764E+02 -0.62847020120E+03  0.12776672571E+04  0.10069530929E+04 0.  0.
        -13    1    3    3    0    0 -0.51220917245E+03  0.33329066699E+03 -0.33464505522E+03  0.69672679667E+03  0.10566000000E+00 0.  1.
         13    1    4    4    0    0  0.30812223577E+03  0.16901006812E+03 -0.84088452038E+03  0.91136738096E+03  0.10566000000E+00 0. -1.
          4    1    3    3  501    0  0.47112581099E+02 -0.24850001022E+03  0.31473942211E+03  0.40377314697E+03  0.00000000000E+00 0.  1.
         -4    1    4    4    0  503  0.15697435558E+03 -0.25380072488E+03  0.21241431917E+03  0.36629987613E+03  0.00000000000E+00 0. -1.
</event>
<event>
 8    1  0.6759491E-006  0.1290703E+04  0.7818608E-02  0.8548208E-01
         21   -1    0    0  503  502  0.00000000000E+00  0.00000000000E+00  0.23482829441E+04  0.23482829441E+04  0.00000000000E+00 0. -1.
         21   -1    0    0  501  503 -0.00000000000E+00 -0.00000000000E+00 -0.80270718132E+03  0.80270718132E+03  0.00000000000E+00 0.  1.
    9000010    2    1    2  501    0  0.48948343079E+03  0.59090657297E+03  0.16604977891E+03  0.12618087955E+04  0.98783819538E+03 0.  0.
   -9000010    2    1    2    0  502 -0.48948343079E+03 -0.59090657297E+03  0.13795259838E+04  0.18891813299E+04  0.10378581552E+04 0.  0.
        -13    1    3    3    0    0 -0.65381663739E+02 -0.24035741631E+03  0.26707898653E+01  0.24910558768E+03  0.10566000000E+00 0.  1.
         13    1    4    4    0    0 -0.34944968801E+03 -0.32224711193E+03 -0.14603758452E+01  0.47535295251E+03  0.10566000000E+00 0. -1.
          4    1    3    3  501    0  0.55486509453E+03  0.83126398928E+03  0.16337898904E+03  0.10127032078E+04  0.00000000000E+00 0.  1.
         -4    1    4    4    0  502 -0.14003374277E+03 -0.26865946104E+03  0.13809863597E+04  0.14138283774E+04  0.00000000000E+00 0. -1.
</event>
<event>
 8    1  0.6759491E-006  0.1037257E+04  0.7818608E-02  0.8744038E-01
         21   -1    0    0  501  502  0.00000000000E+00  0.00000000000E+00  0.18939904029E+04  0.18939904029E+04  0.00000000000E+00 0. -1.
         21   -1    0    0  502  503 -0.00000000000E+00 -0.00000000000E+00 -0.63024383995E+03  0.63024383995E+03  0.00000000000E+00 0. -1.
    9000010    2    1    2  501    0 -0.21662417392E+03  0.16850636514E+03  0.10600705358E+04  0.14831219760E+04  0.10002903714E+04 0.  0.
   -9000010    2    1    2    0  503  0.21662417392E+03 -0.16850636514E+03  0.20367602716E+03  0.10411122668E+04  0.98341771403E+03 0.  0.
        -13    1    3    3    0    0 -0.22178919548E+03  0.56005464316E+03  0.42564680433E+03  0.73758176751E+03  0.10566000000E+00 0.  1.
         13    1    4    4    0    0 -0.22834189135E+03 -0.42075417877E+03  0.22546141363E+03  0.52915683733E+03  0.10566000000E+00 0. -1.
          4    1    3    3  501    0  0.51650215577E+01 -0.39154827803E+03  0.63442373144E+03  0.74554020850E+03  0.00000000000E+00 0.  1.
         -4    1    4    4    0  503  0.44496606526E+03  0.25224781363E+03 -0.21785386473E+02  0.51195542949E+03  0.00000000000E+00 0. -1.
</event>
<event>
 8    1  0.6759491E-006  0.1054145E+04  0.7818608E-02  0.8725489E-01
         21   -1    0    0  501  502  0.00000000000E+00  0.00000000000E+00  0.14414325580E+04  0.14414325580E+04  0.00000000000E+00 0. -1.
         21   -1    0    0  502  503 -0.00000000000E+00 -0.00000000000E+00 -0.15192764864E+04  0.15192764864E+04  0.00000000000E+00 0. -1.
    9000010    2    1    2  501    0  0.27512919574E+03 -0.17617981252E+03  0.10004393842E+04  0.14533069922E+04  0.10022409149E+04 0.  0.
   -9000010    2    1    2    0  503 -0.27512919574E+03  0.17617981252E+03 -0.10782833125E+04  0.15074020522E+04  0.10014143220E+04 0.  0.
        -13    1    3    3    0    0 -0.37234963409E+03 -0.16276436246E+03  0.37352815759E+03  0.55195994725E+03  0.10566000000E+00 0.  1.
         13    1    4    4    0    0 -0.37426082992E+03 -0.33937636270E+02  0.28140979280E+02  0.37684858743E+03  0.10566000000E+00 0. -1.
          4    1    3    3  501    0  0.64747882983E+03 -0.13415450068E+02  0.62691122661E+03  0.90134704494E+03  0.00000000000E+00 0.  1.
         -4    1    4    4    0  503  0.99131634184E+02  0.21011744879E+03 -0.11064242918E+04  0.11305534648E+04  0.00000000000E+00 0. -1.
</event>
<event>
 8    1  0.6759491E-006  0.1085418E+04  0.7818608E-02  0.8702218E-01
         21   -1    0    0  501  502  0.00000000000E+00  0.00000000000E+00  0.23966171575E+04  0.23966171575E+04  0.00000000000E+00 0.  1.
         21   -1    0    0  502  503 -0.00000000000E+00 -0.00000000000E+00 -0.58862070030E+03  0.58862070030E+03  0.00000000000E+00 0.  1.
    9000010    2    1    2  501    0 -0.28802254385E+02 -0.36832759270E+03  0.15292313421E+04  0.18645945381E+04  0.10008344060E+04 0.  0.
   -9000010    2    1    2    0  503  0.28802254385E+02  0.36832759270E+03  0.27876511508E+03  0.11206433198E+04  0.10206060334E+04 0.  0.
        -13    1    3    3    0    0 -0.19425992745E+01 -0.17677269945E+03 -0.11378165173E+03  0.21023471739E+03  0.10566000000E+00 0.  1.
         13    1    4    4    0    0  0.18363588022E+03  0.68984151227E+03  0.27139391420E+03  0.76371337318E+03  0.10566000000E+00 0. -1.
          4    1    3    3  501    0 -0.26859655111E+02 -0.19155489325E+03  0.16430129939E+04  0.16543598207E+04  0.00000000000E+00 0.  1.
         -4    1    4    4    0  503 -0.15483362583E+03 -0.32151391957E+03  0.73712008869E+01  0.35692994658E+03  0.00000000000E+00 0. -1.
</event>
<event>
 8    1  0.6759491E-006  0.1034234E+04  0.7818608E-02  0.8747007E-01
         21   -1    0    0  503  502  0.00000000000E+00  0.00000000000E+00  0.12644454107E+04  0.12644454107E+04  0.00000000000E+00 0.  1.
         21   -1    0    0  501  503 -0.00000000000E+00 -0.00000000000E+00 -0.92558846551E+03  0.92558846551E+03  0.00000000000E+00 0.  1.
    9000010    2    1    2  501    0 -0.15093122965E+03 -0.72905389599E+02 -0.18029949412E+03  0.10328117315E+04  0.10030437345E+04 0.  0.
   -9000010    2    1    2    0  502  0.15093122965E+03  0.72905389599E+02  0.51915643934E+03  0.11572221447E+04  0.10205607536E+04 0.  0.
        -13    1    3    3    0    0  0.17247917482E+03 -0.53818214873E+02 -0.52770899262E+03  0.55778334329E+03  0.10566000000E+00 0.  1.
         13    1    4    4    0    0  0.13443882385E+02  0.48809265802E+03  0.52880432452E+03  0.71975635154E+03  0.10566000000E+00 0. -1.
          4    1    3    3  501    0 -0.32341040447E+03 -0.19087174726E+02  0.34740949850E+03  0.47502838821E+03  0.00000000000E+00 0.  1.
         -4    1    4    4    0  502  0.13748734727E+03 -0.41518726842E+03 -0.96478851773E+01  0.43746579319E+03  0.00000000000E+00 0. -1.
</event>
<event>
 8    1  0.6759491E-006  0.1085100E+04  0.7818608E-02  0.8701169E-01
         21   -1    0    0  503  502  0.00000000000E+00  0.00000000000E+00  0.16410206730E+04  0.16410206730E+04  0.00000000000E+00 0. -1.
         21   -1    0    0  501  503 -0.00000000000E+00 -0.00000000000E+00 -0.82321210662E+03  0.82321210662E+03  0.00000000000E+00 0. -1.
    9000010    2    1    2  501    0  0.14082298582E+03 -0.37622787149E+03 -0.47402494833E+02  0.10861353331E+04  0.10080002186E+04 0.  0.
   -9000010    2    1    2    0  502 -0.14082298582E+03  0.37622787149E+03  0.86521106125E+03  0.13780974466E+04  0.99457723032E+03 0.  0.
        -13    1    3    3    0    0  0.45948661932E+03  0.47192177213E+02 -0.24217576789E+03  0.52154018890E+03  0.10566000000E+00 0.  1.
         13    1    4    4    0    0 -0.16541747899E+02  0.46418090470E+03 -0.34348522395E+02  0.46574389300E+03  0.10566000000E+00 0. -1.
          4    1    3    3  501    0 -0.31866363350E+03 -0.42342004870E+03  0.19477327306E+03  0.56459514420E+03  0.00000000000E+00 0.  1.
         -4    1    4    4    0  502 -0.12428123792E+03 -0.87953033218E+02  0.89955958365E+03  0.91235355356E+03  0.00000000000E+00 0. -1.
</event>
<event>
 8    1  0.6759491E-006  0.1016628E+04  0.7818608E-02  0.8761502E-01
         21   -1    0    0  501  502  0.00000000000E+00  0.00000000000E+00  0.78666351083E+03  0.78666351083E+03  0.00000000000E+00 0. -1.
         21   -1    0    0  502  503 -0.00000000000E+00 -0.00000000000E+00 -0.13185756091E+04  0.13185756091E+04  0.00000000000E+00 0. -1.
    9000010    2    1    2  501    0  0.80859681865E+02  0.14996829692E+02 -0.14163511097E+03  0.10162721362E+04  0.10029882138E+04 0.  0.
   -9000010    2    1    2    0  503 -0.80859681865E+02 -0.14996829692E+02 -0.39027698729E+03  0.10889669838E+04  0.10132964876E+04 0.  0.
        -13    1    3    3    0    0 -0.32956039235E+03  0.33169869854E+03 -0.16889113330E+03  0.49715018344E+03  0.10566000000E+00 0.  1.
         13    1    4    4    0    0  0.66146095049E+02  0.17701486570E+03  0.30167583184E+03  0.35597455984E+03  0.10566000000E+00 0. -1.
          4    1    3    3  501    0  0.41042007422E+03 -0.31670186885E+03  0.27256022328E+02  0.51912195273E+03  0.00000000000E+00 0.  1.
         -4    1    4    4    0  503 -0.14700577691E+03 -0.19201169539E+03 -0.69195281913E+03  0.73299242392E+03  0.00000000000E+00 0. -1.
</event>
<event>
 8    1  0.6759491E-006  0.1036088E+04  0.7818608E-02  0.8745829E-01
         21   -1    0    0  503  502  0.00000000000E+00  0.00000000000E+00  0.12043965738E+04  0.12043965738E+04  0.00000000000E+00 0. -1.
         21   -1    0    0  501  503 -0.00000000000E+00 -0.00000000000E+00 -0.87528019403E+03  0.87528019403E+03  0.00000000000E+00 0. -1.
    9000010    2    1    2  501    0  0.55371862735E+00  0.22113675672E+03  0.13781645190E+03  0.10452135471E+04  0.10122135213E+04 0.  0.
   -9000010    2    1    2    0  502 -0.55371862735E+00 -0.22113675672E+03  0.19129992786E+03  0.10344632207E+04  0.99227855006E+03 0.  0.
        -13    1    3    3    0    0 -0.31470344052E+03  0.44773160972E+03  0.30041124286E+03  0.62429862711E+03  0.10566000000E+00 0.  1.
         13    1    4    4    0    0  0.14358210289E+03  0.25396131689E+03  0.40067977162E+03  0.49563742927E+03  0.10566000000E+00 0. -1.
          4    1    3    3  501    0  0.31525715915E+03 -0.22659485299E+03 -0.16259479096E+03  0.42091491996E+03  0.00000000000E+00 0.  1.
         -4    1    4    4    0  502 -0.14413582152E+03 -0.47509807361E+03 -0.20937984376E+03  0.53882579148E+03  0.00000000000E+00 0. -1.
</event>
<event>
 8    1  0.6759491E-006  0.1035451E+04  0.7818608E-02  0.8744482E-01
         21   -1    0    0  503  502  0.00000000000E+00  0.00000000000E+00  0.97275042298E+03  0.97275042298E+03  0.00000000000E+00 0. -1.
         21   -1    0    0  501  503 -0.00000000000E+00 -0.00000000000E+00 -0.11495263945E+04  0.11495263945E+04  0.00000000000E+00 0. -1.
    9000010    2    1    2  501    0  0.36160967557E+02 -0.19379749072E+03 -0.32848086428E+03  0.10757718451E+04  0.10052463884E+04 0.  0.
   -9000010    2    1    2    0  502 -0.36160967557E+02  0.19379749072E+03  0.15170489274E+03  0.10465049724E+04  0.10165103048E+04 0.  0.
        -13    1    3    3    0    0  0.47647213313E+03 -0.90834829631E+02  0.47933124441E+02  0.48741589583E+03  0.10566000000E+00 0.  1.
         13    1    4    4    0    0  0.29238856965E+03  0.39579853175E+03  0.35855266711E+03  0.60885760212E+03  0.10566000000E+00 0. -1.
          4    1    3    3  501    0 -0.44031116557E+03 -0.10296266109E+03 -0.37641398872E+03  0.58835594924E+03  0.00000000000E+00 0.  1.
         -4    1    4    4    0  502 -0.32854953721E+03 -0.20200104103E+03 -0.20684777437E+03  0.43764737031E+03  0.00000000000E+00 0. -1.
</event>
<event>
 7    1  0.6759491E-006  0.7217422E+03  0.7818608E-02  0.9092021E-01
         21   -1    0    0  501  502  0.00000000000E+00  0.00000000000E+00  0.64106124153E+03  0.64106124153E+03  0.00000000000E+00 0. -1.
         21   -1    0    0  502  503 -0.00000000000E+00 -0.00000000000E+00 -0.14373740810E+04  0.14373740810E+04  0.00000000000E+00 0. -1.
   -9000010    2    1    2    0  503  0.19732601440E+02 -0.89557391574E+02 -0.10896837677E+04  0.14837715396E+04  0.10028745516E+04 0.  0.
        -13    1    1    2    0    0 -0.16967174771E+03 -0.19356833169E+02 -0.71727296915E+02  0.18522420265E+03  0.10566000000E+00 0.  1.
         13    1    3    3    0    0  0.16110302645E+02  0.17380041739E+03  0.14152142958E+03  0.22470970858E+03  0.10566000000E+00 0. -1.
          4    1    1    2  501    0  0.14993914627E+03  0.10891422474E+03  0.36509822511E+03  0.40943958029E+03  0.00000000000E+00 0.  1.
         -4    1    3    3    0  503  0.36222987949E+01 -0.26335780896E+03 -0.12312051972E+04  0.12590618310E+04  0.00000000000E+00 0. -1.
</event>
<event>
 8    1  0.6759491E-006  0.1080613E+04  0.7818608E-02  0.8720278E-01
         21   -1    0    0  501  502  0.00000000000E+00  0.00000000000E+00  0.20690220277E+04  0.20690220277E+04  0.00000000000E+00 0.  1.
         21   -1    0    0  502  503 -0.00000000000E+00 -0.00000000000E+00 -0.12660284391E+04  0.12660284391E+04  0.00000000000E+00 0.  1.
    9000010    2    1    2  501    0  0.14060491320E+03  0.89568302382E+02  0.16720828182E+04  0.19483131924E+04  0.98603809386E+03 0.  0.
   -9000010    2    1    2    0  503 -0.14060491320E+03 -0.89568302382E+02 -0.86908922955E+03  0.13867372744E+04  0.10676759607E+04 0.  0.
        -13    1    3    3    0    0  0.49872876469E+03 -0.43822709726E+02  0.46907152091E+03  0.68606042992E+03  0.10566000000E+00 0.  1.
         13    1    4    4    0    0 -0.50993637574E+03  0.24232187833E+03 -0.33059752497E+03  0.65425509910E+03  0.10566000000E+00 0. -1.
          4    1    3    3  501    0 -0.35812385148E+03  0.13339101211E+03  0.12030112973E+04  0.12622527625E+04  0.00000000000E+00 0.  1.
         -4    1    4    4    0  503  0.36933146253E+03 -0.33189018071E+03 -0.53849170458E+03  0.73248217533E+03  0.00000000000E+00 0. -1.
</event>
<event>
 8    1  0.6759491E-006  0.1085057E+04  0.7818608E-02  0.8700451E-01
         21   -1    0    0  503  502  0.00000000000E+00  0.00000000000E+00  0.62021686690E+03  0.62021686690E+03  0.00000000000E+00 0.  1.
         21   -1    0    0  501  503 -0.00000000000E+00 -0.00000000000E+00 -0.20484530588E+04  0.20484530588E+04  0.00000000000E+00 0.  1.
    9000010    2    1    2  501    0  0.22256201529E+03  0.27828113304E+03 -0.33179726716E+03  0.11260981944E+04  0.10153981866E+04 0.  0.
   -9000010    2    1    2    0  502 -0.22256201529E+03 -0.27828113304E+03 -0.10964389247E+04  0.15425717313E+04  0.10248780370E+04 0.  0.
        -13    1    3    3    0    0  0.58155018912E+03  0.35765900648E+03 -0.33030955616E+03  0.75843589145E+03  0.10566000000E+00 0.  1.
         13    1    4    4    0    0 -0.36997618422E+03 -0.45163493060E+03 -0.19912420388E+03  0.61685245170E+03  0.10566000000E+00 0. -1.
          4    1    3    3  501    0 -0.35898817382E+03 -0.79377873447E+02 -0.14877109973E+01  0.36766230297E+03  0.00000000000E+00 0.  1.
         -4    1    4    4    0  502  0.14741416893E+03  0.17335379757E+03 -0.89731472082E+03  0.92571927955E+03  0.00000000000E+00 0. -1.
</event>
<event>
 8    1  0.6759491E-006  0.1070356E+04  0.7818608E-02  0.8711951E-01
         21   -1    0    0  501  502  0.00000000000E+00  0.00000000000E+00  0.86849060886E+03  0.86849060886E+03  0.00000000000E+00 0.  1.
         21   -1    0    0  502  503 -0.00000000000E+00 -0.00000000000E+00 -0.13624698420E+04  0.13624698420E+04  0.00000000000E+00 0.  1.
    9000010    2    1    2  501    0 -0.23803288948E+03 -0.28284098106E+03 -0.37546467706E+02  0.10673483425E+04  0.10005818657E+04 0.  0.
   -9000010    2    1    2    0  503  0.23803288948E+03  0.28284098106E+03 -0.45643276541E+03  0.11636121084E+04  0.10044917085E+04 0.  0.
        -13    1    3    3    0    0 -0.29853910117E+03  0.19507665889E+03  0.31064968583E+03  0.47295215005E+03  0.10566000000E+00 0.  1.
         13    1    4    4    0    0 -0.26705553763E+03  0.31386709403E+03  0.86853482255E+02  0.42115881974E+03  0.10566000000E+00 0. -1.
          4    1    3    3  501    0  0.60506211687E+02 -0.47791763995E+03 -0.34819615354E+03  0.59439619242E+03  0.00000000000E+00 0.  1.
         -4    1    4    4    0  503  0.50508842712E+03 -0.31026112975E+02 -0.54328624767E+03  0.74245328863E+03  0.00000000000E+00 0. -1.
</event>
<event>
 8    1  0.6759491E-006  0.1086674E+04  0.7818608E-02  0.8700942E-01
         21   -1    0    0  501  502  0.00000000000E+00  0.00000000000E+00  0.76092949482E+03  0.76092949482E+03  0.00000000000E+00 0.  1.
         21   -1    0    0  502  503 -0.00000000000E+00 -0.00000000000E+00 -0.22531586890E+04  0.22531586890E+04  0.00000000000E+00 0.  1.
    9000010    2    1    2  501    0 -0.35341808762E+03 -0.22985299141E+03  0.11367862594E+03  0.10750677320E+04  0.98240065964E+03 0.  0.
   -9000010    2    1    2    0  503  0.35341808762E+03  0.22985299141E+03 -0.16059078201E+04  0.19390204518E+04  0.10015606041E+04 0.  0.
        -13    1    3    3    0    0  0.16113726114E+03  0.13790588015E+02 -0.32055736958E+03  0.35904377950E+03  0.10566000000E+00 0.  1.
         13    1    4    4    0    0  0.38751677522E+03 -0.32816499134E+03 -0.58167663731E+03  0.77214586328E+03  0.10566000000E+00 0. -1.
          4    1    3    3  501    0 -0.51455534876E+03 -0.24364357942E+03  0.43423599552E+03  0.71602395249E+03  0.00000000000E+00 0.  1.
         -4    1    4    4    0  503 -0.34098687608E+02  0.55801798275E+03 -0.10242311828E+04  0.11668745886E+04  0.00000000000E+00 0. -1.
</event>
<event>
 8    1  0.6759491E-006  0.1127156E+04  0.7818608E-02  0.8665656E-01
         21   -1    0    0  501  502  0.00000000000E+00  0.00000000000E+00  0.36601610555E+04  0.36601610555E+04  0.00000000000E+00 0.  1.
         21   -1    0    0  502  503 -0.00000000000E+00 -0.00000000000E+00 -0.50996301933E+03  0.50996301933E+03  0.00000000000E+00 0.  1.
    9000010    2    1    2  501    0 -0.45244866391E+03  0.17818558824E+03  0.27599494633E+04  0.29773225823E+04  0.10053202583E+04 0.  0.
   -9000010    2    1    2    0  503  0.45244866391E+03 -0.17818558824E+03  0.39024857289E+03  0.11928014925E+04  0.10168685041E+04 0.  0.
        -13    1    3    3    0    0  0.55889115556E+02 -0.26861450330E+03  0.22878198817E+03  0.35723739151E+03  0.10566000000E+00 0.  1.
         13    1    4    4    0    0  0.62106840875E+03  0.18346805873E+03  0.45100442307E+03  0.78917139945E+03  0.10566000000E+00 0. -1.
          4    1    3    3  501    0 -0.50833777947E+03  0.44680009154E+03  0.25311674751E+04  0.26200851908E+04  0.00000000000E+00 0.  1.
         -4    1    4    4    0  503 -0.16861974484E+03 -0.36165364697E+03 -0.60755850184E+02  0.40363009309E+03  0.00000000000E+00 0. -1.
</event>
<event>
 8    1  0.6759491E-006  0.1129833E+04  0.7818608E-02  0.8663560E-01
         21   -1    0    0  501  502  0.00000000000E+00  0.00000000000E+00  0.99622830629E+03  0.99622830629E+03  0.00000000000E+00 0. -1.
         21   -1    0    0  502  503 -0.00000000000E+00 -0.00000000000E+00 -0.18444173675E+04  0.18444173675E+04  0.00000000000E+00 0. -1.
    9000010    2    1    2  501    0  0.49216756565E+03 -0.12997522208E+03  0.37053555389E+03  0.11787757066E+04  0.99654056549E+03 0.  0.
   -9000010    2    1    2    0  503 -0.49216756565E+03  0.12997522208E+03 -0.12187246151E+04  0.16618699672E+04  0.10086622970E+04 0.  0.
        -13    1    3    3    0    0  0.57797395890E+03  0.21014386727E+03  0.51231984514E+03  0.80042862080E+03  0.10566000000E+00 0.  1.
         13    1    4    4    0    0 -0.61873668134E+03  0.24968240862E+03 -0.13063398299E+04  0.14668674611E+04  0.10566000000E+00 0. -1.
          4    1    3    3  501    0 -0.85806393249E+02 -0.34011908935E+03 -0.14178429125E+03  0.37834708576E+03  0.00000000000E+00 0.  1.
         -4    1    4    4    0  503  0.12656911570E+03 -0.11970718654E+03  0.87615214768E+02  0.19500250618E+03  0.00000000000E+00 0. -1.
</event>
<event>
 8    1  0.6759491E-006  0.1033593E+04  0.7818608E-02  0.8747928E-01
         21   -1    0    0  503  502  0.00000000000E+00  0.00000000000E+00  0.61594731843E+03  0.61594731843E+03  0.00000000000E+00 0. -1.
         21   -1    0    0  501  503 -0.00000000000E+00 -0.00000000000E+00 -0.17063946147E+04  0.17063946147E+04  0.00000000000E+00 0. -1.
    9000010    2    1    2  501    0  0.82430156905E+02 -0.16158200387E+03 -0.60128598478E+03  0.11957670717E+04  0.10175512663E+04 0.  0.
   -9000010    2    1    2    0  502 -0.82430156905E+02  0.16158200387E+03 -0.48916131149E+03  0.11265748615E+04  0.99849319231E+03 0.  0.
        -13    1    3    3    0    0  0.40506357055E+03 -0.15122865351E+03 -0.72984895757E+03  0.84830779429E+03  0.10566000000E+00 0.  1.
         13    1    4    4    0    0 -0.38017931289E+03  0.43989456244E+03 -0.40987482700E+03  0.71136553261E+03  0.10566000000E+00 0. -1.
          4    1    3    3  501    0 -0.32263341365E+03 -0.10353350359E+02  0.12856297278E+03  0.34745927738E+03  0.00000000000E+00 0.  1.
         -4    1    4    4    0  502  0.29774915598E+03 -0.27831255857E+03 -0.79286484495E+02  0.41520932886E+03  0.00000000000E+00 0. -1.
</event>
<event>
 8    1  0.6759491E-006  0.1081504E+04  0.7818608E-02  0.8702920E-01
         21   -1    0    0  501  502  0.00000000000E+00  0.00000000000E+00  0.15705189543E+04  0.15705189543E+04  0.00000000000E+00 0.  1.
         21   -1    0    0  502  503 -0.00000000000E+00 -0.00000000000E+00 -0.83175408519E+03  0.83175408519E+03  0.00000000000E+00 0. -1.
    9000010    2    1    2  501    0 -0.37150187969E+03 -0.49391842444E+02  0.76836653897E+03  0.13266645336E+04  0.10144941823E+04 0.  0.
   -9000010    2    1    2    0  503  0.37150187969E+03  0.49391842444E+02 -0.29601669874E+02  0.10756085058E+04  0.10077718979E+04 0.  0.
        -13    1    3    3    0    0 -0.28679895750E+03  0.45203256026E+03  0.21995577257E+03  0.57876388157E+03  0.10566000000E+00 0.  1.
         13    1    4    4    0    0  0.30373557068E+03  0.34060673238E+03  0.36228692369E+03  0.58268350696E+03  0.10566000000E+00 0. -1.
          4    1    3    3  501    0 -0.84702922196E+02 -0.50142440271E+03  0.54841076640E+03  0.74790065206E+03  0.00000000000E+00 0.  1.
         -4    1    4    4    0  503  0.67766309008E+02 -0.29121488993E+03 -0.39188859356E+03  0.49292499888E+03  0.00000000000E+00 0. -1.
</event>
<event>
 8    1  0.6759491E-006  0.1037124E+04  0.7818608E-02  0.8740716E-01
         21   -1    0    0  501  502  0.00000000000E+00  0.00000000000E+00  0.14510565299E+04  0.14510565299E+04  0.00000000000E+00 0.  1.
         21   -1    0    0  502  503 -0.00000000000E+00 -0.00000000000E+00 -0.11756190003E+04  0.11756190003E+04  0.00000000000E+00 0.  1.
    9000010    2    1    2  501    0 -0.28029464800E+03 -0.15500980649E+02  0.93667890159E+03  0.13966890002E+04  0.99728001504E+03 0.  0.
   -9000010    2    1    2    0  503  0.28029464800E+03  0.15500980649E+02 -0.66124137201E+03  0.12299865301E+04  0.99840940599E+03 0.  0.
        -13    1    3    3    0    0 -0.21510723419E+03 -0.42668331690E+03  0.14022230003E+03  0.49798803170E+03  0.10566000000E+00 0.  1.
         13    1    4    4    0    0 -0.31498293763E+03 -0.22051757480E+03 -0.15864542659E+03  0.41594547039E+03  0.10566000000E+00 0. -1.
          4    1    3    3  501    0 -0.65187413809E+02  0.41118233625E+03  0.79645660156E+03  0.89870096847E+03  0.00000000000E+00 0.  1.
         -4    1    4    4    0  503  0.59527758564E+03  0.23601855545E+03 -0.50259594542E+03  0.81404105967E+03  0.00000000000E+00 0. -1.
</event>
<event>
 8    1  0.6759491E-006  0.1216416E+04  0.7818608E-02  0.8595553E-01
         21   -1    0    0  503  502  0.00000000000E+00  0.00000000000E+00  0.20608365661E+04  0.20608365661E+04  0.00000000000E+00 0. -1.
         21   -1    0    0  501  503 -0.00000000000E+00 -0.00000000000E+00 -0.84673347257E+03  0.84673347257E+03  0.00000000000E+00 0. -1.
    9000010    2    1    2  501    0  0.34760318896E+03 -0.59436867355E+03  0.30089709928E+02  0.12100557472E+04  0.99459912715E+03 0.  0.
   -9000010    2    1    2    0  502 -0.34760318896E+03  0.59436867355E+03  0.11840133836E+04  0.16975142915E+04  0.10027786296E+04 0.  0.
        -13    1    3    3    0    0  0.37875580852E+03  0.15503879008E+03 -0.15478715879E+03  0.43755235642E+03  0.10566000000E+00 0.  1.
         13    1    4    4    0    0  0.13022999659E+03 -0.18147112368E+03  0.27308933806E+02  0.22502757558E+03  0.10566000000E+00 0. -1.
          4    1    3    3  501    0 -0.31152619560E+02 -0.74940746363E+03  0.18487686871E+03  0.77250339083E+03  0.00000000000E+00 0.  1.
         -4    1    4    4    0  502 -0.47783318555E+03  0.77583979723E+03  0.11567044498E+04  0.14724867159E+04  0.00000000000E+00 0. -1.
</event>
<event>
 8    1  0.6759491E-006  0.1010424E+04  0.7818608E-02  0.8769182E-01
         21   -1    0    0  503  502  0.00000000000E+00  0.00000000000E+00  0.11031057740E+04  0.11031057740E+04  0.00000000000E+00 0.  1.
         21   -1    0    0  501  503 -0.00000000000E+00 -0.00000000000E+00 -0.10835217893E+04  0.10835217893E+04  0.00000000000E+00 0.  1.
    9000010    2    1    2  501    0 -0.31539525228E+02  0.74535777838E+01 -0.42943081205E+03  0.10809283549E+04  0.99143582171E+03 0.  0.
   -9000010    2    1    2    0  502  0.31539525228E+02 -0.74535777838E+01  0.44901479669E+03  0.11056992084E+04  0.10099040322E+04 0.  0.
        -13    1    3    3    0    0 -0.20319829809E+03  0.45792207115E+03 -0.14648083095E+03  0.52195671908E+03  0.10566000000E+00 0.  1.
         13    1    4    4    0    0  0.31830067866E+03  0.20352715344E+03 -0.15193309727E+03  0.40721284537E+03  0.10566000000E+00 0. -1.
          4    1    3    3  501    0  0.17165877286E+03 -0.45046849337E+03 -0.28294998110E+03  0.55897163580E+03  0.00000000000E+00 0.  1.
         -4    1    4    4    0  502 -0.28676115343E+03 -0.21098073122E+03  0.60094789397E+03  0.69848636302E+03  0.00000000000E+00 0. -1.
</event>
<event>
 8    1  0.6759491E-006  0.1029301E+04  0.7818608E-02  0.8755582E-01
         21   -1    0    0  501  502  0.00000000000E+00  0.00000000000E+00  0.17456312450E+04  0.17456312450E+04  0.00000000000E+00 0. -1.
         21   -1    0    0  502  503 -0.00000000000E+00 -0.00000000000E+00 -0.63836594666E+03  0.63836594666E+03  0.00000000000E+00 0. -1.
    9000010    2    1    2  501    0 -0.10299127171E+03  0.36223439322E+02  0.20535385445E+03  0.10154561711E+04  0.98846430908E+03 0.  0.
   -9000010    2    1    2    0  503  0.10299127171E+03 -0.36223439322E+02  0.90191144391E+03  0.13685410206E+04  0.10234944713E+04 0.  0.
        -13    1    3    3    0    0  0.18614608356E+02 -0.21411939830E+03 -0.34054934242E+03  0.40270024356E+03  0.10566000000E+00 0.  1.
         13    1    4    4    0    0 -0.34440831929E+03  0.21339084007E+03  0.10061677931E+03  0.41746435592E+03  0.10566000000E+00 0. -1.
          4    1    3    3  501    0 -0.12160588006E+03  0.25034283762E+03  0.54590319687E+03  0.61275592757E+03  0.00000000000E+00 0.  1.
         -4    1    4    4    0  503  0.44739959100E+03 -0.24961427939E+03  0.80129466460E+03  0.95107666464E+03  0.00000000000E+00 0. -1.
</event>
<event>
 8    1  0.6759491E-006  0.1029119E+04  0.7818608E-02  0.8750950E-01
         21   -1    0    0  503  502  0.00000000000E+00  0.00000000000E+00  0.19351239846E+04  0.19351239846E+04  0.00000000000E+00 0.  1.
         21   -1    0    0  501  503 -0.00000000000E+00 -0.00000000000E+00 -0.56072199940E+03  0.56072199940E+03  0.00000000000E+00 0.  1.
    9000010    2    1    2  501    0  0.15123193390E+03  0.11569250528E+03  0.93304209975E+03  0.13891196824E+04  0.10113506209E+04 0.  0.
   -9000010    2    1    2    0  502 -0.15123193390E+03 -0.11569250528E+03  0.44135988540E+03  0.11067263016E+04  0.99688951474E+03 0.  0.
        -13    1    3    3    0    0 -0.19097834956E+03  0.91968111370E+02  0.10146166563E+04  0.10365219891E+04  0.10566000000E+00 0.  1.
         13    1    4    4    0    0  0.24809530704E+02 -0.50773129814E+03  0.44703431387E+03  0.67693889892E+03  0.10566000000E+00 0. -1.
          4    1    3    3  501    0  0.34221028346E+03  0.23724393910E+02 -0.81574556585E+02  0.35259769320E+03  0.00000000000E+00 0.  1.
         -4    1    4    4    0  502 -0.17604146460E+03  0.39203879286E+03 -0.56744284650E+01  0.42978740268E+03  0.00000000000E+00 0. -1.
</event>
<event>
 8    1  0.6759491E-006  0.1145935E+04  0.7818608E-02  0.8650244E-01
         21   -1    0    0  503  502  0.00000000000E+00  0.00000000000E+00  0.11615127373E+04  0.11615127373E+04  0.00000000000E+00 0.  1.
         21   -1    0    0  501  503 -0.00000000000E+00 -0.00000000000E+00 -0.12915530191E+04  0.12915530191E+04  0.00000000000E+00 0.  1.
    9000010    2    1    2  501    0 -0.30710431605E+03  0.46138649154E+03 -0.51015039342E+03  0.12543606401E+04  0.10029838663E+04 0.  0.
   -9000010    2    1    2    0  502  0.30710431605E+03 -0.46138649154E+03  0.38011011157E+03  0.11987051163E+04  0.99258234088E+03 0.  0.
        -13    1    3    3    0    0 -0.32037712907E+03 -0.26711568047E+03 -0.19668654582E+03  0.46117014220E+03  0.10566000000E+00 0.  1.
         13    1    4    4    0    0  0.18696530801E+03 -0.76343034821E+03  0.14932398449E+03  0.80004974000E+03  0.10566000000E+00 0. -1.
          4    1    3    3  501    0  0.13272813021E+02  0.72850217201E+03 -0.31346384760E+03  0.79319049789E+03  0.00000000000E+00 0.  1.
         -4    1    4    4    0  502  0.12013900804E+03  0.30204385667E+03  0.23078612708E+03  0.39865537630E+03  0.00000000000E+00 0. -1.
</event>
<event>
 8    1  0.6759491E-006  0.1065289E+04  0.7818608E-02  0.8719268E-01
         21   -1    0    0  503  502  0.00000000000E+00  0.00000000000E+00  0.10536698281E+04  0.10536698281E+04  0.00000000000E+00 0. -1.
         21   -1    0    0  501  503 -0.00000000000E+00 -0.00000000000E+00 -0.15659436453E+04  0.15659436453E+04  0.00000000000E+00 0. -1.
    9000010    2    1    2  501    0 -0.14022003705E+03  0.29123279347E+03 -0.10020251680E+04  0.14624965133E+04  0.10150681825E+04 0.  0.
   -9000010    2    1    2    0  502  0.14022003705E+03 -0.29123279347E+03  0.48975135080E+03  0.11571169601E+04  0.99728886234E+03 0.  0.
        -13    1    3    3    0    0 -0.21179722954E+03 -0.12854959015E+03  0.11048180270E+03  0.27127348462E+03  0.10566000000E+00 0.  1.
         13    1    4    4    0    0 -0.96136058426E+02  0.12896907368E+03  0.63383903673E+03  0.65393202961E+03  0.10566000000E+00 0. -1.
          4    1    3    3  501    0  0.71577192489E+02  0.41978238363E+03 -0.11125069707E+04  0.11912230287E+04  0.00000000000E+00 0.  1.
         -4    1    4    4    0  502  0.23635609547E+03 -0.42020186716E+03 -0.14408768593E+03  0.50318493049E+03  0.00000000000E+00 0. -1.
</event>
<event>
 8    1  0.6759491E-006  0.1037835E+04  0.7818608E-02  0.8748694E-01
         21   -1    0    0  501  502  0.00000000000E+00  0.00000000000E+00  0.16767075066E+04  0.16767075066E+04  0.00000000000E+00 0. -1.
         21   -1    0    0  502  503 -0.00000000000E+00 -0.00000000000E+00 -0.63409207893E+03  0.63409207893E+03  0.00000000000E+00 0. -1.
    9000010    2    1    2  501    0 -0.23245482728E+03  0.15862679827E+03  0.71110499294E+03  0.12580827526E+04  0.99895154714E+03 0.  0.
   -9000010    2    1    2    0  503  0.23245482728E+03 -0.15862679827E+03  0.33151043468E+03  0.10527168329E+04  0.95870530096E+03 0.  0.
        -13    1    3    3    0    0  0.54989937923E+02  0.46588012395E+03  0.69312170608E+03  0.83695035323E+03  0.10566000000E+00 0.  1.
         13    1    4    4    0    0  0.43722293619E+02  0.84505418394E+02 -0.31909616580E+03  0.33297924693E+03  0.10566000000E+00 0. -1.
          4    1    3    3  501    0 -0.28744476521E+03 -0.30725332568E+03  0.17983286861E+02  0.42113239936E+03  0.00000000000E+00 0.  1.
         -4    1    4    4    0  503  0.18873253366E+03 -0.24313221666E+03  0.65060660048E+03  0.71973758595E+03  0.00000000000E+00 0. -1.
</event>
<event>
 8    1  0.6759491E-006  0.1041925E+04  0.7818608E-02  0.8740784E-01
         21   -1    0    0  501  502  0.00000000000E+00  0.00000000000E+00  0.83414856238E+03  0.83414856238E+03  0.00000000000E+00 0.  1.
         21   -1    0    0  502  503 -0.00000000000E+00 -0.00000000000E+00 -0.13572583746E+04  0.13572583746E+04  0.00000000000E+00 0.  1.
    9000010    2    1    2  501    0 -0.89349488610E+02 -0.19938414848E+03  0.40152814069E+01  0.10419328257E+04  0.10187593048E+04 0.  0.
   -9000010    2    1    2    0  503  0.89349488610E+02  0.19938414848E+03 -0.52712509366E+03  0.11494741113E+04  0.99784392486E+03 0.  0.
        -13    1    3    3    0    0 -0.11132788891E+03 -0.29579628104E+03  0.46955131223E+03  0.56601041043E+03  0.10566000000E+00 0.  1.
         13    1    4    4    0    0  0.35169479318E+03  0.29016268989E+03 -0.69043313930E+03  0.82739443143E+03  0.10566000000E+00 0. -1.
          4    1    3    3  501    0  0.21978400298E+02  0.96412132559E+02 -0.46553603083E+03  0.47592241530E+03  0.00000000000E+00 0.  1.
         -4    1    4    4    0  503 -0.26234530457E+03 -0.90778541411E+02  0.16330804564E+03  0.32207967986E+03  0.00000000000E+00 0. -1.
</event>
<event>
 8    1  0.6759491E-006  0.1083685E+04  0.7818608E-02  0.8701319E-01
         21   -1    0    0  503  502  0.00000000000E+00  0.00000000000E+00  0.18616196414E+04  0.18616196414E+04  0.00000000000E+00 0. -1.
         21   -1    0    0  501  503 -0.00000000000E+00 -0.00000000000E+00 -0.65491898327E+03  0.65491898327E+03  0.00000000000E+00 0. -1.
    9000010    2    1    2  501    0  0.40960169519E+03  0.31765137608E+02  0.34305568462E+03  0.11366884027E+04  0.10027914786E+04 0.  0.
   -9000010    2    1    2    0  502 -0.40960169519E+03 -0.31765137608E+02  0.86364497349E+03  0.13798502219E+04  0.99464638036E+03 0.  0.
        -13    1    3    3    0    0 -0.11715236170E+03  0.36765599487E+03 -0.63861449118E+02  0.39111878280E+03  0.10566000000E+00 0.  1.
         13    1    4    4    0    0  0.17161003801E+03 -0.20515663064E+03  0.70336792961E+03  0.75250628158E+03  0.10566000000E+00 0. -1.
          4    1    3    3  501    0  0.52675405690E+03 -0.33589085726E+03  0.40691713374E+03  0.74556961994E+03  0.00000000000E+00 0.  1.
         -4    1    4    4    0  502 -0.58121173320E+03  0.17339149303E+03  0.16027704387E+03  0.62734394032E+03  0.00000000000E+00 0. -1.
</event>
<event>
 8    1  0.6759491E-006  0.1004033E+04  0.7818608E-02  0.8775479E-01
         21   -1    0    0  503  502  0.00000000000E+00  0.00000000000E+00  0.10706799289E+04  0.10706799289E+04  0.00000000000E+00 0.  1.
         21   -1    0    0  501  503 -0.00000000000E+00 -0.00000000000E+00 -0.93470714777E+03  0.93470714777E+03  0.00000000000E+00 0.  1.
    9000010    2    1    2  501    0 -0.28022200993E+02  0.25347416065E+02 -0.43093126527E+02  0.10049573886E+04  0.10033217829E+04 0.  0.
   -9000010    2    1    2    0  502  0.28022200993E+02 -0.25347416065E+02  0.17906590763E+03  0.10004296880E+04  0.98354828361E+03 0.  0.
        -13    1    3    3    0    0  0.71992859087E+02  0.19773075127E+03 -0.48035192683E+03  0.52442197373E+03  0.10566000000E+00 0.  1.
         13    1    4    4    0    0 -0.13809515149E+03  0.45520327139E+03  0.78364429724E+02  0.48210090661E+03  0.10566000000E+00 0. -1.
          4    1    3    3  501    0 -0.10001506008E+03 -0.17238333521E+03  0.43725880031E+03  0.48053541487E+03  0.00000000000E+00 0.  1.
         -4    1    4    4    0  502  0.16611735248E+03 -0.48055068745E+03  0.10070147791E+03  0.51832878143E+03  0.00000000000E+00 0. -1.
</event>
<event>
 8    1  0.6759491E-006  0.1047775E+04  0.7818608E-02  0.8746544E-01
         21   -1    0    0  503  502  0.00000000000E+00  0.00000000000E+00  0.89681820492E+03  0.89681820492E+03  0.00000000000E+00 0. -1.
         21   -1    0    0  501  503 -0.00000000000E+00 -0.00000000000E+00 -0.14884428034E+04  0.14884428034E+04  0.00000000000E+00 0. -1.
    9000010    2    1    2  501    0  0.55811242273E+02 -0.22198264776E+03 -0.85982550821E+03  0.13037047771E+04  0.95286675387E+03 0.  0.
   -9000010    2    1    2    0  502 -0.55811242273E+02  0.22198264776E+03  0.26820090973E+03  0.10815562312E+04  0.10224680741E+04 0.  0.
        -13    1    3    3    0    0 -0.27024157336E+02 -0.13878788146E+03  0.19583038280E+03  0.24154074421E+03  0.10566000000E+00 0.  1.
         13    1    4    4    0    0 -0.40330692759E+02 -0.17181360067E+03  0.56260263904E+03  0.58963397016E+03  0.10566000000E+00 0. -1.
          4    1    3    3  501    0  0.82835399610E+02 -0.83194766297E+02 -0.10556558910E+04  0.10621640329E+04  0.00000000000E+00 0.  1.
         -4    1    4    4    0  502 -0.15480549514E+02  0.39379624843E+03 -0.29440172930E+03  0.49192226104E+03  0.00000000000E+00 0. -1.
</event>
<event>
 8    1  0.6759491E-006  0.1092556E+04  0.7818608E-02  0.8695393E-01
         21   -1    0    0  503  502  0.00000000000E+00  0.00000000000E+00  0.16017413675E+04  0.16017413675E+04  0.00000000000E+00 0. -1.
         21   -1    0    0  501  503 -0.00000000000E+00 -0.00000000000E+00 -0.13236758798E+04  0.13236758798E+04  0.00000000000E+00 0. -1.
    9000010    2    1    2  501    0 -0.37213706926E+03 -0.24294858563E+02 -0.83696194331E+03  0.13643393344E+04  0.10108611607E+04 0.  0.
   -9000010    2    1    2    0  502  0.37213706926E+03  0.24294858563E+02  0.11150274309E+04  0.15610779129E+04  0.10269380897E+04 0.  0.
        -13    1    3    3    0    0  0.22353857269E+03 -0.27572038487E+03 -0.55538434581E+03  0.65912290724E+03  0.10566000000E+00 0.  1.
         13    1    4    4    0    0  0.40473029456E+03  0.33534152320E+03  0.11317873923E+04  0.12478795058E+04  0.10566000000E+00 0. -1.
          4    1    3    3  501    0 -0.59567564195E+03  0.25142552630E+03 -0.28157759750E+03  0.70521642714E+03  0.00000000000E+00 0.  1.
         -4    1    4    4    0  502 -0.32593225301E+02 -0.31104666464E+03 -0.16759961360E+02  0.31319840712E+03  0.00000000000E+00 0. -1.
</event>
<event>
 8    1  0.6759491E-006  0.1008080E+04  0.7818608E-02  0.8771220E-01
         21   -1    0    0  503  502  0.00000000000E+00  0.00000000000E+00  0.11270086694E+04  0.11270086694E+04  0.00000000000E+00 0. -1.
         21   -1    0    0  501  503 -0.00000000000E+00 -0.00000000000E+00 -0.92125965297E+03  0.92125965297E+03  0.00000000000E+00 0. -1.
    9000010    2    1    2  501    0 -0.17845169080E+03 -0.22410757636E+02  0.30280540234E+03  0.10355269090E+04  0.97379547110E+03 0.  0.
   -9000010    2    1    2    0  502  0.17845169080E+03  0.22410757636E+02 -0.97056385949E+02  0.10127414133E+04  0.99190623561E+03 0.  0.
        -13    1    3    3    0    0  0.31958075881E+03  0.70946637311E+02  0.40279732391E+03  0.51904815004E+03  0.10566000000E+00 0.  1.
         13    1    4    4    0    0 -0.70465306619E+02 -0.36274643240E+03  0.24261569622E+03  0.44205511068E+03  0.10566000000E+00 0. -1.
          4    1    3    3  501    0 -0.49803244962E+03 -0.93357394947E+02 -0.99991921563E+02  0.51647875895E+03  0.00000000000E+00 0.  1.
         -4    1    4    4    0  502  0.24891699742E+03  0.38515719004E+03 -0.33967208217E+03  0.57068630267E+03  0.00000000000E+00 0. -1.
</event>
<event>
 8    1  0.6759491E-006  0.1038770E+04  0.7818608E-02  0.8739370E-01
         21   -1    0    0  503  502  0.00000000000E+00  0.00000000000E+00  0.15367567418E+04  0.15367567418E+04  0.00000000000E+00 0.  1.
         21   -1    0    0  501  503 -0.00000000000E+00 -0.00000000000E+00 -0.75540368764E+03  0.75540368764E+03  0.00000000000E+00 0.  1.
    9000010    2    1    2  501    0  0.27919024971E+03  0.10095490696E+03  0.82881585969E+02  0.10403998011E+04  0.99369175304E+03 0.  0.
   -9000010    2    1    2    0  502 -0.27919024971E+03 -0.10095490696E+03  0.69847146818E+03  0.12517606283E+04  0.99544120368E+03 0.  0.
        -13    1    3    3    0    0  0.21401680486E+03  0.46120637788E+03  0.32319887685E+03  0.60247161006E+03  0.10566000000E+00 0.  1.
         13    1    4    4    0    0  0.11080360827E+03 -0.44305547347E+03  0.11488908691E+03  0.47093004324E+03  0.10566000000E+00 0. -1.
          4    1    3    3  501    0  0.65173444853E+02 -0.36025147092E+03 -0.24031729088E+03  0.43792819105E+03  0.00000000000E+00 0.  1.
         -4    1    4    4    0  502 -0.38999385798E+03  0.34210056651E+03  0.58358238127E+03  0.78083058508E+03  0.00000000000E+00 0. -1.
</event>
<event>
 8    1  0.6759491E-006  0.1123477E+04  0.7818608E-02  0.8669359E-01
         21   -1    0    0  501  502  0.00000000000E+00  0.00000000000E+00  0.17269990292E+04  0.17269990292E+04  0.00000000000E+00 0.  1.
         21   -1    0    0  502  503 -0.00000000000E+00 -0.00000000000E+00 -0.13892799149E+04  0.13892799149E+04  0.00000000000E+00 0.  1.
    9000010    2    1    2  501    0  0.48506058121E+03  0.16117985489E+03  0.12493135236E+04  0.16801741255E+04  0.10004689394E+04 0.  0.
   -9000010    2    1    2    0  503 -0.48506058121E+03 -0.16117985489E+03 -0.91159440936E+03  0.14361048186E+04  0.98495176011E+03 0.  0.
        -13    1    3    3    0    0  0.12689779440E+02  0.38163588805E+03  0.66510371340E+02  0.38759595226E+03  0.10566000000E+00 0.  1.
         13    1    4    4    0    0  0.21512546044E+03 -0.30316045088E+03 -0.45785924070E+03  0.58976293387E+03  0.10566000000E+00 0. -1.
          4    1    3    3  501    0  0.47237080177E+03 -0.22045603317E+03  0.11828031523E+04  0.12925781732E+04  0.00000000000E+00 0.  1.
         -4    1    4    4    0  503 -0.70018604165E+03  0.14198059599E+03 -0.45373516866E+03  0.84634188472E+03  0.00000000000E+00 0. -1.
</event>
<event>
 8    1  0.6759491E-006  0.1033770E+04  0.7818608E-02  0.8747055E-01
         21   -1    0    0  503  502  0.00000000000E+00  0.00000000000E+00  0.75746500571E+03  0.75746500571E+03  0.00000000000E+00 0. -1.
         21   -1    0    0  501  503 -0.00000000000E+00 -0.00000000000E+00 -0.15304477129E+04  0.15304477129E+04  0.00000000000E+00 0. -1.
    9000010    2    1    2  501    0  0.13852875177E+03 -0.81748499192E+02 -0.42115002521E+02  0.10346276842E+04  0.10211795823E+04 0.  0.
   -9000010    2    1    2    0  502 -0.13852875177E+03  0.81748499192E+02 -0.73086770470E+03  0.12532850345E+04  0.10053271824E+04 0.  0.
        -13    1    3    3    0    0 -0.31748570282E+03  0.22511543517E+03 -0.23200549832E+03  0.45310119517E+03  0.10566000000E+00 0.  1.
         13    1    4    4    0    0  0.31408614203E+03  0.36581027043E+03 -0.31170037577E+03  0.57412924850E+03  0.10566000000E+00 0. -1.
          4    1    3    3  501    0  0.45601445459E+03 -0.30686393437E+03  0.18989049580E+03  0.58152648900E+03  0.00000000000E+00 0.  1.
         -4    1    4    4    0  502 -0.45261489381E+03 -0.28406177124E+03 -0.41916732894E+03  0.67915578597E+03  0.00000000000E+00 0. -1.
</event>
<event>
 8    1  0.6759491E-006  0.1129875E+04  0.7818608E-02  0.8680605E-01
         21   -1    0    0  501  502  0.00000000000E+00  0.00000000000E+00  0.97453030427E+03  0.97453030427E+03  0.00000000000E+00 0. -1.
         21   -1    0    0  502  503 -0.00000000000E+00 -0.00000000000E+00 -0.16649087718E+04  0.16649087718E+04  0.00000000000E+00 0. -1.
    9000010    2    1    2  501    0 -0.27672717377E+03  0.39352065208E+03  0.35736357701E+03  0.10985364808E+04  0.92067216812E+03 0.  0.
   -9000010    2    1    2    0  503  0.27672717377E+03 -0.39352065208E+03 -0.10477420445E+04  0.15409025953E+04  0.10223409333E+04 0.  0.
        -13    1    3    3    0    0  0.23206147837E+03  0.44316208703E+03  0.30201497792E+03  0.58434426768E+03  0.10566000000E+00 0.  1.
         13    1    4    4    0    0  0.12268107597E+03 -0.70041828371E+03 -0.42129811829E+03  0.82651590075E+03  0.10566000000E+00 0. -1.
          4    1    3    3  501    0 -0.50878865214E+03 -0.49641434950E+02  0.55348599093E+02  0.51419221312E+03  0.00000000000E+00 0.  1.
         -4    1    4    4    0  503  0.15404609781E+03  0.30689763164E+03 -0.62644392625E+03  0.71438669451E+03  0.00000000000E+00 0. -1.
</event>
<event>
 8    1  0.6759491E-006  0.1092471E+04  0.7818608E-02  0.8695455E-01
         21   -1    0    0  503  502  0.00000000000E+00  0.00000000000E+00  0.95789831574E+03  0.95789831574E+03  0.00000000000E+00 0. -1.
         21   -1    0    0  501  503 -0.00000000000E+00 -0.00000000000E+00 -0.14765150551E+04  0.14765150551E+04  0.00000000000E+00 0. -1.
    9000010    2    1    2  501    0  0.41814206120E+03  0.94173893198E+02 -0.75632548449E+03  0.13163803587E+04  0.98849254155E+03 0.  0.
   -9000010    2    1    2    0  502 -0.41814206120E+03 -0.94173893198E+02  0.23770874514E+03  0.11180330122E+04  0.10048785316E+04 0.  0.
        -13    1    3    3    0    0  0.39112802535E+03 -0.39298806210E+03 -0.23455623597E+03  0.60202773040E+03  0.10566000000E+00 0.  1.
         13    1    4    4    0    0 -0.42545003854E+03  0.22983671456E+03  0.50408155620E+03  0.69852049155E+03  0.10566000000E+00 0. -1.
          4    1    3    3  501    0  0.27014035842E+02  0.48716195530E+03 -0.52176924852E+03  0.71435262828E+03  0.00000000000E+00 0.  1.
         -4    1    4    4    0  502  0.73079773450E+01 -0.32401060775E+03 -0.26637281106E+03  0.41951252060E+03  0.00000000000E+00 0. -1.
</event>
<event>
 8    1  0.6759491E-006  0.1017413E+04  0.7818608E-02  0.8760387E-01
         21   -1    0    0  503  502  0.00000000000E+00  0.00000000000E+00  0.10631997557E+04  0.10631997557E+04  0.00000000000E+00 0. -1.
         21   -1    0    0  501  503 -0.00000000000E+00 -0.00000000000E+00 -0.11139336010E+04  0.11139336010E+04  0.00000000000E+00 0. -1.
    9000010    2    1    2  501    0  0.67152666757E+02 -0.75623639200E+02 -0.42297294474E+03  0.11018322785E+04  0.10123733711E+04 0.  0.
   -9000010    2    1    2    0  502 -0.67152666757E+02  0.75623639200E+02  0.37223909941E+03  0.10753010783E+04  0.10037340516E+04 0.  0.
        -13    1    3    3    0    0  0.29119968880E+03 -0.85145281059E+02  0.24959325624E+03  0.39286611252E+03  0.10566000000E+00 0.  1.
         13    1    4    4    0    0 -0.25860465514E+03 -0.25668179985E+03 -0.17726715189E+03  0.40519818403E+03  0.10566000000E+00 0. -1.
          4    1    3    3  501    0 -0.22404702204E+03  0.95216418586E+01 -0.67256620097E+03  0.70896616594E+03  0.00000000000E+00 0.  1.
         -4    1    4    4    0  502  0.19145198839E+03  0.33230543905E+03  0.54950625130E+03  0.67010289426E+03  0.00000000000E+00 0. -1.
</event>
<event>
 8    1  0.6759491E-006  0.9828531E+03  0.7818608E-02  0.8793493E-01
         21   -1    0    0  503  502  0.00000000000E+00  0.00000000000E+00  0.24013275679E+04  0.24013275679E+04  0.00000000000E+00 0.  1.
         21   -1    0    0  501  503 -0.00000000000E+00 -0.00000000000E+00 -0.41248384000E+03  0.41248384000E+03  0.00000000000E+00 0.  1.
    9000010    2    1    2  501    0 -0.51546182369E+02  0.74052648683E+02  0.73468217310E+03  0.12270933675E+04  0.97870293417E+03 0.  0.
   -9000010    2    1    2    0  502  0.51546182369E+02 -0.74052648683E+02  0.12541615548E+04  0.15867180404E+04  0.96778723415E+03 0.  0.
        -13    1    3    3    0    0 -0.29099165832E+03  0.31393659882E+03  0.77541182032E+03  0.88571769517E+03  0.10566000000E+00 0.  1.
         13    1    4    4    0    0  0.59016619150E+02  0.39057995646E+03  0.21811699988E+03  0.45123242406E+03  0.10566000000E+00 0. -1.
          4    1    3    3  501    0  0.23944547595E+03 -0.23988395013E+03 -0.40729647212E+02  0.34137567231E+03  0.00000000000E+00 0.  1.
         -4    1    4    4    0  502 -0.74704367812E+01 -0.46463260514E+03  0.10360445549E+04  0.11354856164E+04  0.00000000000E+00 0. -1.
</event>
<event>
 8    1  0.6759491E-006  0.1093536E+04  0.7818608E-02  0.8691790E-01
         21   -1    0    0  501  502  0.00000000000E+00  0.00000000000E+00  0.10770739079E+04  0.10770739079E+04  0.00000000000E+00 0. -1.
         21   -1    0    0  502  503 -0.00000000000E+00 -0.00000000000E+00 -0.15230039433E+04  0.15230039433E+04  0.00000000000E+00 0. -1.
    9000010    2    1    2  501    0 -0.63890380683E+02  0.43834139776E+03  0.45537666160E+03  0.11845629506E+04  0.99979813876E+03 0.  0.
   -9000010    2    1    2    0  503  0.63890380683E+02 -0.43834139776E+03 -0.90130669699E+03  0.14155149006E+04  0.99754875076E+03 0.  0.
        -13    1    3    3    0    0 -0.24508501318E+03 -0.21945336337E+03 -0.53630228110E+02  0.33332064879E+03  0.10566000000E+00 0.  1.
         13    1    4    4    0    0  0.83357683466E+02 -0.74101227532E+03 -0.44740958488E+03  0.86961085744E+03  0.10566000000E+00 0. -1.
          4    1    3    3  501    0  0.18119463250E+03  0.65779476113E+03  0.50900688971E+03  0.85124230181E+03  0.00000000000E+00 0.  1.
         -4    1    4    4    0  503 -0.19467302783E+02  0.30267087756E+03 -0.45389711211E+03  0.54590404320E+03  0.00000000000E+00 0. -1.
</event>
<event>
 8    1  0.6759491E-006  0.1021704E+04  0.7818608E-02  0.8755569E-01
         21   -1    0    0  503  502  0.00000000000E+00  0.00000000000E+00  0.50711368482E+03  0.50711368482E+03  0.00000000000E+00 0.  1.
         21   -1    0    0  501  503 -0.00000000000E+00 -0.00000000000E+00 -0.21015586937E+04  0.21015586937E+04  0.00000000000E+00 0.  1.
    9000010    2    1    2  501    0 -0.50452475540E+02 -0.21572653205E+02 -0.58864818781E+03  0.11749688654E+04  0.10153985985E+04 0.  0.
   -9000010    2    1    2    0  502  0.50452475540E+02  0.21572653205E+02 -0.10057968211E+04  0.14337035132E+04  0.10202292324E+04 0.  0.
        -13    1    3    3    0    0  0.11302021612E+03  0.24413356644E+03  0.19450018797E+03  0.33197153763E+03  0.10566000000E+00 0.  1.
         13    1    4    4    0    0  0.42317106395E+03  0.42259506772E+02 -0.76322849803E+02  0.43207036908E+03  0.10566000000E+00 0. -1.
          4    1    3    3  501    0 -0.16347269166E+03 -0.26570621964E+03 -0.78314837578E+03  0.84299732773E+03  0.00000000000E+00 0.  1.
         -4    1    4    4    0  502 -0.37271858841E+03 -0.20686853567E+02 -0.92947397129E+03  0.10016331441E+04  0.00000000000E+00 0. -1.
</event>
<event>
 8    1  0.6761248E-006  0.1020761E+04  0.7818608E-02  0.8756180E-01
         21   -1    0    0  501  502  0.00000000000E+00  0.00000000000E+00  0.71367464251E+03  0.71367464251E+03  0.00000000000E+00 0. -1.
         21   -1    0    0  502  503 -0.00000000000E+00 -0.00000000000E+00 -0.17203482877E+04  0.17203482877E+04  0.00000000000E+00 0. -1.
    9000010    2    1    2  501    0  0.14329553396E+02 -0.22544528243E+03 -0.25853298500E+02  0.10210881653E+04  0.99545051950E+03 0.  0.
   -9000010    2    1    2    0  503 -0.14329553396E+02  0.22544528243E+03 -0.98082034666E+03  0.14129347649E+04  0.99163762833E+03 0.  0.
        -13    1    3    3    0    0 -0.38045602508E+03 -0.43125393823E+03 -0.29793370176E+02  0.57585970715E+03  0.10566000000E+00 0.  1.
         13    1    4    4    0    0 -0.43618629771E+03  0.22610086310E+03 -0.83079541299E+03  0.96519485909E+03  0.10566000000E+00 0. -1.
          4    1    3    3  501    0  0.39478557847E+03  0.20580865579E+03  0.39400716767E+01  0.44522845814E+03  0.00000000000E+00 0.  1.
         -4    1    4    4    0  503  0.42185674432E+03 -0.65558066192E+00 -0.15002493367E+03  0.44773990579E+03  0.00000000000E+00 0. -1.
</event>
<event>
 8    1  0.6759491E-006  0.1009112E+04  0.7818608E-02  0.8768554E-01
         21   -1    0    0  501  502  0.00000000000E+00  0.00000000000E+00  0.14874110887E+04  0.14874110887E+04  0.00000000000E+00 0. -1.
         21   -1    0    0  502  503 -0.00000000000E+00 -0.00000000000E+00 -0.69904588763E+03  0.69904588763E+03  0.00000000000E+00 0. -1.
    9000010    2    1    2  501    0 -0.67393508036E+02  0.14840197781E+03  0.20402456095E+03  0.10295304788E+04  0.99586241690E+03 0.  0.
   -9000010    2    1    2    0  503  0.67393508036E+02 -0.14840197781E+03  0.58434064011E+03  0.11569264975E+04  0.98511923391E+03 0.  0.
        -13    1    3    3    0    0 -0.18162554196E+03 -0.40459931037E+03  0.67721688817E+02  0.44863646502E+03  0.10566000000E+00 0.  1.
         13    1    4    4    0    0  0.45467336486E+03 -0.15895619666E+03  0.32614853384E+02  0.48276151565E+03  0.10566000000E+00 0. -1.
          4    1    3    3  501    0  0.11423203392E+03  0.55300128819E+03  0.13630287214E+03  0.58089401379E+03  0.00000000000E+00 0.  1.
         -4    1    4    4    0  503 -0.38727985682E+03  0.10554218844E+02  0.55172578672E+03  0.67416498186E+03  0.00000000000E+00 0. -1.
</event>
<event>
 8    1  0.6759491E-006  0.1066339E+04  0.7818608E-02  0.8730623E-01
         21   -1    0    0  503  502  0.00000000000E+00  0.00000000000E+00  0.86841140196E+03  0.86841140196E+03  0.00000000000E+00 0. -1.
         21   -1    0    0  501  503 -0.00000000000E+00 -0.00000000000E+00 -0.17775515672E+04  0.17775515672E+04  0.00000000000E+00 0. -1.
    9000010    2    1    2  501    0 -0.37295362048E+02  0.25534720704E+03 -0.12034929210E+04  0.16079409471E+04  0.10346428072E+04 0.  0.
   -9000010    2    1    2    0  502  0.37295362048E+02 -0.25534720704E+03  0.29435275578E+03  0.10380220220E+04  0.96138079507E+03 0.  0.
        -13    1    3    3    0    0 -0.49832143320E+03  0.27103100311E+03 -0.87050469157E+03  0.10390190011E+04  0.10566000000E+00 0.  1.
         13    1    4    4    0    0  0.24041110032E+02 -0.58775500740E+03  0.37253386955E+03  0.69628687969E+03  0.10566000000E+00 0. -1.
          4    1    3    3  501    0  0.46102607116E+03 -0.15683796072E+02 -0.33298822940E+03  0.56892194602E+03  0.00000000000E+00 0.  1.
         -4    1    4    4    0  502  0.13254252016E+02  0.33240780036E+03 -0.78181113769E+02  0.34173514231E+03  0.00000000000E+00 0. -1.
</event>
<event>
 8    1  0.6759491E-006  0.1093543E+04  0.7818608E-02  0.8696762E-01
         21   -1    0    0  501  502  0.00000000000E+00  0.00000000000E+00  0.18404333132E+04  0.18404333132E+04  0.00000000000E+00 0.  1.
         21   -1    0    0  502  503 -0.00000000000E+00 -0.00000000000E+00 -0.16646191289E+04  0.16646191289E+04  0.00000000000E+00 0.  1.
    9000010    2    1    2  501    0  0.38430679440E+03 -0.16950426429E+03  0.14659311333E+04  0.18138285302E+04  0.98213870797E+03 0.  0.
   -9000010    2    1    2    0  503 -0.38430679440E+03  0.16950426429E+03 -0.12901169490E+04  0.16912239118E+04  0.10096599278E+04 0.  0.
        -13    1    3    3    0    0  0.65797188172E+03 -0.17765348385E+03  0.13582107592E+04  0.15196131860E+04  0.10566000000E+00 0.  1.
         13    1    4    4    0    0 -0.37403983850E+03  0.45029374205E+03 -0.12829128246E+04  0.14101544531E+04  0.10566000000E+00 0. -1.
          4    1    3    3  501    0 -0.27366508731E+03  0.81492195565E+01  0.10772037410E+03  0.29421534425E+03  0.00000000000E+00 0.  1.
         -4    1    4    4    0  503 -0.10266955907E+02 -0.28078947775E+03 -0.72041244283E+01  0.28106945869E+03  0.00000000000E+00 0. -1.
</event>
<event>
 8    1  0.6759491E-006  0.1000418E+04  0.7818608E-02  0.8775588E-01
         21   -1    0    0  501  502  0.00000000000E+00  0.00000000000E+00  0.93420977731E+03  0.93420977731E+03  0.00000000000E+00 0.  1.
         21   -1    0    0  502  503 -0.00000000000E+00 -0.00000000000E+00 -0.10977288407E+04  0.10977288407E+04  0.00000000000E+00 0.  1.
    9000010    2    1    2  501    0  0.53967046493E+02 -0.50563601552E+02 -0.25738550688E+03  0.10329972026E+04  0.99768071125E+03 0.  0.
   -9000010    2    1    2    0  503 -0.53967046493E+02  0.50563601552E+02  0.93866443458E+02  0.99894141540E+03  0.99176807888E+03 0.  0.
        -13    1    3    3    0    0 -0.98692868120E+02 -0.50685358525E+03 -0.93971507206E+02  0.52485378386E+03  0.10566000000E+00 0.  1.
         13    1    4    4    0    0 -0.83247366523E+02  0.33157587677E+03  0.43675808131E+03  0.55464431742E+03  0.10566000000E+00 0. -1.
          4    1    3    3  501    0  0.15265991461E+03  0.45628998370E+03 -0.16341399968E+03  0.50814341878E+03  0.00000000000E+00 0.  1.
         -4    1    4    4    0  503  0.29280320030E+02 -0.28101227522E+03 -0.34289163786E+03  0.44429709798E+03  0.00000000000E+00 0. -1.
</event>
<event>
 8    1  0.6759491E-006  0.1127502E+04  0.7818608E-02  0.8669136E-01
         21   -1    0    0  503  502  0.00000000000E+00  0.00000000000E+00  0.11964890387E+04  0.11964890387E+04  0.00000000000E+00 0.  1.
         21   -1    0    0  501  503 -0.00000000000E+00 -0.00000000000E+00 -0.12212993763E+04  0.12212993763E+04  0.00000000000E+00 0.  1.
    9000010    2    1    2  501    0  0.46148634287E+03 -0.55731134196E+01  0.45866598082E+03  0.12172239603E+04  0.10287171542E+04 0.  0.
   -9000010    2    1    2    0  502 -0.46148634287E+03  0.55731134196E+01 -0.48347631841E+03  0.12005644546E+04  0.99729882932E+03 0.  0.
        -13    1    3    3    0    0 -0.16923427822E+03 -0.35358850233E+03  0.25852504225E+03  0.46957457186E+03  0.10566000000E+00 0.  1.
         13    1    4    4    0    0  0.21567138363E+03  0.17111921354E+03 -0.41783379811E+03  0.50038087989E+03  0.10566000000E+00 0. -1.
          4    1    3    3  501    0  0.63072062109E+03  0.34801538891E+03  0.20014093857E+03  0.74764938847E+03  0.00000000000E+00 0.  1.
         -4    1    4    4    0  502 -0.67715772650E+03 -0.16554610012E+03 -0.65642520302E+02  0.70018357471E+03  0.00000000000E+00 0. -1.
</event>
<event>
 8    1  0.6759491E-006  0.1072669E+04  0.7818608E-02  0.8727793E-01
         21   -1    0    0  501  502  0.00000000000E+00  0.00000000000E+00  0.14955710583E+04  0.14955710583E+04  0.00000000000E+00 0.  1.
         21   -1    0    0  502  503 -0.00000000000E+00 -0.00000000000E+00 -0.84338608877E+03  0.84338608877E+03  0.00000000000E+00 0.  1.
    9000010    2    1    2  501    0 -0.12603253415E+03 -0.39605311829E+03  0.79997158625E+03  0.13381234100E+04  0.98887686256E+03 0.  0.
   -9000010    2    1    2    0  503  0.12603253415E+03  0.39605311829E+03 -0.14778661668E+03  0.10008337372E+04  0.89837910326E+03 0.  0.
        -13    1    3    3    0    0  0.71553184699E+02  0.22357118268E+03  0.62054670841E+03  0.66346225247E+03  0.10566000000E+00 0.  1.
         13    1    4    4    0    0 -0.27434338829E+03  0.39932300045E+01 -0.31337325214E+03  0.41651296128E+03  0.10566000000E+00 0. -1.
          4    1    3    3  501    0 -0.19758571885E+03 -0.61962430097E+03  0.17942487784E+03  0.67466115750E+03  0.00000000000E+00 0.  1.
         -4    1    4    4    0  503  0.40037592245E+03  0.39205988828E+03  0.16558663546E+03  0.58432077588E+03  0.00000000000E+00 0. -1.
</event>
<event>
 8    1  0.6759491E-006  0.1155184E+04  0.7818608E-02  0.8643209E-01
         21   -1    0    0  501  502  0.00000000000E+00  0.00000000000E+00  0.14120303495E+04  0.14120303495E+04  0.00000000000E+00 0. -1.
         21   -1    0    0  502  503 -0.00000000000E+00 -0.00000000000E+00 -0.99586502704E+03  0.99586502704E+03  0.00000000000E+00 0. -1.
    9000010    2    1    2  501    0  0.57206290839E+03  0.53655328793E+02 -0.87130275462E+02  0.11478333803E+04  0.98984590647E+03 0.  0.
   -9000010    2    1    2    0  503 -0.57206290839E+03 -0.53655328793E+02  0.50329559796E+03  0.12600619963E+04  0.10021551327E+04 0.  0.
        -13    1    3    3    0    0  0.64267248783E+03  0.40131748144E+03 -0.18476024670E+03  0.77988461162E+03  0.10566000000E+00 0.  1.
         13    1    4    4    0    0  0.28142727828E+03 -0.87425859357E+02  0.18807441763E+03  0.34959489638E+03  0.10566000000E+00 0. -1.
          4    1    3    3  501    0 -0.70609579435E+02 -0.34766215265E+03  0.97629971235E+02  0.36794876868E+03  0.00000000000E+00 0.  1.
         -4    1    4    4    0  503 -0.85349018667E+03  0.33770530564E+02  0.31522118033E+03  0.91046709990E+03  0.00000000000E+00 0. -1.
</event>
<event>
 8    1  0.6759491E-006  0.1054745E+04  0.7818608E-02  0.8726975E-01
         21   -1    0    0  501  502  0.00000000000E+00  0.00000000000E+00  0.11085468207E+04  0.11085468207E+04  0.00000000000E+00 0.  1.
         21   -1    0    0  502  503 -0.00000000000E+00 -0.00000000000E+00 -0.18745705848E+04  0.18745705848E+04  0.00000000000E+00 0.  1.
    9000010    2    1    2  501    0  0.14851211556E+03  0.26601997337E+03  0.63820909529E+03  0.12328012486E+04  0.10097849249E+04 0.  0.
   -9000010    2    1    2    0  503 -0.14851211556E+03 -0.26601997337E+03 -0.14042328594E+04  0.17503161569E+04  0.99945697800E+03 0.  0.
        -13    1    3    3    0    0 -0.39164168716E+03  0.12255427629E+03  0.51849646533E+03  0.66124228349E+03  0.10566000000E+00 0.  1.
         13    1    4    4    0    0 -0.12180715987E+03 -0.78175715346E+02  0.13590159549E+03  0.19853886644E+03  0.10566000000E+00 0. -1.
          4    1    3    3  501    0  0.54015380271E+03  0.14346569708E+03  0.11971262996E+03  0.57155896511E+03  0.00000000000E+00 0.  1.
         -4    1    4    4    0  503 -0.26704955690E+02 -0.18784425802E+03 -0.15401344549E+04  0.15517772905E+04  0.00000000000E+00 0. -1.
</event>
<event>
 8    1  0.6759491E-006  0.1022439E+04  0.7818608E-02  0.8758895E-01
         21   -1    0    0  501  502  0.00000000000E+00  0.00000000000E+00  0.10493045470E+04  0.10493045470E+04  0.00000000000E+00 0.  1.
         21   -1    0    0  502  503 -0.00000000000E+00 -0.00000000000E+00 -0.15531773174E+04  0.15531773174E+04  0.00000000000E+00 0.  1.
    9000010    2    1    2  501    0 -0.12460344883E+03  0.17852474458E+03  0.54031848992E+03  0.11564276281E+04  0.99899133359E+03 0.  0.
   -9000010    2    1    2    0  503  0.12460344883E+03 -0.17852474458E+03 -0.10441912603E+04  0.14460542363E+04  0.97639150063E+03 0.  0.
        -13    1    3    3    0    0 -0.45885317686E+03  0.40390625427E+03  0.25404305837E+03  0.66198518625E+03  0.10566000000E+00 0.  1.
         13    1    4    4    0    0 -0.36494763189E+03  0.15408670222E+03 -0.53238639508E+03  0.66359985734E+03  0.10566000000E+00 0. -1.
          4    1    3    3  501    0  0.33424972803E+03 -0.22538150968E+03  0.28627543155E+03  0.49444244185E+03  0.00000000000E+00 0.  1.
         -4    1    4    4    0  503  0.48955108072E+03 -0.33261144681E+03 -0.51180486518E+03  0.78245437899E+03  0.00000000000E+00 0. -1.
</event>
<event>
 8    1  0.6759491E-006  0.1046437E+04  0.7818608E-02  0.8737834E-01
         21   -1    0    0  503  502  0.00000000000E+00  0.00000000000E+00  0.12144419913E+04  0.12144419913E+04  0.00000000000E+00 0.  1.
         21   -1    0    0  501  503 -0.00000000000E+00 -0.00000000000E+00 -0.12822215310E+04  0.12822215310E+04  0.00000000000E+00 0.  1.
    9000010    2    1    2  501    0  0.39098781536E+02  0.23755981224E+03 -0.73270654918E+03  0.12568417835E+04  0.99238551095E+03 0.  0.
   -9000010    2    1    2    0  502 -0.39098781536E+02 -0.23755981224E+03  0.66492700947E+03  0.12398217388E+04  0.10183646876E+04 0.  0.
        -13    1    3    3    0    0  0.12175333796E+03  0.12634127679E+03  0.22715561985E+03  0.28702905832E+03  0.10566000000E+00 0.  1.
         13    1    4    4    0    0 -0.58377120021E+02  0.16975310505E+03 -0.20896133376E+03  0.27547931862E+03  0.10566000000E+00 0. -1.
          4    1    3    3  501    0 -0.82654556426E+02  0.11121853544E+03 -0.95986216903E+03  0.96981272514E+03  0.00000000000E+00 0.  1.
         -4    1    4    4    0  502  0.19278338485E+02 -0.40731291729E+03  0.87388834323E+03  0.96434242018E+03  0.00000000000E+00 0. -1.
</event>
<event>
 8    1  0.6759491E-006  0.1117857E+04  0.7818608E-02  0.8673127E-01
         21   -1    0    0  501  502  0.00000000000E+00  0.00000000000E+00  0.10886184426E+04  0.10886184426E+04  0.00000000000E+00 0. -1.
         21   -1    0    0  502  503 -0.00000000000E+00 -0.00000000000E+00 -0.12513889650E+04  0.12513889650E+04  0.00000000000E+00 0. -1.
    9000010    2    1    2  501    0  0.46290869042E+03 -0.18410443164E+03  0.27058633800E+03  0.11501399686E+04  0.10007127878E+04 0.  0.
   -9000010    2    1    2    0  503 -0.46290869042E+03  0.18410443164E+03 -0.43335686040E+03  0.11898674389E+04  0.98985223961E+03 0.  0.
        -13    1    3    3    0    0  0.32361000364E+03 -0.44841795640E+03 -0.20393034651E+03  0.58939773962E+03  0.10566000000E+00 0.  1.
         13    1    4    4    0    0  0.46449428726E+02  0.42293711412E+03  0.74522375468E+02  0.43195711307E+03  0.10566000000E+00 0. -1.
          4    1    3    3  501    0  0.13929868678E+03  0.26431352476E+03  0.47451668451E+03  0.56074222900E+03  0.00000000000E+00 0.  1.
         -4    1    4    4    0  503 -0.50935811914E+03 -0.23883268248E+03 -0.50787923587E+03  0.75791032582E+03  0.00000000000E+00 0. -1.
</event>
<event>
 8    1  0.6759491E-006  0.1093072E+04  0.7818608E-02  0.8695170E-01
         21   -1    0    0  503  502  0.00000000000E+00  0.00000000000E+00  0.16296917287E+04  0.16296917287E+04  0.00000000000E+00 0. -1.
         21   -1    0    0  501  503 -0.00000000000E+00 -0.00000000000E+00 -0.13715543964E+04  0.13715543964E+04  0.00000000000E+00 0. -1.
    9000010    2    1    2  501    0 -0.24884206106E+03 -0.35956021914E+03 -0.90279996432E+03  0.14176930060E+04  0.10017982637E+04 0.  0.
   -9000010    2    1    2    0  502  0.24884206106E+03  0.35956021914E+03  0.11609372966E+04  0.15835531191E+04  0.98420483226E+03 0.  0.
        -13    1    3    3    0    0 -0.49810601436E+03 -0.47200756688E+03 -0.91527692815E+03  0.11439548117E+04  0.10566000000E+00 0.  1.
         13    1    4    4    0    0 -0.26528996924E+03  0.39626266007E+03  0.25379234864E+03  0.54019758509E+03  0.10566000000E+00 0. -1.
          4    1    3    3  501    0  0.24926395330E+03  0.11244734775E+03  0.12476963829E+02  0.27373819437E+03  0.00000000000E+00 0.  1.
         -4    1    4    4    0  502  0.51413203030E+03 -0.36702440933E+02  0.90714494792E+03  0.10433555340E+04  0.00000000000E+00 0. -1.
</event>
<event>
 8    1  0.6759491E-006  0.1020213E+04  0.7818608E-02  0.8756063E-01
         21   -1    0    0  503  502  0.00000000000E+00  0.00000000000E+00  0.22541086106E+04  0.22541086106E+04  0.00000000000E+00 0. -1.
         21   -1    0    0  501  503 -0.00000000000E+00 -0.00000000000E+00 -0.90206970730E+03  0.90206970730E+03  0.00000000000E+00 0. -1.
    9000010    2    1    2  501    0  0.22344644191E+03 -0.44640627222E+02 -0.42692898406E+03  0.11059396989E+04  0.99444113052E+03 0.  0.
   -9000010    2    1    2    0  502 -0.22344644191E+03  0.44640627222E+02  0.17789678874E+04  0.20502386191E+04  0.99339345315E+03 0.  0.
        -13    1    3    3    0    0  0.49494257739E+03  0.16518568261E+03 -0.53389576497E+03  0.74652472408E+03  0.10566000000E+00 0.  1.
         13    1    4    4    0    0  0.27338791012E+03  0.13044461747E+03  0.13672279847E+03  0.33234001025E+03  0.10566000000E+00 0. -1.
          4    1    3    3  501    0 -0.27149613548E+03 -0.20982630983E+03  0.10696678091E+03  0.35941497478E+03  0.00000000000E+00 0.  1.
         -4    1    4    4    0  502 -0.49683435203E+03 -0.85803990250E+02  0.16422450889E+04  0.17178986088E+04  0.00000000000E+00 0. -1.
</event>
<event>
 8    1  0.6759491E-006  0.1098632E+04  0.7818608E-02  0.8705185E-01
         21   -1    0    0  501  502  0.00000000000E+00  0.00000000000E+00  0.62745597694E+03  0.62745597694E+03  0.00000000000E+00 0.  1.
         21   -1    0    0  502  503 -0.00000000000E+00 -0.00000000000E+00 -0.17856824034E+04  0.17856824034E+04  0.00000000000E+00 0. -1.
    9000010    2    1    2  501    0  0.32294085550E+03 -0.28436493702E+03 -0.49567812619E+03  0.11301872646E+04  0.92003925721E+03 0.  0.
   -9000010    2    1    2    0  503 -0.32294085550E+03  0.28436493702E+03 -0.66254830025E+03  0.12829511157E+04  0.10108605747E+04 0.  0.
        -13    1    3    3    0    0  0.97925567243E+02 -0.59849785017E+03 -0.41662474064E+03  0.73577529114E+03  0.10566000000E+00 0.  1.
         13    1    4    4    0    0  0.15212261401E+03 -0.20594613493E+03 -0.52843411312E+03  0.58719479158E+03  0.10566000000E+00 0. -1.
          4    1    3    3  501    0  0.22501528826E+03  0.31413291315E+03 -0.79053385557E+02  0.39441197350E+03  0.00000000000E+00 0.  1.
         -4    1    4    4    0  503 -0.47506346951E+03  0.49031107195E+03 -0.13411418713E+03  0.69575632410E+03  0.00000000000E+00 0. -1.
</event>
<event>
 8    1  0.6759491E-006  0.1030512E+04  0.7818608E-02  0.8754564E-01
         21   -1    0    0  503  502  0.00000000000E+00  0.00000000000E+00  0.15439297473E+04  0.15439297473E+04  0.00000000000E+00 0. -1.
         21   -1    0    0  501  503 -0.00000000000E+00 -0.00000000000E+00 -0.73503900318E+03  0.73503900318E+03  0.00000000000E+00 0. -1.
    9000010    2    1    2  501    0  0.10458215399E+03 -0.11757501953E+03  0.57907121004E+02  0.10321379751E+04  0.10184273430E+04 0.  0.
   -9000010    2    1    2    0  502 -0.10458215399E+03  0.11757501953E+03  0.75098362310E+03  0.12468307753E+04  0.98277630616E+03 0.  0.
        -13    1    3    3    0    0  0.39259165725E+03  0.23388490649E+03  0.26989302878E+03  0.53072838343E+03  0.10566000000E+00 0.  1.
         13    1    4    4    0    0  0.16096374177E+02  0.20218333066E+03 -0.19979188178E+03  0.28469984132E+03  0.10566000000E+00 0. -1.
          4    1    3    3  501    0 -0.28800950326E+03 -0.35145992603E+03 -0.21198590778E+03  0.50140959172E+03  0.00000000000E+00 0.  1.
         -4    1    4    4    0  502 -0.12067852817E+03 -0.84608311125E+02  0.95077550488E+03  0.96213093400E+03  0.00000000000E+00 0. -1.
</event>
<event>
 8    1  0.6759491E-006  0.1027402E+04  0.7818608E-02  0.8752073E-01
         21   -1    0    0  501  502  0.00000000000E+00  0.00000000000E+00  0.10284028961E+04  0.10284028961E+04  0.00000000000E+00 0.  1.
         21   -1    0    0  502  503 -0.00000000000E+00 -0.00000000000E+00 -0.21057325473E+04  0.21057325473E+04  0.00000000000E+00 0.  1.
    9000010    2    1    2  501    0  0.61832569240E+02 -0.18864395852E+03  0.58802922221E+03  0.11837791364E+04  0.10080401123E+04 0.  0.
   -9000010    2    1    2    0  503 -0.61832569240E+02  0.18864395852E+03 -0.16653588735E+04  0.19503563069E+04  0.99551983249E+03 0.  0.
        -13    1    3    3    0    0 -0.41447010062E+03 -0.92158628107E+02  0.55208543504E+03  0.69647470578E+03  0.10566000000E+00 0.  1.
         13    1    4    4    0    0 -0.64612965429E+02 -0.40712385112E+03 -0.79662202325E+03  0.89695670160E+03  0.10566000000E+00 0. -1.
          4    1    3    3  501    0  0.47630266986E+03 -0.96485330411E+02  0.35943787173E+02  0.48730443066E+03  0.00000000000E+00 0.  1.
         -4    1    4    4    0  503  0.27803961888E+01  0.59576780964E+03 -0.86873685022E+03  0.10533996053E+04  0.00000000000E+00 0. -1.
</event>
<event>
 8    1  0.6759491E-006  0.1079124E+04  0.7818608E-02  0.8715310E-01
         21   -1    0    0  501  502  0.00000000000E+00  0.00000000000E+00  0.19178793629E+04  0.19178793629E+04  0.00000000000E+00 0. -1.
         21   -1    0    0  502  503 -0.00000000000E+00 -0.00000000000E+00 -0.93287891663E+03  0.93287891663E+03  0.00000000000E+00 0. -1.
    9000010    2    1    2  501    0 -0.29022902933E+03 -0.18598950003E+03  0.13642332304E+04  0.17069377473E+04  0.96627076053E+03 0.  0.
   -9000010    2    1    2    0  503  0.29022902933E+03  0.18598950003E+03 -0.37923278414E+03  0.11438205322E+04  0.10225863884E+04 0.  0.
        -13    1    3    3    0    0  0.19801407047E+03 -0.43030012591E+03  0.72844010816E+03  0.86890320106E+03  0.10566000000E+00 0.  1.
         13    1    4    4    0    0 -0.25667333486E+03 -0.21598509705E+03  0.52310287011E+02  0.33951014752E+03  0.10566000000E+00 0. -1.
          4    1    3    3  501    0 -0.48824309980E+03  0.24431062588E+03  0.63579312223E+03  0.83803454624E+03  0.00000000000E+00 0.  1.
         -4    1    4    4    0  503  0.54690236419E+03  0.40197459708E+03 -0.43154307115E+03  0.80431038469E+03  0.00000000000E+00 0. -1.
</event>
<event>
 8    1  0.6759491E-006  0.1057170E+04  0.7818608E-02  0.8748740E-01
         21   -1    0    0  503  502  0.00000000000E+00  0.00000000000E+00  0.60474486406E+03  0.60474486406E+03  0.00000000000E+00 0. -1.
         21   -1    0    0  501  503 -0.00000000000E+00 -0.00000000000E+00 -0.21007497513E+04  0.21007497513E+04  0.00000000000E+00 0. -1.
    9000010    2    1    2  501    0  0.12463539363E+03 -0.31765283146E+03 -0.14016811056E+04  0.17556533089E+04  0.10005854868E+04 0.  0.
   -9000010    2    1    2    0  502 -0.12463539363E+03  0.31765283146E+03 -0.94323781625E+02  0.94984130651E+03  0.88139901809E+03 0.  0.
        -13    1    3    3    0    0  0.40158246966E+02  0.31820548989E+03 -0.16078933981E+03  0.35877659003E+03  0.10566000000E+00 0.  1.
         13    1    4    4    0    0  0.31199069278E+03  0.32511462250E+03 -0.21141061386E+03  0.49772700244E+03  0.10566000000E+00 0. -1.
          4    1    3    3  501    0  0.84477146663E+02 -0.63585832135E+03 -0.12408917658E+04  0.13968767188E+04  0.00000000000E+00 0.  1.
         -4    1    4    4    0  502 -0.43662608641E+03 -0.74617910401E+01  0.11708683223E+03  0.45211430407E+03  0.00000000000E+00 0. -1.
</event>
<event>
 8    1  0.6759491E-006  0.1011132E+04  0.7818608E-02  0.8769597E-01
         21   -1    0    0  501  502  0.00000000000E+00  0.00000000000E+00  0.62622058883E+03  0.62622058883E+03  0.00000000000E+00 0. -1.
         21   -1    0    0  502  503 -0.00000000000E+00 -0.00000000000E+00 -0.16886250105E+04  0.16886250105E+04  0.00000000000E+00 0. -1.
    9000010    2    1    2  501    0 -0.40945391368E+02  0.11350520407E+03 -0.79690794573E+03  0.12694386491E+04  0.98074066570E+03 0.  0.
   -9000010    2    1    2    0  503  0.40945391368E+02 -0.11350520407E+03 -0.26549647591E+03  0.10454069502E+04  0.10039060496E+04 0.  0.
        -13    1    3    3    0    0 -0.48802724851E+03  0.19670496907E+02 -0.22576923452E+03  0.53807925267E+03  0.10566000000E+00 0.  1.
         13    1    4    4    0    0  0.78267321961E+02  0.21658014243E+03  0.30684476631E+03  0.38364886753E+03  0.10566000000E+00 0. -1.
          4    1    3    3  501    0  0.44708185714E+03  0.93834707168E+02 -0.57113871121E+03  0.73135939639E+03  0.00000000000E+00 0.  1.
         -4    1    4    4    0  503 -0.37321930593E+02 -0.33008534651E+03 -0.57234124222E+03  0.66175808271E+03  0.00000000000E+00 0. -1.
</event>
<event>
 8    1  0.6759491E-006  0.1065111E+04  0.7818608E-02  0.8718757E-01
         21   -1    0    0  501  502  0.00000000000E+00  0.00000000000E+00  0.24052098500E+04  0.24052098500E+04  0.00000000000E+00 0. -1.
         21   -1    0    0  502  503 -0.00000000000E+00 -0.00000000000E+00 -0.54037835666E+03  0.54037835666E+03  0.00000000000E+00 0. -1.
    9000010    2    1    2  501    0 -0.10040609269E+03  0.24875879384E+03  0.14752591116E+04  0.18114686136E+04  0.10163989231E+04 0.  0.
   -9000010    2    1    2    0  503  0.10040609269E+03 -0.24875879384E+03  0.38957238174E+03  0.11341195931E+04  0.10307755768E+04 0.  0.
        -13    1    3    3    0    0  0.44375098680E+03 -0.17369516893E+01  0.74257988331E+03  0.86506811844E+03  0.10566000000E+00 0.  1.
         13    1    4    4    0    0  0.29934897052E+03 -0.56984974187E+03  0.85773269520E+02  0.64938093550E+03  0.10566000000E+00 0. -1.
          4    1    3    3  501    0 -0.54415707949E+03  0.25049574553E+03  0.73267922825E+03  0.94640049514E+03  0.00000000000E+00 0.  1.
         -4    1    4    4    0  503 -0.19894287783E+03  0.32109094803E+03  0.30379911222E+03  0.48473865756E+03  0.00000000000E+00 0. -1.
</event>
<event>
 8    1  0.6759491E-006  0.1095684E+04  0.7818608E-02  0.8698382E-01
         21   -1    0    0  501  502  0.00000000000E+00  0.00000000000E+00  0.75408232909E+03  0.75408232909E+03  0.00000000000E+00 0.  1.
         21   -1    0    0  502  503 -0.00000000000E+00 -0.00000000000E+00 -0.15595507222E+04  0.15595507222E+04  0.00000000000E+00 0.  1.
    9000010    2    1    2  501    0  0.74968515584E+02 -0.32073939626E+03 -0.54673960524E+03  0.11878162008E+04  0.10017430270E+04 0.  0.
   -9000010    2    1    2    0  503 -0.74968515584E+02  0.32073939626E+03 -0.25872878782E+03  0.11258168505E+04  0.10450018931E+04 0.  0.
        -13    1    3    3    0    0  0.44239295158E+03 -0.22893337916E+03  0.28687218891E+02  0.49894386798E+03  0.10566000000E+00 0.  1.
         13    1    4    4    0    0  0.34077937674E+03  0.48142614240E+03 -0.32776380922E+03  0.67478206852E+03  0.10566000000E+00 0. -1.
          4    1    3    3  501    0 -0.36742443600E+03 -0.91806017108E+02 -0.57542682414E+03  0.68887233279E+03  0.00000000000E+00 0.  1.
         -4    1    4    4    0  503 -0.41574789233E+03 -0.16068674613E+03  0.69035021399E+02  0.45103478196E+03  0.00000000000E+00 0. -1.
</event>
<event>
 8    1  0.6759491E-006  0.1105938E+04  0.7818608E-02  0.8682051E-01
         21   -1    0    0  501  502  0.00000000000E+00  0.00000000000E+00  0.13186524810E+04  0.13186524810E+04  0.00000000000E+00 0.  1.
         21   -1    0    0  502  503 -0.00000000000E+00 -0.00000000000E+00 -0.15671366058E+04  0.15671366058E+04  0.00000000000E+00 0.  1.
    9000010    2    1    2  501    0  0.26059614870E+03  0.38413367610E+03  0.80084174493E+03  0.13612620334E+04  0.99810710318E+03 0.  0.
   -9000010    2    1    2    0  503 -0.26059614870E+03 -0.38413367610E+03 -0.10493258697E+04  0.15245270533E+04  0.10038072134E+04 0.  0.
        -13    1    3    3    0    0 -0.27386825641E+03  0.15258374067E+03 -0.62630118875E+02  0.31970011376E+03  0.10566000000E+00 0.  1.
         13    1    4    4    0    0  0.14433255853E+03  0.22245721654E+03 -0.62931806547E+03  0.68290580560E+03  0.10566000000E+00 0. -1.
          4    1    3    3  501    0  0.53446440511E+03  0.23154993542E+03  0.86347186380E+03  0.10415619197E+04  0.00000000000E+00 0.  1.
         -4    1    4    4    0  503 -0.40492870723E+03 -0.60659089264E+03 -0.42000780428E+03  0.84162124773E+03  0.00000000000E+00 0. -1.
</event>
<event>
 8    1  0.6759491E-006  0.1159176E+04  0.7818608E-02  0.8639134E-01
         21   -1    0    0  503  502  0.00000000000E+00  0.00000000000E+00  0.13524191530E+04  0.13524191530E+04  0.00000000000E+00 0. -1.
         21   -1    0    0  501  503 -0.00000000000E+00 -0.00000000000E+00 -0.10610371252E+04  0.10610371252E+04  0.00000000000E+00 0. -1.
    9000010    2    1    2  501    0  0.58103864909E+03 -0.23081175694E+02 -0.17035450771E+03  0.11657027184E+04  0.99584311861E+03 0.  0.
   -9000010    2    1    2    0  502 -0.58103864909E+03  0.23081175694E+02  0.46173653552E+03  0.12477535598E+04  0.10027709935E+04 0.  0.
        -13    1    3    3    0    0  0.70666630129E+03  0.26137349230E+03  0.91742376094E+02  0.75901912926E+03  0.10566000000E+00 0.  1.
         13    1    4    4    0    0 -0.61761452824E+03 -0.39447362371E+03  0.35970234741E+03  0.81635956245E+03  0.10566000000E+00 0. -1.
          4    1    3    3  501    0 -0.12562765219E+03 -0.28445466799E+03 -0.26209688381E+03  0.40668358910E+03  0.00000000000E+00 0.  1.
         -4    1    4    4    0  502  0.36575879149E+02  0.41755479941E+03  0.10203418811E+03  0.43139399739E+03  0.00000000000E+00 0. -1.
</event>
<event>
 8    1  0.6759491E-006  0.1039452E+04  0.7818608E-02  0.8740996E-01
         21   -1    0    0  501  502  0.00000000000E+00  0.00000000000E+00  0.13646396473E+04  0.13646396473E+04  0.00000000000E+00 0.  1.
         21   -1    0    0  502  503 -0.00000000000E+00 -0.00000000000E+00 -0.82731573401E+03  0.82731573401E+03  0.00000000000E+00 0.  1.
    9000010    2    1    2  501    0  0.15373624569E+03 -0.36752721513E+02  0.52389461416E+03  0.11640125002E+04  0.10273626127E+04 0.  0.
   -9000010    2    1    2    0  503 -0.15373624569E+03  0.36752721513E+02  0.13429299141E+02  0.10279428812E+04  0.10156281923E+04 0.  0.
        -13    1    3    3    0    0 -0.29774521219E+03 -0.36770704222E+03  0.30511158571E+03  0.56298647514E+03  0.10566000000E+00 0.  1.
         13    1    4    4    0    0  0.30987336660E+03 -0.31280316658E+03  0.64822257815E+02  0.44504972826E+03  0.10566000000E+00 0. -1.
          4    1    3    3  501    0  0.45148145789E+03  0.33095432071E+03  0.21878302845E+03  0.60102602502E+03  0.00000000000E+00 0.  1.
         -4    1    4    4    0  503 -0.46360961229E+03  0.34955588809E+03 -0.51392958674E+02  0.58289315291E+03  0.00000000000E+00 0. -1.
</event>
<event>
 8    1  0.6759491E-006  0.1122056E+04  0.7818608E-02  0.8668254E-01
         21   -1    0    0  501  502  0.00000000000E+00  0.00000000000E+00  0.14773254157E+04  0.14773254157E+04  0.00000000000E+00 0. -1.
         21   -1    0    0  502  503 -0.00000000000E+00 -0.00000000000E+00 -0.90696455632E+03  0.90696455632E+03  0.00000000000E+00 0. -1.
    9000010    2    1    2  501    0 -0.33503003735E+03 -0.44718587123E+03  0.58397336875E+03  0.12649245274E+04  0.97303074737E+03 0.  0.
   -9000010    2    1    2    0  503  0.33503003735E+03  0.44718587123E+03 -0.13612509415E+02  0.11193654445E+04  0.96983161873E+03 0.  0.
        -13    1    3    3    0    0 -0.31901251757E+03 -0.75068562049E+03  0.46222841297E+03  0.93752493519E+03  0.10566000000E+00 0.  1.
         13    1    4    4    0    0 -0.21034974136E+03 -0.18326596588E+03  0.49596580083E+02  0.28336065334E+03  0.10566000000E+00 0. -1.
          4    1    3    3  501    0 -0.16017519775E+02  0.30349974926E+03  0.12174495578E+03  0.32739959224E+03  0.00000000000E+00 0.  1.
         -4    1    4    4    0  503  0.54537977870E+03  0.63045183711E+03 -0.63209089498E+02  0.83600479121E+03  0.00000000000E+00 0. -1.
</event>
<event>
 8    1  0.6759491E-006  0.1058387E+04  0.7818608E-02  0.8725657E-01
         21   -1    0    0  501  502  0.00000000000E+00  0.00000000000E+00  0.19069831863E+04  0.19069831863E+04  0.00000000000E+00 0. -1.
         21   -1    0    0  502  503 -0.00000000000E+00 -0.00000000000E+00 -0.98328463820E+03  0.98328463820E+03  0.00000000000E+00 0. -1.
    9000010    2    1    2  501    0 -0.14202630019E+03  0.16492473109E+03  0.13881008998E+04  0.17344772033E+04  0.10169638262E+04 0.  0.
   -9000010    2    1    2    0  503  0.14202630019E+03 -0.16492473109E+03 -0.46440235173E+03  0.11557906212E+04  0.10357657935E+04 0.  0.
        -13    1    3    3    0    0 -0.72372128561E+02  0.41457164595E+03  0.11641219360E+03  0.43664537625E+03  0.10566000000E+00 0.  1.
         13    1    4    4    0    0 -0.31486685253E+03  0.15607606060E+02 -0.57177628624E+03  0.65292638548E+03  0.10566000000E+00 0. -1.
          4    1    3    3  501    0 -0.69654171631E+02 -0.24964691486E+03  0.12716887062E+04  0.12978318270E+04  0.00000000000E+00 0.  1.
         -4    1    4    4    0  503  0.45689315273E+03 -0.18053233714E+03  0.10737393450E+03  0.50286423573E+03  0.00000000000E+00 0. -1.
</event>
<event>
 8    1  0.6759491E-006  0.1017485E+04  0.7818608E-02  0.8759860E-01
         21   -1    0    0  501  502  0.00000000000E+00  0.00000000000E+00  0.10611332596E+04  0.10611332596E+04  0.00000000000E+00 0.  1.
         21   -1    0    0  502  503 -0.00000000000E+00 -0.00000000000E+00 -0.19372758303E+04  0.19372758303E+04  0.00000000000E+00 0.  1.
    9000010    2    1    2  501    0 -0.72865278414E+02  0.13888461237E+03  0.62094504705E+03  0.11919934236E+04  0.10053244681E+04 0.  0.
   -9000010    2    1    2    0  503  0.72865278414E+02 -0.13888461237E+03 -0.14970876178E+04  0.18064156662E+04  0.99863303549E+03 0.  0.
        -13    1    3    3    0    0  0.19056542250E+03 -0.34788279179E+03  0.55104839282E+02  0.40046744131E+03  0.10566000000E+00 0.  1.
         13    1    4    4    0    0 -0.73863611716E+02  0.34876918086E+03 -0.19075348027E+03  0.40432990991E+03  0.10566000000E+00 0. -1.
          4    1    3    3  501    0 -0.26343070091E+03  0.48676740416E+03  0.56584020776E+03  0.79152598230E+03  0.00000000000E+00 0.  1.
         -4    1    4    4    0  503  0.14672889013E+03 -0.48765379323E+03 -0.13063341375E+04  0.14020857563E+04  0.00000000000E+00 0. -1.
</event>
<event>
 8    1  0.6759491E-006  0.1084623E+04  0.7818608E-02  0.8699635E-01
         21   -1    0    0  503  502  0.00000000000E+00  0.00000000000E+00  0.21584690538E+04  0.21584690538E+04  0.00000000000E+00 0. -1.
         21   -1    0    0  501  503 -0.00000000000E+00 -0.00000000000E+00 -0.73510167611E+03  0.73510167611E+03  0.00000000000E+00 0. -1.
    9000010    2    1    2  501    0  0.35210111517E+03  0.19517540667E+03 -0.28150617284E+02  0.10815794439E+04  0.10034704786E+04 0.  0.
   -9000010    2    1    2    0  502 -0.35210111517E+03 -0.19517540667E+03  0.14515179950E+04  0.18119912860E+04  0.10071441289E+04 0.  0.
        -13    1    3    3    0    0 -0.20014433597E+03 -0.86628411141E+02 -0.32721121262E+03  0.39322948219E+03  0.10566000000E+00 0.  1.
         13    1    4    4    0    0 -0.43681711242E+03  0.27956119806E+03  0.39928300257E+03  0.65451553111E+03  0.10566000000E+00 0. -1.
          4    1    3    3  501    0  0.55224545114E+03  0.28180381781E+03  0.29906059534E+03  0.68834996166E+03  0.00000000000E+00 0.  1.
         -4    1    4    4    0  502  0.84715997251E+02 -0.47473660473E+03  0.10522349924E+04  0.11574757549E+04  0.00000000000E+00 0. -1.
</event>
<event>
 8    1  0.6759491E-006  0.1030422E+04  0.7818608E-02  0.8747436E-01
         21   -1    0    0  503  502  0.00000000000E+00  0.00000000000E+00  0.55845550731E+03  0.55845550731E+03  0.00000000000E+00 0. -1.
         21   -1    0    0  501  503 -0.00000000000E+00 -0.00000000000E+00 -0.18954281291E+04  0.18954281291E+04  0.00000000000E+00 0. -1.
    9000010    2    1    2  501    0 -0.12145827443E+03 -0.11939851388E+03 -0.63159334582E+03  0.12051523266E+04  0.10121629603E+04 0.  0.
   -9000010    2    1    2    0  502  0.12145827443E+03  0.11939851388E+03 -0.70537927596E+03  0.12487313098E+04  0.10162489083E+04 0.  0.
        -13    1    3    3    0    0 -0.53880929612E+03 -0.23556635473E+03 -0.30376089793E+03  0.66187435314E+03  0.10566000000E+00 0.  1.
         13    1    4    4    0    0 -0.24066074719E+03 -0.26069114765E+03 -0.62354588982E+03  0.71741686457E+03  0.10566000000E+00 0. -1.
          4    1    3    3  501    0  0.41735102170E+03  0.11616784085E+03 -0.32783244789E+03  0.54327797346E+03  0.00000000000E+00 0.  1.
         -4    1    4    4    0  502  0.36211902161E+03  0.38008966153E+03 -0.81833386134E+02  0.53131444522E+03  0.00000000000E+00 0. -1.
</event>
<event>
 8    1  0.6759491E-006  0.1153751E+04  0.7818608E-02  0.8653084E-01
         21   -1    0    0  503  502  0.00000000000E+00  0.00000000000E+00  0.19927330915E+04  0.19927330915E+04  0.00000000000E+00 0.  1.
         21   -1    0    0  501  503 -0.00000000000E+00 -0.00000000000E+00 -0.10602007060E+04  0.10602007060E+04  0.00000000000E+00 0.  1.
    9000010    2    1    2  501    0  0.39632397116E+03 -0.19513653770E+03 -0.49096830770E+03  0.12538700572E+04  0.10658279799E+04 0.  0.
   -9000010    2    1    2    0  502 -0.39632397116E+03  0.19513653770E+03  0.14235006932E+04  0.17990637403E+04  0.10075341977E+04 0.  0.
        -13    1    3    3    0    0  0.61335094776E+03 -0.31584624930E+03  0.15198633408E+02  0.69006466939E+03  0.10566000000E+00 0.  1.
         13    1    4    4    0    0 -0.13550302398E+03  0.26452675591E+03  0.14914273846E+04  0.15207534741E+04  0.10566000000E+00 0. -1.
          4    1    3    3  501    0 -0.21702697660E+03  0.12070971160E+03 -0.50616694111E+03  0.56380538781E+03  0.00000000000E+00 0.  1.
         -4    1    4    4    0  502 -0.26082094718E+03 -0.69390218207E+02 -0.67926691420E+02  0.27831026621E+03  0.00000000000E+00 0. -1.
</event>
<event>
 8    1  0.6759491E-006  0.1034013E+04  0.7818608E-02  0.8747348E-01
         21   -1    0    0  501  502  0.00000000000E+00  0.00000000000E+00  0.72646655503E+03  0.72646655503E+03  0.00000000000E+00 0.  1.
         21   -1    0    0  502  503 -0.00000000000E+00 -0.00000000000E+00 -0.15034495690E+04  0.15034495690E+04  0.00000000000E+00 0.  1.
    9000010    2    1    2  501    0 -0.13807337515E+03 -0.21358453490E+03 -0.60241973246E+03  0.11812715932E+04  0.98377356762E+03 0.  0.
   -9000010    2    1    2    0  503  0.13807337515E+03  0.21358453490E+03 -0.17456328148E+03  0.10486445308E+04  0.10022476751E+04 0.  0.
        -13    1    3    3    0    0 -0.24091566625E+03  0.22365034077E+03  0.10344260367E+03  0.34461604226E+03  0.10566000000E+00 0.  1.
         13    1    4    4    0    0  0.27459099760E+03 -0.13053593361E+03  0.31306479783E+03  0.43640511538E+03  0.10566000000E+00 0. -1.
          4    1    3    3  501    0  0.10284229109E+03 -0.43723487566E+03 -0.70586233612E+03  0.83665555092E+03  0.00000000000E+00 0.  1.
         -4    1    4    4    0  503 -0.13651762244E+03  0.34412046850E+03 -0.48762807931E+03  0.61223941544E+03  0.00000000000E+00 0. -1.
</event>
<event>
 8    1  0.6759491E-006  0.1094694E+04  0.7818608E-02  0.8691760E-01
         21   -1    0    0  501  502  0.00000000000E+00  0.00000000000E+00  0.25029820481E+04  0.25029820481E+04  0.00000000000E+00 0.  1.
         21   -1    0    0  502  503 -0.00000000000E+00 -0.00000000000E+00 -0.59126969026E+03  0.59126969026E+03  0.00000000000E+00 0.  1.
    9000010    2    1    2  501    0 -0.20447178677E+03 -0.41063745411E+03  0.16415038229E+04  0.19730410108E+04  0.99394376062E+03 0.  0.
   -9000010    2    1    2    0  503  0.20447178677E+03  0.41063745411E+03  0.27020853493E+03  0.11212107276E+04  0.98674668127E+03 0.  0.
        -13    1    3    3    0    0  0.30584444573E+03  0.14445850678E+02  0.15129375163E+03  0.34152498888E+03  0.10566000000E+00 0.  1.
         13    1    4    4    0    0  0.46821892572E+03  0.20789999232E+03 -0.19597491895E+03  0.54850483064E+03  0.10566000000E+00 0. -1.
          4    1    3    3  501    0 -0.51031623250E+03 -0.42508330478E+03  0.14902100713E+04  0.16315160219E+04  0.00000000000E+00 0.  1.
         -4    1    4    4    0  503 -0.26374713895E+03  0.20273746178E+03  0.46618345388E+03  0.57270589694E+03  0.00000000000E+00 0. -1.
</event>
<event>
 8    1  0.6759491E-006  0.1085685E+04  0.7818608E-02  0.8699716E-01
         21   -1    0    0  501  502  0.00000000000E+00  0.00000000000E+00  0.12392529886E+04  0.12392529886E+04  0.00000000000E+00 0. -1.
         21   -1    0    0  502  503 -0.00000000000E+00 -0.00000000000E+00 -0.11645603727E+04  0.11645603727E+04  0.00000000000E+00 0. -1.
    9000010    2    1    2  501    0  0.40431847769E+03 -0.59303683075E+02 -0.48543746413E+03  0.11892693606E+04  0.10058437862E+04 0.  0.
   -9000010    2    1    2    0  503 -0.40431847769E+03  0.59303683075E+02  0.56013008006E+03  0.12145440007E+04  0.99718657476E+03 0.  0.
        -13    1    3    3    0    0  0.28780805523E+03  0.43028773351E+03 -0.43478182635E+02  0.51949145691E+03  0.10566000000E+00 0.  1.
         13    1    4    4    0    0 -0.61373035523E+03 -0.21640825099E+03  0.13213844473E+03  0.66404673011E+03  0.10566000000E+00 0. -1.
          4    1    3    3  501    0  0.11651042246E+03 -0.48959141659E+03 -0.44195928149E+03  0.66977790366E+03  0.00000000000E+00 0.  1.
         -4    1    4    4    0  503  0.20941187754E+03  0.27571193406E+03  0.42799163533E+03  0.55049727062E+03  0.00000000000E+00 0. -1.
</event>
<event>
 8    1  0.6759491E-006  0.1047167E+04  0.7818608E-02  0.8737922E-01
         21   -1    0    0  501  502  0.00000000000E+00  0.00000000000E+00  0.11695833677E+04  0.11695833677E+04  0.00000000000E+00 0.  1.
         21   -1    0    0  502  503 -0.00000000000E+00 -0.00000000000E+00 -0.11815655225E+04  0.11815655225E+04  0.00000000000E+00 0.  1.
    9000010    2    1    2  501    0 -0.23062520724E+03  0.36478412970E+01 -0.56717593129E+03  0.11659066793E+04  0.99219380908E+03 0.  0.
   -9000010    2    1    2    0  503  0.23062520724E+03 -0.36478412970E+01  0.55519377645E+03  0.11852422109E+04  0.10214488123E+04 0.  0.
        -13    1    3    3    0    0 -0.51558220734E+02 -0.16198253535E+03  0.25602935641E+03  0.30732333851E+03  0.10566000000E+00 0.  1.
         13    1    4    4    0    0  0.47732570161E+03 -0.99538854470E+02  0.72285049624E+03  0.87192927468E+03  0.10566000000E+00 0. -1.
          4    1    3    3  501    0 -0.17906698650E+03  0.16563037665E+03 -0.82320528771E+03  0.85858334076E+03  0.00000000000E+00 0.  1.
         -4    1    4    4    0  503 -0.24670049437E+03  0.95891013173E+02 -0.16765671979E+03  0.31331293625E+03  0.00000000000E+00 0. -1.
</event>
<event>
 8    1  0.6759491E-006  0.1021002E+04  0.7818608E-02  0.8760907E-01
         21   -1    0    0  503  502  0.00000000000E+00  0.00000000000E+00  0.10451875731E+04  0.10451875731E+04  0.00000000000E+00 0.  1.
         21   -1    0    0  501  503 -0.00000000000E+00 -0.00000000000E+00 -0.97392707700E+03  0.97392707700E+03  0.00000000000E+00 0.  1.
    9000010    2    1    2  501    0 -0.94336278758E+00  0.32281887376E+02  0.64503430996E+02  0.99809051868E+03  0.99548027639E+03 0.  0.
   -9000010    2    1    2    0  502  0.94336278758E+00 -0.32281887376E+02  0.67570650704E+01  0.10210241314E+04  0.10204908666E+04 0.  0.
        -13    1    3    3    0    0 -0.22327001122E+03 -0.12352821394E+03 -0.39154454537E+03  0.46734982585E+03  0.10566000000E+00 0.  1.
         13    1    4    4    0    0 -0.70195203247E+02 -0.49590459608E+03 -0.15593500926E+03  0.52456121973E+03  0.10566000000E+00 0. -1.
          4    1    3    3  501    0  0.22232664843E+03  0.15581010132E+03  0.45604797637E+03  0.53074069283E+03  0.00000000000E+00 0.  1.
         -4    1    4    4    0  502  0.71138566035E+02  0.46362270870E+03  0.16269207433E+03  0.49646291166E+03  0.00000000000E+00 0. -1.
</event>
<event>
 8    1  0.6759491E-006  0.9915672E+03  0.7818608E-02  0.8784639E-01
         21   -1    0    0  503  502  0.00000000000E+00  0.00000000000E+00  0.13246513390E+04  0.13246513390E+04  0.00000000000E+00 0. -1.
         21   -1    0    0  501  503 -0.00000000000E+00 -0.00000000000E+00 -0.13648746946E+04  0.13648746946E+04  0.00000000000E+00 0. -1.
    9000010    2    1    2  501    0  0.46773374889E+02  0.14061383938E+03 -0.93317711891E+03  0.13616259110E+04  0.98043132642E+03 0.  0.
   -9000010    2    1    2    0  502 -0.46773374889E+02 -0.14061383938E+03  0.89295376333E+03  0.13279001225E+04  0.97159266753E+03 0.  0.
        -13    1    3    3    0    0 -0.41461417133E+03 -0.13242245391E+03 -0.55608953095E+03  0.70617008926E+03  0.10566000000E+00 0.  1.
         13    1    4    4    0    0 -0.16243308568E+03  0.11566903710E+03  0.10054679996E+04  0.10250510928E+04  0.10566000000E+00 0. -1.
          4    1    3    3  501    0  0.46138754622E+03  0.27303629329E+03 -0.37708758795E+03  0.65545582173E+03  0.00000000000E+00 0.  1.
         -4    1    4    4    0  502  0.11565971079E+03 -0.25628287648E+03 -0.11251423625E+03  0.30284902977E+03  0.00000000000E+00 0. -1.
</event>
<event>
 8    1  0.6759491E-006  0.1078294E+04  0.7818608E-02  0.8704831E-01
         21   -1    0    0  503  502  0.00000000000E+00  0.00000000000E+00  0.37940923889E+04  0.37940923889E+04  0.00000000000E+00 0.  1.
         21   -1    0    0  501  503 -0.00000000000E+00 -0.00000000000E+00 -0.35785812004E+03  0.35785812004E+03  0.00000000000E+00 0.  1.
    9000010    2    1    2  501    0  0.20841365085E+03 -0.34894773197E+03  0.25117276107E+04  0.27334034172E+04  0.99875816972E+03 0.  0.
   -9000010    2    1    2    0  502 -0.20841365085E+03  0.34894773197E+03  0.92450665817E+03  0.14185470917E+04  0.99617394107E+03 0.  0.
        -13    1    3    3    0    0 -0.87177097528E+02  0.32448477829E+03  0.93648613078E+03  0.99493542604E+03  0.10566000000E+00 0.  1.
         13    1    4    4    0    0  0.17531476216E+03  0.45033218091E+03  0.85993675492E+02  0.49084545672E+03  0.10566000000E+00 0. -1.
          4    1    3    3  501    0  0.29559074838E+03 -0.67343251027E+03  0.15752414799E+04  0.17384679912E+04  0.00000000000E+00 0.  1.
         -4    1    4    4    0  502 -0.38372841301E+03 -0.10138444893E+03  0.83851298268E+03  0.92770163499E+03  0.00000000000E+00 0. -1.
</event>
<event>
 8    1  0.6759491E-006  0.1026998E+04  0.7818608E-02  0.8757232E-01
         21   -1    0    0  501  502  0.00000000000E+00  0.00000000000E+00  0.18507266303E+04  0.18507266303E+04  0.00000000000E+00 0. -1.
         21   -1    0    0  502  503 -0.00000000000E+00 -0.00000000000E+00 -0.62400114383E+03  0.62400114383E+03  0.00000000000E+00 0. -1.
    9000010    2    1    2  501    0 -0.59310174586E+02 -0.10832137402E+03  0.20136821658E+03  0.10465533128E+04  0.10195457131E+04 0.  0.
   -9000010    2    1    2    0  503  0.59310174586E+02  0.10832137402E+03  0.10253572699E+04  0.14281744613E+04  0.98644490175E+03 0.  0.
        -13    1    3    3    0    0  0.41269173505E+03  0.20224941821E+02 -0.15501706335E+03  0.44130920854E+03  0.10566000000E+00 0.  1.
         13    1    4    4    0    0  0.32768443022E+03  0.44724946795E+03  0.66140906608E+03  0.86305917309E+03  0.10566000000E+00 0. -1.
          4    1    3    3  501    0 -0.47200190963E+03 -0.12854631584E+03  0.35638527993E+03  0.60524410428E+03  0.00000000000E+00 0.  1.
         -4    1    4    4    0  503 -0.26837425563E+03 -0.33892809393E+03  0.36394820380E+03  0.56511528823E+03  0.00000000000E+00 0. -1.
</event>
<event>
 8    1  0.6759491E-006  0.1000647E+04  0.7818608E-02  0.8785079E-01
         21   -1    0    0  501  502  0.00000000000E+00  0.00000000000E+00  0.52807271270E+03  0.52807271270E+03  0.00000000000E+00 0.  1.
         21   -1    0    0  502  503 -0.00000000000E+00 -0.00000000000E+00 -0.20415354626E+04  0.20415354626E+04  0.00000000000E+00 0.  1.
    9000010    2    1    2  501    0 -0.43806728469E+02 -0.46371428126E+02 -0.30809906864E+03  0.10030207563E+04  0.95239501394E+03 0.  0.
   -9000010    2    1    2    0  503  0.43806728469E+02  0.46371428126E+02 -0.12053636812E+04  0.15665874190E+04  0.99861163552E+03 0.  0.
        -13    1    3    3    0    0 -0.36234798743E+03  0.28774127901E+03 -0.29060544278E+02  0.46361151198E+03  0.10566000000E+00 0.  1.
         13    1    4    4    0    0  0.52057499271E+03  0.96005772622E+01 -0.58130976895E+03  0.78039192254E+03  0.10566000000E+00 0. -1.
          4    1    3    3  501    0  0.31854125896E+03 -0.33411270714E+03 -0.27903852436E+03  0.53940924427E+03  0.00000000000E+00 0.  1.
         -4    1    4    4    0  503 -0.47676826424E+03  0.36770850863E+02 -0.62405391227E+03  0.78619549648E+03  0.00000000000E+00 0. -1.
</event>
<event>
 8    1  0.6759491E-006  0.1134571E+04  0.7818608E-02  0.8664964E-01
         21   -1    0    0  503  502  0.00000000000E+00  0.00000000000E+00  0.20794385887E+04  0.20794385887E+04  0.00000000000E+00 0.  1.
         21   -1    0    0  501  503 -0.00000000000E+00 -0.00000000000E+00 -0.11055024859E+04  0.11055024859E+04  0.00000000000E+00 0.  1.
    9000010    2    1    2  501    0  0.47266868929E+03  0.23915135831E+03 -0.59471413331E+03  0.12489880823E+04  0.96212123324E+03 0.  0.
   -9000010    2    1    2    0  502 -0.47266868929E+03 -0.23915135831E+03  0.15686502361E+04  0.19359529922E+04  0.10033151862E+04 0.  0.
        -13    1    3    3    0    0  0.49329168862E+03  0.90014045718E+02  0.12246582347E+03  0.51617546200E+03  0.10566000000E+00 0.  1.
         13    1    4    4    0    0  0.77651796187E+02 -0.93911240576E+02 -0.10955133658E+03  0.16386161560E+03  0.10566000000E+00 0. -1.
          4    1    3    3  501    0 -0.20622999334E+02  0.14913731260E+03 -0.71717995679E+03  0.73281262034E+03  0.00000000000E+00 0.  1.
         -4    1    4    4    0  502 -0.55032048547E+03 -0.14524011774E+03  0.16782015727E+04  0.17720913766E+04  0.00000000000E+00 0. -1.
</event>
<event>
 8    1  0.6759491E-006  0.1057797E+04  0.7818608E-02  0.8728482E-01
         21   -1    0    0  501  502  0.00000000000E+00  0.00000000000E+00  0.47151317732E+03  0.47151317732E+03  0.00000000000E+00 0. -1.
         21   -1    0    0  502  503 -0.00000000000E+00 -0.00000000000E+00 -0.23462419552E+04  0.23462419552E+04  0.00000000000E+00 0. -1.
    9000010    2    1    2  501    0  0.26335812016E+03 -0.28058314890E+02 -0.11269356626E+04  0.15456126387E+04  0.10241043271E+04 0.  0.
   -9000010    2    1    2    0  503 -0.26335812016E+03  0.28058314890E+02 -0.74779311526E+03  0.12721424938E+04  0.99448841763E+03 0.  0.
        -13    1    3    3    0    0  0.57354664657E+03  0.16243664837E+02 -0.27183714925E+03  0.63491342663E+03  0.10566000000E+00 0.  1.
         13    1    4    4    0    0 -0.54002494195E+03  0.30542025821E+03 -0.34339412096E+03  0.70910366345E+03  0.10566000000E+00 0. -1.
          4    1    3    3  501    0 -0.31018852642E+03 -0.44301979727E+02 -0.85509851334E+03  0.91069921206E+03  0.00000000000E+00 0.  1.
         -4    1    4    4    0  503  0.27666682179E+03 -0.27736194332E+03 -0.40439899430E+03  0.56303883034E+03  0.00000000000E+00 0. -1.
</event>
<event>
 8    1  0.6759491E-006  0.1046398E+04  0.7818608E-02  0.8736914E-01
         21   -1    0    0  503  502  0.00000000000E+00  0.00000000000E+00  0.29072628010E+04  0.29072628010E+04  0.00000000000E+00 0.  1.
         21   -1    0    0  501  503 -0.00000000000E+00 -0.00000000000E+00 -0.46428510288E+03  0.46428510288E+03  0.00000000000E+00 0.  1.
    9000010    2    1    2  501    0  0.30214575254E+03  0.12678261655E+03  0.46801906359E+03  0.11462940730E+04  0.99377178984E+03 0.  0.
   -9000010    2    1    2    0  502 -0.30214575254E+03 -0.12678261655E+03  0.19749586345E+04  0.22252538309E+04  0.97155911611E+03 0.  0.
        -13    1    3    3    0    0  0.59675228321E+03 -0.17465052553E+03  0.32208978083E+03  0.70025561880E+03  0.10566000000E+00 0.  1.
         13    1    4    4    0    0  0.26524759316E+03  0.16104975666E+03  0.11032510720E+04  0.11460611889E+04  0.10566000000E+00 0. -1.
          4    1    3    3  501    0 -0.29460653067E+03  0.30143314208E+03  0.14592928277E+03  0.44603845420E+03  0.00000000000E+00 0.  1.
         -4    1    4    4    0  502 -0.56739334570E+03 -0.28783237321E+03  0.87170756254E+03  0.10791926419E+04  0.00000000000E+00 0. -1.
</event>
<event>
 8    1  0.6759491E-006  0.1041843E+04  0.7818608E-02  0.8749190E-01
         21   -1    0    0  503  502  0.00000000000E+00  0.00000000000E+00  0.78220619528E+03  0.78220619528E+03  0.00000000000E+00 0.  1.
         21   -1    0    0  501  503 -0.00000000000E+00 -0.00000000000E+00 -0.15864648133E+04  0.15864648133E+04  0.00000000000E+00 0.  1.
    9000010    2    1    2  501    0  0.98965023021E+02 -0.24437989567E+03  0.79529277496E+02  0.10448737994E+04  0.10079289367E+04 0.  0.
   -9000010    2    1    2    0  502 -0.98965023021E+02  0.24437989567E+03 -0.88378789552E+03  0.13237972092E+04  0.94965383043E+03 0.  0.
        -13    1    3    3    0    0  0.26409574218E+03 -0.22215891167E+03 -0.40523460556E+03  0.53227459058E+03  0.10566000000E+00 0.  1.
         13    1    4    4    0    0 -0.33731561739E+03  0.41195982609E+03 -0.17993749605E+03  0.56202334266E+03  0.10566000000E+00 0. -1.
          4    1    3    3  501    0 -0.16513071916E+03 -0.22220983994E+02  0.48476388306E+03  0.51259920879E+03  0.00000000000E+00 0.  1.
         -4    1    4    4    0  502  0.23835059437E+03 -0.16757993042E+03 -0.70385039948E+03  0.76177386655E+03  0.00000000000E+00 0. -1.
</event>
<event>
 8    1  0.6759491E-006  0.9993553E+03  0.7818608E-02  0.8783538E-01
         21   -1    0    0  503  502  0.00000000000E+00  0.00000000000E+00  0.16969924662E+04  0.16969924662E+04  0.00000000000E+00 0. -1.
         21   -1    0    0  501  503 -0.00000000000E+00 -0.00000000000E+00 -0.57948400625E+03  0.57948400625E+03  0.00000000000E+00 0. -1.
    9000010    2    1    2  501    0  0.11720661020E+02  0.16187543909E+02  0.39013783765E+03  0.10404428599E+04  0.96432069448E+03 0.  0.
   -9000010    2    1    2    0  502 -0.11720661020E+02 -0.16187543909E+02  0.72737062228E+03  0.12360336126E+04  0.99915547277E+03 0.  0.
        -13    1    3    3    0    0  0.83337552563E+02  0.47825225853E+03  0.27867589965E+03  0.55975944714E+03  0.10566000000E+00 0.  1.
         13    1    4    4    0    0  0.40853615021E+03  0.27108518117E+03  0.35589456992E+03  0.60584644716E+03  0.10566000000E+00 0. -1.
          4    1    3    3  501    0 -0.71616891544E+02 -0.46206471462E+03  0.11146193800E+03  0.48068341273E+03  0.00000000000E+00 0.  1.
         -4    1    4    4    0  502 -0.42025681123E+03 -0.28727272508E+03  0.37147605236E+03  0.63018716540E+03  0.00000000000E+00 0. -1.
</event>
<event>
 8    1  0.6759491E-006  0.1022554E+04  0.7818608E-02  0.8757617E-01
         21   -1    0    0  503  502  0.00000000000E+00  0.00000000000E+00  0.15076379503E+04  0.15076379503E+04  0.00000000000E+00 0. -1.
         21   -1    0    0  501  503 -0.00000000000E+00 -0.00000000000E+00 -0.77114796123E+03  0.77114796123E+03  0.00000000000E+00 0. -1.
    9000010    2    1    2  501    0 -0.13099869729E+03 -0.13588108370E+03 -0.21811492765E+02  0.10057429912E+04  0.98763297615E+03 0.  0.
   -9000010    2    1    2    0  502  0.13099869729E+03  0.13588108370E+03  0.75830148178E+03  0.12730429203E+04  0.10049839859E+04 0.  0.
        -13    1    3    3    0    0  0.68608664079E+02 -0.49679538255E+03 -0.22062023874E+03  0.54789241811E+03  0.10566000000E+00 0.  1.
         13    1    4    4    0    0  0.52304540887E+03  0.29055201509E+01  0.66957666178E+03  0.84965749508E+03  0.10566000000E+00 0. -1.
          4    1    3    3  501    0 -0.19960736137E+03  0.36091429885E+03  0.19880874598E+03  0.45785057312E+03  0.00000000000E+00 0.  1.
         -4    1    4    4    0  502 -0.39204671158E+03  0.13297556355E+03  0.88724820003E+02  0.42338542517E+03  0.00000000000E+00 0. -1.
</event>
<event>
 8    1  0.6759491E-006  0.1071906E+04  0.7818608E-02  0.8712798E-01
         21   -1    0    0  503  502  0.00000000000E+00  0.00000000000E+00  0.21812973063E+04  0.21812973063E+04  0.00000000000E+00 0. -1.
         21   -1    0    0  501  503 -0.00000000000E+00 -0.00000000000E+00 -0.53476658771E+03  0.53476658771E+03  0.00000000000E+00 0. -1.
    9000010    2    1    2  501    0  0.24973979988E+03  0.25025055333E+03  0.60294781838E+03  0.12298487785E+04  0.10119222496E+04 0.  0.
   -9000010    2    1    2    0  502 -0.24973979988E+03 -0.25025055333E+03  0.10435829002E+04  0.14862151155E+04  0.99738397462E+03 0.  0.
        -13    1    3    3    0    0 -0.47433340595E+02 -0.36580501100E+02 -0.26337970985E+03  0.27010541939E+03  0.10566000000E+00 0.  1.
         13    1    4    4    0    0  0.30768253706E+03 -0.98534639377E+01  0.36060966516E+02  0.30994521909E+03  0.10566000000E+00 0. -1.
          4    1    3    3  501    0  0.29717314048E+03  0.28683105443E+03  0.86632752823E+03  0.95974335912E+03  0.00000000000E+00 0.  1.
         -4    1    4    4    0  502 -0.55742233695E+03 -0.24039708939E+03  0.10075219337E+04  0.11762698964E+04  0.00000000000E+00 0. -1.
</event>
<event>
 8    1  0.6759491E-006  0.1124841E+04  0.7818608E-02  0.8691601E-01
         21   -1    0    0  503  502  0.00000000000E+00  0.00000000000E+00  0.12363182254E+04  0.12363182254E+04  0.00000000000E+00 0.  1.
         21   -1    0    0  501  503 -0.00000000000E+00 -0.00000000000E+00 -0.10152185329E+04  0.10152185329E+04  0.00000000000E+00 0.  1.
    9000010    2    1    2  501    0  0.31688529078E+02 -0.24177470088E+02 -0.23492126023E+03  0.11491101680E+04  0.11241340964E+04 0.  0.
   -9000010    2    1    2    0  502 -0.31688529078E+02  0.24177470088E+02  0.45602095280E+03  0.11024265903E+04  0.10028960887E+04 0.  0.
        -13    1    3    3    0    0  0.28284033704E+00 -0.35329409547E+03 -0.57496743470E+03  0.67483654319E+03  0.10566000000E+00 0.  1.
         13    1    4    4    0    0  0.32682961143E+03 -0.22639714916E+03  0.52610897539E+03  0.65944213485E+03  0.10566000000E+00 0. -1.
          4    1    3    3  501    0  0.31405688741E+02  0.32911662538E+03  0.34004617447E+03  0.47427362478E+03  0.00000000000E+00 0.  1.
         -4    1    4    4    0  502 -0.35851814051E+03  0.25057461925E+03 -0.70088022598E+02  0.44298445548E+03  0.00000000000E+00 0. -1.
</event>
<event>
 8    1  0.6759491E-006  0.1018604E+04  0.7818608E-02  0.8782067E-01
         21   -1    0    0  501  502  0.00000000000E+00  0.00000000000E+00  0.16395265169E+04  0.16395265169E+04  0.00000000000E+00 0.  1.
         21   -1    0    0  502  503 -0.00000000000E+00 -0.00000000000E+00 -0.11797478445E+04  0.11797478445E+04  0.00000000000E+00 0.  1.
    9000010    2    1    2  501    0  0.19746964515E+03  0.56863901544E+02  0.12476221859E+04  0.16106256859E+04  0.99766037178E+03 0.  0.
   -9000010    2    1    2    0  503 -0.19746964515E+03 -0.56863901544E+02 -0.78784351353E+03  0.12086486755E+04  0.89325609703E+03 0.  0.
        -13    1    3    3    0    0 -0.34549710227E+03 -0.19674946472E+03  0.34072950649E+03  0.52361742456E+03  0.10566000000E+00 0.  1.
         13    1    4    4    0    0  0.96783696648E+02 -0.35342712257E+03 -0.62694331358E+02  0.37176391064E+03  0.10566000000E+00 0. -1.
          4    1    3    3  501    0  0.54296674742E+03  0.25361336626E+03  0.90689267939E+03  0.10870082614E+04  0.00000000000E+00 0.  1.
         -4    1    4    4    0  503 -0.29425334179E+03  0.29656322102E+03 -0.72514918217E+03  0.83688476484E+03  0.00000000000E+00 0. -1.
</event>
<event>
 8    1  0.6759491E-006  0.1010398E+04  0.7818608E-02  0.8764986E-01
         21   -1    0    0  503  502  0.00000000000E+00  0.00000000000E+00  0.55244376849E+03  0.55244376849E+03  0.00000000000E+00 0.  1.
         21   -1    0    0  501  503 -0.00000000000E+00 -0.00000000000E+00 -0.21492428758E+04  0.21492428758E+04  0.00000000000E+00 0.  1.
    9000010    2    1    2  501    0  0.13411475979E+03 -0.66594092516E+02 -0.13049776542E+04  0.16504150566E+04  0.99924053125E+03 0.  0.
   -9000010    2    1    2    0  502 -0.13411475979E+03  0.66594092516E+02 -0.29182145311E+03  0.10512715876E+04  0.99879459776E+03 0.  0.
        -13    1    3    3    0    0 -0.53310706056E+02  0.39326584702E+03 -0.97903433272E+03  0.10564129371E+04  0.10566000000E+00 0.  1.
         13    1    4    4    0    0 -0.30635835712E+03  0.48100427592E+02 -0.61264765726E+03  0.68666313227E+03  0.10566000000E+00 0. -1.
          4    1    3    3  501    0  0.18742546584E+03 -0.45985993954E+03 -0.32594332147E+03  0.59400211956E+03  0.00000000000E+00 0.  1.
         -4    1    4    4    0  502  0.17224359733E+03  0.18493664924E+02  0.32082620414E+03  0.36460845537E+03  0.00000000000E+00 0. -1.
</event>
<event>
 8    1  0.6759491E-006  0.1027020E+04  0.7818608E-02  0.8780957E-01
         21   -1    0    0  503  502  0.00000000000E+00  0.00000000000E+00  0.86958691433E+03  0.86958691433E+03  0.00000000000E+00 0. -1.
         21   -1    0    0  501  503 -0.00000000000E+00 -0.00000000000E+00 -0.11013410632E+04  0.11013410632E+04  0.00000000000E+00 0. -1.
    9000010    2    1    2  501    0  0.40914794422E+02 -0.28680922098E+03 -0.28484082009E+03  0.94253736406E+03  0.85047565528E+03 0.  0.
   -9000010    2    1    2    0  502 -0.40914794422E+02  0.28680922098E+03  0.53086671233E+02  0.10283906134E+04  0.98530985458E+03 0.  0.
        -13    1    3    3    0    0 -0.42404084634E+02  0.23124104068E+03  0.13449763837E+03  0.27085079135E+03  0.10566000000E+00 0.  1.
         13    1    4    4    0    0  0.32531495249E+03  0.95140174900E+02  0.37425986915E+03  0.50492765028E+03  0.10566000000E+00 0. -1.
          4    1    3    3  501    0  0.83318879056E+02 -0.51805026166E+03 -0.41933845846E+03  0.67168657271E+03  0.00000000000E+00 0.  1.
         -4    1    4    4    0  502 -0.36622974692E+03  0.19166904608E+03 -0.32117319792E+03  0.52346296317E+03  0.00000000000E+00 0. -1.
</event>
<event>
 8    1  0.6759491E-006  0.1022498E+04  0.7818608E-02  0.8756453E-01
         21   -1    0    0  503  502  0.00000000000E+00  0.00000000000E+00  0.27871526245E+04  0.27871526245E+04  0.00000000000E+00 0.  1.
         21   -1    0    0  501  503 -0.00000000000E+00 -0.00000000000E+00 -0.64786186465E+03  0.64786186465E+03  0.00000000000E+00 0.  1.
    9000010    2    1    2  501    0 -0.17238777897E+03  0.17542553040E+02 -0.57084546337E+02  0.10122957215E+04  0.99572018905E+03 0.  0.
   -9000010    2    1    2    0  502  0.17238777897E+03 -0.17542553040E+02  0.21963753062E+04  0.24227187676E+04  0.10077085163E+04 0.  0.
        -13    1    3    3    0    0 -0.37950040392E+03 -0.33518799146E+03  0.18254391734E+03  0.53823214241E+03  0.10566000000E+00 0.  1.
         13    1    4    4    0    0  0.33138232705E+03  0.24676078996E+03  0.32385121016E+03  0.52496166682E+03  0.10566000000E+00 0. -1.
          4    1    3    3  501    0  0.20711262495E+03  0.35273054451E+03 -0.23962846368E+03  0.47406357912E+03  0.00000000000E+00 0.  1.
         -4    1    4    4    0  502 -0.15899454808E+03 -0.26430334300E+03  0.18725240960E+04  0.18977571008E+04  0.00000000000E+00 0. -1.
</event>
<event>
 8    1  0.6759491E-006  0.1073640E+04  0.7818608E-02  0.8713045E-01
         21   -1    0    0  501  502  0.00000000000E+00  0.00000000000E+00  0.64087079125E+03  0.64087079125E+03  0.00000000000E+00 0.  1.
         21   -1    0    0  502  503 -0.00000000000E+00 -0.00000000000E+00 -0.19946014899E+04  0.19946014899E+04  0.00000000000E+00 0.  1.
    9000010    2    1    2  501    0 -0.21833192854E+03  0.29496761945E+03 -0.22126892144E+03  0.10749685806E+04  0.98586144364E+03 0.  0.
   -9000010    2    1    2    0  503  0.21833192854E+03 -0.29496761945E+03 -0.11324617772E+04  0.15605037006E+04  0.10089734363E+04 0.  0.
        -13    1    3    3    0    0 -0.12797747977E+03 -0.66851677686E+02 -0.55563684028E+03  0.57409031657E+03  0.10566000000E+00 0.  1.
         13    1    4    4    0    0  0.55668699283E+03 -0.26690796380E+03 -0.35503304226E+03  0.71217184822E+03  0.10566000000E+00 0. -1.
          4    1    3    3  501    0 -0.90354448772E+02  0.36181929714E+03  0.33436791884E+03  0.50087826399E+03  0.00000000000E+00 0.  1.
         -4    1    4    4    0  503 -0.33835506429E+03 -0.28059655645E+02 -0.77742873492E+03  0.84833185233E+03  0.00000000000E+00 0. -1.
</event>
<event>
 8    1  0.6759491E-006  0.9902149E+03  0.7818608E-02  0.8784028E-01
         21   -1    0    0  503  502  0.00000000000E+00  0.00000000000E+00  0.13141631467E+04  0.13141631467E+04  0.00000000000E+00 0.  1.
         21   -1    0    0  501  503 -0.00000000000E+00 -0.00000000000E+00 -0.80144390535E+03  0.80144390535E+03  0.00000000000E+00 0.  1.
    9000010    2    1    2  501    0 -0.60663793614E+02  0.88524100166E+02 -0.23144837566E+02  0.98969594209E+03  0.98358820760E+03 0.  0.
   -9000010    2    1    2    0  502  0.60663793614E+02 -0.88524100166E+02  0.53586407889E+03  0.11259111099E+04  0.98438249896E+03 0.  0.
        -13    1    3    3    0    0  0.67545169671E+02  0.41526242528E+03  0.29671195955E+03  0.51482349393E+03  0.10566000000E+00 0.  1.
         13    1    4    4    0    0  0.44384345312E+03 -0.20237064923E+02  0.58392256675E+03  0.73373845804E+03  0.10566000000E+00 0. -1.
          4    1    3    3  501    0 -0.12820896328E+03 -0.32673832511E+03 -0.31985679712E+03  0.47487244816E+03  0.00000000000E+00 0.  1.
         -4    1    4    4    0  502 -0.38317965951E+03 -0.68287035243E+02 -0.48058487855E+02  0.39217265190E+03  0.00000000000E+00 0. -1.
</event>
<event>
 8    1  0.6759491E-006  0.1507470E+04  0.7818608E-02  0.8408039E-01
         21   -1    0    0  503  502  0.00000000000E+00  0.00000000000E+00  0.15906565461E+04  0.15906565461E+04  0.00000000000E+00 0. -1.
         21   -1    0    0  501  503 -0.00000000000E+00 -0.00000000000E+00 -0.14574424350E+04  0.14574424350E+04  0.00000000000E+00 0. -1.
    9000010    2    1    2  501    0 -0.73452755187E+03 -0.83349756420E+03  0.34171923127E+03  0.15457164056E+04  0.10189299581E+04 0.  0.
   -9000010    2    1    2    0  502  0.73452755187E+03  0.83349756420E+03 -0.20850512024E+03  0.15023825755E+04  0.98966161083E+03 0.  0.
        -13    1    3    3    0    0 -0.87188901769E+03 -0.24870886564E+03  0.19690527130E+03  0.92780291875E+03  0.10566000000E+00 0.  1.
         13    1    4    4    0    0  0.53527954419E+03  0.47172892715E+03  0.36042423281E+03  0.79934849089E+03  0.10566000000E+00 0. -1.
          4    1    3    3  501    0  0.13736146582E+03 -0.58478869856E+03  0.14481395996E+03  0.61791348687E+03  0.00000000000E+00 0.  1.
         -4    1    4    4    0  502  0.19924800768E+03  0.36176863705E+03 -0.56892935305E+03  0.70303408458E+03  0.00000000000E+00 0. -1.
</event>
<event>
 8    1  0.6759491E-006  0.1019681E+04  0.7818608E-02  0.8761289E-01
         21   -1    0    0  501  502  0.00000000000E+00  0.00000000000E+00  0.15664256255E+04  0.15664256255E+04  0.00000000000E+00 0.  1.
         21   -1    0    0  502  503 -0.00000000000E+00 -0.00000000000E+00 -0.65319684368E+03  0.65319684368E+03  0.00000000000E+00 0.  1.
    9000010    2    1    2  501    0  0.10528701644E+03 -0.16509478901E+03  0.53071745922E+03  0.11305571017E+04  0.97885478667E+03 0.  0.
   -9000010    2    1    2    0  503 -0.10528701644E+03  0.16509478901E+03  0.38251132263E+03  0.10890653676E+04  0.10007031616E+04 0.  0.
        -13    1    3    3    0    0  0.44351005854E+03  0.96370053874E+02  0.53687480811E+03  0.70300990751E+03  0.10566000000E+00 0.  1.
         13    1    4    4    0    0  0.33481303290E+03  0.39187716717E+03  0.12223784731E+03  0.52972595144E+03  0.10566000000E+00 0. -1.
          4    1    3    3  501    0 -0.33822304210E+03 -0.26146484288E+03 -0.61573488960E+01  0.42754719414E+03  0.00000000000E+00 0.  1.
         -4    1    4    4    0  503 -0.44010004935E+03 -0.22678237816E+03  0.26027347532E+03  0.55933941613E+03  0.00000000000E+00 0. -1.
</event>
<event>
 8    1  0.6759491E-006  0.1068649E+04  0.7818608E-02  0.8714013E-01
         21   -1    0    0  501  502  0.00000000000E+00  0.00000000000E+00  0.17206413885E+04  0.17206413885E+04  0.00000000000E+00 0. -1.
         21   -1    0    0  502  503 -0.00000000000E+00 -0.00000000000E+00 -0.93407332925E+03  0.93407332925E+03  0.00000000000E+00 0. -1.
    9000010    2    1    2  501    0  0.36827665754E+03  0.13431391568E+03  0.11133986600E+04  0.15432651673E+04  0.99415435229E+03 0.  0.
   -9000010    2    1    2    0  503 -0.36827665754E+03 -0.13431391568E+03 -0.32683060070E+03  0.11114495505E+04  0.98733679017E+03 0.  0.
        -13    1    3    3    0    0 -0.11643191417E+03 -0.34402182635E+03  0.23818776267E+03  0.43432802016E+03  0.10566000000E+00 0.  1.
         13    1    4    4    0    0 -0.68622949945E+03 -0.24017881457E+03 -0.21504530994E+03  0.75818288386E+03  0.10566000000E+00 0. -1.
          4    1    3    3  501    0  0.48470857171E+03  0.47833574203E+03  0.87521089728E+03  0.11089371471E+04  0.00000000000E+00 0.  1.
         -4    1    4    4    0  503  0.31795284191E+03  0.10586489889E+03 -0.11178529076E+03  0.35326666659E+03  0.00000000000E+00 0. -1.
</event>
<event>
 8    1  0.6759491E-006  0.1100711E+04  0.7818608E-02  0.8694358E-01
         21   -1    0    0  503  502  0.00000000000E+00  0.00000000000E+00  0.17171992279E+04  0.17171992279E+04  0.00000000000E+00 0.  1.
         21   -1    0    0  501  503 -0.00000000000E+00 -0.00000000000E+00 -0.76491451185E+03  0.76491451185E+03  0.00000000000E+00 0.  1.
    9000010    2    1    2  501    0  0.28489454519E+03  0.17215216097E+03  0.67836687544E+02  0.11027995415E+04  0.10491728857E+04 0.  0.
   -9000010    2    1    2    0  502 -0.28489454519E+03 -0.17215216097E+03  0.88444802852E+03  0.13793141982E+04  0.10047179076E+04 0.  0.
        -13    1    3    3    0    0 -0.39063038564E+01  0.59148978346E+03  0.41286792937E+02  0.59294184671E+03  0.10566000000E+00 0.  1.
         13    1    4    4    0    0 -0.29197636714E+03  0.51715566018E+02 -0.14196076378E+03  0.32875152981E+03  0.10566000000E+00 0. -1.
          4    1    3    3  501    0  0.28880084905E+03 -0.41933762249E+03  0.26549894606E+02  0.50985769481E+03  0.00000000000E+00 0.  1.
         -4    1    4    4    0  502  0.70818219485E+01 -0.22386772698E+03  0.10264087923E+04  0.10505626684E+04  0.00000000000E+00 0. -1.
</event>
<event>
 8    1  0.6759491E-006  0.1087514E+04  0.7818608E-02  0.8713660E-01
         21   -1    0    0  503  502  0.00000000000E+00  0.00000000000E+00  0.12994571637E+04  0.12994571637E+04  0.00000000000E+00 0.  1.
         21   -1    0    0  501  503 -0.00000000000E+00 -0.00000000000E+00 -0.10979929055E+04  0.10979929055E+04  0.00000000000E+00 0.  1.
    9000010    2    1    2  501    0 -0.46563597833E+02 -0.11399405175E+03 -0.47607560454E+03  0.11161434678E+04  0.10019807618E+04 0.  0.
   -9000010    2    1    2    0  502  0.46563597833E+02  0.11399405175E+03  0.67753986274E+03  0.12813066014E+04  0.10805200270E+04 0.  0.
        -13    1    3    3    0    0  0.37049454347E+03 -0.30281614899E+03 -0.45116042875E+03  0.65765459815E+03  0.10566000000E+00 0.  1.
         13    1    4    4    0    0 -0.27377630976E+03  0.50863410968E+03  0.32578884346E+03  0.66317456753E+03  0.10566000000E+00 0. -1.
          4    1    3    3  501    0 -0.41705814131E+03  0.18882209724E+03 -0.24915175792E+02  0.45848886968E+03  0.00000000000E+00 0.  1.
         -4    1    4    4    0  502  0.32033990760E+03 -0.39464005794E+03  0.35175101927E+03  0.61813203386E+03  0.00000000000E+00 0. -1.
</event>
<event>
 8    1  0.6759491E-006  0.1012936E+04  0.7818608E-02  0.8770820E-01
         21   -1    0    0  503  502  0.00000000000E+00  0.00000000000E+00  0.14865904338E+04  0.14865904338E+04  0.00000000000E+00 0.  1.
         21   -1    0    0  501  503 -0.00000000000E+00 -0.00000000000E+00 -0.76726962103E+03  0.76726962103E+03  0.00000000000E+00 0.  1.
    9000010    2    1    2  501    0  0.14414978062E+02  0.40670851050E+02  0.77366435735E+03  0.12745965494E+04  0.10120167568E+04 0.  0.
   -9000010    2    1    2    0  502 -0.14414978062E+02 -0.40670851050E+02 -0.54343544591E+02  0.97926350545E+03  0.97680186453E+03 0.  0.
        -13    1    3    3    0    0  0.89457489329E+02 -0.32775323532E+03 -0.73626476140E+02  0.34762867375E+03  0.10566000000E+00 0.  1.
         13    1    4    4    0    0  0.75108853244E+02 -0.39954594226E+03  0.26941305432E+03  0.48771067736E+03  0.10566000000E+00 0. -1.
          4    1    3    3  501    0 -0.75042511267E+02  0.36842408637E+03  0.84729083349E+03  0.92696787562E+03  0.00000000000E+00 0.  1.
         -4    1    4    4    0  502 -0.89523831306E+02  0.35887509121E+03 -0.32375659891E+03  0.49155282809E+03  0.00000000000E+00 0. -1.
</event>
<event>
 8    1  0.7333608E-006  0.9927926E+03  0.7818608E-02  0.8782810E-01
         21   -1    0    0  501  502  0.00000000000E+00  0.00000000000E+00  0.75494623860E+03  0.75494623860E+03  0.00000000000E+00 0.  1.
         21   -1    0    0  502  503 -0.00000000000E+00 -0.00000000000E+00 -0.14160794156E+04  0.14160794156E+04  0.00000000000E+00 0.  1.
    9000010    2    1    2  501    0  0.65012085294E+02  0.89857169078E+02 -0.15859861703E+02  0.98695861221E+03  0.98057885197E+03 0.  0.
   -9000010    2    1    2    0  503 -0.65012085294E+02 -0.89857169078E+02 -0.64527331527E+03  0.11840670420E+04  0.98657803867E+03 0.  0.
        -13    1    3    3    0    0  0.20626146820E+03 -0.17283682207E+03  0.39579282891E+03  0.47861083869E+03  0.10566000000E+00 0.  1.
         13    1    4    4    0    0 -0.39435991633E+03 -0.38422508318E+03 -0.33976757838E+03  0.64698583960E+03  0.10566000000E+00 0. -1.
          4    1    3    3  501    0 -0.14124938291E+03  0.26269399115E+03 -0.41165269061E+03  0.50834777352E+03  0.00000000000E+00 0.  1.
         -4    1    4    4    0  503  0.32934783104E+03  0.29436791410E+03 -0.30550573689E+03  0.53708120237E+03  0.00000000000E+00 0. -1.
</event>
<event>
 8    1  0.6759491E-006  0.1042368E+04  0.7818608E-02  0.8766462E-01
         21   -1    0    0  501  502  0.00000000000E+00  0.00000000000E+00  0.11946278783E+04  0.11946278783E+04  0.00000000000E+00 0.  1.
         21   -1    0    0  502  503 -0.00000000000E+00 -0.00000000000E+00 -0.95822615789E+03  0.95822615789E+03  0.00000000000E+00 0.  1.
    9000010    2    1    2  501    0  0.23389313136E+03 -0.16227405310E+03  0.55990004518E+03  0.11832241759E+04  0.10027425016E+04 0.  0.
   -9000010    2    1    2    0  503 -0.23389313136E+03  0.16227405310E+03 -0.32349832475E+03  0.96962986035E+03  0.86861500952E+03 0.  0.
        -13    1    3    3    0    0  0.10778539842E+03 -0.39940557279E+03 -0.13745905262E+03  0.43593291456E+03  0.10566000000E+00 0.  1.
         13    1    4    4    0    0 -0.29176792822E+03  0.45978078834E+03 -0.37639219725E+03  0.66196525178E+03  0.10566000000E+00 0. -1.
          4    1    3    3  501    0  0.12610773294E+03  0.23713151968E+03  0.69735909779E+03  0.74729126130E+03  0.00000000000E+00 0.  1.
         -4    1    4    4    0  503  0.57874796858E+02 -0.29750673523E+03  0.52893872491E+02  0.30766460857E+03  0.00000000000E+00 0. -1.
</event>
<event>
 8    1  0.6759491E-006  0.1053999E+04  0.7818608E-02  0.8731331E-01
         21   -1    0    0  503  502  0.00000000000E+00  0.00000000000E+00  0.96573969691E+03  0.96573969691E+03  0.00000000000E+00 0. -1.
         21   -1    0    0  501  503 -0.00000000000E+00 -0.00000000000E+00 -0.12629924574E+04  0.12629924574E+04  0.00000000000E+00 0. -1.
    9000010    2    1    2  501    0  0.15164544627E+03 -0.28688433748E+03 -0.51958600107E+03  0.11515383822E+04  0.97507541697E+03 0.  0.
   -9000010    2    1    2    0  502 -0.15164544627E+03  0.28688433748E+03  0.22233324055E+03  0.10771937721E+04  0.10028037636E+04 0.  0.
        -13    1    3    3    0    0  0.54401253099E+03 -0.30397573542E+02 -0.37332577035E+03  0.66048905239E+03  0.10566000000E+00 0.  1.
         13    1    4    4    0    0 -0.55010559952E+03  0.20706843201E+02  0.37538234545E+01  0.55050798934E+03  0.10566000000E+00 0. -1.
          4    1    3    3  501    0 -0.39236708472E+03 -0.25648676393E+03 -0.14626023072E+03  0.49104932984E+03  0.00000000000E+00 0.  1.
         -4    1    4    4    0  502  0.39846015325E+03  0.26617749428E+03  0.21857941710E+03  0.52668578276E+03  0.00000000000E+00 0. -1.
</event>
<event>
 8    1  0.6759491E-006  0.1033496E+04  0.7818608E-02  0.8765613E-01
         21   -1    0    0  501  502  0.00000000000E+00  0.00000000000E+00  0.11533847531E+04  0.11533847531E+04  0.00000000000E+00 0. -1.
         21   -1    0    0  502  503 -0.00000000000E+00 -0.00000000000E+00 -0.12117613292E+04  0.12117613292E+04  0.00000000000E+00 0. -1.
    9000010    2    1    2  501    0  0.15334125062E+03  0.12462565183E+03  0.61975866652E+03  0.12050791056E+04  0.10144307536E+04 0.  0.
   -9000010    2    1    2    0  503 -0.15334125062E+03 -0.12462565183E+03 -0.67813524266E+03  0.11600669767E+04  0.92024067010E+03 0.  0.
        -13    1    3    3    0    0  0.99872934623E+02 -0.17500833910E+03  0.81759923971E+03  0.84206356635E+03  0.10566000000E+00 0.  1.
         13    1    4    4    0    0 -0.52667572176E+03 -0.18581121578E+03 -0.34862941157E+03  0.65837345145E+03  0.10566000000E+00 0. -1.
          4    1    3    3  501    0  0.53468316001E+02  0.29963399093E+03 -0.19784057320E+03  0.36301553926E+03  0.00000000000E+00 0.  1.
         -4    1    4    4    0  503  0.37333447114E+03  0.61185563946E+02 -0.32950583109E+03  0.50169352527E+03  0.00000000000E+00 0. -1.
</event>
<event>
 8    1  0.6759491E-006  0.1008195E+04  0.7818608E-02  0.8769675E-01
         21   -1    0    0  501  502  0.00000000000E+00  0.00000000000E+00  0.12561084297E+04  0.12561084297E+04  0.00000000000E+00 0. -1.
         21   -1    0    0  502  503 -0.00000000000E+00 -0.00000000000E+00 -0.14068581831E+04  0.14068581831E+04  0.00000000000E+00 0. -1.
    9000010    2    1    2  501    0 -0.56842295726E+02  0.92223967871E+02  0.79948375145E+03  0.12775421604E+04  0.99055711397E+03 0.  0.
   -9000010    2    1    2    0  503  0.56842295726E+02 -0.92223967871E+02 -0.95023350489E+03  0.13854244523E+04  0.10023576669E+04 0.  0.
        -13    1    3    3    0    0 -0.25001752503E+03 -0.25449780037E+03  0.80509386395E+03  0.88059867939E+03  0.10566000000E+00 0.  1.
         13    1    4    4    0    0 -0.26993732103E+02  0.67901109892E+02  0.20422466617E+03  0.21690308374E+03  0.10566000000E+00 0. -1.
          4    1    3    3  501    0  0.19317522930E+03  0.34672176824E+03 -0.56101124983E+01  0.39694348105E+03  0.00000000000E+00 0.  1.
         -4    1    4    4    0  503  0.83836027829E+02 -0.16012507776E+03 -0.11544581711E+04  0.11685213686E+04  0.00000000000E+00 0. -1.
</event>
<event>
 8    1  0.6759491E-006  0.1045598E+04  0.7818608E-02  0.8732929E-01
         21   -1    0    0  501  502  0.00000000000E+00  0.00000000000E+00  0.33386203231E+03  0.33386203231E+03  0.00000000000E+00 0.  1.
         21   -1    0    0  502  503 -0.00000000000E+00 -0.00000000000E+00 -0.33388833567E+04  0.33388833567E+04  0.00000000000E+00 0.  1.
    9000010    2    1    2  501    0  0.15092567841E+03  0.26514160715E+03 -0.12465457247E+04  0.16268931340E+04  0.99991319295E+03 0.  0.
   -9000010    2    1    2    0  503 -0.15092567841E+03 -0.26514160715E+03 -0.17584755997E+04  0.20458522550E+04  0.10000981864E+04 0.  0.
        -13    1    3    3    0    0  0.24159256243E+03 -0.17484352698E+03  0.38500703274E+01  0.29824831828E+03  0.10566000000E+00 0.  1.
         13    1    4    4    0    0  0.85222019119E+02 -0.48789121253E+03 -0.16180492843E+04  0.16921536944E+04  0.10566000000E+00 0. -1.
          4    1    3    3  501    0 -0.90666884024E+02  0.43998513413E+03 -0.12503957950E+04  0.13286448157E+04  0.00000000000E+00 0.  1.
         -4    1    4    4    0  503 -0.23614769752E+03  0.22274960538E+03 -0.14042631540E+03  0.35369856064E+03  0.00000000000E+00 0. -1.
</event>
<event>
 8    1  0.6759491E-006  0.1082047E+04  0.7818608E-02  0.8712655E-01
         21   -1    0    0  503  502  0.00000000000E+00  0.00000000000E+00  0.66564978940E+03  0.66564978940E+03  0.00000000000E+00 0. -1.
         21   -1    0    0  501  503 -0.00000000000E+00 -0.00000000000E+00 -0.19947873725E+04  0.19947873725E+04  0.00000000000E+00 0. -1.
    9000010    2    1    2  501    0  0.19137285891E+03  0.18404956030E+03 -0.12115374373E+04  0.16243918979E+04  0.10489653304E+04 0.  0.
   -9000010    2    1    2    0  502 -0.19137285891E+03 -0.18404956030E+03 -0.11760014579E+03  0.10360452639E+04  0.99451605461E+03 0.  0.
        -13    1    3    3    0    0 -0.40938651042E+03 -0.59713406579E+02 -0.62858417665E+03  0.75251650091E+03  0.10566000000E+00 0.  1.
         13    1    4    4    0    0  0.28514609390E+03 -0.38371096154E+03 -0.18981410253E+03  0.51436543581E+03  0.10566000000E+00 0. -1.
          4    1    3    3  501    0  0.60075936933E+03  0.24376296688E+03 -0.58295326062E+03  0.87187539702E+03  0.00000000000E+00 0.  1.
         -4    1    4    4    0  502 -0.47651895281E+03  0.19966140124E+03  0.72213956735E+02  0.52167982813E+03  0.00000000000E+00 0. -1.
</event>
<event>
 8    1  0.6759491E-006  0.1106352E+04  0.7818608E-02  0.8681687E-01
         21   -1    0    0  503  502  0.00000000000E+00  0.00000000000E+00  0.17346624405E+04  0.17346624405E+04  0.00000000000E+00 0. -1.
         21   -1    0    0  501  503 -0.00000000000E+00 -0.00000000000E+00 -0.85164241222E+03  0.85164241222E+03  0.00000000000E+00 0. -1.
    9000010    2    1    2  501    0  0.46567381262E+03 -0.11539437429E+03 -0.99018470765E+02  0.11107741526E+04  0.99691855196E+03 0.  0.
   -9000010    2    1    2    0  502 -0.46567381262E+03  0.11539437429E+03  0.98203849903E+03  0.14755307001E+04  0.99127356055E+03 0.  0.
        -13    1    3    3    0    0 -0.92402475337E+01  0.40221471583E+03 -0.64493715175E+02  0.40745737233E+03  0.10566000000E+00 0.  1.
         13    1    4    4    0    0 -0.43803592394E+03  0.51003316031E+03  0.43626393538E+03  0.80145837556E+03  0.10566000000E+00 0. -1.
          4    1    3    3  501    0  0.47491406015E+03 -0.51760909013E+03 -0.34524755589E+02  0.70331678031E+03  0.00000000000E+00 0.  1.
         -4    1    4    4    0  502 -0.27637888681E+02 -0.39463878602E+03  0.54577456365E+03  0.67407232450E+03  0.00000000000E+00 0. -1.
</event>
<event>
 8    1  0.6759491E-006  0.1350221E+04  0.7818608E-02  0.8501480E-01
         21   -1    0    0  501  502  0.00000000000E+00  0.00000000000E+00  0.20658974972E+04  0.20658974972E+04  0.00000000000E+00 0.  1.
         21   -1    0    0  502  503 -0.00000000000E+00 -0.00000000000E+00 -0.11496995473E+04  0.11496995473E+04  0.00000000000E+00 0.  1.
    9000010    2    1    2  501    0  0.20597749304E+02 -0.90372054599E+03 -0.31800469975E+03  0.13871641216E+04  0.10029766790E+04 0.  0.
   -9000010    2    1    2    0  503 -0.20597749304E+02  0.90372054599E+03  0.12342026497E+04  0.18284329229E+04  0.10013868786E+04 0.  0.
        -13    1    3    3    0    0  0.45555976649E+03 -0.76914423701E+03 -0.23563534075E+03  0.92446827049E+03  0.10566000000E+00 0.  1.
         13    1    4    4    0    0  0.19587757788E+03  0.34299441798E+03  0.11568405822E+04  0.12224129172E+04  0.10566000000E+00 0. -1.
          4    1    3    3  501    0 -0.43496201719E+03 -0.13457630898E+03 -0.82369358997E+02  0.46269585111E+03  0.00000000000E+00 0.  1.
         -4    1    4    4    0  503 -0.21647532718E+03  0.56072612800E+03  0.77362067489E+02  0.60602000577E+03  0.00000000000E+00 0. -1.
</event>
<event>
 8    1  0.6759491E-006  0.1035522E+04  0.7818608E-02  0.8747044E-01
         21   -1    0    0  503  502  0.00000000000E+00  0.00000000000E+00  0.14428257173E+04  0.14428257173E+04  0.00000000000E+00 0.  1.
         21   -1    0    0  501  503 -0.00000000000E+00 -0.00000000000E+00 -0.82920694517E+03  0.82920694517E+03  0.00000000000E+00 0.  1.
    9000010    2    1    2  501    0  0.39241862294E+02 -0.18070765275E+03  0.70834197457E+03  0.12546132477E+04  0.10188772589E+04 0.  0.
   -9000010    2    1    2    0  502 -0.39241862294E+02  0.18070765275E+03 -0.94723202406E+02  0.10174194149E+04  0.99597921723E+03 0.  0.
        -13    1    3    3    0    0 -0.17037200799E+03 -0.56621546299E+03  0.46944844999E+03  0.75498902641E+03  0.10566000000E+00 0.  1.
         13    1    4    4    0    0 -0.21167191868E+03 -0.68271665046E+02 -0.47901561749E+03  0.52813066032E+03  0.10566000000E+00 0. -1.
          4    1    3    3  501    0  0.20961387028E+03  0.38550781024E+03  0.23889352458E+03  0.49962422124E+03  0.00000000000E+00 0.  1.
         -4    1    4    4    0  502  0.17243005639E+03  0.24897931780E+03  0.38429241508E+03  0.48928875455E+03  0.00000000000E+00 0. -1.
</event>
<event>
 8    1  0.6759491E-006  0.1065577E+04  0.7818608E-02  0.8719352E-01
         21   -1    0    0  501  502  0.00000000000E+00  0.00000000000E+00  0.61885478324E+03  0.61885478324E+03  0.00000000000E+00 0.  1.
         21   -1    0    0  502  503 -0.00000000000E+00 -0.00000000000E+00 -0.21989416466E+04  0.21989416466E+04  0.00000000000E+00 0.  1.
    9000010    2    1    2  501    0 -0.13719078224E+03 -0.32448006731E+03 -0.19798277704E+03  0.10838133816E+04  0.10056568209E+04 0.  0.
   -9000010    2    1    2    0  503  0.13719078224E+03  0.32448006731E+03 -0.13821040863E+04  0.17339830482E+04  0.98609172051E+03 0.  0.
        -13    1    3    3    0    0  0.26320141187E+03 -0.19716732983E+03  0.29099794793E+03  0.43912385044E+03  0.10566000000E+00 0.  1.
         13    1    4    4    0    0  0.32815285908E+03  0.45761079400E+03 -0.32210732564E+03  0.64872573411E+03  0.10566000000E+00 0. -1.
          4    1    3    3  501    0 -0.40039219411E+03 -0.12731273748E+03 -0.48898072497E+03  0.64468953119E+03  0.00000000000E+00 0.  1.
         -4    1    4    4    0  503 -0.19096207684E+03 -0.13313072669E+03 -0.10599967606E+04  0.10852573141E+04  0.00000000000E+00 0. -1.
</event>
<event>
 8    1  0.6759491E-006  0.1102960E+04  0.7818608E-02  0.8684770E-01
         21   -1    0    0  503  502  0.00000000000E+00  0.00000000000E+00  0.22353998749E+04  0.22353998749E+04  0.00000000000E+00 0.  1.
         21   -1    0    0  501  503 -0.00000000000E+00 -0.00000000000E+00 -0.70128520509E+03  0.70128520509E+03  0.00000000000E+00 0.  1.
    9000010    2    1    2  501    0 -0.88747321719E+02  0.45379127063E+03  0.67002213924E+02  0.11049934256E+04  0.10013583622E+04 0.  0.
   -9000010    2    1    2    0  502  0.88747321719E+02 -0.45379127063E+03  0.14671124559E+04  0.18316916544E+04  0.99442081345E+03 0.  0.
        -13    1    3    3    0    0 -0.36063658052E+03  0.57028911941E+03 -0.20286706064E+03  0.70458745261E+03  0.10566000000E+00 0.  1.
         13    1    4    4    0    0 -0.30231333547E+03 -0.52000096739E+03  0.12310332589E+04  0.13701230801E+04  0.10566000000E+00 0. -1.
          4    1    3    3  501    0  0.27188925880E+03 -0.11649784877E+03  0.26986927456E+03  0.40040597295E+03  0.00000000000E+00 0.  1.
         -4    1    4    4    0  502  0.39106065719E+03  0.66209696762E+02  0.23607919694E+03  0.46156857429E+03  0.00000000000E+00 0. -1.
</event>
<event>
 8    1  0.6759491E-006  0.1085821E+04  0.7818608E-02  0.8700026E-01
         21   -1    0    0  503  502  0.00000000000E+00  0.00000000000E+00  0.10655300669E+04  0.10655300669E+04  0.00000000000E+00 0. -1.
         21   -1    0    0  501  503 -0.00000000000E+00 -0.00000000000E+00 -0.13529684128E+04  0.13529684128E+04  0.00000000000E+00 0. -1.
    9000010    2    1    2  501    0  0.13046989399E+03  0.39630065268E+03 -0.67091638587E+03  0.12763757333E+04  0.10024617774E+04 0.  0.
   -9000010    2    1    2    0  502 -0.13046989399E+03 -0.39630065268E+03  0.38347803998E+03  0.11421227463E+04  0.99162107680E+03 0.  0.
        -13    1    3    3    0    0 -0.16238182181E+02  0.49698584179E+03  0.80900860813E+02  0.50378920784E+03  0.10566000000E+00 0.  1.
         13    1    4    4    0    0 -0.21830573748E+02 -0.60802558955E+03 -0.87269746357E+02  0.61464437791E+03  0.10566000000E+00 0. -1.
          4    1    3    3  501    0  0.14670807617E+03 -0.10068518910E+03 -0.75181724668E+03  0.77258652546E+03  0.00000000000E+00 0.  1.
         -4    1    4    4    0  502 -0.10863932024E+03  0.21172493687E+03  0.47074778634E+03  0.52747836841E+03  0.00000000000E+00 0. -1.
</event>
<event>
 8    1  0.6759491E-006  0.1137324E+04  0.7818608E-02  0.8661988E-01
         21   -1    0    0  503  502  0.00000000000E+00  0.00000000000E+00  0.72537010601E+03  0.72537010601E+03  0.00000000000E+00 0. -1.
         21   -1    0    0  501  503 -0.00000000000E+00 -0.00000000000E+00 -0.19530892124E+04  0.19530892124E+04  0.00000000000E+00 0. -1.
    9000010    2    1    2  501    0  0.18715972970E+03  0.45774074713E+03 -0.10561308151E+04  0.15282646671E+04  0.98773743373E+03 0.  0.
   -9000010    2    1    2    0  502 -0.18715972970E+03 -0.45774074713E+03 -0.17158829125E+03  0.11501946513E+04  0.10241825219E+04 0.  0.
        -13    1    3    3    0    0  0.21193911978E+03  0.75884254014E+03 -0.86848029115E+03  0.11726117083E+04  0.10566000000E+00 0.  1.
         13    1    4    4    0    0 -0.44501616769E+03 -0.35144503985E+03 -0.47380510818E+03  0.73894810186E+03  0.10566000000E+00 0. -1.
          4    1    3    3  501    0 -0.24779390081E+02 -0.30110179301E+03 -0.18765052399E+03  0.35565295877E+03  0.00000000000E+00 0.  1.
         -4    1    4    4    0  502  0.25785643799E+03 -0.10629570728E+03  0.30221681693E+03  0.41124654945E+03  0.00000000000E+00 0. -1.
</event>
<event>
 8    1  0.6759491E-006  0.1002000E+04  0.7818608E-02  0.8775676E-01
         21   -1    0    0  501  502  0.00000000000E+00  0.00000000000E+00  0.16612499305E+04  0.16612499305E+04  0.00000000000E+00 0. -1.
         21   -1    0    0  502  503 -0.00000000000E+00 -0.00000000000E+00 -0.59693417343E+03  0.59693417343E+03  0.00000000000E+00 0. -1.
    9000010    2    1    2  501    0 -0.58871154815E+02  0.19003366696E+03  0.55123586673E+03  0.11436192920E+04  0.98205167731E+03 0.  0.
   -9000010    2    1    2    0  503  0.58871154815E+02 -0.19003366696E+03  0.51307989039E+03  0.11145648119E+04  0.96923946404E+03 0.  0.
        -13    1    3    3    0    0 -0.16022553166E+03  0.51718900934E+03  0.58781402269E+03  0.79917584349E+03  0.10566000000E+00 0.  1.
         13    1    4    4    0    0  0.47666050110E+03 -0.17422022636E+03  0.82074831543E+02  0.51409552587E+03  0.10566000000E+00 0. -1.
          4    1    3    3  501    0  0.10135437685E+03 -0.32715534238E+03 -0.36578155968E+02  0.34444344855E+03  0.00000000000E+00 0.  1.
         -4    1    4    4    0  503 -0.41778934628E+03 -0.15813440600E+02  0.43100505884E+03  0.60046928608E+03  0.00000000000E+00 0. -1.
</event>
<event>
 8    1  0.6759491E-006  0.1023149E+04  0.7818608E-02  0.8756784E-01
         21   -1    0    0  503  502  0.00000000000E+00  0.00000000000E+00  0.11897186155E+04  0.11897186155E+04  0.00000000000E+00 0.  1.
         21   -1    0    0  501  503 -0.00000000000E+00 -0.00000000000E+00 -0.86860029149E+03  0.86860029149E+03  0.00000000000E+00 0.  1.
    9000010    2    1    2  501    0 -0.14910749361E+03 -0.25693909584E+02  0.10943275949E+03  0.10289846231E+04  0.10118995030E+04 0.  0.
   -9000010    2    1    2    0  502  0.14910749361E+03  0.25693909584E+02  0.21168556456E+03  0.10293342839E+04  0.99590414606E+03 0.  0.
        -13    1    3    3    0    0  0.28371995055E+03  0.90035770713E+02 -0.29959264479E+03  0.42232595744E+03  0.10566000000E+00 0.  1.
         13    1    4    4    0    0 -0.25032993149E+03 -0.25074931605E+03 -0.18724558778E+03  0.40075081461E+03  0.10566000000E+00 0. -1.
          4    1    3    3  501    0 -0.43282744416E+03 -0.11572968030E+03  0.40902540429E+03  0.60665866570E+03  0.00000000000E+00 0.  1.
         -4    1    4    4    0  502  0.39943742510E+03  0.27644322563E+03  0.39893115234E+03  0.62858346930E+03  0.00000000000E+00 0. -1.
</event>
<event>
 8    1  0.6759491E-006  0.1071918E+04  0.7818608E-02  0.8714233E-01
         21   -1    0    0  503  502  0.00000000000E+00  0.00000000000E+00  0.12784622115E+04  0.12784622115E+04  0.00000000000E+00 0.  1.
         21   -1    0    0  501  503 -0.00000000000E+00 -0.00000000000E+00 -0.17822563923E+04  0.17822563923E+04  0.00000000000E+00 0.  1.
    9000010    2    1    2  501    0 -0.28301302374E+03  0.25045677544E+03 -0.13408353617E+04  0.17166382815E+04  0.10030865139E+04 0.  0.
   -9000010    2    1    2    0  502  0.28301302374E+03 -0.25045677544E+03  0.83704118089E+03  0.13440803224E+04  0.98137098312E+03 0.  0.
        -13    1    3    3    0    0  0.11030334015E+03  0.54247223127E+03 -0.90538289838E+03  0.10612074031E+04  0.10566000000E+00 0.  1.
         13    1    4    4    0    0 -0.28092119319E+03  0.73849589826E+02  0.83970779309E+01  0.29058733761E+03  0.10566000000E+00 0. -1.
          4    1    3    3  501    0 -0.39331636389E+03 -0.29201545583E+03 -0.43545246329E+03  0.65543087837E+03  0.00000000000E+00 0.  1.
         -4    1    4    4    0  502  0.56393421692E+03 -0.32430636527E+03  0.82864410296E+03  0.10534929848E+04  0.00000000000E+00 0. -1.
</event>
<event>
 8    1  0.6759491E-006  0.1014796E+04  0.7818608E-02  0.8767183E-01
         21   -1    0    0  503  502  0.00000000000E+00  0.00000000000E+00  0.71996975425E+03  0.71996975425E+03  0.00000000000E+00 0. -1.
         21   -1    0    0  501  503 -0.00000000000E+00 -0.00000000000E+00 -0.14225467445E+04  0.14225467445E+04  0.00000000000E+00 0. -1.
    9000010    2    1    2  501    0  0.56492248280E+02 -0.52804075424E+02 -0.50293291419E+03  0.11082688114E+04  0.98454994673E+03 0.  0.
   -9000010    2    1    2    0  502 -0.56492248280E+02  0.52804075424E+02 -0.19964407604E+03  0.10342476874E+04  0.10118452832E+04 0.  0.
        -13    1    3    3    0    0 -0.16904423546E+03 -0.76510864430E+01 -0.75108582186E+03  0.76991195317E+03  0.10566000000E+00 0.  1.
         13    1    4    4    0    0 -0.34788752815E+03  0.36583369682E+02  0.29654849399E+03  0.45859033530E+03  0.10566000000E+00 0. -1.
          4    1    3    3  501    0  0.22553648374E+03 -0.45152988981E+02  0.24815290767E+03  0.33835685821E+03  0.00000000000E+00 0.  1.
         -4    1    4    4    0  502  0.29139527987E+03  0.16220705742E+02 -0.49619257003E+03  0.57565735206E+03  0.00000000000E+00 0. -1.
</event>
<event>
 8    1  0.6759491E-006  0.1098377E+04  0.7818608E-02  0.8692809E-01
         21   -1    0    0  503  502  0.00000000000E+00  0.00000000000E+00  0.47692207115E+03  0.47692207115E+03  0.00000000000E+00 0. -1.
         21   -1    0    0  501  503 -0.00000000000E+00 -0.00000000000E+00 -0.28289356188E+04  0.28289356188E+04  0.00000000000E+00 0. -1.
    9000010    2    1    2  501    0 -0.21957151583E+03  0.37614428782E+03 -0.17770002830E+04  0.20890577668E+04  0.10083333632E+04 0.  0.
   -9000010    2    1    2    0  502  0.21957151583E+03 -0.37614428782E+03 -0.57501326468E+03  0.12167999232E+04  0.97993143775E+03 0.  0.
        -13    1    3    3    0    0  0.18621228633E+03 -0.24083647268E+03 -0.25402580903E+03  0.39649255348E+03  0.10566000000E+00 0.  1.
         13    1    4    4    0    0  0.39907654720E+03  0.84128139271E+02  0.60004187820E+02  0.41223797504E+03  0.10566000000E+00 0. -1.
          4    1    3    3  501    0 -0.40578380216E+03  0.61698076050E+03 -0.15229744739E+04  0.16925652133E+04  0.00000000000E+00 0.  1.
         -4    1    4    4    0  502 -0.17950503137E+03 -0.46027242709E+03 -0.63501745250E+03  0.80456194815E+03  0.00000000000E+00 0. -1.
</event>
<event>
 8    1  0.6759491E-006  0.1015851E+04  0.7818608E-02  0.8764054E-01
         21   -1    0    0  503  502  0.00000000000E+00  0.00000000000E+00  0.10873905721E+04  0.10873905721E+04  0.00000000000E+00 0.  1.
         21   -1    0    0  501  503 -0.00000000000E+00 -0.00000000000E+00 -0.11693179779E+04  0.11693179779E+04  0.00000000000E+00 0.  1.
    9000010    2    1    2  501    0 -0.93832905821E+02  0.12352845989E+03  0.46687275308E+03  0.11179997256E+04  0.10039369125E+04 0.  0.
   -9000010    2    1    2    0  502  0.93832905821E+02 -0.12352845989E+03 -0.54880015891E+03  0.11387088244E+04  0.98560249474E+03 0.  0.
        -13    1    3    3    0    0  0.26137043723E+03 -0.30303689215E+03  0.38788538458E+03  0.55731584061E+03  0.10566000000E+00 0.  1.
         13    1    4    4    0    0 -0.15761314583E+03 -0.19137656922E+03 -0.76251468646E+03  0.80180767845E+03  0.10566000000E+00 0. -1.
          4    1    3    3  501    0 -0.35520334305E+03  0.42656535205E+03  0.78987368498E+02  0.56068388497E+03  0.00000000000E+00 0.  1.
         -4    1    4    4    0  502  0.25144605165E+03  0.67848109328E+02  0.21371452755E+03  0.33690114591E+03  0.00000000000E+00 0. -1.
</event>
<event>
 8    1  0.6759491E-006  0.1076614E+04  0.7818608E-02  0.8706892E-01
         21   -1    0    0  501  502  0.00000000000E+00  0.00000000000E+00  0.12364107423E+04  0.12364107423E+04  0.00000000000E+00 0. -1.
         21   -1    0    0  502  503 -0.00000000000E+00 -0.00000000000E+00 -0.11544814071E+04  0.11544814071E+04  0.00000000000E+00 0. -1.
    9000010    2    1    2  501    0  0.80367953788E+02 -0.41012552040E+03  0.56477218756E+03  0.12157569078E+04  0.99218712176E+03 0.  0.
   -9000010    2    1    2    0  503 -0.80367953788E+02  0.41012552040E+03 -0.48284285240E+03  0.11751352416E+04  0.98648044348E+03 0.  0.
        -13    1    3    3    0    0 -0.18260125258E+03 -0.66503281615E+03  0.47880863068E+03  0.83956511360E+03  0.10566000000E+00 0.  1.
         13    1    4    4    0    0  0.15168501852E+03 -0.28563810269E+03 -0.23928506206E+03  0.40231184750E+03  0.10566000000E+00 0. -1.
          4    1    3    3  501    0  0.26296920637E+03  0.25490729575E+03  0.85963556880E+02  0.37619179422E+03  0.00000000000E+00 0.  1.
         -4    1    4    4    0  503 -0.23205297231E+03  0.69576362309E+03 -0.24355779034E+03  0.77282339406E+03  0.00000000000E+00 0. -1.
</event>
<event>
 8    1  0.6759491E-006  0.1118597E+04  0.7818608E-02  0.8688432E-01
         21   -1    0    0  501  502  0.00000000000E+00  0.00000000000E+00  0.11959998655E+04  0.11959998655E+04  0.00000000000E+00 0.  1.
         21   -1    0    0  502  503 -0.00000000000E+00 -0.00000000000E+00 -0.98986701826E+03  0.98986701826E+03  0.00000000000E+00 0.  1.
    9000010    2    1    2  501    0 -0.16937531931E+03  0.18542403324E+03 -0.50702364826E+02  0.11197458219E+04  0.10900412400E+04 0.  0.
   -9000010    2    1    2    0  503  0.16937531931E+03 -0.18542403324E+03  0.25683521203E+03  0.10661210618E+04  0.10037827063E+04 0.  0.
        -13    1    3    3    0    0 -0.54890522987E+03  0.37610937113E+03  0.91881537676E+02  0.67171231830E+03  0.10566000000E+00 0.  1.
         13    1    4    4    0    0 -0.20699718819E+03  0.24684108432E+02 -0.29790422714E+03  0.36359879103E+03  0.10566000000E+00 0. -1.
          4    1    3    3  501    0  0.37952991056E+03 -0.19068533789E+03 -0.14258390250E+03  0.44803350360E+03  0.00000000000E+00 0.  1.
         -4    1    4    4    0  503  0.37637250750E+03 -0.21010814167E+03  0.55473943917E+03  0.70252227080E+03  0.00000000000E+00 0. -1.
</event>
<event>
 8    1  0.6759491E-006  0.1013712E+04  0.7818608E-02  0.8763397E-01
         21   -1    0    0  501  502  0.00000000000E+00  0.00000000000E+00  0.84210132791E+03  0.84210132791E+03  0.00000000000E+00 0.  1.
         21   -1    0    0  502  503 -0.00000000000E+00 -0.00000000000E+00 -0.12418232843E+04  0.12418232843E+04  0.00000000000E+00 0.  1.
    9000010    2    1    2  501    0 -0.80767049726E+02 -0.15145363665E+03 -0.37964560324E+02  0.10075970921E+04  0.99214367502E+03 0.  0.
   -9000010    2    1    2    0  503  0.80767049726E+02  0.15145363665E+03 -0.36175739606E+03  0.10763275201E+04  0.99907507050E+03 0.  0.
        -13    1    3    3    0    0  0.38163514614E+03  0.14246430157E+03  0.14120410353E+03  0.43113811246E+03  0.10566000000E+00 0.  1.
         13    1    4    4    0    0 -0.33590416693E+03  0.38057169872E+03 -0.55283645753E+02  0.51061014471E+03  0.10566000000E+00 0. -1.
          4    1    3    3  501    0 -0.46240219587E+03 -0.29391793822E+03 -0.17916866385E+03  0.57645897969E+03  0.00000000000E+00 0.  1.
         -4    1    4    4    0  503  0.41667121666E+03 -0.22911806207E+03 -0.30647375031E+03  0.56571737536E+03  0.00000000000E+00 0. -1.
</event>
<event>
 8    1  0.6759491E-006  0.9707572E+03  0.7818608E-02  0.8806005E-01
         21   -1    0    0  503  502  0.00000000000E+00  0.00000000000E+00  0.47809090447E+03  0.47809090447E+03  0.00000000000E+00 0. -1.
         21   -1    0    0  501  503 -0.00000000000E+00 -0.00000000000E+00 -0.19853459225E+04  0.19853459225E+04  0.00000000000E+00 0. -1.
    9000010    2    1    2  501    0 -0.21814106631E+02  0.25891926765E+02 -0.92872410697E+03  0.13333626542E+04  0.95612826205E+03 0.  0.
   -9000010    2    1    2    0  502  0.21814106631E+02 -0.25891926765E+02 -0.57853091105E+03  0.11300741728E+04  0.97016667325E+03 0.  0.
        -13    1    3    3    0    0  0.25570180229E+03  0.40146725830E+03 -0.58133909097E+03  0.75134181371E+03  0.10566000000E+00 0.  1.
         13    1    4    4    0    0  0.44419316055E+03 -0.54544795092E+02 -0.54528531014E+03  0.70542099428E+03  0.10566000000E+00 0. -1.
          4    1    3    3  501    0 -0.27751590892E+03 -0.37557533153E+03 -0.34738501600E+03  0.58202084044E+03  0.00000000000E+00 0.  1.
         -4    1    4    4    0  502 -0.42237905392E+03  0.28652868327E+02 -0.33245600913E+02  0.42465317853E+03  0.00000000000E+00 0. -1.
</event>
<event>
 8    1  0.6759491E-006  0.1041289E+04  0.7818608E-02  0.8740278E-01
         21   -1    0    0  503  502  0.00000000000E+00  0.00000000000E+00  0.15408707991E+04  0.15408707991E+04  0.00000000000E+00 0. -1.
         21   -1    0    0  501  503 -0.00000000000E+00 -0.00000000000E+00 -0.84796352959E+03  0.84796352959E+03  0.00000000000E+00 0. -1.
    9000010    2    1    2  501    0  0.85606943060E+02 -0.23754235749E+03 -0.16181100294E+03  0.10537865012E+04  0.10102119922E+04 0.  0.
   -9000010    2    1    2    0  502 -0.85606943060E+02  0.23754235749E+03  0.85471827244E+03  0.13350478275E+04  0.99400928371E+03 0.  0.
        -13    1    3    3    0    0 -0.26531905602E+03 -0.46016984940E+03  0.12892269863E+03  0.54660000473E+03  0.10566000000E+00 0.  1.
         13    1    4    4    0    0 -0.10689289955E+03  0.54360831555E+03  0.16166832944E+03  0.57712455555E+03  0.10566000000E+00 0. -1.
          4    1    3    3  501    0  0.35092599908E+03  0.22262749191E+03 -0.29073370157E+03  0.50718649648E+03  0.00000000000E+00 0.  1.
         -4    1    4    4    0  502  0.21285956486E+02 -0.30606595806E+03  0.69304994300E+03  0.75792327192E+03  0.00000000000E+00 0. -1.
</event>
<event>
 8    1  0.6759491E-006  0.1046094E+04  0.7818608E-02  0.8738837E-01
         21   -1    0    0  503  502  0.00000000000E+00  0.00000000000E+00  0.64787575854E+03  0.64787575854E+03  0.00000000000E+00 0. -1.
         21   -1    0    0  501  503 -0.00000000000E+00 -0.00000000000E+00 -0.17368157429E+04  0.17368157429E+04  0.00000000000E+00 0. -1.
    9000010    2    1    2  501    0 -0.15913067726E+03  0.19842560796E+03 -0.82763124924E+03  0.13338991841E+04  0.10147010665E+04 0.  0.
   -9000010    2    1    2    0  502  0.15913067726E+03 -0.19842560796E+03 -0.26130873513E+03  0.10507923174E+04  0.98548817589E+03 0.  0.
        -13    1    3    3    0    0  0.30181140721E+03 -0.40213125896E+02 -0.74951698990E+03  0.80900120539E+03  0.10566000000E+00 0.  1.
         13    1    4    4    0    0 -0.37156118289E+02  0.28521375617E+03  0.20313148994E+03  0.35212196353E+03  0.10566000000E+00 0. -1.
          4    1    3    3  501    0 -0.46094208447E+03  0.23863873385E+03 -0.78114259347E+02  0.52489797870E+03  0.00000000000E+00 0.  1.
         -4    1    4    4    0  502  0.19628679555E+03 -0.48363936412E+03 -0.46444022508E+03  0.69867035382E+03  0.00000000000E+00 0. -1.
</event>
<event>
 8    1  0.6759491E-006  0.1021083E+04  0.7818608E-02  0.8765568E-01
         21   -1    0    0  503  502  0.00000000000E+00  0.00000000000E+00  0.87869981411E+03  0.87869981411E+03  0.00000000000E+00 0.  1.
         21   -1    0    0  501  503 -0.00000000000E+00 -0.00000000000E+00 -0.13547264884E+04  0.13547264884E+04  0.00000000000E+00 0.  1.
    9000010    2    1    2  501    0  0.14438072571E+03  0.75594579901E+02 -0.69224007751E+03  0.12336156194E+04  0.10079934707E+04 0.  0.
   -9000010    2    1    2    0  502 -0.14438072571E+03 -0.75594579901E+02  0.21621340319E+03  0.99981068317E+03  0.96245146994E+03 0.  0.
        -13    1    3    3    0    0  0.50724665084E+03  0.11832990917E+03 -0.69464311177E+03  0.86823395239E+03  0.10566000000E+00 0.  1.
         13    1    4    4    0    0  0.58318009580E+02  0.17499369759E+03  0.52316241134E+03  0.55472759463E+03  0.10566000000E+00 0. -1.
          4    1    3    3  501    0 -0.36286592513E+03 -0.42735329267E+02  0.24030342656E+01  0.36538166697E+03  0.00000000000E+00 0.  1.
         -4    1    4    4    0  502 -0.20269873529E+03 -0.25058827749E+03 -0.30694900815E+03  0.44508308854E+03  0.00000000000E+00 0. -1.
</event>
<event>
 8    1  0.6759491E-006  0.1091591E+04  0.7818608E-02  0.8694331E-01
         21   -1    0    0  503  502  0.00000000000E+00  0.00000000000E+00  0.94079174358E+03  0.94079174358E+03  0.00000000000E+00 0. -1.
         21   -1    0    0  501  503 -0.00000000000E+00 -0.00000000000E+00 -0.13833315065E+04  0.13833315065E+04  0.00000000000E+00 0. -1.
    9000010    2    1    2  501    0  0.14010807257E+03  0.43650920798E+03  0.12730784243E+03  0.10927432544E+04  0.98372250791E+03 0.  0.
   -9000010    2    1    2    0  502 -0.14010807257E+03 -0.43650920798E+03 -0.56984760535E+03  0.12313799957E+04  0.99065626727E+03 0.  0.
        -13    1    3    3    0    0  0.61585879569E+02  0.23852394653E+03  0.55927249199E+03  0.61112373959E+03  0.10566000000E+00 0.  1.
         13    1    4    4    0    0  0.37288858815E+02 -0.54475251723E+03 -0.76927203482E+03  0.94335848899E+03  0.10566000000E+00 0. -1.
          4    1    3    3  501    0  0.78522193006E+02  0.19798526144E+03 -0.43196464956E+03  0.48161951477E+03  0.00000000000E+00 0.  1.
         -4    1    4    4    0  502 -0.17739693139E+03  0.10824330925E+03  0.19942442948E+03  0.28802150673E+03  0.00000000000E+00 0. -1.
</event>
<event>
 8    1  0.6759491E-006  0.1056892E+04  0.7818608E-02  0.8750329E-01
         21   -1    0    0  503  502  0.00000000000E+00  0.00000000000E+00  0.13396124970E+04  0.13396124970E+04  0.00000000000E+00 0. -1.
         21   -1    0    0  501  503 -0.00000000000E+00 -0.00000000000E+00 -0.82813096538E+03  0.82813096538E+03  0.00000000000E+00 0. -1.
    9000010    2    1    2  501    0  0.45346225133E+02  0.18719906216E+03 -0.76136538893E+02  0.10596311914E+04  0.10391928215E+04 0.  0.
   -9000010    2    1    2    0  502 -0.45346225133E+02 -0.18719906216E+03  0.58761807049E+03  0.11081122709E+04  0.91952054856E+03 0.  0.
        -13    1    3    3    0    0  0.18306787096E+03  0.13639614188E+03  0.45474280758E+03  0.50883080204E+03  0.10566000000E+00 0.  1.
         13    1    4    4    0    0  0.17705616575E+03 -0.30619975670E+03  0.73520905845E+03  0.81586735909E+03  0.10566000000E+00 0. -1.
          4    1    3    3  501    0 -0.13772164582E+03  0.50802920281E+02 -0.53087934647E+03  0.55080038939E+03  0.00000000000E+00 0.  1.
         -4    1    4    4    0  502 -0.22240239089E+03  0.11900069454E+03 -0.14759098796E+03  0.29224491185E+03  0.00000000000E+00 0. -1.
</event>
<event>
 8    1  0.6759491E-006  0.1142038E+04  0.7818608E-02  0.8653035E-01
         21   -1    0    0  501  502  0.00000000000E+00  0.00000000000E+00  0.64620286912E+03  0.64620286912E+03  0.00000000000E+00 0. -1.
         21   -1    0    0  502  503 -0.00000000000E+00 -0.00000000000E+00 -0.23650080758E+04  0.23650080758E+04  0.00000000000E+00 0. -1.
    9000010    2    1    2  501    0  0.52616250204E+03  0.11395242471E+03 -0.27449109246E+03  0.11745625603E+04  0.10071840520E+04 0.  0.
   -9000010    2    1    2    0  503 -0.52616250204E+03 -0.11395242471E+03 -0.14443141142E+04  0.18366483846E+04  0.99870010244E+03 0.  0.
        -13    1    3    3    0    0  0.43855715690E+03 -0.29037142498E+03 -0.48049296816E+03  0.71240539577E+03  0.10566000000E+00 0.  1.
         13    1    4    4    0    0 -0.43555159649E+03  0.30149939592E+03 -0.12719067213E+04  0.13778076055E+04  0.10566000000E+00 0. -1.
          4    1    3    3  501    0  0.87605345139E+02  0.40432384969E+03  0.20600187570E+03  0.46215716452E+03  0.00000000000E+00 0.  1.
         -4    1    4    4    0  503 -0.90610905542E+02 -0.41545182062E+03 -0.17240739292E+03  0.45884077913E+03  0.00000000000E+00 0. -1.
</event>
<event>
 8    1  0.6759491E-006  0.1079906E+04  0.7818608E-02  0.8720918E-01
         21   -1    0    0  503  502  0.00000000000E+00  0.00000000000E+00  0.88228503432E+03  0.88228503432E+03  0.00000000000E+00 0.  1.
         21   -1    0    0  501  503 -0.00000000000E+00 -0.00000000000E+00 -0.13097464392E+04  0.13097464392E+04  0.00000000000E+00 0.  1.
    9000010    2    1    2  501    0 -0.24007391804E+02 -0.86649937998E+02 -0.48473893509E+03  0.11106078107E+04  0.99518506190E+03 0.  0.
   -9000010    2    1    2    0  502  0.24007391804E+02  0.86649937998E+02  0.57277530172E+02  0.10814236628E+04  0.10761560558E+04 0.  0.
        -13    1    3    3    0    0 -0.24261194953E+03 -0.30696676802E+03  0.13793732889E+03  0.41486850036E+03  0.10566000000E+00 0.  1.
         13    1    4    4    0    0  0.15810985988E+03 -0.46735173429E+03 -0.67375237569E+02  0.49795160923E+03  0.10566000000E+00 0. -1.
          4    1    3    3  501    0  0.21860455773E+03  0.22031683002E+03 -0.62267626398E+03  0.69573931036E+03  0.00000000000E+00 0.  1.
         -4    1    4    4    0  502 -0.13410246808E+03  0.55400167229E+03  0.12465276774E+03  0.58347205361E+03  0.00000000000E+00 0. -1.
</event>
<event>
 8    1  0.7698803E-006  0.1008293E+04  0.7818608E-02  0.8777928E-01
         21   -1    0    0  501  502  0.00000000000E+00  0.00000000000E+00  0.13939428093E+04  0.13939428093E+04  0.00000000000E+00 0.  1.
         21   -1    0    0  502  503 -0.00000000000E+00 -0.00000000000E+00 -0.10169922056E+04  0.10169922056E+04  0.00000000000E+00 0.  1.
    9000010    2    1    2  501    0  0.90899641343E+02  0.10291248078E+03  0.86855313531E+03  0.13308041987E+04  0.99890016668E+03 0.  0.
   -9000010    2    1    2    0  503 -0.90899641343E+02 -0.10291248078E+03 -0.49160253163E+03  0.10801308162E+04  0.95192216466E+03 0.  0.
        -13    1    3    3    0    0 -0.92736862514E+02  0.46589855329E+03  0.78188530791E+03  0.91488044767E+03  0.10566000000E+00 0.  1.
         13    1    4    4    0    0  0.28355399797E+03  0.19938384883E+03 -0.48835643476E+03  0.59887294769E+03  0.10566000000E+00 0. -1.
          4    1    3    3  501    0  0.18363650386E+03 -0.36298607252E+03  0.86667827399E+02  0.41592375106E+03  0.00000000000E+00 0.  1.
         -4    1    4    4    0  503 -0.37445363931E+03 -0.30229632961E+03 -0.32460968729E+01  0.48125786854E+03  0.00000000000E+00 0. -1.
</event>
<event>
 8    1  0.6759491E-006  0.1120203E+04  0.7818608E-02  0.8713428E-01
         21   -1    0    0  501  502  0.00000000000E+00  0.00000000000E+00  0.12006111520E+04  0.12006111520E+04  0.00000000000E+00 0. -1.
         21   -1    0    0  502  503 -0.00000000000E+00 -0.00000000000E+00 -0.10067896947E+04  0.10067896947E+04  0.00000000000E+00 0. -1.
    9000010    2    1    2  501    0 -0.48909449524E+03 -0.95997852732E+02  0.49313005565E+03  0.10479005678E+04  0.77877425180E+03 0.  0.
   -9000010    2    1    2    0  503  0.48909449524E+03  0.95997852732E+02 -0.29930859828E+03  0.11595002789E+04  0.10032079778E+04 0.  0.
        -13    1    3    3    0    0  0.64610070089E+02 -0.26293395844E+03  0.36685853149E+03  0.45595385835E+03  0.10566000000E+00 0.  1.
         13    1    4    4    0    0  0.18541583053E+03  0.82669277895E+02 -0.65842302014E+03  0.68900952412E+03  0.10566000000E+00 0. -1.
          4    1    3    3  501    0 -0.55370456532E+03  0.16693610570E+03  0.12627152416E+03  0.59194670948E+03  0.00000000000E+00 0.  1.
         -4    1    4    4    0  503  0.30367866470E+03  0.13328574838E+02  0.35911442186E+03  0.47049075473E+03  0.00000000000E+00 0. -1.
</event>
<event>
 8    1  0.6759491E-006  0.1091877E+04  0.7818608E-02  0.8694204E-01
         21   -1    0    0  501  502  0.00000000000E+00  0.00000000000E+00  0.11496885882E+04  0.11496885882E+04  0.00000000000E+00 0.  1.
         21   -1    0    0  502  503 -0.00000000000E+00 -0.00000000000E+00 -0.16577223151E+04  0.16577223151E+04  0.00000000000E+00 0.  1.
    9000010    2    1    2  501    0  0.42993031864E+03  0.28089850618E+02  0.60892653869E+03  0.12501944266E+04  0.10032773576E+04 0.  0.
   -9000010    2    1    2    0  503 -0.42993031864E+03 -0.28089850618E+02 -0.11169602656E+04  0.15572164767E+04  0.99583824089E+03 0.  0.
        -13    1    3    3    0    0 -0.23977312784E+03  0.28360498149E+03  0.15966517459E+03  0.40424734694E+03  0.10566000000E+00 0.  1.
         13    1    4    4    0    0 -0.18296312889E+03  0.43420863602E+03 -0.22381231537E+03  0.52163647284E+03  0.10566000000E+00 0. -1.
          4    1    3    3  501    0  0.66970344648E+03 -0.25551513088E+03  0.44926136410E+03  0.84594707967E+03  0.00000000000E+00 0.  1.
         -4    1    4    4    0  503 -0.24696718975E+03 -0.46229848664E+03 -0.89314795019E+03  0.10355800039E+04  0.00000000000E+00 0. -1.
</event>
<event>
 8    1  0.6759491E-006  0.1009520E+04  0.7818608E-02  0.8768575E-01
         21   -1    0    0  503  502  0.00000000000E+00  0.00000000000E+00  0.98226920224E+03  0.98226920224E+03  0.00000000000E+00 0.  1.
         21   -1    0    0  501  503 -0.00000000000E+00 -0.00000000000E+00 -0.10331826835E+04  0.10331826835E+04  0.00000000000E+00 0.  1.
    9000010    2    1    2  501    0  0.14370308003E+03  0.14559600380E+02 -0.11545573677E+03  0.10038709407E+04  0.98669361068E+03 0.  0.
   -9000010    2    1    2    0  502 -0.14370308003E+03 -0.14559600380E+02  0.64542255491E+02  0.10115809450E+04  0.99913349877E+03 0.  0.
        -13    1    3    3    0    0  0.65387046116E+02 -0.45792305061E+03  0.10856619488E+03  0.47513747054E+03  0.10566000000E+00 0.  1.
         13    1    4    4    0    0 -0.15121098993E+03 -0.47712160008E+03 -0.11802537131E+03  0.51423708946E+03  0.10566000000E+00 0. -1.
          4    1    3    3  501    0  0.78316033917E+02  0.47248265099E+03 -0.22402193165E+03  0.52873347020E+03  0.00000000000E+00 0.  1.
         -4    1    4    4    0  502  0.75079098995E+01  0.46256199970E+03  0.18256762680E+03  0.49734385553E+03  0.00000000000E+00 0. -1.
</event>
<event>
 8    1  0.6759491E-006  0.1018408E+04  0.7818608E-02  0.8792623E-01
         21   -1    0    0  501  502  0.00000000000E+00  0.00000000000E+00  0.47262751067E+03  0.47262751067E+03  0.00000000000E+00 0.  1.
         21   -1    0    0  502  503 -0.00000000000E+00 -0.00000000000E+00 -0.21970316154E+04  0.21970316154E+04  0.00000000000E+00 0.  1.
    9000010    2    1    2  501    0 -0.10885774051E+02 -0.10936478282E+03 -0.42838151618E+03  0.11048377579E+04  0.10124606619E+04 0.  0.
   -9000010    2    1    2    0  503  0.10885774051E+02  0.10936478282E+03 -0.12960225885E+04  0.15648213682E+04  0.87000701640E+03 0.  0.
        -13    1    3    3    0    0  0.71297015335E+02  0.40159003909E+03 -0.42254407970E+03  0.58728301043E+03  0.10566000000E+00 0.  1.
         13    1    4    4    0    0  0.10318621545E+03  0.18017623481E+03  0.50173727402E+02  0.21360778247E+03  0.10566000000E+00 0. -1.
          4    1    3    3  501    0 -0.82182789386E+02 -0.51095482191E+03 -0.58374364794E+01  0.51755474742E+03  0.00000000000E+00 0.  1.
         -4    1    4    4    0  503 -0.92300441394E+02 -0.70811451984E+02 -0.13461963159E+04  0.13512135857E+04  0.00000000000E+00 0. -1.
</event>
<event>
 8    1  0.6759491E-006  0.1013395E+04  0.7818608E-02  0.8768469E-01
         21   -1    0    0  501  502  0.00000000000E+00  0.00000000000E+00  0.92281246000E+03  0.92281246000E+03  0.00000000000E+00 0. -1.
         21   -1    0    0  502  503 -0.00000000000E+00 -0.00000000000E+00 -0.10869898198E+04  0.10869898198E+04  0.00000000000E+00 0. -1.
    9000010    2    1    2  501    0  0.48379724520E+02  0.47026627553E+01 -0.13974170332E+03  0.99611304987E+03  0.98506383128E+03 0.  0.
   -9000010    2    1    2    0  503 -0.48379724520E+02 -0.47026627553E+01 -0.24435656443E+02  0.10136892299E+04  0.10122282552E+04 0.  0.
        -13    1    3    3    0    0  0.84215683837E+02 -0.24117797493E+03  0.35799846462E+03  0.43979769079E+03  0.10566000000E+00 0.  1.
         13    1    4    4    0    0  0.25776453102E+03  0.32428307162E+03  0.25314949855E+03  0.48547579113E+03  0.10566000000E+00 0. -1.
          4    1    3    3  501    0 -0.35835959317E+02  0.24588063768E+03 -0.49774016794E+03  0.55631535908E+03  0.00000000000E+00 0.  1.
         -4    1    4    4    0  503 -0.30614425554E+03 -0.32898573437E+03 -0.27758515499E+03  0.52821343877E+03  0.00000000000E+00 0. -1.
</event>
<event>
 8    1  0.6759491E-006  0.1116913E+04  0.7818608E-02  0.8687294E-01
         21   -1    0    0  501  502  0.00000000000E+00  0.00000000000E+00  0.54733185816E+03  0.54733185816E+03  0.00000000000E+00 0.  1.
         21   -1    0    0  502  503 -0.00000000000E+00 -0.00000000000E+00 -0.21623616512E+04  0.21623616512E+04  0.00000000000E+00 0.  1.
    9000010    2    1    2  501    0 -0.25533298014E+03 -0.26113510259E+02 -0.93598716018E+03  0.14025615509E+04  0.10125364655E+04 0.  0.
   -9000010    2    1    2    0  503  0.25533298014E+03  0.26113510259E+02 -0.67904263281E+03  0.13071319584E+04  0.10870226370E+04 0.  0.
        -13    1    3    3    0    0 -0.47165370083E+03 -0.24828871840E+01 -0.10542107508E+04  0.11549128523E+04  0.10566000000E+00 0.  1.
         13    1    4    4    0    0  0.14980032022E+03 -0.31514397940E+03 -0.84429269921E+03  0.91355680546E+03  0.10566000000E+00 0. -1.
          4    1    3    3  501    0  0.21632072069E+03 -0.23630623075E+02  0.11822359059E+03  0.24764869860E+03  0.00000000000E+00 0.  1.
         -4    1    4    4    0  503  0.10553265993E+03  0.34125748966E+03  0.16525006640E+03  0.39357515293E+03  0.00000000000E+00 0. -1.
</event>
<event>
 8    1  0.6759491E-006  0.1035388E+04  0.7818608E-02  0.8742405E-01
         21   -1    0    0  501  502  0.00000000000E+00  0.00000000000E+00  0.11580830507E+04  0.11580830507E+04  0.00000000000E+00 0.  1.
         21   -1    0    0  502  503 -0.00000000000E+00 -0.00000000000E+00 -0.13967022155E+04  0.13967022155E+04  0.00000000000E+00 0.  1.
    9000010    2    1    2  501    0 -0.22550419122E+03  0.14740618483E+03  0.62358773416E+03  0.12086729127E+04  0.99972387399E+03 0.  0.
   -9000010    2    1    2    0  503  0.22550419122E+03 -0.14740618483E+03 -0.86220689895E+03  0.13461123534E+04  0.99801653681E+03 0.  0.
        -13    1    3    3    0    0  0.31431196863E+03  0.10887576955E+03  0.57631734951E+03  0.66542290713E+03  0.10566000000E+00 0.  1.
         13    1    4    4    0    0 -0.22378226780E+03 -0.49481468373E+02  0.12210694329E+03  0.25968641832E+03  0.10566000000E+00 0. -1.
          4    1    3    3  501    0 -0.53981615985E+03  0.38530415276E+02  0.47270384648E+02  0.54325000562E+03  0.00000000000E+00 0.  1.
         -4    1    4    4    0  503  0.44928645902E+03 -0.97924716453E+02 -0.98431384225E+03  0.10864259351E+04  0.00000000000E+00 0. -1.
</event>
<event>
 8    1  0.6759491E-006  0.1017205E+04  0.7818608E-02  0.8762477E-01
         21   -1    0    0  501  502  0.00000000000E+00  0.00000000000E+00  0.14867383626E+04  0.14867383626E+04  0.00000000000E+00 0.  1.
         21   -1    0    0  502  503 -0.00000000000E+00 -0.00000000000E+00 -0.68591979702E+03  0.68591979702E+03  0.00000000000E+00 0.  1.
    9000010    2    1    2  501    0 -0.10091863669E+03 -0.74054596787E+02  0.34860670035E+03  0.10594640586E+04  0.99260707498E+03 0.  0.
   -9000010    2    1    2    0  503  0.10091863669E+03  0.74054596787E+02  0.45221186518E+03  0.11131941010E+04  0.10094735663E+04 0.  0.
        -13    1    3    3    0    0  0.32617639254E+03  0.27992742721E+03  0.24628932575E+03  0.49538757221E+03  0.10566000000E+00 0.  1.
         13    1    4    4    0    0  0.11882717446E+03  0.24975533823E+03 -0.25988483364E+03  0.37952307478E+03  0.10566000000E+00 0. -1.
          4    1    3    3  501    0 -0.42709502923E+03 -0.35398202399E+03  0.10231737460E+03  0.56407648635E+03  0.00000000000E+00 0.  1.
         -4    1    4    4    0  503 -0.17908537773E+02 -0.17570074144E+03  0.71209669882E+03  0.73367102624E+03  0.00000000000E+00 0. -1.
</event>
<event>
 8    1  0.6759491E-006  0.1116646E+04  0.7818608E-02  0.8674806E-01
         21   -1    0    0  501  502  0.00000000000E+00  0.00000000000E+00  0.74929168520E+03  0.74929168520E+03  0.00000000000E+00 0.  1.
         21   -1    0    0  502  503 -0.00000000000E+00 -0.00000000000E+00 -0.16747576782E+04  0.16747576782E+04  0.00000000000E+00 0.  1.
    9000010    2    1    2  501    0  0.47184749368E+03  0.54268930013E+02 -0.62750682999E+03  0.12808841247E+04  0.10106008832E+04 0.  0.
   -9000010    2    1    2    0  503 -0.47184749368E+03 -0.54268930013E+02 -0.29795916306E+03  0.11431652388E+04  0.99622383339E+03 0.  0.
        -13    1    3    3    0    0  0.66248062120E+03  0.28430425865E+03 -0.18038507909E+03  0.74313408809E+03  0.10566000000E+00 0.  1.
         13    1    4    4    0    0 -0.62826280926E+03 -0.18646917563E+03  0.13055281171E+03  0.66822822356E+03  0.10566000000E+00 0. -1.
          4    1    3    3  501    0 -0.19063312753E+03 -0.23003532864E+03 -0.44712175089E+03  0.53775003659E+03  0.00000000000E+00 0.  1.
         -4    1    4    4    0  503  0.15641531558E+03  0.13220024562E+03 -0.42851197477E+03  0.47493701520E+03  0.00000000000E+00 0. -1.
</event>
<event>
 8    1  0.6759491E-006  0.1028597E+04  0.7818608E-02  0.8753088E-01
         21   -1    0    0  501  502  0.00000000000E+00  0.00000000000E+00  0.65964934766E+03  0.65964934766E+03  0.00000000000E+00 0. -1.
         21   -1    0    0  502  503 -0.00000000000E+00 -0.00000000000E+00 -0.17800194540E+04  0.17800194540E+04  0.00000000000E+00 0. -1.
    9000010    2    1    2  501    0 -0.18391702549E+03 -0.92742745504E+02 -0.97325872589E+03  0.14006051896E+04  0.98591868865E+03 0.  0.
   -9000010    2    1    2    0  503  0.18391702549E+03  0.92742745504E+02 -0.14711138050E+03  0.10390636121E+04  0.10077622450E+04 0.  0.
        -13    1    3    3    0    0  0.75511195385E+02  0.29467574480E+03  0.18451613880E+02  0.30475598176E+03  0.10566000000E+00 0.  1.
         13    1    4    4    0    0  0.73555516665E+02 -0.31883258459E+03  0.28373316425E+03  0.43309254287E+03  0.10566000000E+00 0. -1.
          4    1    3    3  501    0 -0.25942822088E+03 -0.38741849030E+03 -0.99171033977E+03  0.10958492079E+04  0.00000000000E+00 0.  1.
         -4    1    4    4    0  503  0.11036150883E+03  0.41157533009E+03 -0.43084454475E+03  0.60597106920E+03  0.00000000000E+00 0. -1.
</event>
<event>
 8    1  0.6759491E-006  0.1048925E+04  0.7818608E-02  0.8731904E-01
         21   -1    0    0  503  502  0.00000000000E+00  0.00000000000E+00  0.16226941431E+04  0.16226941431E+04  0.00000000000E+00 0.  1.
         21   -1    0    0  501  503 -0.00000000000E+00 -0.00000000000E+00 -0.72386159864E+03  0.72386159864E+03  0.00000000000E+00 0.  1.
    9000010    2    1    2  501    0 -0.29296877776E+03 -0.32845830871E+02  0.13812783956E+03  0.10579807816E+04  0.10066451613E+04 0.  0.
   -9000010    2    1    2    0  502  0.29296877776E+03  0.32845830871E+02  0.76070470485E+03  0.12885749601E+04  0.99741878191E+03 0.  0.
        -13    1    3    3    0    0  0.23498168687E+03  0.32583336429E+02  0.39997980851E+03  0.46503970299E+03  0.10566000000E+00 0.  1.
         13    1    4    4    0    0 -0.18901253784E+03  0.22475106956E+03  0.70877288077E+03  0.76720127112E+03  0.10566000000E+00 0. -1.
          4    1    3    3  501    0 -0.52795046463E+03 -0.65429167300E+02 -0.26185196895E+03  0.59294107859E+03  0.00000000000E+00 0.  1.
         -4    1    4    4    0  502  0.48198131560E+03 -0.19190523869E+03  0.51931824086E+02  0.52137368900E+03  0.00000000000E+00 0. -1.
</event>
<event>
 8    1  0.6759491E-006  0.1035665E+04  0.7818608E-02  0.8750211E-01
         21   -1    0    0  501  502  0.00000000000E+00  0.00000000000E+00  0.16885445280E+04  0.16885445280E+04  0.00000000000E+00 0. -1.
         21   -1    0    0  502  503 -0.00000000000E+00 -0.00000000000E+00 -0.76590705008E+03  0.76590705008E+03  0.00000000000E+00 0. -1.
    9000010    2    1    2  501    0  0.29682892146E+03 -0.33375679283E+02  0.10164312378E+04  0.14511145979E+04  0.99165506630E+03 0.  0.
   -9000010    2    1    2    0  503 -0.29682892146E+03  0.33375679283E+02 -0.93793759861E+02  0.10033369802E+04  0.95323999173E+03 0.  0.
        -13    1    3    3    0    0 -0.55670054034E+02 -0.56753254402E+02 -0.18364876089E+03  0.20011737891E+03  0.10566000000E+00 0.  1.
         13    1    4    4    0    0  0.16330270218E+03  0.29453164161E+03 -0.28458011284E+03  0.44091100263E+03  0.10566000000E+00 0. -1.
          4    1    3    3  501    0  0.35249897549E+03  0.23377575118E+02  0.12000799987E+04  0.12509972190E+04  0.00000000000E+00 0.  1.
         -4    1    4    4    0  503 -0.46013162364E+03 -0.26115596233E+03  0.19078635298E+03  0.56242597755E+03  0.00000000000E+00 0. -1.
</event>
<event>
 8    1  0.6759491E-006  0.1002666E+04  0.7818608E-02  0.8775648E-01
         21   -1    0    0  503  502  0.00000000000E+00  0.00000000000E+00  0.21941416529E+04  0.21941416529E+04  0.00000000000E+00 0.  1.
         21   -1    0    0  501  503 -0.00000000000E+00 -0.00000000000E+00 -0.59243430305E+03  0.59243430305E+03  0.00000000000E+00 0.  1.
    9000010    2    1    2  501    0 -0.73589234695E+02 -0.56861456931E+02  0.11627679017E+03  0.99441427344E+03  0.98320438086E+03 0.  0.
   -9000010    2    1    2    0  502  0.73589234695E+02  0.56861456931E+02  0.14854305597E+04  0.17921616825E+04  0.99834410293E+03 0.  0.
        -13    1    3    3    0    0 -0.19402184515E+03  0.24464066480E+02 -0.40688726083E+03  0.45144237853E+03  0.10566000000E+00 0.  1.
         13    1    4    4    0    0 -0.31641213797E+03 -0.28824461719E+02  0.13237866086E+04  0.13613810954E+04  0.10566000000E+00 0. -1.
          4    1    3    3  501    0  0.12043261045E+03 -0.81325523411E+02  0.52316405099E+03  0.54297189492E+03  0.00000000000E+00 0.  1.
         -4    1    4    4    0  502  0.39000137267E+03  0.85685918649E+02  0.16164395116E+03  0.43078058717E+03  0.00000000000E+00 0. -1.
</event>
<event>
 8    1  0.6759491E-006  0.1123843E+04  0.7818608E-02  0.8670783E-01
         21   -1    0    0  503  502  0.00000000000E+00  0.00000000000E+00  0.10105147394E+04  0.10105147394E+04  0.00000000000E+00 0.  1.
         21   -1    0    0  501  503 -0.00000000000E+00 -0.00000000000E+00 -0.13696311778E+04  0.13696311778E+04  0.00000000000E+00 0.  1.
    9000010    2    1    2  501    0  0.23329588918E+03  0.39406409110E+03 -0.56730847905E+03  0.12589133996E+04  0.10263091919E+04 0.  0.
   -9000010    2    1    2    0  502 -0.23329588918E+03 -0.39406409110E+03  0.20819204065E+03  0.11212325177E+04  0.10020503745E+04 0.  0.
        -13    1    3    3    0    0 -0.68494666054E+02  0.13081828199E+03 -0.78796163544E+03  0.80167854672E+03  0.10566000000E+00 0.  1.
         13    1    4    4    0    0 -0.56246676211E+03 -0.84750489348E+02 -0.95721460913E+02  0.57681375952E+03  0.10566000000E+00 0. -1.
          4    1    3    3  501    0  0.30179055523E+03  0.26324580910E+03  0.22065315639E+03  0.45723485285E+03  0.00000000000E+00 0.  1.
         -4    1    4    4    0  502  0.32917087293E+03 -0.30931360175E+03  0.30391350156E+03  0.54441875817E+03  0.00000000000E+00 0. -1.
</event>
<event>
 8    1  0.6759491E-006  0.1170205E+04  0.7818608E-02  0.8632968E-01
         21   -1    0    0  501  502  0.00000000000E+00  0.00000000000E+00  0.24064750502E+04  0.24064750502E+04  0.00000000000E+00 0. -1.
         21   -1    0    0  502  503 -0.00000000000E+00 -0.00000000000E+00 -0.64729984640E+03  0.64729984640E+03  0.00000000000E+00 0. -1.
    9000010    2    1    2  501    0  0.47865091520E+01 -0.61494882158E+03  0.32515422029E+03  0.12145387119E+04  0.99558728993E+03 0.  0.
   -9000010    2    1    2    0  503 -0.47865091520E+01  0.61494882158E+03  0.14340209835E+04  0.18392361847E+04  0.97374976155E+03 0.  0.
        -13    1    3    3    0    0  0.32270876350E+03 -0.60739913202E+03 -0.87735147991E+02  0.69337732799E+03  0.10566000000E+00 0.  1.
         13    1    4    4    0    0  0.18813931047E+03  0.33592848508E+03  0.14493958961E+04  0.14996642365E+04  0.10566000000E+00 0. -1.
          4    1    3    3  501    0 -0.31792225435E+03 -0.75496895599E+01  0.41288936828E+03  0.52116138390E+03  0.00000000000E+00 0.  1.
         -4    1    4    4    0  503 -0.19292581962E+03  0.27902033650E+03 -0.15374912679E+02  0.33957194819E+03  0.00000000000E+00 0. -1.
</event>
<event>
 8    1  0.6759491E-006  0.1133222E+04  0.7818608E-02  0.8661618E-01
         21   -1    0    0  501  502  0.00000000000E+00  0.00000000000E+00  0.16507007328E+04  0.16507007328E+04  0.00000000000E+00 0. -1.
         21   -1    0    0  502  503 -0.00000000000E+00 -0.00000000000E+00 -0.10923813440E+04  0.10923813440E+04  0.00000000000E+00 0. -1.
    9000010    2    1    2  501    0 -0.49605634998E+03  0.58395029355E+02  0.10254057856E+04  0.15173733651E+04  0.10007412364E+04 0.  0.
   -9000010    2    1    2    0  503  0.49605634998E+03 -0.58395029355E+02 -0.46708639669E+03  0.12257087117E+04  0.10172070892E+04 0.  0.
        -13    1    3    3    0    0 -0.60678402713E+01 -0.34437208389E+03  0.75113045029E+03  0.82633281151E+03  0.10566000000E+00 0.  1.
         13    1    4    4    0    0  0.67444339882E+03 -0.95062838861E+02 -0.66836740021E+03  0.95426717138E+03  0.10566000000E+00 0. -1.
          4    1    3    3  501    0 -0.48998850970E+03  0.40276711324E+03  0.27427533526E+03  0.69104055358E+03  0.00000000000E+00 0.  1.
         -4    1    4    4    0  503 -0.17838704884E+03  0.36667809506E+02  0.20128100352E+03  0.27144154035E+03  0.00000000000E+00 0. -1.
</event>
<event>
 8    1  0.6759491E-006  0.9941099E+03  0.7818608E-02  0.8832087E-01
         21   -1    0    0  503  502  0.00000000000E+00  0.00000000000E+00  0.54636082309E+03  0.54636082309E+03  0.00000000000E+00 0.  1.
         21   -1    0    0  501  503 -0.00000000000E+00 -0.00000000000E+00 -0.31808131256E+04  0.31808131256E+04  0.00000000000E+00 0.  1.
    9000010    2    1    2  501    0 -0.54971073785E+02 -0.14277063792E+02 -0.27468297879E+04  0.29211861393E+04  0.99248623327E+03 0.  0.
   -9000010    2    1    2    0  502  0.54971073785E+02  0.14277063792E+02  0.11237748534E+03  0.80598780944E+03  0.79609170091E+03 0.  0.
        -13    1    3    3    0    0 -0.22452615725E+03 -0.43575697257E+03 -0.18758464541E+04  0.19388388445E+04  0.10566000000E+00 0.  1.
         13    1    4    4    0    0  0.25806025853E+02  0.24745119434E+03  0.37724855393E+03  0.45190101478E+03  0.10566000000E+00 0. -1.
          4    1    3    3  501    0  0.16955508347E+03  0.42147990877E+03 -0.87098333376E+03  0.98234729476E+03  0.00000000000E+00 0.  1.
         -4    1    4    4    0  502  0.29165047931E+02 -0.23317413055E+03 -0.26487106859E+03  0.35408679466E+03  0.00000000000E+00 0. -1.
</event>
<event>
 8    1  0.6759491E-006  0.1040661E+04  0.7818608E-02  0.8739762E-01
         21   -1    0    0  503  502  0.00000000000E+00  0.00000000000E+00  0.12259792068E+04  0.12259792068E+04  0.00000000000E+00 0. -1.
         21   -1    0    0  501  503 -0.00000000000E+00 -0.00000000000E+00 -0.10291335924E+04  0.10291335924E+04  0.00000000000E+00 0. -1.
    9000010    2    1    2  501    0 -0.99535027323E+01  0.24590896105E+03 -0.33966916927E+03  0.10842911334E+04  0.99987090570E+03 0.  0.
   -9000010    2    1    2    0  502  0.99535027323E+01 -0.24590896105E+03  0.53651478374E+03  0.11708216658E+04  0.10111404307E+04 0.  0.
        -13    1    3    3    0    0  0.28697207844E+03 -0.95769615285E+01  0.24707915777E+03  0.37880445267E+03  0.10566000000E+00 0.  1.
         13    1    4    4    0    0  0.35661037205E+03 -0.21248835612E+03  0.67794024958E+03  0.79493726299E+03  0.10566000000E+00 0. -1.
          4    1    3    3  501    0 -0.29692558117E+03  0.25548592258E+03 -0.58674832704E+03  0.70548668072E+03  0.00000000000E+00 0.  1.
         -4    1    4    4    0  502 -0.34665686931E+03 -0.33420604934E+02 -0.14142546584E+03  0.37588440279E+03  0.00000000000E+00 0. -1.
</event>
<event>
 8    1  0.6759491E-006  0.1045613E+04  0.7818608E-02  0.8736511E-01
         21   -1    0    0  503  502  0.00000000000E+00  0.00000000000E+00  0.16726660845E+04  0.16726660845E+04  0.00000000000E+00 0.  1.
         21   -1    0    0  501  503 -0.00000000000E+00 -0.00000000000E+00 -0.88221986567E+03  0.88221986567E+03  0.00000000000E+00 0.  1.
    9000010    2    1    2  501    0 -0.21892449866E+03 -0.13605930911E+03 -0.27145451791E+03  0.10646044742E+04  0.99662182368E+03 0.  0.
   -9000010    2    1    2    0  502  0.21892449866E+03  0.13605930911E+03  0.10619007367E+04  0.14902814760E+04  0.10133437873E+04 0.  0.
        -13    1    3    3    0    0  0.15333797494E+03  0.33579657200E+03  0.66485488498E+02  0.37508959420E+03  0.10566000000E+00 0.  1.
         13    1    4    4    0    0  0.41677271838E+03 -0.57308853043E+02  0.11296616594E+04  0.12054539723E+04  0.10566000000E+00 0. -1.
          4    1    3    3  501    0 -0.37226247360E+03 -0.47185588111E+03 -0.33794000641E+03  0.68951487998E+03  0.00000000000E+00 0.  1.
         -4    1    4    4    0  502 -0.19784821972E+03  0.19336816215E+03 -0.67760922732E+02  0.28482750364E+03  0.00000000000E+00 0. -1.
</event>
<event>
 8    1  0.6759491E-006  0.1013036E+04  0.7818608E-02  0.8764752E-01
         21   -1    0    0  501  502  0.00000000000E+00  0.00000000000E+00  0.33816591447E+04  0.33816591447E+04  0.00000000000E+00 0. -1.
         21   -1    0    0  502  503 -0.00000000000E+00 -0.00000000000E+00 -0.32048034309E+03  0.32048034309E+03  0.00000000000E+00 0. -1.
    9000010    2    1    2  501    0 -0.95467505666E+02  0.16981741122E+03  0.10754809474E+04  0.14774642744E+04  0.99412746474E+03 0.  0.
   -9000010    2    1    2    0  503  0.95467505666E+02 -0.16981741122E+03  0.19856978542E+04  0.22246752134E+04  0.98398772300E+03 0.  0.
        -13    1    3    3    0    0  0.42586088886E+03 -0.13741330960E+02  0.28382030604E+03  0.51195732060E+03  0.10566000000E+00 0.  1.
         13    1    4    4    0    0 -0.56233052336E+02 -0.52701037242E+03  0.67778343150E+03  0.86040251045E+03  0.10566000000E+00 0. -1.
          4    1    3    3  501    0 -0.52132839452E+03  0.18355874218E+03  0.79166064139E+03  0.96550695383E+03  0.00000000000E+00 0.  1.
         -4    1    4    4    0  503  0.15170055800E+03  0.35719296119E+03  0.13079144227E+04  0.13642727029E+04  0.00000000000E+00 0. -1.
</event>
<event>
 8    1  0.6759491E-006  0.1007784E+04  0.7818608E-02  0.8770112E-01
         21   -1    0    0  501  502  0.00000000000E+00  0.00000000000E+00  0.91305968894E+03  0.91305968894E+03  0.00000000000E+00 0. -1.
         21   -1    0    0  502  503 -0.00000000000E+00 -0.00000000000E+00 -0.14121477961E+04  0.14121477961E+04  0.00000000000E+00 0. -1.
    9000010    2    1    2  501    0 -0.73783239429E+02  0.63654688056E+02  0.29892933947E+03  0.10397266893E+04  0.99104841085E+03 0.  0.
   -9000010    2    1    2    0  503  0.73783239429E+02 -0.63654688056E+02 -0.79801744662E+03  0.12854807958E+04  0.10030618851E+04 0.  0.
        -13    1    3    3    0    0  0.39629695098E+02 -0.22449546425E+03  0.57895838628E+03  0.62222307126E+03  0.10566000000E+00 0.  1.
         13    1    4    4    0    0 -0.42832185970E+03 -0.51631161418E+02 -0.61435408939E+03  0.75070390345E+03  0.10566000000E+00 0. -1.
          4    1    3    3  501    0 -0.11341293453E+03  0.28815015231E+03 -0.28002904681E+03  0.41750361801E+03  0.00000000000E+00 0.  1.
         -4    1    4    4    0  503  0.50210509913E+03 -0.12023526639E+02 -0.18366335723E+03  0.53477689232E+03  0.00000000000E+00 0. -1.
</event>
<event>
 8    1  0.6759491E-006  0.1015391E+04  0.7818608E-02  0.8762722E-01
         21   -1    0    0  501  502  0.00000000000E+00  0.00000000000E+00  0.12500860386E+04  0.12500860386E+04  0.00000000000E+00 0. -1.
         21   -1    0    0  502  503 -0.00000000000E+00 -0.00000000000E+00 -0.11196009310E+04  0.11196009310E+04  0.00000000000E+00 0. -1.
    9000010    2    1    2  501    0 -0.73825059009E+02  0.83498885009E+02  0.68180897232E+03  0.12142747775E+04  0.99858778153E+03 0.  0.
   -9000010    2    1    2    0  503  0.73825059009E+02 -0.83498885009E+02 -0.55132386466E+03  0.11554121921E+04  0.10092557291E+04 0.  0.
        -13    1    3    3    0    0 -0.31626402236E+03 -0.22146294305E+03 -0.45929294089E+02  0.38881650969E+03  0.10566000000E+00 0.  1.
         13    1    4    4    0    0  0.22637276994E+02  0.45628532285E+03 -0.15000705590E+03  0.48084391453E+03  0.10566000000E+00 0. -1.
          4    1    3    3  501    0  0.24243896335E+03  0.30496182806E+03  0.72773826641E+03  0.82545826783E+03  0.00000000000E+00 0.  1.
         -4    1    4    4    0  503  0.51187782015E+02 -0.53978420786E+03 -0.40131680875E+03  0.67456827754E+03  0.00000000000E+00 0. -1.
</event>
<event>
 8    1  0.6759491E-006  0.1207793E+04  0.7818608E-02  0.8603023E-01
         21   -1    0    0  501  502  0.00000000000E+00  0.00000000000E+00  0.99297075591E+03  0.99297075591E+03  0.00000000000E+00 0.  1.
         21   -1    0    0  502  503 -0.00000000000E+00 -0.00000000000E+00 -0.16200010314E+04  0.16200010314E+04  0.00000000000E+00 0.  1.
    9000010    2    1    2  501    0 -0.42446903002E+03  0.52645371143E+03  0.10301672458E+03  0.12121780149E+04  0.10007175558E+04 0.  0.
   -9000010    2    1    2    0  503  0.42446903002E+03 -0.52645371143E+03 -0.73004700005E+03  0.14007937724E+04  0.98586363291E+03 0.  0.
        -13    1    3    3    0    0 -0.44165416748E+03  0.24526322101E+03 -0.39414195404E+03  0.64074982819E+03  0.10566000000E+00 0.  1.
         13    1    4    4    0    0  0.49927261417E+03 -0.14616330333E+03  0.57149471354E+02  0.52335736140E+03  0.10566000000E+00 0. -1.
          4    1    3    3  501    0  0.17185137459E+02  0.28119049042E+03  0.49715867862E+03  0.57142818672E+03  0.00000000000E+00 0.  1.
         -4    1    4    4    0  503 -0.74803584144E+02 -0.38029040810E+03 -0.78719647141E+03  0.87743641097E+03  0.00000000000E+00 0. -1.
</event>
<event>
 8    1  0.6759491E-006  0.1067995E+04  0.7818608E-02  0.8725282E-01
         21   -1    0    0  503  502  0.00000000000E+00  0.00000000000E+00  0.78296995174E+03  0.78296995174E+03  0.00000000000E+00 0.  1.
         21   -1    0    0  501  503 -0.00000000000E+00 -0.00000000000E+00 -0.14820864466E+04  0.14820864466E+04  0.00000000000E+00 0.  1.
    9000010    2    1    2  501    0 -0.16339724064E+03  0.31780029934E+03 -0.63261180271E+03  0.11949926414E+04  0.94874339608E+03 0.  0.
   -9000010    2    1    2    0  502  0.16339724064E+03 -0.31780029934E+03 -0.66504692108E+02  0.10700637569E+04  0.10064382153E+04 0.  0.
        -13    1    3    3    0    0 -0.48273311684E+03  0.39119943763E+03 -0.20089728528E+03  0.65301454233E+03  0.10566000000E+00 0.  1.
         13    1    4    4    0    0 -0.14378711835E+03 -0.59213699718E+03  0.11480957363E+03  0.62006629339E+03  0.10566000000E+00 0. -1.
          4    1    3    3  501    0  0.31933587620E+03 -0.73399138293E+02 -0.43171451743E+03  0.54197809908E+03  0.00000000000E+00 0.  1.
         -4    1    4    4    0  502  0.30718435899E+03  0.27433669784E+03 -0.18131426574E+03  0.44999746349E+03  0.00000000000E+00 0. -1.
</event>
<event>
 8    1  0.6759491E-006  0.1019531E+04  0.7818608E-02  0.8757541E-01
         21   -1    0    0  503  502  0.00000000000E+00  0.00000000000E+00  0.15753547349E+04  0.15753547349E+04  0.00000000000E+00 0. -1.
         21   -1    0    0  501  503 -0.00000000000E+00 -0.00000000000E+00 -0.65991360312E+03  0.65991360312E+03  0.00000000000E+00 0. -1.
    9000010    2    1    2  501    0  0.17473037136E+03  0.96051318580E+02  0.37942183680E+03  0.10834174866E+04  0.99502560846E+03 0.  0.
   -9000010    2    1    2    0  502 -0.17473037136E+03 -0.96051318580E+02  0.53601929502E+03  0.11518508515E+04  0.99984355824E+03 0.  0.
        -13    1    3    3    0    0 -0.27526504574E+03 -0.14349287627E+03 -0.15318578350E+03  0.34616029000E+03  0.10566000000E+00 0.  1.
         13    1    4    4    0    0  0.41838384642E+03 -0.15449917605E+02  0.25885147583E+03  0.49222742772E+03  0.10566000000E+00 0. -1.
          4    1    3    3  501    0  0.44999541710E+03  0.23954419485E+03  0.53260762030E+03  0.73725719657E+03  0.00000000000E+00 0.  1.
         -4    1    4    4    0  502 -0.59311421779E+03 -0.80601400975E+02  0.27716781920E+03  0.65962342376E+03  0.00000000000E+00 0. -1.
</event>
<event>
 8    1  0.6759491E-006  0.1017022E+04  0.7818608E-02  0.8764607E-01
         21   -1    0    0  503  502  0.00000000000E+00  0.00000000000E+00  0.10306309100E+04  0.10306309100E+04  0.00000000000E+00 0. -1.
         21   -1    0    0  501  503 -0.00000000000E+00 -0.00000000000E+00 -0.10828899935E+04  0.10828899935E+04  0.00000000000E+00 0. -1.
    9000010    2    1    2  501    0  0.28384789180E+02 -0.18977457913E+03 -0.35371346608E+03  0.10767763224E+04  0.99875619908E+03 0.  0.
   -9000010    2    1    2    0  502 -0.28384789180E+02  0.18977457913E+03  0.30145438250E+03  0.10367445811E+04  0.97321348873E+03 0.  0.
        -13    1    3    3    0    0 -0.21643459691E+03 -0.54371993484E+03 -0.17540630369E+03  0.61093590893E+03  0.10566000000E+00 0.  1.
         13    1    4    4    0    0 -0.28016282566E+02  0.91274397553E+02 -0.35772448333E+03  0.37024687017E+03  0.10566000000E+00 0. -1.
          4    1    3    3  501    0  0.24481938609E+03  0.35394535571E+03 -0.17830716240E+03  0.46584041344E+03  0.00000000000E+00 0.  1.
         -4    1    4    4    0  502 -0.36850661368E+00  0.98500181576E+02  0.65917886583E+03  0.66649771097E+03  0.00000000000E+00 0. -1.
</event>
<event>
 8    1  0.6759491E-006  0.1027368E+04  0.7818608E-02  0.8756972E-01
         21   -1    0    0  503  502  0.00000000000E+00  0.00000000000E+00  0.71135198418E+03  0.71135198418E+03  0.00000000000E+00 0.  1.
         21   -1    0    0  501  503 -0.00000000000E+00 -0.00000000000E+00 -0.16360002088E+04  0.16360002088E+04  0.00000000000E+00 0.  1.
    9000010    2    1    2  501    0 -0.94305937750E+01  0.63271798163E+02 -0.87908386181E+03  0.13521368198E+04  0.10253747056E+04 0.  0.
   -9000010    2    1    2    0  502  0.94305937750E+01 -0.63271798163E+02 -0.45564362798E+02  0.99521537312E+03  0.99211152155E+03 0.  0.
        -13    1    3    3    0    0  0.33489773080E+03 -0.11584914914E+03  0.37902798722E+02  0.35639044427E+03  0.10566000000E+00 0.  1.
         13    1    4    4    0    0 -0.20179765641E+03 -0.41896571300E+03 -0.25626032614E+03  0.53096509181E+03  0.10566000000E+00 0. -1.
          4    1    3    3  501    0 -0.34432832458E+03  0.17912094731E+03 -0.91698666053E+03  0.99574637557E+03  0.00000000000E+00 0.  1.
         -4    1    4    4    0  502  0.21122825018E+03  0.35569391484E+03  0.21069596334E+03  0.46425028131E+03  0.00000000000E+00 0. -1.
</event>
<event>
 8    1  0.6759491E-006  0.1012295E+04  0.7818608E-02  0.8765472E-01
         21   -1    0    0  503  502  0.00000000000E+00  0.00000000000E+00  0.11017483629E+04  0.11017483629E+04  0.00000000000E+00 0. -1.
         21   -1    0    0  501  503 -0.00000000000E+00 -0.00000000000E+00 -0.15280146323E+04  0.15280146323E+04  0.00000000000E+00 0. -1.
    9000010    2    1    2  501    0  0.32611792705E+02  0.13672032249E+03 -0.10426158631E+04  0.14531994652E+04  0.10024893376E+04 0.  0.
   -9000010    2    1    2    0  502 -0.32611792705E+02 -0.13672032249E+03  0.61634959377E+03  0.11765635301E+04  0.99229982511E+03 0.  0.
        -13    1    3    3    0    0 -0.39423565907E+03  0.18253603649E+03 -0.14465251599E+03  0.45789247760E+03  0.10566000000E+00 0.  1.
         13    1    4    4    0    0 -0.26246637585E+03 -0.35839115804E+03 -0.40643152935E+02  0.44607700866E+03  0.10566000000E+00 0. -1.
          4    1    3    3  501    0  0.42684745178E+03 -0.45815713994E+02 -0.89796334714E+03  0.99530698759E+03  0.00000000000E+00 0.  1.
         -4    1    4    4    0  502  0.22985458314E+03  0.22167083555E+03  0.65699274670E+03  0.73048652140E+03  0.00000000000E+00 0. -1.
</event>
<event>
 8    1  0.7965397E-006  0.9354824E+03  0.7818608E-02  0.8856553E-01
         21   -1    0    0  501  502  0.00000000000E+00  0.00000000000E+00  0.24180733033E+04  0.24180733033E+04  0.00000000000E+00 0. -1.
         21   -1    0    0  502  503 -0.00000000000E+00 -0.00000000000E+00 -0.38494654993E+03  0.38494654993E+03  0.00000000000E+00 0. -1.
    9000010    2    1    2  501    0  0.21040053461E+03 -0.13668860865E+03  0.14864425038E+04  0.17195112053E+04  0.82719726031E+03 0.  0.
   -9000010    2    1    2    0  503 -0.21040053461E+03  0.13668860865E+03  0.54668424963E+03  0.10835086480E+04  0.90120761243E+03 0.  0.
        -13    1    3    3    0    0  0.35214624270E+03  0.26348846316E+03  0.76665125085E+03  0.88384800620E+03  0.10566000000E+00 0.  1.
         13    1    4    4    0    0 -0.35040280671E+03 -0.30856465384E+03  0.30733602961E+03  0.55897201970E+03  0.10566000000E+00 0. -1.
          4    1    3    3  501    0 -0.14174570809E+03 -0.40017707181E+03  0.71979125292E+03  0.83566319911E+03  0.00000000000E+00 0.  1.
         -4    1    4    4    0  503  0.14000227210E+03  0.44525326249E+03  0.23934822002E+03  0.52453662826E+03  0.00000000000E+00 0. -1.
</event>
<event>
 8    1  0.6759491E-006  0.1166122E+04  0.7818608E-02  0.8632684E-01
         21   -1    0    0  503  502  0.00000000000E+00  0.00000000000E+00  0.16740246086E+04  0.16740246086E+04  0.00000000000E+00 0.  1.
         21   -1    0    0  501  503 -0.00000000000E+00 -0.00000000000E+00 -0.84312412025E+03  0.84312412025E+03  0.00000000000E+00 0.  1.
    9000010    2    1    2  501    0 -0.57688040019E+03  0.14376562096E+03  0.65845163002E+03  0.13391781331E+04  0.10031849148E+04 0.  0.
   -9000010    2    1    2    0  502  0.57688040019E+03 -0.14376562096E+03  0.17244885839E+03  0.11779705958E+04  0.10022058501E+04 0.  0.
        -13    1    3    3    0    0 -0.41982598654E+03 -0.10739809559E+03  0.87217735177E+03  0.97390017662E+03  0.10566000000E+00 0.  1.
         13    1    4    4    0    0  0.21517857794E+02  0.11856572035E+03  0.47729839771E+03  0.49227494337E+03  0.10566000000E+00 0. -1.
          4    1    3    3  501    0 -0.15705441364E+03  0.25116371655E+03 -0.21372572175E+03  0.36527795648E+03  0.00000000000E+00 0.  1.
         -4    1    4    4    0  502  0.55536254239E+03 -0.26233134131E+03 -0.30484953933E+03  0.68569565243E+03  0.00000000000E+00 0. -1.
</event>
<event>
 8    1  0.6759491E-006  0.1023323E+04  0.7818608E-02  0.8754790E-01
         21   -1    0    0  501  502  0.00000000000E+00  0.00000000000E+00  0.17958680447E+04  0.17958680447E+04  0.00000000000E+00 0. -1.
         21   -1    0    0  502  503 -0.00000000000E+00 -0.00000000000E+00 -0.62737378984E+03  0.62737378984E+03  0.00000000000E+00 0. -1.
    9000010    2    1    2  501    0  0.12250089021E+03  0.18003703817E+03  0.92406334327E+03  0.13787975298E+04  0.99988487465E+03 0.  0.
   -9000010    2    1    2    0  503 -0.12250089021E+03 -0.18003703817E+03  0.24443091163E+03  0.10444443048E+04  0.99181532153E+03 0.  0.
        -13    1    3    3    0    0  0.38263934883E+03  0.34758036890E+02 -0.24051327479E+02  0.38496684262E+03  0.10566000000E+00 0.  1.
         13    1    4    4    0    0  0.19589189200E+03  0.42000491184E+02 -0.30911546202E+03  0.36836130990E+03  0.10566000000E+00 0. -1.
          4    1    3    3  501    0 -0.26013845862E+03  0.14527900128E+03  0.94811467075E+03  0.99383068716E+03  0.00000000000E+00 0.  1.
         -4    1    4    4    0  503 -0.31839278221E+03 -0.22203752935E+03  0.55354637364E+03  0.67608299489E+03  0.00000000000E+00 0. -1.
</event>
<event>
 8    1  0.6759491E-006  0.1219682E+04  0.7818608E-02  0.8592304E-01
         21   -1    0    0  503  502  0.00000000000E+00  0.00000000000E+00  0.20907609650E+04  0.20907609650E+04  0.00000000000E+00 0.  1.
         21   -1    0    0  501  503 -0.00000000000E+00 -0.00000000000E+00 -0.81747055436E+03  0.81747055436E+03  0.00000000000E+00 0.  1.
    9000010    2    1    2  501    0 -0.67779667415E+03 -0.31807631520E+03  0.11042761554E+03  0.12246708058E+04  0.96283095639E+03 0.  0.
   -9000010    2    1    2    0  502  0.67779667415E+03  0.31807631520E+03  0.11628627951E+04  0.16835607135E+04  0.95997183405E+03 0.  0.
        -13    1    3    3    0    0 -0.13043084496E+03  0.20836061592E+03 -0.27847318044E+03  0.37144807844E+03  0.10566000000E+00 0.  1.
         13    1    4    4    0    0  0.89027232006E+03  0.25050143877E+03  0.66821625459E+03  0.11409858670E+04  0.10566000000E+00 0. -1.
          4    1    3    3  501    0 -0.54736582918E+03 -0.52643693112E+03  0.38890079598E+03  0.85322272738E+03  0.00000000000E+00 0.  1.
         -4    1    4    4    0  502 -0.21247564591E+03  0.67574876426E+02  0.49464654052E+03  0.54257484652E+03  0.00000000000E+00 0. -1.
</event>
<event>
 8    1  0.6759491E-006  0.1086455E+04  0.7818608E-02  0.8697854E-01
         21   -1    0    0  503  502  0.00000000000E+00  0.00000000000E+00  0.19267919083E+04  0.19267919083E+04  0.00000000000E+00 0. -1.
         21   -1    0    0  501  503 -0.00000000000E+00 -0.00000000000E+00 -0.78147025898E+03  0.78147025898E+03  0.00000000000E+00 0. -1.
    9000010    2    1    2  501    0  0.27740735792E+03 -0.28931435705E+03 -0.59757531544E+02  0.10857332044E+04  0.10072675857E+04 0.  0.
   -9000010    2    1    2    0  502 -0.27740735792E+03  0.28931435705E+03  0.12050791809E+04  0.16225289629E+04  0.10098152127E+04 0.  0.
        -13    1    3    3    0    0  0.43404654057E+03 -0.25299012234E+03  0.37192048112E+03  0.62508020031E+03  0.10566000000E+00 0.  1.
         13    1    4    4    0    0 -0.62127964621E+02  0.42180457113E+03  0.37614819999E+02  0.42801152561E+03  0.10566000000E+00 0. -1.
          4    1    3    3  501    0 -0.15663918265E+03 -0.36324234717E+02 -0.43167801267E+03  0.46065300410E+03  0.00000000000E+00 0.  1.
         -4    1    4    4    0  502 -0.21527939330E+03 -0.13249021407E+03  0.11674643609E+04  0.11945174372E+04  0.00000000000E+00 0. -1.
</event>
<event>
 8    1  0.6759491E-006  0.1174658E+04  0.7818608E-02  0.8626726E-01
         21   -1    0    0  501  502  0.00000000000E+00  0.00000000000E+00  0.19956795655E+04  0.19956795655E+04  0.00000000000E+00 0. -1.
         21   -1    0    0  502  503 -0.00000000000E+00 -0.00000000000E+00 -0.74244050699E+03  0.74244050699E+03  0.00000000000E+00 0. -1.
    9000010    2    1    2  501    0 -0.37647593425E+03  0.49351901041E+03  0.99328623291E+03  0.15350424107E+04  0.99219076771E+03 0.  0.
   -9000010    2    1    2    0  503  0.37647593425E+03 -0.49351901041E+03  0.25995282556E+03  0.12030776617E+04  0.99725886604E+03 0.  0.
        -13    1    3    3    0    0 -0.52836121127E+03  0.65772014836E+03  0.46951098337E+03  0.96550605271E+03  0.10566000000E+00 0.  1.
         13    1    4    4    0    0  0.58018763367E+03 -0.57443700477E+03  0.43267003866E+03  0.92401241129E+03  0.10566000000E+00 0. -1.
          4    1    3    3  501    0  0.15188527702E+03 -0.16420113795E+03  0.52377524954E+03  0.56953635802E+03  0.00000000000E+00 0.  1.
         -4    1    4    4    0  503 -0.20371169941E+03  0.80917994360E+02 -0.17271721310E+03  0.27906525042E+03  0.00000000000E+00 0. -1.
</event>
<event>
 8    1  0.6759491E-006  0.1062608E+04  0.7818608E-02  0.8719893E-01
         21   -1    0    0  501  502  0.00000000000E+00  0.00000000000E+00  0.21049685839E+04  0.21049685839E+04  0.00000000000E+00 0.  1.
         21   -1    0    0  502  503 -0.00000000000E+00 -0.00000000000E+00 -0.58216523420E+03  0.58216523420E+03  0.00000000000E+00 0.  1.
    9000010    2    1    2  501    0  0.27299311321E+03 -0.18873776002E+03  0.11595288002E+04  0.15727819048E+04  0.10094497014E+04 0.  0.
   -9000010    2    1    2    0  503 -0.27299311321E+03  0.18873776002E+03  0.36327454952E+03  0.11143519133E+04  0.99983228916E+03 0.  0.
        -13    1    3    3    0    0 -0.29271686401E+03 -0.36555928952E+03  0.46922378070E+03  0.66293870318E+03  0.10566000000E+00 0.  1.
         13    1    4    4    0    0 -0.45950902102E+03 -0.80756144025E+02 -0.16313782487E+03  0.49425100532E+03  0.10566000000E+00 0. -1.
          4    1    3    3  501    0  0.56570997722E+03  0.17682152950E+03  0.69030501952E+03  0.90984320165E+03  0.00000000000E+00 0.  1.
         -4    1    4    4    0  503  0.18651590781E+03  0.26949390404E+03  0.52641237439E+03  0.62010090799E+03  0.00000000000E+00 0. -1.
</event>
<event>
 8    1  0.6759491E-006  0.1075106E+04  0.7818608E-02  0.8709870E-01
         21   -1    0    0  503  502  0.00000000000E+00  0.00000000000E+00  0.12526026223E+04  0.12526026223E+04  0.00000000000E+00 0. -1.
         21   -1    0    0  501  503 -0.00000000000E+00 -0.00000000000E+00 -0.11142597976E+04  0.11142597976E+04  0.00000000000E+00 0. -1.
    9000010    2    1    2  501    0  0.10944991092E+03  0.34021953564E+03 -0.43581454560E+03  0.11480472573E+04  0.10001747705E+04 0.  0.
   -9000010    2    1    2    0  502 -0.10944991092E+03 -0.34021953564E+03  0.57415737032E+03  0.12188151626E+04  0.10139650385E+04 0.  0.
        -13    1    3    3    0    0 -0.20613641237E+03  0.53284808252E+03  0.67406426005E+01  0.57137093641E+03  0.10566000000E+00 0.  1.
         13    1    4    4    0    0 -0.31799078918E+03  0.26560264427E+03  0.34234096578E+03  0.53745721194E+03  0.10566000000E+00 0. -1.
          4    1    3    3  501    0  0.31558632328E+03 -0.19262854688E+03 -0.44255518820E+03  0.57667632092E+03  0.00000000000E+00 0.  1.
         -4    1    4    4    0  502  0.20854087826E+03 -0.60582217991E+03  0.23181640454E+03  0.68135795071E+03  0.00000000000E+00 0. -1.
</event>
<event>
 8    1  0.7076524E-006  0.1013744E+04  0.7818608E-02  0.8762951E-01
         21   -1    0    0  501  502  0.00000000000E+00  0.00000000000E+00  0.78792265757E+03  0.78792265757E+03  0.00000000000E+00 0.  1.
         21   -1    0    0  502  503 -0.00000000000E+00 -0.00000000000E+00 -0.17496239201E+04  0.17496239201E+04  0.00000000000E+00 0.  1.
    9000010    2    1    2  501    0  0.72251709645E+02  0.56757311431E+02  0.16478381339E+03  0.10220780572E+04  0.10045138864E+04 0.  0.
   -9000010    2    1    2    0  503 -0.72251709645E+02 -0.56757311431E+02 -0.11264850759E+04  0.15154685204E+04  0.10095714478E+04 0.  0.
        -13    1    3    3    0    0 -0.40847363099E+03  0.23744164051E+03  0.18677075735E+03  0.50804779975E+03  0.10566000000E+00 0.  1.
         13    1    4    4    0    0 -0.14065902719E+03 -0.52253220576E+03 -0.64777793338E+03  0.84406227858E+03  0.10566000000E+00 0. -1.
          4    1    3    3  501    0  0.48072534063E+03 -0.18068432908E+03 -0.21986943968E+02  0.51403025748E+03  0.00000000000E+00 0.  1.
         -4    1    4    4    0  503  0.68407317541E+02  0.46577489433E+03 -0.47870714255E+03  0.67140624186E+03  0.00000000000E+00 0. -1.
</event>
<event>
 8    1  0.6759491E-006  0.1012919E+04  0.7818608E-02  0.8767663E-01
         21   -1    0    0  503  502  0.00000000000E+00  0.00000000000E+00  0.48902347614E+03  0.48902347614E+03  0.00000000000E+00 0.  1.
         21   -1    0    0  501  503 -0.00000000000E+00 -0.00000000000E+00 -0.27200092128E+04  0.27200092128E+04  0.00000000000E+00 0.  1.
    9000010    2    1    2  501    0  0.37347275774E+02  0.18001759169E+03 -0.19191906774E+04  0.21700916765E+04  0.99609431071E+03 0.  0.
   -9000010    2    1    2    0  502 -0.37347275774E+02 -0.18001759169E+03 -0.31179505929E+03  0.10389410125E+04  0.97384861045E+03 0.  0.
        -13    1    3    3    0    0 -0.37577802448E+03 -0.22198083648E+03 -0.83658066159E+03  0.94358456428E+03  0.10566000000E+00 0.  1.
         13    1    4    4    0    0  0.71428883618E+02  0.36598453210E+03  0.48148669629E+02  0.37598546342E+03  0.10566000000E+00 0. -1.
          4    1    3    3  501    0  0.41312530025E+03  0.40199842817E+03 -0.10826100158E+04  0.12265071122E+04  0.00000000000E+00 0.  1.
         -4    1    4    4    0  502 -0.10877615939E+03 -0.54600212379E+03 -0.35994372892E+03  0.66295554905E+03  0.00000000000E+00 0. -1.
</event>
<event>
 8    1  0.6759491E-006  0.1200154E+04  0.7818608E-02  0.8606665E-01
         21   -1    0    0  501  502  0.00000000000E+00  0.00000000000E+00  0.72432180267E+03  0.72432180267E+03  0.00000000000E+00 0. -1.
         21   -1    0    0  502  503 -0.00000000000E+00 -0.00000000000E+00 -0.22020937176E+04  0.22020937176E+04  0.00000000000E+00 0. -1.
    9000010    2    1    2  501    0  0.62998069835E+03  0.22281230224E+03 -0.28153718935E+03  0.12327339087E+04  0.99691960471E+03 0.  0.
   -9000010    2    1    2    0  503 -0.62998069835E+03 -0.22281230224E+03 -0.11962347256E+04  0.16936816116E+04  0.99551940237E+03 0.  0.
        -13    1    3    3    0    0  0.37729071837E+03 -0.34509764488E+03 -0.33112859126E+03  0.60916896324E+03  0.10566000000E+00 0.  1.
         13    1    4    4    0    0 -0.35642432384E+03 -0.61267386287E+03 -0.58654192290E+03  0.92002119506E+03  0.10566000000E+00 0. -1.
          4    1    3    3  501    0  0.25268997998E+03  0.56790994711E+03  0.49591401903E+02  0.62356494542E+03  0.00000000000E+00 0.  1.
         -4    1    4    4    0  503 -0.27355637451E+03  0.38986156064E+03 -0.60969280265E+03  0.77366041653E+03  0.00000000000E+00 0. -1.
</event>
<event>
 8    1  0.6759491E-006  0.1022890E+04  0.7818608E-02  0.8754391E-01
         21   -1    0    0  503  502  0.00000000000E+00  0.00000000000E+00  0.27009524482E+04  0.27009524482E+04  0.00000000000E+00 0. -1.
         21   -1    0    0  501  503 -0.00000000000E+00 -0.00000000000E+00 -0.91587546113E+03  0.91587546113E+03  0.00000000000E+00 0. -1.
    9000010    2    1    2  501    0  0.47124596970E+02  0.19908001092E+03 -0.48417048826E+03  0.11276940680E+04  0.99770700657E+03 0.  0.
   -9000010    2    1    2    0  502 -0.47124596970E+02 -0.19908001092E+03  0.22692474753E+04  0.24891338413E+04  0.10022223292E+04 0.  0.
        -13    1    3    3    0    0 -0.19062070239E+03  0.42353816021E+03  0.84162520638E+02  0.47202136220E+03  0.10566000000E+00 0.  1.
         13    1    4    4    0    0 -0.38111445380E+03  0.20891047638E+03  0.61633200934E+03  0.75415977813E+03  0.10566000000E+00 0. -1.
          4    1    3    3  501    0  0.23774529936E+03 -0.22445814929E+03 -0.56833300890E+03  0.65567270582E+03  0.00000000000E+00 0.  1.
         -4    1    4    4    0  502  0.33398985683E+03 -0.40799048730E+03  0.16529154660E+04  0.17349740631E+04  0.00000000000E+00 0. -1.
</event>
<event>
 8    1  0.6759491E-006  0.1062879E+04  0.7818608E-02  0.8727625E-01
         21   -1    0    0  501  502  0.00000000000E+00  0.00000000000E+00  0.47078390205E+03  0.47078390205E+03  0.00000000000E+00 0.  1.
         21   -1    0    0  502  503 -0.00000000000E+00 -0.00000000000E+00 -0.26483676591E+04  0.26483676591E+04  0.00000000000E+00 0.  1.
    9000010    2    1    2  501    0  0.21282371954E+03 -0.59761250691E+02 -0.16747372376E+04  0.19835464866E+04  0.10396376805E+04 0.  0.
   -9000010    2    1    2    0  503 -0.21282371954E+03  0.59761250691E+02 -0.50284651941E+03  0.11356050745E+04  0.99392098305E+03 0.  0.
        -13    1    3    3    0    0 -0.11886927096E+03  0.38237121198E+03 -0.29541496419E+03  0.49760190872E+03  0.10566000000E+00 0.  1.
         13    1    4    4    0    0 -0.13857630967E+03  0.14168652128E+03  0.28107721939E+03  0.34392277962E+03  0.10566000000E+00 0. -1.
          4    1    3    3  501    0  0.33169299050E+03 -0.44213246267E+03 -0.13793222734E+04  0.14859445778E+04  0.00000000000E+00 0.  1.
         -4    1    4    4    0  503 -0.74247409876E+02 -0.81925270586E+02 -0.78392373880E+03  0.79168229492E+03  0.00000000000E+00 0. -1.
</event>
<event>
 8    1  0.6759491E-006  0.1013421E+04  0.7818608E-02  0.8767852E-01
         21   -1    0    0  501  502  0.00000000000E+00  0.00000000000E+00  0.10399575601E+04  0.10399575601E+04  0.00000000000E+00 0. -1.
         21   -1    0    0  502  503 -0.00000000000E+00 -0.00000000000E+00 -0.99125049103E+03  0.99125049103E+03  0.00000000000E+00 0. -1.
    9000010    2    1    2  501    0  0.82935776325E+02  0.73796108848E+01  0.19395966329E+03  0.10318155328E+04  0.10099951194E+04 0.  0.
   -9000010    2    1    2    0  503 -0.82935776325E+02 -0.73796108848E+01 -0.14525259426E+03  0.99939251828E+03  0.98526863738E+03 0.  0.
        -13    1    3    3    0    0  0.27987755979E+03 -0.32615886509E+03 -0.20464041404E+03  0.47601340735E+03  0.10566000000E+00 0.  1.
         13    1    4    4    0    0 -0.41320540525E+02 -0.33619744594E+03  0.29441363963E+03  0.44879339577E+03  0.10566000000E+00 0. -1.
          4    1    3    3  501    0 -0.19694178347E+03  0.33353847597E+03  0.39860007732E+03  0.55580212547E+03  0.00000000000E+00 0.  1.
         -4    1    4    4    0  503 -0.41615235800E+02  0.32881783505E+03 -0.43966623388E+03  0.55059912252E+03  0.00000000000E+00 0. -1.
</event>
<event>
 8    1  0.6759491E-006  0.1070724E+04  0.7818608E-02  0.8712697E-01
         21   -1    0    0  503  502  0.00000000000E+00  0.00000000000E+00  0.79990040198E+03  0.79990040198E+03  0.00000000000E+00 0. -1.
         21   -1    0    0  501  503 -0.00000000000E+00 -0.00000000000E+00 -0.17267628789E+04  0.17267628789E+04  0.00000000000E+00 0. -1.
    9000010    2    1    2  501    0 -0.34134710314E+03  0.26100949045E+02  0.69009087532E+02  0.10644012881E+04  0.10054793601E+04 0.  0.
   -9000010    2    1    2    0  502  0.34134710314E+03 -0.26100949045E+02 -0.99587156441E+03  0.14622619927E+04  0.10145200137E+04 0.  0.
        -13    1    3    3    0    0  0.33631766034E+03  0.11796830486E+03  0.12634373702E+03  0.37813865269E+03  0.10566000000E+00 0.  1.
         13    1    4    4    0    0  0.61639795988E+03  0.15700389367E+03 -0.92779088219E+03  0.11248967063E+04  0.10566000000E+00 0. -1.
          4    1    3    3  501    0 -0.67766476348E+03 -0.91867355816E+02 -0.57334649484E+02  0.68626263541E+03  0.00000000000E+00 0.  1.
         -4    1    4    4    0  502 -0.27505085673E+03 -0.18310484271E+03 -0.68080682229E+02  0.33736528646E+03  0.00000000000E+00 0. -1.
</event>
<event>
 8    1  0.6759491E-006  0.1014718E+04  0.7818608E-02  0.8762370E-01
         21   -1    0    0  503  502  0.00000000000E+00  0.00000000000E+00  0.11768726324E+04  0.11768726324E+04  0.00000000000E+00 0.  1.
         21   -1    0    0  501  503 -0.00000000000E+00 -0.00000000000E+00 -0.95573306694E+03  0.95573306694E+03  0.00000000000E+00 0.  1.
    9000010    2    1    2  501    0  0.12109019743E+03 -0.12110346545E+03 -0.20961914199E+03  0.10361435210E+04  0.10001621499E+04 0.  0.
   -9000010    2    1    2    0  502 -0.12109019743E+03  0.12110346545E+03  0.43075870749E+03  0.10964621784E+04  0.99365354090E+03 0.  0.
        -13    1    3    3    0    0  0.56119139675E+01  0.25756791974E+03 -0.48823778165E+03  0.55204064112E+03  0.10566000000E+00 0.  1.
         13    1    4    4    0    0  0.27376375698E+03  0.42712251949E+03  0.18795251968E+03  0.54102347649E+03  0.10566000000E+00 0. -1.
          4    1    3    3  501    0  0.11547828346E+03 -0.37867138520E+03  0.27861863966E+03  0.48410287985E+03  0.00000000000E+00 0.  1.
         -4    1    4    4    0  502 -0.39485395441E+03 -0.30601905404E+03  0.24280618782E+03  0.55543870192E+03  0.00000000000E+00 0. -1.
</event>
<event>
 8    1  0.6759491E-006  0.1053121E+04  0.7818608E-02  0.8729983E-01
         21   -1    0    0  503  502  0.00000000000E+00  0.00000000000E+00  0.43192874042E+04  0.43192874042E+04  0.00000000000E+00 0. -1.
         21   -1    0    0  501  503 -0.00000000000E+00 -0.00000000000E+00 -0.30317995353E+03  0.30317995353E+03  0.00000000000E+00 0. -1.
    9000010    2    1    2  501    0  0.23555928542E+03 -0.81464707006E+02  0.10511086846E+04  0.14759959447E+04  0.10057881917E+04 0.  0.
   -9000010    2    1    2    0  502 -0.23555928542E+03  0.81464707006E+02  0.29649987661E+04  0.31464714130E+04  0.10232008574E+04 0.  0.
        -13    1    3    3    0    0  0.84422511242E+02 -0.32390719920E+03  0.11308772781E+04  0.11793754548E+04  0.10566000000E+00 0.  1.
         13    1    4    4    0    0  0.31379683490E+03  0.28903946659E+03  0.16852036405E+04  0.17383680819E+04  0.10566000000E+00 0. -1.
          4    1    3    3  501    0  0.15113677418E+03  0.24244249219E+03 -0.79768593527E+02  0.29662048992E+03  0.00000000000E+00 0.  1.
         -4    1    4    4    0  502 -0.54935612032E+03 -0.20757475958E+03  0.12797951256E+04  0.14081033312E+04  0.00000000000E+00 0. -1.
</event>
<event>
 8    1  0.6759491E-006  0.9823948E+03  0.7818608E-02  0.8796898E-01
         21   -1    0    0  503  502  0.00000000000E+00  0.00000000000E+00  0.63554404226E+03  0.63554404226E+03  0.00000000000E+00 0.  1.
         21   -1    0    0  501  503 -0.00000000000E+00 -0.00000000000E+00 -0.15916871372E+04  0.15916871372E+04  0.00000000000E+00 0.  1.
    9000010    2    1    2  501    0 -0.10369619672E+03  0.10783388543E+03 -0.19263957728E+03  0.10011042054E+04  0.97093695736E+03 0.  0.
   -9000010    2    1    2    0  502  0.10369619672E+03 -0.10783388543E+03 -0.76350351770E+03  0.12261269742E+04  0.94766486014E+03 0.  0.
        -13    1    3    3    0    0  0.31705845858E+03  0.27508961878E+03 -0.32331818745E+03  0.52984434131E+03  0.10566000000E+00 0.  1.
         13    1    4    4    0    0  0.20564145853E+03  0.13752515518E+03  0.14007606803E+03  0.28429367522E+03  0.10566000000E+00 0. -1.
          4    1    3    3  501    0 -0.42075465531E+03 -0.16725573335E+03  0.13067861017E+03  0.47125986404E+03  0.00000000000E+00 0.  1.
         -4    1    4    4    0  502 -0.10194526180E+03 -0.24535904060E+03 -0.90357958574E+03  0.94183329893E+03  0.00000000000E+00 0. -1.
</event>
<event>
 8    1  0.6759491E-006  0.1034021E+04  0.7818608E-02  0.8762239E-01
         21   -1    0    0  501  502  0.00000000000E+00  0.00000000000E+00  0.16841198447E+04  0.16841198447E+04  0.00000000000E+00 0. -1.
         21   -1    0    0  502  503 -0.00000000000E+00 -0.00000000000E+00 -0.68519953540E+03  0.68519953540E+03  0.00000000000E+00 0. -1.
    9000010    2    1    2  501    0  0.11512679192E+03  0.56767898365E+02  0.93177989537E+03  0.13331213529E+04  0.94473382264E+03 0.  0.
   -9000010    2    1    2    0  503 -0.11512679192E+03 -0.56767898365E+02  0.67140413967E+02  0.10361980272E+04  0.10260222921E+04 0.  0.
        -13    1    3    3    0    0 -0.18626326754E+03  0.33200463198E+03  0.82899156271E+03  0.91222152063E+03  0.10566000000E+00 0.  1.
         13    1    4    4    0    0 -0.28171484757E+03  0.39175241079E+03 -0.15756374708E+03  0.50760176542E+03  0.10566000000E+00 0. -1.
          4    1    3    3  501    0  0.30139005946E+03 -0.27523673361E+03  0.10278833266E+03  0.42089983227E+03  0.00000000000E+00 0.  1.
         -4    1    4    4    0  503  0.16658805566E+03 -0.44852030916E+03  0.22470416105E+03  0.52859626182E+03  0.00000000000E+00 0. -1.
</event>
<event>
 8    1  0.6759491E-006  0.1110239E+04  0.7818608E-02  0.8692388E-01
         21   -1    0    0  501  502  0.00000000000E+00  0.00000000000E+00  0.13039378969E+04  0.13039378969E+04  0.00000000000E+00 0. -1.
         21   -1    0    0  502  503 -0.00000000000E+00 -0.00000000000E+00 -0.96135707233E+03  0.96135707233E+03  0.00000000000E+00 0. -1.
    9000010    2    1    2  501    0  0.32491863534E+03  0.31796585213E+03  0.48170544523E+03  0.11463733048E+04  0.93565870662E+03 0.  0.
   -9000010    2    1    2    0  503 -0.32491863534E+03 -0.31796585213E+03 -0.13912462064E+03  0.11189216645E+04  0.10128946779E+04 0.  0.
        -13    1    3    3    0    0  0.32642058406E+03  0.63325414326E+03  0.24971698231E+03  0.75493032133E+03  0.10566000000E+00 0.  1.
         13    1    4    4    0    0 -0.28513287112E+02  0.35426196782E+03  0.53507660935E+02  0.35941289672E+03  0.10566000000E+00 0. -1.
          4    1    3    3  501    0 -0.15019487223E+01 -0.31528829113E+03  0.23198846292E+03  0.39144298346E+03  0.00000000000E+00 0.  1.
         -4    1    4    4    0  503 -0.29640534822E+03 -0.67222781995E+03 -0.19263228157E+03  0.75950876774E+03  0.00000000000E+00 0. -1.
</event>
<event>
 8    1  0.6759491E-006  0.1006947E+04  0.7818608E-02  0.8771406E-01
         21   -1    0    0  501  502  0.00000000000E+00  0.00000000000E+00  0.69376789507E+03  0.69376789507E+03  0.00000000000E+00 0. -1.
         21   -1    0    0  502  503 -0.00000000000E+00 -0.00000000000E+00 -0.16254690890E+04  0.16254690890E+04  0.00000000000E+00 0. -1.
    9000010    2    1    2  501    0 -0.55625824714E+02  0.62760034774E+02 -0.85932921736E+03  0.13237780849E+04  0.10034483843E+04 0.  0.
   -9000010    2    1    2    0  503  0.55625824714E+02 -0.62760034774E+02 -0.72371976574E+02  0.99545889917E+03  0.98927633278E+03 0.  0.
        -13    1    3    3    0    0 -0.13818252833E+03  0.43398196121E+03 -0.82445388513E+03  0.94189116869E+03  0.10566000000E+00 0.  1.
         13    1    4    4    0    0 -0.42757129519E+03 -0.22011732005E+03 -0.78378341248E+02  0.48724944596E+03  0.10566000000E+00 0. -1.
          4    1    3    3  501    0  0.82556703618E+02 -0.37122192643E+03 -0.34875332235E+02  0.38188691621E+03  0.00000000000E+00 0.  1.
         -4    1    4    4    0  503  0.48319711990E+03  0.15735728527E+03  0.60063646739E+01  0.50820945320E+03  0.00000000000E+00 0. -1.
</event>
<event>
 8    1  0.6759491E-006  0.1117514E+04  0.7818608E-02  0.8675006E-01
         21   -1    0    0  501  502  0.00000000000E+00  0.00000000000E+00  0.12822044343E+04  0.12822044343E+04  0.00000000000E+00 0.  1.
         21   -1    0    0  502  503 -0.00000000000E+00 -0.00000000000E+00 -0.10065728809E+04  0.10065728809E+04  0.00000000000E+00 0.  1.
    9000010    2    1    2  501    0  0.32597211659E+03  0.27712216014E+03 -0.11024422140E+03  0.11229383822E+04  0.10323673326E+04 0.  0.
   -9000010    2    1    2    0  503 -0.32597211659E+03 -0.27712216014E+03  0.38587577479E+03  0.11658389330E+04  0.10135214806E+04 0.  0.
        -13    1    3    3    0    0  0.67933047967E+03  0.31979057052E+03 -0.14709810825E+03  0.76511030200E+03  0.10566000000E+00 0.  1.
         13    1    4    4    0    0 -0.16101079710E+03  0.28896138111E+03  0.46528302997E+03  0.57088656115E+03  0.10566000000E+00 0. -1.
          4    1    3    3  501    0 -0.35335836308E+03 -0.42668410377E+02  0.36853886851E+02  0.35782808020E+03  0.00000000000E+00 0.  1.
         -4    1    4    4    0  503 -0.16496131949E+03 -0.56608354126E+03 -0.79407255176E+02  0.59495237186E+03  0.00000000000E+00 0. -1.
</event>
<event>
 8    1  0.6759491E-006  0.9951529E+03  0.7818608E-02  0.8780319E-01
         21   -1    0    0  503  502  0.00000000000E+00  0.00000000000E+00  0.13968351559E+04  0.13968351559E+04  0.00000000000E+00 0.  1.
         21   -1    0    0  501  503 -0.00000000000E+00 -0.00000000000E+00 -0.18058884255E+04  0.18058884255E+04  0.00000000000E+00 0.  1.
    9000010    2    1    2  501    0 -0.11856026100E+03  0.66470985575E+01 -0.14547434286E+04  0.17625571338E+04  0.98804275594E+03 0.  0.
   -9000010    2    1    2    0  502  0.11856026100E+03 -0.66470985575E+01  0.10456901590E+04  0.14401664476E+04  0.98311279547E+03 0.  0.
        -13    1    3    3    0    0  0.27669286140E+03  0.15214954015E+03 -0.81414308669E+02  0.32609312004E+03  0.10566000000E+00 0.  1.
         13    1    4    4    0    0  0.51026660408E+02  0.38378038945E+03  0.95951446410E+03  0.10346782714E+04  0.10566000000E+00 0. -1.
          4    1    3    3  501    0 -0.39525312240E+03 -0.14550244160E+03 -0.13733291199E+04  0.14364640138E+04  0.00000000000E+00 0.  1.
         -4    1    4    4    0  502  0.67533600590E+02 -0.39042748801E+03  0.86175694950E+02  0.40548817615E+03  0.00000000000E+00 0. -1.
</event>
<event>
 8    1  0.6759491E-006  0.1014501E+04  0.7818608E-02  0.8762059E-01
         21   -1    0    0  503  502  0.00000000000E+00  0.00000000000E+00  0.20052181145E+04  0.20052181145E+04  0.00000000000E+00 0. -1.
         21   -1    0    0  501  503 -0.00000000000E+00 -0.00000000000E+00 -0.64977604403E+03  0.64977604403E+03  0.00000000000E+00 0. -1.
    9000010    2    1    2  501    0 -0.77651773580E+02  0.13595305700E+03  0.65645613742E+02  0.10166227709E+04  0.10023469858E+04 0.  0.
   -9000010    2    1    2    0  502  0.77651773580E+02 -0.13595305700E+03  0.12897964567E+04  0.16383713877E+04  0.99808460190E+03 0.  0.
        -13    1    3    3    0    0  0.11277791121E+03  0.18965216595E+03 -0.42980043246E+03  0.48313064922E+03  0.10566000000E+00 0.  1.
         13    1    4    4    0    0  0.44535179955E+03 -0.31834931680E+03  0.46980487184E+03  0.72138834315E+03  0.10566000000E+00 0. -1.
          4    1    3    3  501    0 -0.19042968479E+03 -0.53699108945E+02  0.49544604620E+03  0.53349212164E+03  0.00000000000E+00 0.  1.
         -4    1    4    4    0  502 -0.36770002597E+03  0.18239625979E+03  0.81999158491E+03  0.91698304455E+03  0.00000000000E+00 0. -1.
</event>
<event>
 8    1  0.6759491E-006  0.9936702E+03  0.7818608E-02  0.8782611E-01
         21   -1    0    0  503  502  0.00000000000E+00  0.00000000000E+00  0.68464427499E+03  0.68464427499E+03  0.00000000000E+00 0.  1.
         21   -1    0    0  501  503 -0.00000000000E+00 -0.00000000000E+00 -0.14461391207E+04  0.14461391207E+04  0.00000000000E+00 0.  1.
    9000010    2    1    2  501    0  0.33925548937E+02  0.28134548056E+02 -0.49270737648E+03  0.11014014760E+04  0.98406410196E+03 0.  0.
   -9000010    2    1    2    0  502 -0.33925548937E+02 -0.28134548056E+02 -0.26878746924E+03  0.10293819197E+04  0.99269226721E+03 0.  0.
        -13    1    3    3    0    0  0.40006624215E+03 -0.48074838149E+02 -0.59046165584E+03  0.71484905144E+03  0.10566000000E+00 0.  1.
         13    1    4    4    0    0 -0.26975082045E+03 -0.24011746457E+03 -0.51424278482E+03  0.62838487794E+03  0.10566000000E+00 0. -1.
          4    1    3    3  501    0 -0.36614069322E+03  0.76209386205E+02  0.97754279353E+02  0.38655242452E+03  0.00000000000E+00 0.  1.
         -4    1    4    4    0  502  0.23582527151E+03  0.21198291652E+03  0.24545531557E+03  0.40099704179E+03  0.00000000000E+00 0. -1.
</event>
<event>
 8    1  0.6759491E-006  0.1077089E+04  0.7818608E-02  0.8709178E-01
         21   -1    0    0  503  502  0.00000000000E+00  0.00000000000E+00  0.41022824377E+03  0.41022824377E+03  0.00000000000E+00 0.  1.
         21   -1    0    0  501  503 -0.00000000000E+00 -0.00000000000E+00 -0.28968083115E+04  0.28968083115E+04  0.00000000000E+00 0.  1.
    9000010    2    1    2  501    0  0.14066175413E+03 -0.30255800078E+03 -0.15826431464E+04  0.19143875820E+04  0.10241061529E+04 0.  0.
   -9000010    2    1    2    0  502 -0.14066175413E+03  0.30255800078E+03 -0.90393692129E+03  0.13926489732E+04  0.10055059085E+04 0.  0.
        -13    1    3    3    0    0  0.21842899212E+03 -0.39393770755E+03 -0.14712121083E+03  0.47385947692E+03  0.10566000000E+00 0.  1.
         13    1    4    4    0    0  0.10210058233E+03 -0.34315409952E+03 -0.40937278897E+03  0.54384313588E+03  0.10566000000E+00 0. -1.
          4    1    3    3  501    0 -0.77767237993E+02  0.91379706764E+02 -0.14355219356E+04  0.14405281051E+04  0.00000000000E+00 0.  1.
         -4    1    4    4    0  502 -0.24276233646E+03  0.64571210030E+03 -0.49456413232E+03  0.84880583731E+03  0.00000000000E+00 0. -1.
</event>
<event>
 8    1  0.6759491E-006  0.1059266E+04  0.7818608E-02  0.8727275E-01
         21   -1    0    0  501  502  0.00000000000E+00  0.00000000000E+00  0.11219706923E+04  0.11219706923E+04  0.00000000000E+00 0.  1.
         21   -1    0    0  502  503 -0.00000000000E+00 -0.00000000000E+00 -0.20265165624E+04  0.20265165624E+04  0.00000000000E+00 0.  1.
    9000010    2    1    2  501    0  0.29942143804E+03 -0.13412542958E+03  0.68584797048E+03  0.12376241295E+04  0.97656705806E+03 0.  0.
   -9000010    2    1    2    0  503 -0.29942143804E+03  0.13412542958E+03 -0.15903938406E+04  0.19108631252E+04  0.10071754994E+04 0.  0.
        -13    1    3    3    0    0  0.38870180704E+01 -0.48693392353E+03  0.59439754215E+03  0.76839326134E+03  0.10566000000E+00 0.  1.
         13    1    4    4    0    0  0.56193341427E+02  0.14490921533E+03  0.99090900876E+02  0.18432414413E+03  0.10566000000E+00 0. -1.
          4    1    3    3  501    0  0.29553441997E+03  0.35280849395E+03  0.91450428327E+02  0.46923086816E+03  0.00000000000E+00 0.  1.
         -4    1    4    4    0  503 -0.35561477946E+03 -0.10783785750E+02 -0.16894847415E+04  0.17265389810E+04  0.00000000000E+00 0. -1.
</event>
<event>
 8    1  0.6759491E-006  0.1033574E+04  0.7818608E-02  0.8748956E-01
         21   -1    0    0  501  502  0.00000000000E+00  0.00000000000E+00  0.12762294721E+04  0.12762294721E+04  0.00000000000E+00 0.  1.
         21   -1    0    0  502  503 -0.00000000000E+00 -0.00000000000E+00 -0.82489901750E+03  0.82489901750E+03  0.00000000000E+00 0.  1.
    9000010    2    1    2  501    0 -0.28251944422E+02 -0.55648800664E+02  0.32130532730E+03  0.10823638456E+04  0.10316876560E+04 0.  0.
   -9000010    2    1    2    0  503  0.28251944422E+02  0.55648800664E+02  0.13002512733E+03  0.10187646440E+04  0.10085037951E+04 0.  0.
        -13    1    3    3    0    0 -0.25673564518E+03  0.32615569956E+03 -0.14324524705E+03  0.43910129108E+03  0.10566000000E+00 0.  1.
         13    1    4    4    0    0 -0.36716882961E+03 -0.18394103835E+03 -0.19399817905E+03  0.45418339871E+03  0.10566000000E+00 0. -1.
          4    1    3    3  501    0  0.22848370076E+03 -0.38180450022E+03  0.46455057435E+03  0.64326255451E+03  0.00000000000E+00 0.  1.
         -4    1    4    4    0  503  0.39542077403E+03  0.23958983901E+03  0.32402330639E+03  0.56458124533E+03  0.00000000000E+00 0. -1.
</event>
<event>
 8    1  0.6759491E-006  0.1025572E+04  0.7818608E-02  0.8758574E-01
         21   -1    0    0  503  502  0.00000000000E+00  0.00000000000E+00  0.20632547556E+04  0.20632547556E+04  0.00000000000E+00 0. -1.
         21   -1    0    0  501  503 -0.00000000000E+00 -0.00000000000E+00 -0.75597847455E+03  0.75597847455E+03  0.00000000000E+00 0. -1.
    9000010    2    1    2  501    0  0.10743940670E+03 -0.82069257112E+02 -0.18384542697E+03  0.10094701549E+04  0.98333730911E+03 0.  0.
   -9000010    2    1    2    0  502 -0.10743940670E+03  0.82069257112E+02  0.14911217081E+04  0.18097630753E+04  0.10166217839E+04 0.  0.
        -13    1    3    3    0    0  0.49926658286E+03 -0.21589368112E+03 -0.23448520036E+03  0.59233480622E+03  0.10566000000E+00 0.  1.
         13    1    4    4    0    0  0.38504353322E+03  0.28975730201E+03  0.82842757192E+03  0.95838931006E+03  0.10566000000E+00 0. -1.
          4    1    3    3  501    0 -0.39182717616E+03  0.13382442400E+03  0.50639773391E+02  0.41713534865E+03  0.00000000000E+00 0.  1.
         -4    1    4    4    0  502 -0.49248293992E+03 -0.20768804490E+03  0.66269413614E+03  0.85137376527E+03  0.00000000000E+00 0. -1.
</event>
<event>
 8    1  0.6759491E-006  0.1020994E+04  0.7818608E-02  0.8765883E-01
         21   -1    0    0  503  502  0.00000000000E+00  0.00000000000E+00  0.11590798089E+04  0.11590798089E+04  0.00000000000E+00 0.  1.
         21   -1    0    0  501  503 -0.00000000000E+00 -0.00000000000E+00 -0.12730028826E+04  0.12730028826E+04  0.00000000000E+00 0.  1.
    9000010    2    1    2  501    0  0.15118912637E+03  0.81314830758E+02  0.63519147422E+03  0.12024545329E+04  0.10064583654E+04 0.  0.
   -9000010    2    1    2    0  502 -0.15118912637E+03 -0.81314830758E+02 -0.74911454795E+03  0.12296281586E+04  0.95986590146E+03 0.  0.
        -13    1    3    3    0    0  0.21832352144E+03  0.32924606393E+03  0.80349847193E+03  0.89536469451E+03  0.10566000000E+00 0.  1.
         13    1    4    4    0    0  0.19502687625E+03 -0.40783119034E+03 -0.17706141571E+03  0.48550233611E+03  0.10566000000E+00 0. -1.
          4    1    3    3  501    0 -0.67134395067E+02 -0.24793123318E+03 -0.16830699771E+03  0.30708983842E+03  0.00000000000E+00 0.  1.
         -4    1    4    4    0  502 -0.34621600262E+03  0.32651635959E+03 -0.57205313224E+03  0.74412582246E+03  0.00000000000E+00 0. -1.
</event>
<event>
 8    1  0.6759491E-006  0.1003373E+04  0.7818608E-02  0.8772833E-01
         21   -1    0    0  503  502  0.00000000000E+00  0.00000000000E+00  0.56295040948E+03  0.56295040948E+03  0.00000000000E+00 0. -1.
         21   -1    0    0  501  503 -0.00000000000E+00 -0.00000000000E+00 -0.17796926414E+04  0.17796926414E+04  0.00000000000E+00 0. -1.
    9000010    2    1    2  501    0 -0.90305296209E+02  0.27507618038E+02 -0.57107946261E+03  0.11545079671E+04  0.99892200792E+03 0.  0.
   -9000010    2    1    2    0  502  0.90305296209E+02 -0.27507618038E+02 -0.64566276926E+03  0.11881350837E+04  0.99291130018E+03 0.  0.
        -13    1    3    3    0    0 -0.33518751872E+03 -0.29496196031E+03  0.96007392913E+01  0.44659312141E+03  0.10566000000E+00 0.  1.
         13    1    4    4    0    0  0.32442228907E+03 -0.13812762732E+03 -0.80864471181E+03  0.88217648131E+03  0.10566000000E+00 0. -1.
          4    1    3    3  501    0  0.24488222251E+03  0.32246957835E+03 -0.58068020190E+03  0.70791484568E+03  0.00000000000E+00 0.  1.
         -4    1    4    4    0  502 -0.23411699286E+03  0.11062000928E+03  0.16298194255E+03  0.30595860243E+03  0.00000000000E+00 0. -1.
</event>
<event>
 8    1  0.6759491E-006  0.1001598E+04  0.7818608E-02  0.8776290E-01
         21   -1    0    0  503  502  0.00000000000E+00  0.00000000000E+00  0.13599814908E+04  0.13599814908E+04  0.00000000000E+00 0.  1.
         21   -1    0    0  501  503 -0.00000000000E+00 -0.00000000000E+00 -0.76700219046E+03  0.76700219046E+03  0.00000000000E+00 0.  1.
    9000010    2    1    2  501    0 -0.10104050774E+03  0.15919311624E+02  0.53881062631E+02  0.98951956923E+03  0.98274269282E+03 0.  0.
   -9000010    2    1    2    0  502  0.10104050774E+03 -0.15919311624E+02  0.53909823775E+03  0.11374641121E+04  0.99636092238E+03 0.  0.
        -13    1    3    3    0    0  0.11926409060E+03 -0.30468713705E+03 -0.31445139660E+03  0.45380377563E+03  0.10566000000E+00 0.  1.
         13    1    4    4    0    0 -0.27984151100E+03  0.12717994355E+03 -0.14627609309E+03  0.34041550478E+03  0.10566000000E+00 0. -1.
          4    1    3    3  501    0 -0.22030459835E+03  0.32060644867E+03  0.36833245923E+03  0.53571579359E+03  0.00000000000E+00 0.  1.
         -4    1    4    4    0  502  0.38088201874E+03 -0.14309925518E+03  0.68537433084E+03  0.79704860730E+03  0.00000000000E+00 0. -1.
</event>
<event>
 8    1  0.6759491E-006  0.1068812E+04  0.7818608E-02  0.8714630E-01
         21   -1    0    0  501  502  0.00000000000E+00  0.00000000000E+00  0.18050622712E+04  0.18050622712E+04  0.00000000000E+00 0. -1.
         21   -1    0    0  502  503 -0.00000000000E+00 -0.00000000000E+00 -0.86861692858E+03  0.86861692858E+03  0.00000000000E+00 0. -1.
    9000010    2    1    2  501    0 -0.34053226232E+03  0.17918912871E+03  0.11747416308E+04  0.15881993856E+04  0.99714012238E+03 0.  0.
   -9000010    2    1    2    0  503  0.34053226232E+03 -0.17918912871E+03 -0.23829628821E+03  0.10854798142E+04  0.98661559915E+03 0.  0.
        -13    1    3    3    0    0 -0.31031644709E+03  0.57363436898E+03  0.57347390222E+03  0.86846129119E+03  0.10566000000E+00 0.  1.
         13    1    4    4    0    0  0.49056881343E+03 -0.45374404841E+03  0.36258656201E+02  0.66922053428E+03  0.10566000000E+00 0. -1.
          4    1    3    3  501    0 -0.30215815231E+02 -0.39444524027E+03  0.60126772861E+03  0.71973809440E+03  0.00000000000E+00 0.  1.
         -4    1    4    4    0  503 -0.15003655111E+03  0.27455491970E+03 -0.27455494441E+03  0.41625927990E+03  0.00000000000E+00 0. -1.
</event>
<event>
 8    1  0.6759491E-006  0.1036191E+04  0.7818608E-02  0.8742472E-01
         21   -1    0    0  501  502  0.00000000000E+00  0.00000000000E+00  0.13599457448E+04  0.13599457448E+04  0.00000000000E+00 0.  1.
         21   -1    0    0  502  503 -0.00000000000E+00 -0.00000000000E+00 -0.92368013289E+03  0.92368013289E+03  0.00000000000E+00 0.  1.
    9000010    2    1    2  501    0 -0.55449790561E+02 -0.19778221944E+03  0.65914893868E+03  0.12237348910E+04  0.10103748189E+04 0.  0.
   -9000010    2    1    2    0  503  0.55449790561E+02  0.19778221944E+03 -0.22288332676E+03  0.10598909867E+04  0.10156276092E+04 0.  0.
        -13    1    3    3    0    0  0.23432447937E+02  0.41313222840E+03  0.23536171057E+03  0.47604880394E+03  0.10566000000E+00 0.  1.
         13    1    4    4    0    0  0.24997200066E+03 -0.28595410606E+03  0.16090318358E+03  0.41248708772E+03  0.10566000000E+00 0. -1.
          4    1    3    3  501    0 -0.78882238497E+02 -0.61091444785E+03  0.42378722810E+03  0.74768608710E+03  0.00000000000E+00 0.  1.
         -4    1    4    4    0  503 -0.19452221010E+03  0.48373632550E+03 -0.38378651034E+03  0.64740389893E+03  0.00000000000E+00 0. -1.
</event>
<event>
 8    1  0.6759491E-006  0.1035197E+04  0.7818608E-02  0.8742465E-01
         21   -1    0    0  501  502  0.00000000000E+00  0.00000000000E+00  0.94935862420E+03  0.94935862420E+03  0.00000000000E+00 0. -1.
         21   -1    0    0  502  503 -0.00000000000E+00 -0.00000000000E+00 -0.11412663695E+04  0.11412663695E+04  0.00000000000E+00 0. -1.
    9000010    2    1    2  501    0 -0.94442469596E+02  0.21097407108E+03  0.18723778247E+02  0.10342164487E+04  0.10078807688E+04 0.  0.
   -9000010    2    1    2    0  503  0.94442469596E+02 -0.21097407108E+03 -0.21063152357E+03  0.10564085450E+04  0.10090609182E+04 0.  0.
        -13    1    3    3    0    0 -0.60515276714E+02 -0.76932890615E+02  0.47974199383E+03  0.48962553057E+03  0.10566000000E+00 0.  1.
         13    1    4    4    0    0 -0.53562005322E+02 -0.13651298101E+03  0.39877395493E+03  0.42488276111E+03  0.10566000000E+00 0. -1.
          4    1    3    3  501    0 -0.33927192882E+02  0.28790696170E+03 -0.46101821558E+03  0.54459091813E+03  0.00000000000E+00 0.  1.
         -4    1    4    4    0  503  0.14800447492E+03 -0.74461090070E+02 -0.60940547850E+03  0.63152578392E+03  0.00000000000E+00 0. -1.
</event>
<event>
 8    1  0.6759491E-006  0.1083737E+04  0.7818608E-02  0.8715819E-01
         21   -1    0    0  501  502  0.00000000000E+00  0.00000000000E+00  0.10270186017E+04  0.10270186017E+04  0.00000000000E+00 0. -1.
         21   -1    0    0  502  503 -0.00000000000E+00 -0.00000000000E+00 -0.11535398419E+04  0.11535398419E+04  0.00000000000E+00 0. -1.
    9000010    2    1    2  501    0 -0.20028178133E+03  0.23700929646E+03  0.23591952408E+03  0.10378210955E+04  0.96183595580E+03 0.  0.
   -9000010    2    1    2    0  503  0.20028178133E+03 -0.23700929646E+03 -0.36244076424E+03  0.11427373481E+04  0.10383636842E+04 0.  0.
        -13    1    3    3    0    0  0.18339703520E+03  0.48113979873E+02 -0.29833234173E+03  0.35348497121E+03  0.10566000000E+00 0.  1.
         13    1    4    4    0    0  0.61315853748E+02  0.39019697258E+03  0.19304160935E+02  0.39545666403E+03  0.10566000000E+00 0. -1.
          4    1    3    3  501    0 -0.38367881653E+03  0.18889531659E+03  0.53425186582E+03  0.68433612429E+03  0.00000000000E+00 0.  1.
         -4    1    4    4    0  503  0.13896592758E+03 -0.62720626904E+03 -0.38174492518E+03  0.74728068411E+03  0.00000000000E+00 0. -1.
</event>
<event>
 8    1  0.6759491E-006  0.1056491E+04  0.7818608E-02  0.8734148E-01
         21   -1    0    0  503  502  0.00000000000E+00  0.00000000000E+00  0.13545930642E+04  0.13545930642E+04  0.00000000000E+00 0.  1.
         21   -1    0    0  501  503 -0.00000000000E+00 -0.00000000000E+00 -0.89232734824E+03  0.89232734824E+03  0.00000000000E+00 0.  1.
    9000010    2    1    2  501    0  0.72613952903E+02 -0.13721838084E+03 -0.16007989935E+03  0.10207529428E+04  0.99609704636E+03 0.  0.
   -9000010    2    1    2    0  502 -0.72613952903E+02  0.13721838084E+03  0.62234561529E+03  0.12261674697E+04  0.10450219752E+04 0.  0.
        -13    1    3    3    0    0  0.33426502962E+03  0.30279728891E+03  0.75364273327E+02  0.45727354293E+03  0.10566000000E+00 0.  1.
         13    1    4    4    0    0 -0.50197500414E+03  0.21970628852E+03  0.56181554853E+03  0.78478435238E+03  0.10566000000E+00 0. -1.
          4    1    3    3  501    0 -0.26165107672E+03 -0.44001566976E+03 -0.23544417268E+03  0.56347939982E+03  0.00000000000E+00 0.  1.
         -4    1    4    4    0  502  0.42936105124E+03 -0.82487907678E+02  0.60530066755E+02  0.44138311728E+03  0.00000000000E+00 0. -1.
</event>
<event>
 8    1  0.6759491E-006  0.1013633E+04  0.7818608E-02  0.8766319E-01
         21   -1    0    0  501  502  0.00000000000E+00  0.00000000000E+00  0.68272801756E+03  0.68272801756E+03  0.00000000000E+00 0.  1.
         21   -1    0    0  502  503 -0.00000000000E+00 -0.00000000000E+00 -0.19120382834E+04  0.19120382834E+04  0.00000000000E+00 0.  1.
    9000010    2    1    2  501    0  0.61280458691E+02  0.16763965444E+03 -0.12290927414E+04  0.15811331983E+04  0.97849623172E+03 0.  0.
   -9000010    2    1    2    0  503 -0.61280458691E+02 -0.16763965444E+03 -0.21752440549E+00  0.10136331026E+04  0.99779440318E+03 0.  0.
        -13    1    3    3    0    0  0.42443764735E+03  0.16109409082E+03 -0.21182657976E+03  0.50096819624E+03  0.10566000000E+00 0.  1.
         13    1    4    4    0    0  0.20194674224E+03  0.10423094964E+03  0.40174448219E+03  0.46156821565E+03  0.10566000000E+00 0. -1.
          4    1    3    3  501    0 -0.36315718866E+03  0.65455636207E+01 -0.10172661617E+04  0.10801650021E+04  0.00000000000E+00 0.  1.
         -4    1    4    4    0  503 -0.26322720093E+03 -0.27187060408E+03 -0.40196200659E+03  0.55206488696E+03  0.00000000000E+00 0. -1.
</event>
<event>
 8    1  0.6759491E-006  0.1090830E+04  0.7818608E-02  0.8697935E-01
         21   -1    0    0  501  502  0.00000000000E+00  0.00000000000E+00  0.12595619164E+04  0.12595619164E+04  0.00000000000E+00 0. -1.
         21   -1    0    0  502  503 -0.00000000000E+00 -0.00000000000E+00 -0.12441875872E+04  0.12441875872E+04  0.00000000000E+00 0. -1.
    9000010    2    1    2  501    0 -0.36774616477E+03  0.19431787566E+03  0.63933715551E+03  0.12470715895E+04  0.98663005857E+03 0.  0.
   -9000010    2    1    2    0  503  0.36774616477E+03 -0.19431787566E+03 -0.62396282637E+03  0.12566779141E+04  0.10084210889E+04 0.  0.
        -13    1    3    3    0    0 -0.29788275218E+03  0.56064241844E+03  0.59748387944E+03  0.87180333377E+03  0.10566000000E+00 0.  1.
         13    1    4    4    0    0  0.45267615890E+03  0.25274967016E+03 -0.45179697257E+02  0.52042224858E+03  0.10566000000E+00 0. -1.
          4    1    3    3  501    0 -0.69863412585E+02 -0.36632454278E+03  0.41853276068E+02  0.37526825576E+03  0.00000000000E+00 0.  1.
         -4    1    4    4    0  503 -0.84929994131E+02 -0.44706754583E+03 -0.57878312911E+03  0.73625566550E+03  0.00000000000E+00 0. -1.
</event>
<event>
 8    1  0.6759491E-006  0.1081438E+04  0.7818608E-02  0.8709055E-01
         21   -1    0    0  501  502  0.00000000000E+00  0.00000000000E+00  0.52495757738E+03  0.52495757738E+03  0.00000000000E+00 0. -1.
         21   -1    0    0  502  503 -0.00000000000E+00 -0.00000000000E+00 -0.22083266700E+04  0.22083266700E+04  0.00000000000E+00 0. -1.
    9000010    2    1    2  501    0 -0.24335863421E+03 -0.18145626920E+03 -0.10348993425E+04  0.14723237079E+04  0.10022827192E+04 0.  0.
   -9000010    2    1    2    0  503  0.24335863421E+03  0.18145626920E+03 -0.64846975012E+03  0.12609605395E+04  0.10379588927E+04 0.  0.
        -13    1    3    3    0    0 -0.56188403952E+03 -0.15481600191E+03 -0.26801577535E+03  0.64149367519E+03  0.10566000000E+00 0.  1.
         13    1    4    4    0    0  0.52378925192E+03 -0.97914027233E+02 -0.39080039487E+02  0.53429355022E+03  0.10566000000E+00 0. -1.
          4    1    3    3  501    0  0.31852540531E+03 -0.26640267288E+02 -0.76688356717E+03  0.83083003271E+03  0.00000000000E+00 0.  1.
         -4    1    4    4    0  503 -0.28043061771E+03  0.27937029643E+03 -0.60938971063E+03  0.72666698928E+03  0.00000000000E+00 0. -1.
</event>
<event>
 8    1  0.6759491E-006  0.1111818E+04  0.7818608E-02  0.8684708E-01
         21   -1    0    0  503  502  0.00000000000E+00  0.00000000000E+00  0.12028685344E+04  0.12028685344E+04  0.00000000000E+00 0. -1.
         21   -1    0    0  501  503 -0.00000000000E+00 -0.00000000000E+00 -0.10759165663E+04  0.10759165663E+04  0.00000000000E+00 0. -1.
    9000010    2    1    2  501    0  0.15857255865E+03 -0.34248458671E+03  0.38605682368E+03  0.11769367697E+04  0.10458008129E+04 0.  0.
   -9000010    2    1    2    0  502 -0.15857255865E+03  0.34248458671E+03 -0.25910485550E+03  0.11018483310E+04  0.10022442167E+04 0.  0.
        -13    1    3    3    0    0  0.13396174644E+03  0.10375963064E+03  0.64058559296E+03  0.66261732813E+03  0.10566000000E+00 0.  1.
         13    1    4    4    0    0 -0.79228151197E+02  0.51683835418E+03  0.23399579003E+03  0.57284642375E+03  0.10566000000E+00 0. -1.
          4    1    3    3  501    0  0.24610812208E+02 -0.44624421734E+03 -0.25452876928E+03  0.51431944158E+03  0.00000000000E+00 0.  1.
         -4    1    4    4    0  502 -0.79344407451E+02 -0.17435376747E+03 -0.49310064553E+03  0.52900190722E+03  0.00000000000E+00 0. -1.
</event>
<event>
 8    1  0.6759491E-006  0.1027079E+04  0.7818608E-02  0.8752520E-01
         21   -1    0    0  503  502  0.00000000000E+00  0.00000000000E+00  0.12460866120E+04  0.12460866120E+04  0.00000000000E+00 0.  1.
         21   -1    0    0  501  503 -0.00000000000E+00 -0.00000000000E+00 -0.92009177926E+03  0.92009177926E+03  0.00000000000E+00 0.  1.
    9000010    2    1    2  501    0  0.16273700766E+03 -0.64050368576E+02  0.49150426812E+03  0.11386257313E+04  0.10120801979E+04 0.  0.
   -9000010    2    1    2    0  502 -0.16273700766E+03  0.64050368576E+02 -0.16550943540E+03  0.10275526599E+04  0.99894209660E+03 0.  0.
        -13    1    3    3    0    0  0.52213569952E+03  0.15862134899E+03  0.46166182075E+03  0.71478533069E+03  0.10566000000E+00 0.  1.
         13    1    4    4    0    0 -0.29180461514E+03 -0.14397912041E+03 -0.50998128076E+03  0.60494697158E+03  0.10566000000E+00 0. -1.
          4    1    3    3  501    0 -0.35939869187E+03 -0.22267171757E+03  0.29842447377E+02  0.42384040061E+03  0.00000000000E+00 0.  1.
         -4    1    4    4    0  502  0.12906760749E+03  0.20802948899E+03  0.34447184536E+03  0.42260568836E+03  0.00000000000E+00 0. -1.
</event>
<event>
 8    1  0.6759491E-006  0.1018162E+04  0.7818608E-02  0.8758948E-01
         21   -1    0    0  501  502  0.00000000000E+00  0.00000000000E+00  0.13914630163E+04  0.13914630163E+04  0.00000000000E+00 0.  1.
         21   -1    0    0  502  503 -0.00000000000E+00 -0.00000000000E+00 -0.78978359409E+03  0.78978359409E+03  0.00000000000E+00 0.  1.
    9000010    2    1    2  501    0 -0.16803123887E+03  0.68197161529E+02  0.57089613078E+03  0.11626193649E+04  0.99643165616E+03 0.  0.
   -9000010    2    1    2    0  503  0.16803123887E+03 -0.68197161529E+02  0.30783291435E+02  0.10186272455E+04  0.10018824802E+04 0.  0.
        -13    1    3    3    0    0 -0.65980006501E+02 -0.12886683863E+03 -0.26271996292E+03  0.29996968753E+03  0.10566000000E+00 0.  1.
         13    1    4    4    0    0 -0.14011699934E+03  0.32722405509E+03 -0.25842264813E+03  0.43987570058E+03  0.10566000000E+00 0. -1.
          4    1    3    3  501    0 -0.10205123236E+03  0.19706400016E+03  0.83361609370E+03  0.86264967736E+03  0.00000000000E+00 0.  1.
         -4    1    4    4    0  503  0.30814823820E+03 -0.39542121662E+03  0.28920593956E+03  0.57875154491E+03  0.00000000000E+00 0. -1.
</event>
<event>
 8    1  0.6759491E-006  0.1024717E+04  0.7818608E-02  0.8762541E-01
         21   -1    0    0  503  502  0.00000000000E+00  0.00000000000E+00  0.63871712263E+03  0.63871712263E+03  0.00000000000E+00 0.  1.
         21   -1    0    0  501  503 -0.00000000000E+00 -0.00000000000E+00 -0.17344819843E+04  0.17344819843E+04  0.00000000000E+00 0.  1.
    9000010    2    1    2  501    0 -0.38829157880E+02 -0.21128347199E+03 -0.90121482691E+03  0.13301769641E+04  0.95448110637E+03 0.  0.
   -9000010    2    1    2    0  502  0.38829157880E+02  0.21128347199E+03 -0.19455003477E+03  0.10430221429E+04  0.10019466381E+04 0.  0.
        -13    1    3    3    0    0 -0.19748245573E+03  0.47101035357E+02  0.13941088332E+03  0.24627877172E+03  0.10566000000E+00 0.  1.
         13    1    4    4    0    0 -0.14884926853E+03  0.95820701309E+01  0.37869235748E+03  0.40700839499E+03  0.10566000000E+00 0. -1.
          4    1    3    3  501    0  0.15865329785E+03 -0.25838450735E+03 -0.10406257102E+04  0.10838981923E+04  0.00000000000E+00 0.  1.
         -4    1    4    4    0  502  0.18767842641E+03  0.20170140186E+03 -0.57324239226E+03  0.63601374791E+03  0.00000000000E+00 0. -1.
</event>
<event>
 8    1  0.6759491E-006  0.9990140E+03  0.7818608E-02  0.8779336E-01
         21   -1    0    0  501  502  0.00000000000E+00  0.00000000000E+00  0.78039456910E+03  0.78039456910E+03  0.00000000000E+00 0.  1.
         21   -1    0    0  502  503 -0.00000000000E+00 -0.00000000000E+00 -0.16069089424E+04  0.16069089424E+04  0.00000000000E+00 0.  1.
    9000010    2    1    2  501    0 -0.53364400635E+02  0.45266671880E+01  0.14528281000E+03  0.99359670476E+03  0.98145762356E+03 0.  0.
   -9000010    2    1    2    0  503  0.53364400635E+02 -0.45266671880E+01 -0.97179718328E+03  0.13937068067E+04  0.99757738932E+03 0.  0.
        -13    1    3    3    0    0 -0.28283080305E+03 -0.15449303280E+03 -0.31796367462E+03  0.45272758904E+03  0.10566000000E+00 0.  1.
         13    1    4    4    0    0  0.27866664794E+03  0.39826281149E+03 -0.27660773601E+03  0.55926757324E+03  0.10566000000E+00 0. -1.
          4    1    3    3  501    0  0.22946640242E+03  0.15901969998E+03  0.46324648462E+03  0.54086911572E+03  0.00000000000E+00 0.  1.
         -4    1    4    4    0  503 -0.22530224731E+03 -0.40278947867E+03 -0.69518944727E+03  0.83443923348E+03  0.00000000000E+00 0. -1.
</event>
<event>
 8    1  0.6759491E-006  0.1311880E+04  0.7818608E-02  0.8577307E-01
         21   -1    0    0  501  502  0.00000000000E+00  0.00000000000E+00  0.18989647291E+04  0.18989647291E+04  0.00000000000E+00 0.  1.
         21   -1    0    0  502  503 -0.00000000000E+00 -0.00000000000E+00 -0.15443329518E+04  0.15443329518E+04  0.00000000000E+00 0. -1.
    9000010    2    1    2  501    0 -0.15465014138E+03  0.27932271497E+03  0.14128343352E+04  0.17578243005E+04  0.99594556447E+03 0.  0.
   -9000010    2    1    2    0  503  0.15465014138E+03 -0.27932271497E+03 -0.10582025579E+04  0.16854733805E+04  0.12724346810E+04 0.  0.
        -13    1    3    3    0    0 -0.28744227327E+03 -0.31819737350E+03  0.49895393316E+03  0.65789639575E+03  0.10566000000E+00 0.  1.
         13    1    4    4    0    0  0.80189987965E+02  0.24794322197E+03  0.19391989055E+03  0.32482489222E+03  0.10566000000E+00 0. -1.
          4    1    3    3  501    0  0.13279213189E+03  0.59752008847E+03  0.91388040200E+03  0.10999279047E+04  0.00000000000E+00 0.  1.
         -4    1    4    4    0  503  0.74460153412E+02 -0.52726593694E+03 -0.12521224484E+04  0.13606484882E+04  0.00000000000E+00 0. -1.
</event>
<event>
 8    1  0.6759491E-006  0.1107565E+04  0.7818608E-02  0.8703534E-01
         21   -1    0    0  503  502  0.00000000000E+00  0.00000000000E+00  0.20197072272E+04  0.20197072272E+04  0.00000000000E+00 0.  1.
         21   -1    0    0  501  503 -0.00000000000E+00 -0.00000000000E+00 -0.60703668728E+03  0.60703668728E+03  0.00000000000E+00 0.  1.
    9000010    2    1    2  501    0  0.25245304934E+03 -0.26550344959E+03  0.33378763343E+03  0.11567686989E+04  0.10452152959E+04 0.  0.
   -9000010    2    1    2    0  502 -0.25245304934E+03  0.26550344959E+03  0.10788829064E+04  0.14699752155E+04  0.92877025387E+03 0.  0.
        -13    1    3    3    0    0  0.25368560579E+03 -0.65137770450E+03  0.32475031403E+03  0.77078666188E+03  0.10566000000E+00 0.  1.
         13    1    4    4    0    0  0.26474164756E+03  0.13027969485E+03  0.34944974455E+02  0.29712304058E+03  0.10566000000E+00 0. -1.
          4    1    3    3  501    0 -0.12325564591E+01  0.38587425491E+03  0.90373194019E+01  0.38598203707E+03  0.00000000000E+00 0.  1.
         -4    1    4    4    0  502 -0.51719469689E+03  0.13522375474E+03  0.10439379320E+04  0.11728521749E+04  0.00000000000E+00 0. -1.
</event>
<event>
 8    1  0.6759491E-006  0.1041010E+04  0.7818608E-02  0.8738155E-01
         21   -1    0    0  503  502  0.00000000000E+00  0.00000000000E+00  0.64906779050E+03  0.64906779050E+03  0.00000000000E+00 0.  1.
         21   -1    0    0  501  503 -0.00000000000E+00 -0.00000000000E+00 -0.16677867540E+04  0.16677867540E+04  0.00000000000E+00 0.  1.
    9000010    2    1    2  501    0  0.65694869719E+02  0.26126381591E+03 -0.58045333317E+03  0.11873505274E+04  0.10001502915E+04 0.  0.
   -9000010    2    1    2    0  502 -0.65694869719E+02 -0.26126381591E+03 -0.43826563030E+03  0.11295040171E+04  0.10055485888E+04 0.  0.
        -13    1    3    3    0    0 -0.37568473594E+03 -0.17125240482E+03 -0.17620229309E+03  0.44890273582E+03  0.10566000000E+00 0.  1.
         13    1    4    4    0    0 -0.31226945506E+03  0.29658548250E+03 -0.19737280663E+03  0.47374169856E+03  0.10566000000E+00 0. -1.
          4    1    3    3  501    0  0.44137960566E+03  0.43251622073E+03 -0.40425104009E+03  0.73844779158E+03  0.00000000000E+00 0.  1.
         -4    1    4    4    0  502  0.24657458534E+03 -0.55784929842E+03 -0.24089282367E+03  0.65576231851E+03  0.00000000000E+00 0. -1.
</event>
<event>
 8    1  0.6883189E-006  0.1019929E+04  0.7818608E-02  0.8757750E-01
         21   -1    0    0  503  502  0.00000000000E+00  0.00000000000E+00  0.13888446748E+04  0.13888446748E+04  0.00000000000E+00 0. -1.
         21   -1    0    0  501  503 -0.00000000000E+00 -0.00000000000E+00 -0.76587705330E+03  0.76587705330E+03  0.00000000000E+00 0. -1.
    9000010    2    1    2  501    0  0.10426203191E+03  0.12068461106E+03  0.49581997597E+03  0.11340606249E+04  0.10073830978E+04 0.  0.
   -9000010    2    1    2    0  502 -0.10426203191E+03 -0.12068461106E+03  0.12714764549E+03  0.10206611032E+04  0.10000736058E+04 0.  0.
        -13    1    3    3    0    0  0.13917060459E+03 -0.30536221961E+03  0.60591340682E+03  0.69263670858E+03  0.10566000000E+00 0.  1.
         13    1    4    4    0    0 -0.12161857421E+03  0.24777666540E+03 -0.33196400861E+03  0.43172267451E+03  0.10566000000E+00 0. -1.
          4    1    3    3  501    0 -0.34908572688E+02  0.42604683068E+03 -0.11009343085E+03  0.44142391631E+03  0.00000000000E+00 0.  1.
         -4    1    4    4    0  502  0.17356542307E+02 -0.36846127646E+03  0.45911165410E+03  0.58893842865E+03  0.00000000000E+00 0. -1.
</event>
<event>
 8    1  0.6759491E-006  0.1159776E+04  0.7818608E-02  0.8638244E-01
         21   -1    0    0  501  502  0.00000000000E+00  0.00000000000E+00  0.70099945477E+03  0.70099945477E+03  0.00000000000E+00 0.  1.
         21   -1    0    0  502  503 -0.00000000000E+00 -0.00000000000E+00 -0.23837435021E+04  0.23837435021E+04  0.00000000000E+00 0.  1.
    9000010    2    1    2  501    0  0.31377310156E+03  0.49033943628E+03 -0.15665901425E+03  0.11703088120E+04  0.10030923919E+04 0.  0.
   -9000010    2    1    2    0  503 -0.31377310156E+03 -0.49033943628E+03 -0.15260850331E+04  0.19144341449E+04  0.99861716628E+03 0.  0.
        -13    1    3    3    0    0  0.48591860566E+03  0.18016126928E+03  0.29474189508E+03  0.59619440634E+03  0.10566000000E+00 0.  1.
         13    1    4    4    0    0 -0.10728217400E+03 -0.18214062932E+02  0.13607139704E+03  0.17423160793E+03  0.10566000000E+00 0. -1.
          4    1    3    3  501    0 -0.17214550410E+03  0.31017816700E+03 -0.45140090932E+03  0.57411440568E+03  0.00000000000E+00 0.  1.
         -4    1    4    4    0  503 -0.20649092756E+03 -0.47212537335E+03 -0.16621564302E+04  0.17402025370E+04  0.00000000000E+00 0. -1.
</event>
<event>
 8    1  0.6759491E-006  0.1000948E+04  0.7818608E-02  0.8792933E-01
         21   -1    0    0  501  502  0.00000000000E+00  0.00000000000E+00  0.17119657658E+04  0.17119657658E+04  0.00000000000E+00 0.  1.
         21   -1    0    0  502  503 -0.00000000000E+00 -0.00000000000E+00 -0.57258033986E+03  0.57258033986E+03  0.00000000000E+00 0.  1.
    9000010    2    1    2  501    0 -0.93903338075E+02  0.27178497154E+01  0.32026389706E+03  0.10509354577E+04  0.99652955249E+03 0.  0.
   -9000010    2    1    2    0  503  0.93903338075E+02 -0.27178497154E+01  0.81912152888E+03  0.12336106479E+04  0.91761098946E+03 0.  0.
        -13    1    3    3    0    0 -0.20493514772E+03 -0.22014688069E+03 -0.27384459000E+03  0.40676029119E+03  0.10566000000E+00 0.  1.
         13    1    4    4    0    0 -0.19770996831E+03  0.38639854782E+03  0.34486385782E+03  0.55436825389E+03  0.10566000000E+00 0. -1.
          4    1    3    3  501    0  0.11103180965E+03  0.22286473040E+03  0.59410848706E+03  0.64417516656E+03  0.00000000000E+00 0.  1.
         -4    1    4    4    0  503  0.29161330639E+03 -0.38911639753E+03  0.47425767106E+03  0.67924239404E+03  0.00000000000E+00 0. -1.
</event>
<event>
 8    1  0.6759491E-006  0.1087521E+04  0.7818608E-02  0.8701685E-01
         21   -1    0    0  501  502  0.00000000000E+00  0.00000000000E+00  0.15320308755E+04  0.15320308755E+04  0.00000000000E+00 0. -1.
         21   -1    0    0  502  503 -0.00000000000E+00 -0.00000000000E+00 -0.98735512117E+03  0.98735512117E+03  0.00000000000E+00 0. -1.
    9000010    2    1    2  501    0  0.14620090209E+03  0.39646878297E+03  0.88135306424E+03  0.13809423449E+04  0.97552874709E+03 0.  0.
   -9000010    2    1    2    0  503 -0.14620090209E+03 -0.39646878297E+03 -0.33667730987E+03  0.11384436518E+04  0.10020679307E+04 0.  0.
        -13    1    3    3    0    0 -0.78374941025E+02  0.15528948329E+03  0.10117057206E+04  0.10265505011E+04  0.10566000000E+00 0.  1.
         13    1    4    4    0    0 -0.48257152464E+03 -0.39652775334E+03 -0.46474007242E+03  0.77851967326E+03  0.10566000000E+00 0. -1.
          4    1    3    3  501    0  0.22457584312E+03  0.24117929969E+03 -0.13035265639E+03  0.35439184378E+03  0.00000000000E+00 0.  1.
         -4    1    4    4    0  503  0.33637062255E+03  0.58970367312E-01  0.12806276255E+03  0.35992397856E+03  0.00000000000E+00 0. -1.
</event>
<event>
 8    1  0.7358692E-006  0.1002522E+04  0.7818608E-02  0.8772740E-01
         21   -1    0    0  501  502  0.00000000000E+00  0.00000000000E+00  0.20309587601E+04  0.20309587601E+04  0.00000000000E+00 0. -1.
         21   -1    0    0  502  503 -0.00000000000E+00 -0.00000000000E+00 -0.60863271762E+03  0.60863271762E+03  0.00000000000E+00 0. -1.
    9000010    2    1    2  501    0  0.43107056738E+02  0.48170874275E+02  0.12851108568E+04  0.16298959706E+04  0.10004360596E+04 0.  0.
   -9000010    2    1    2    0  503 -0.43107056738E+02 -0.48170874275E+02  0.13721518568E+03  0.10096955070E+04  0.99823762617E+03 0.  0.
        -13    1    3    3    0    0  0.51452823113E+03  0.78431020123E+02  0.78580042328E+03  0.94253543272E+03  0.10566000000E+00 0.  1.
         13    1    4    4    0    0 -0.29385671711E+02 -0.13716618747E+03 -0.42126263976E+03  0.44400484627E+03  0.10566000000E+00 0. -1.
          4    1    3    3  501    0 -0.47142117439E+03 -0.30260145848E+02  0.49931043349E+03  0.68736053791E+03  0.00000000000E+00 0.  1.
         -4    1    4    4    0  503 -0.13721385027E+02  0.88995313200E+02  0.55847782544E+03  0.56569066078E+03  0.00000000000E+00 0. -1.
</event>
<event>
 8    1  0.6759491E-006  0.1002746E+04  0.7818608E-02  0.8775464E-01
         21   -1    0    0  503  502  0.00000000000E+00  0.00000000000E+00  0.68697690946E+03  0.68697690946E+03  0.00000000000E+00 0. -1.
         21   -1    0    0  501  503 -0.00000000000E+00 -0.00000000000E+00 -0.20668483234E+04  0.20668483234E+04  0.00000000000E+00 0. -1.
    9000010    2    1    2  501    0 -0.48499706235E+02 -0.56649279880E+02  0.63347881318E+02  0.10047445488E+04  0.99996864549E+03 0.  0.
   -9000010    2    1    2    0  502  0.48499706235E+02  0.56649279880E+02 -0.14432192953E+04  0.17490806840E+04  0.98531210413E+03 0.  0.
        -13    1    3    3    0    0  0.32133389580E+03 -0.31522423849E+03 -0.18844353566E+03  0.48798849414E+03  0.10566000000E+00 0.  1.
         13    1    4    4    0    0  0.50476745208E+03 -0.18838216749E+02 -0.57488178234E+03  0.76526736107E+03  0.10566000000E+00 0. -1.
          4    1    3    3  501    0 -0.36983360203E+03  0.25857495861E+03  0.25179141698E+03  0.51675605471E+03  0.00000000000E+00 0.  1.
         -4    1    4    4    0  502 -0.45626774584E+03  0.75487496629E+02 -0.86833751295E+03  0.98381332296E+03  0.00000000000E+00 0. -1.
</event>
<event>
 8    1  0.6759491E-006  0.1110080E+04  0.7818608E-02  0.8678816E-01
         21   -1    0    0  501  502  0.00000000000E+00  0.00000000000E+00  0.16816488906E+04  0.16816488906E+04  0.00000000000E+00 0. -1.
         21   -1    0    0  502  503 -0.00000000000E+00 -0.00000000000E+00 -0.10002579020E+04  0.10002579020E+04  0.00000000000E+00 0. -1.
    9000010    2    1    2  501    0 -0.37086438867E+03 -0.31049787796E+03  0.10400620580E+04  0.15211861721E+04  0.99916413006E+03 0.  0.
   -9000010    2    1    2    0  503  0.37086438867E+03  0.31049787796E+03 -0.35867106932E+03  0.11607206205E+04  0.99230947581E+03 0.  0.
        -13    1    3    3    0    0  0.16479959820E+03 -0.26414752097E+03  0.91866134089E+03  0.96998530443E+03  0.10566000000E+00 0.  1.
         13    1    4    4    0    0  0.59217238690E+03  0.13156365523E+03  0.10601924358E+03  0.61580615648E+03  0.10566000000E+00 0. -1.
          4    1    3    3  501    0 -0.53566398687E+03 -0.46350356999E+02  0.12140071707E+03  0.55120086768E+03  0.00000000000E+00 0.  1.
         -4    1    4    4    0  503 -0.22130799823E+03  0.17893422274E+03 -0.46469031291E+03  0.54491446398E+03  0.00000000000E+00 0. -1.
</event>
<event>
 8    1  0.6759491E-006  0.1048374E+04  0.7818608E-02  0.8730866E-01
         21   -1    0    0  501  502  0.00000000000E+00  0.00000000000E+00  0.12625001877E+04  0.12625001877E+04  0.00000000000E+00 0.  1.
         21   -1    0    0  502  503 -0.00000000000E+00 -0.00000000000E+00 -0.11668201199E+04  0.11668201199E+04  0.00000000000E+00 0.  1.
    9000010    2    1    2  501    0  0.28839475339E+03 -0.44947359760E+02  0.66163726707E+03  0.12396983821E+04  0.10069242307E+04 0.  0.
   -9000010    2    1    2    0  503 -0.28839475339E+03  0.44947359760E+02 -0.56595719929E+03  0.11896219255E+04  0.10048387808E+04 0.  0.
        -13    1    3    3    0    0 -0.12318210747E+02 -0.26833353214E+03  0.79726160856E+03  0.84129703817E+03  0.10566000000E+00 0.  1.
         13    1    4    4    0    0 -0.26563504129E+03  0.35986040626E+03  0.94878022695E+02  0.45723444479E+03  0.10566000000E+00 0. -1.
          4    1    3    3  501    0  0.30071296414E+03  0.22338617238E+03 -0.13562434149E+03  0.39840134389E+03  0.00000000000E+00 0.  1.
         -4    1    4    4    0  503 -0.22759712104E+02 -0.31491304650E+03 -0.66083522198E+03  0.73238748075E+03  0.00000000000E+00 0. -1.
</event>
<event>
 8    1  0.6759491E-006  0.1045393E+04  0.7818608E-02  0.8747791E-01
         21   -1    0    0  501  502  0.00000000000E+00  0.00000000000E+00  0.25954692215E+04  0.25954692215E+04  0.00000000000E+00 0.  1.
         21   -1    0    0  502  503 -0.00000000000E+00 -0.00000000000E+00 -0.44348400279E+03  0.44348400279E+03  0.00000000000E+00 0.  1.
    9000010    2    1    2  501    0  0.32824082490E+03 -0.21358705633E+02  0.16048865417E+04  0.19153349587E+04  0.99229479430E+03 0.  0.
   -9000010    2    1    2    0  503 -0.32824082490E+03  0.21358705633E+02  0.54709867697E+03  0.11236182656E+04  0.92466362041E+03 0.  0.
        -13    1    3    3    0    0  0.53813556774E+03  0.27127052085E+03  0.13368722077E+04  0.14664258916E+04  0.10566000000E+00 0.  1.
         13    1    4    4    0    0  0.21939679211E+03  0.25745206013E+03  0.39635912772E+02  0.34056942375E+03  0.10566000000E+00 0. -1.
          4    1    3    3  501    0 -0.20989474283E+03 -0.29262922648E+03  0.26801433399E+03  0.44890906706E+03  0.00000000000E+00 0.  1.
         -4    1    4    4    0  503 -0.54763761701E+03 -0.23609335450E+03  0.50746276420E+03  0.78304884180E+03  0.00000000000E+00 0. -1.
</event>
<event>
 8    1  0.6759491E-006  0.1090713E+04  0.7818608E-02  0.8694184E-01
         21   -1    0    0  501  502  0.00000000000E+00  0.00000000000E+00  0.18588252860E+04  0.18588252860E+04  0.00000000000E+00 0. -1.
         21   -1    0    0  502  503 -0.00000000000E+00 -0.00000000000E+00 -0.10156383931E+04  0.10156383931E+04  0.00000000000E+00 0. -1.
    9000010    2    1    2  501    0 -0.20654087824E+03 -0.37868167015E+03  0.12968237654E+04  0.16931761304E+04  0.99951717752E+03 0.  0.
   -9000010    2    1    2    0  503  0.20654087824E+03  0.37868167015E+03 -0.45363687262E+03  0.11812875487E+04  0.10017958469E+04 0.  0.
        -13    1    3    3    0    0 -0.47624236817E+03  0.13547457451E+03  0.72757365156E+03  0.88007021492E+03  0.10566000000E+00 0.  1.
         13    1    4    4    0    0  0.60504319800E+03  0.29861850559E+03 -0.20662278048E+03  0.70565095330E+03  0.10566000000E+00 0. -1.
          4    1    3    3  501    0  0.26970148993E+03 -0.51415624466E+03  0.56925011389E+03  0.81310591546E+03  0.00000000000E+00 0.  1.
         -4    1    4    4    0  503 -0.39850231976E+03  0.80063164560E+02 -0.24701409214E+03  0.47563659541E+03  0.00000000000E+00 0. -1.
</event>
<event>
 8    1  0.6759491E-006  0.1021441E+04  0.7818608E-02  0.8755833E-01
         21   -1    0    0  501  502  0.00000000000E+00  0.00000000000E+00  0.80590393281E+03  0.80590393281E+03  0.00000000000E+00 0. -1.
         21   -1    0    0  502  503 -0.00000000000E+00 -0.00000000000E+00 -0.13191446600E+04  0.13191446600E+04  0.00000000000E+00 0. -1.
    9000010    2    1    2  501    0  0.18815362778E+03  0.10550702897E+03 -0.94994159703E+02  0.10258487990E+04  0.99840289822E+03 0.  0.
   -9000010    2    1    2    0  503 -0.18815362778E+03 -0.10550702897E+03 -0.41824656749E+03  0.10991997938E+04  0.99336623394E+03 0.  0.
        -13    1    3    3    0    0 -0.82340238299E+02 -0.42081531425E+03 -0.18865984630E+02  0.42921018172E+03  0.10566000000E+00 0.  1.
         13    1    4    4    0    0 -0.21431854727E+03 -0.26623962635E+03 -0.69704235761E+03  0.77632727494E+03  0.10566000000E+00 0. -1.
          4    1    3    3  501    0  0.27049386608E+03  0.52632234322E+03 -0.76128175072E+02  0.59663861725E+03  0.00000000000E+00 0.  1.
         -4    1    4    4    0  503  0.26164919486E+02  0.16073259738E+03  0.27879579012E+03  0.32287251890E+03  0.00000000000E+00 0. -1.
</event>
<event>
 8    1  0.6759491E-006  0.1007348E+04  0.7818608E-02  0.8781502E-01
         21   -1    0    0  501  502  0.00000000000E+00  0.00000000000E+00  0.20147629939E+04  0.20147629939E+04  0.00000000000E+00 0. -1.
         21   -1    0    0  502  503 -0.00000000000E+00 -0.00000000000E+00 -0.64994168121E+03  0.64994168121E+03  0.00000000000E+00 0. -1.
    9000010    2    1    2  501    0 -0.92069541689E+02 -0.11269840529E+03  0.13580797073E+04  0.16573341257E+04  0.93872156778E+03 0.  0.
   -9000010    2    1    2    0  503  0.92069541689E+02  0.11269840529E+03  0.67416054521E+01  0.10073705495E+04  0.99678094063E+03 0.  0.
        -13    1    3    3    0    0 -0.29543583275E+03  0.19904437925E+03  0.12020803535E+04  0.12537536375E+04  0.10566000000E+00 0.  1.
         13    1    4    4    0    0  0.50163520652E+03 -0.14644202707E+03  0.10997633831E+02  0.52268930238E+03  0.10566000000E+00 0. -1.
          4    1    3    3  501    0  0.20336629107E+03 -0.31174278454E+03  0.15599935379E+03  0.40358048818E+03  0.00000000000E+00 0.  1.
         -4    1    4    4    0  503 -0.40956566483E+03  0.25914043236E+03 -0.42560283793E+01  0.48468124708E+03  0.00000000000E+00 0. -1.
</event>
<event>
 8    1  0.6759491E-006  0.1112067E+04  0.7818608E-02  0.8677073E-01
         21   -1    0    0  501  502  0.00000000000E+00  0.00000000000E+00  0.16138390131E+04  0.16138390131E+04  0.00000000000E+00 0.  1.
         21   -1    0    0  502  503 -0.00000000000E+00 -0.00000000000E+00 -0.81881276937E+03  0.81881276937E+03  0.00000000000E+00 0.  1.
    9000010    2    1    2  501    0 -0.20500157729E+03  0.41483571551E+03  0.71776947140E+03  0.13235886526E+04  0.10112267746E+04 0.  0.
   -9000010    2    1    2    0  503  0.20500157729E+03 -0.41483571551E+03  0.77256772342E+02  0.11090631299E+04  0.10049567651E+04 0.  0.
        -13    1    3    3    0    0  0.39098150809E+03  0.44148581858E+02  0.37077851429E+03  0.54064068915E+03  0.10566000000E+00 0.  1.
         13    1    4    4    0    0 -0.73919277731E+02 -0.50422501306E+03  0.41844802048E+03  0.65939796817E+03  0.10566000000E+00 0. -1.
          4    1    3    3  501    0 -0.59598308538E+03  0.37068713365E+03  0.34699095711E+03  0.78294796342E+03  0.00000000000E+00 0.  1.
         -4    1    4    4    0  503  0.27892085502E+03  0.89389297554E+02 -0.34119124814E+03  0.44966516174E+03  0.00000000000E+00 0. -1.
</event>
<event>
 8    1  0.6759491E-006  0.1050591E+04  0.7818608E-02  0.8742433E-01
         21   -1    0    0  503  502  0.00000000000E+00  0.00000000000E+00  0.47671007205E+03  0.47671007205E+03  0.00000000000E+00 0.  1.
         21   -1    0    0  501  503 -0.00000000000E+00 -0.00000000000E+00 -0.23490505859E+04  0.23490505859E+04  0.00000000000E+00 0.  1.
    9000010    2    1    2  501    0  0.28055081895E+03  0.20222872411E+03 -0.13384038351E+04  0.17014893287E+04  0.99203623469E+03 0.  0.
   -9000010    2    1    2    0  502 -0.28055081895E+03 -0.20222872411E+03 -0.53393667865E+03  0.11242713292E+04  0.92698027269E+03 0.  0.
        -13    1    3    3    0    0  0.68851125497E+02  0.29586354755E+03 -0.14229781857E+04  0.14550404270E+04  0.10566000000E+00 0.  1.
         13    1    4    4    0    0  0.54415851690E+02  0.30638829338E+03 -0.38918055241E+03  0.49829347254E+03  0.10566000000E+00 0. -1.
          4    1    3    3  501    0  0.21169969345E+03 -0.93634823438E+02  0.84574350532E+02  0.24644890167E+03  0.00000000000E+00 0.  1.
         -4    1    4    4    0  502 -0.33496667064E+03 -0.50861701750E+03 -0.14475612624E+03  0.62597785665E+03  0.00000000000E+00 0. -1.
</event>
<event>
 8    1  0.6759491E-006  0.1044948E+04  0.7818608E-02  0.8737403E-01
         21   -1    0    0  503  502  0.00000000000E+00  0.00000000000E+00  0.99158735294E+03  0.99158735294E+03  0.00000000000E+00 0. -1.
         21   -1    0    0  501  503 -0.00000000000E+00 -0.00000000000E+00 -0.22536092429E+04  0.22536092429E+04  0.00000000000E+00 0. -1.
    9000010    2    1    2  501    0 -0.50166760898E+02  0.27836427146E+03 -0.18030879949E+04  0.20839966095E+04  0.10059384572E+04 0.  0.
   -9000010    2    1    2    0  502  0.50166760898E+02 -0.27836427146E+03  0.54106610492E+03  0.11611999863E+04  0.98773959466E+03 0.  0.
        -13    1    3    3    0    0 -0.28668325321E+03  0.49943560222E+03 -0.16032585863E+04  0.17035437518E+04  0.10566000000E+00 0.  1.
         13    1    4    4    0    0 -0.92871217034E+01 -0.47192665965E+03 -0.10550348428E+03  0.48366519316E+03  0.10566000000E+00 0. -1.
          4    1    3    3  501    0  0.23651649232E+03 -0.22107133076E+03 -0.19982940857E+03  0.38045285773E+03  0.00000000000E+00 0.  1.
         -4    1    4    4    0  502  0.59453882601E+02  0.19356238819E+03  0.64656958921E+03  0.67753479318E+03  0.00000000000E+00 0. -1.
</event>
<event>
 8    1  0.6759491E-006  0.1011509E+04  0.7818608E-02  0.8770018E-01
         21   -1    0    0  501  502  0.00000000000E+00  0.00000000000E+00  0.11796832861E+04  0.11796832861E+04  0.00000000000E+00 0. -1.
         21   -1    0    0  502  503 -0.00000000000E+00 -0.00000000000E+00 -0.99118337712E+03  0.99118337712E+03  0.00000000000E+00 0. -1.
    9000010    2    1    2  501    0  0.14793226949E+03  0.32555786645E+02  0.51219322406E+03  0.11337958354E+04  0.10001036256E+04 0.  0.
   -9000010    2    1    2    0  503 -0.14793226949E+03 -0.32555786645E+02 -0.32369331512E+03  0.10370708278E+04  0.97354748419E+03 0.  0.
        -13    1    3    3    0    0 -0.13335218505E+03  0.46325096091E+03  0.34535834367E+03  0.59300645422E+03  0.10566000000E+00 0.  1.
         13    1    4    4    0    0  0.10073452516E+02 -0.48440434294E+03 -0.27192634536E+03  0.55560146721E+03  0.10566000000E+00 0. -1.
          4    1    3    3  501    0  0.28128445454E+03 -0.43069517426E+03  0.16683488039E+03  0.54078938119E+03  0.00000000000E+00 0.  1.
         -4    1    4    4    0  503 -0.15800572201E+03  0.45184855629E+03 -0.51766969757E+02  0.48146936057E+03  0.00000000000E+00 0. -1.
</event>
<event>
 8    1  0.6759491E-006  0.1048634E+04  0.7818608E-02  0.8733754E-01
         21   -1    0    0  501  502  0.00000000000E+00  0.00000000000E+00  0.12883633401E+04  0.12883633401E+04  0.00000000000E+00 0. -1.
         21   -1    0    0  502  503 -0.00000000000E+00 -0.00000000000E+00 -0.85499307827E+03  0.85499307827E+03  0.00000000000E+00 0. -1.
    9000010    2    1    2  501    0 -0.29538932584E+03 -0.88974305036E+02  0.35414466812E+03  0.10917338610E+04  0.98554203182E+03 0.  0.
   -9000010    2    1    2    0  503  0.29538932584E+03  0.88974305036E+02  0.79225593731E+02  0.10516225574E+04  0.10022285307E+04 0.  0.
        -13    1    3    3    0    0  0.43936955389E+02  0.37498022408E+03  0.35309774113E+03  0.51693195921E+03  0.10566000000E+00 0.  1.
         13    1    4    4    0    0  0.22271628273E+03  0.10708465525E+03  0.53522081273E+03  0.58951759560E+03  0.10566000000E+00 0. -1.
          4    1    3    3  501    0 -0.33932628123E+03 -0.46395452912E+03  0.10469269910E+01  0.57480190177E+03  0.00000000000E+00 0.  1.
         -4    1    4    4    0  503  0.72673043119E+02 -0.18110350218E+02 -0.45599521899E+03  0.46210496181E+03  0.00000000000E+00 0. -1.
</event>
<event>
 8    1  0.6759491E-006  0.1001259E+04  0.7818608E-02  0.8773417E-01
         21   -1    0    0  503  502  0.00000000000E+00  0.00000000000E+00  0.11591625093E+04  0.11591625093E+04  0.00000000000E+00 0.  1.
         21   -1    0    0  501  503 -0.00000000000E+00 -0.00000000000E+00 -0.87991649254E+03  0.87991649254E+03  0.00000000000E+00 0.  1.
    9000010    2    1    2  501    0  0.55886429315E+02  0.99694198670E+02  0.61573386111E+01  0.10012462356E+04  0.99468280633E+03 0.  0.
   -9000010    2    1    2    0  502 -0.55886429315E+02 -0.99694198670E+02  0.27308867811E+03  0.10378327662E+04  0.99471463160E+03 0.  0.
        -13    1    3    3    0    0 -0.19963548063E+03  0.25028345254E+03  0.39738231606E+03  0.51030270235E+03  0.10566000000E+00 0.  1.
         13    1    4    4    0    0 -0.38154977249E+03  0.29906961351E+03  0.16193300204E+03  0.51112148353E+03  0.10566000000E+00 0. -1.
          4    1    3    3  501    0  0.25552190995E+03 -0.15058925387E+03 -0.39122497745E+03  0.49094353323E+03  0.00000000000E+00 0.  1.
         -4    1    4    4    0  502  0.32566334318E+03 -0.39876381218E+03  0.11115567607E+03  0.52671128269E+03  0.00000000000E+00 0. -1.
</event>
<event>
 8    1  0.6759491E-006  0.1046895E+04  0.7818608E-02  0.8733001E-01
         21   -1    0    0  501  502  0.00000000000E+00  0.00000000000E+00  0.96713913338E+03  0.96713913338E+03  0.00000000000E+00 0. -1.
         21   -1    0    0  502  503 -0.00000000000E+00 -0.00000000000E+00 -0.15071514391E+04  0.15071514391E+04  0.00000000000E+00 0. -1.
    9000010    2    1    2  501    0  0.11319486242E+03  0.27564493247E+03  0.35179729495E+03  0.10990401274E+04  0.99766460253E+03 0.  0.
   -9000010    2    1    2    0  503 -0.11319486242E+03 -0.27564493247E+03 -0.89180960069E+03  0.13752504451E+04  0.10035916586E+04 0.  0.
        -13    1    3    3    0    0  0.40515482432E+03 -0.21344722781E+03  0.69051443716E+02  0.46311798041E+03  0.10566000000E+00 0.  1.
         13    1    4    4    0    0 -0.34201977218E+03  0.16610320192E+03 -0.31590800714E+02  0.38153084817E+03  0.10566000000E+00 0. -1.
          4    1    3    3  501    0 -0.29195996190E+03  0.48909216028E+03  0.28274585123E+03  0.63592214695E+03  0.00000000000E+00 0.  1.
         -4    1    4    4    0  503  0.22882490976E+03 -0.44174813440E+03 -0.86021879997E+03  0.99371959697E+03  0.00000000000E+00 0. -1.
</event>
<event>
 8    1  0.6759491E-006  0.1058686E+04  0.7818608E-02  0.8724591E-01
         21   -1    0    0  503  502  0.00000000000E+00  0.00000000000E+00  0.78623451838E+03  0.78623451838E+03  0.00000000000E+00 0.  1.
         21   -1    0    0  501  503 -0.00000000000E+00 -0.00000000000E+00 -0.16092370034E+04  0.16092370034E+04  0.00000000000E+00 0.  1.
    9000010    2    1    2  501    0  0.13931585588E+03 -0.32583724282E+03 -0.83493107822E+03  0.13367186961E+04  0.98190027530E+03 0.  0.
   -9000010    2    1    2    0  502 -0.13931585588E+03  0.32583724282E+03  0.11928593166E+02  0.10587528257E+04  0.99761537584E+03 0.  0.
        -13    1    3    3    0    0 -0.33759247388E+03 -0.38889424197E+03 -0.63033540138E+03  0.81395954400E+03  0.10566000000E+00 0.  1.
         13    1    4    4    0    0 -0.51192288380E+03  0.36503975956E+03 -0.15656650948E+03  0.64794455633E+03  0.10566000000E+00 0. -1.
          4    1    3    3  501    0  0.47690832976E+03  0.63056999155E+02 -0.20459567684E+03  0.52275915211E+03  0.00000000000E+00 0.  1.
         -4    1    4    4    0  502  0.37260702792E+03 -0.39202516740E+02  0.16849510265E+03  0.41080826938E+03  0.00000000000E+00 0. -1.
</event>
<event>
 8    1  0.6759491E-006  0.1050996E+04  0.7818608E-02  0.8746709E-01
         21   -1    0    0  501  502  0.00000000000E+00  0.00000000000E+00  0.18729903110E+04  0.18729903110E+04  0.00000000000E+00 0.  1.
         21   -1    0    0  502  503 -0.00000000000E+00 -0.00000000000E+00 -0.64959048214E+03  0.64959048214E+03  0.00000000000E+00 0.  1.
    9000010    2    1    2  501    0 -0.30238548618E+03  0.28140661645E+02  0.10961458089E+04  0.14639087172E+04  0.92155532593E+03 0.  0.
   -9000010    2    1    2    0  503  0.30238548618E+03 -0.28140661645E+02  0.12725401999E+03  0.10586720760E+04  0.10061630583E+04 0.  0.
        -13    1    3    3    0    0  0.23748332915E+03 -0.23794770270E+03  0.22300935547E+03  0.40342362924E+03  0.10566000000E+00 0.  1.
         13    1    4    4    0    0  0.19150379137E+03 -0.18601819745E+03  0.54037229267E+03  0.60272605531E+03  0.10566000000E+00 0. -1.
          4    1    3    3  501    0 -0.53986881533E+03  0.26608836434E+03  0.87313645345E+03  0.10604850879E+04  0.00000000000E+00 0.  1.
         -4    1    4    4    0  503  0.11088169481E+03  0.15787753581E+03 -0.41311827269E+03  0.45594602069E+03  0.00000000000E+00 0. -1.
</event>
<event>
 8    1  0.6759491E-006  0.1068715E+04  0.7818608E-02  0.8714622E-01
         21   -1    0    0  501  502  0.00000000000E+00  0.00000000000E+00  0.13300141698E+04  0.13300141698E+04  0.00000000000E+00 0.  1.
         21   -1    0    0  502  503 -0.00000000000E+00 -0.00000000000E+00 -0.98728931484E+03  0.98728931484E+03  0.00000000000E+00 0.  1.
    9000010    2    1    2  501    0  0.25929961325E+03  0.23951882955E+03  0.60083919457E+03  0.12178610159E+04  0.99878534087E+03 0.  0.
   -9000010    2    1    2    0  503 -0.25929961325E+03 -0.23951882955E+03 -0.25811433958E+03  0.10994424688E+04  0.10087344401E+04 0.  0.
        -13    1    3    3    0    0  0.57705581781E+03  0.11648341208E+03  0.64615610759E+03  0.87411642743E+03  0.10566000000E+00 0.  1.
         13    1    4    4    0    0 -0.21814584168E+03  0.33131092766E+03  0.11889373493E+03  0.41411383749E+03  0.10566000000E+00 0. -1.
          4    1    3    3  501    0 -0.31775620455E+03  0.12303541747E+03 -0.45316913024E+02  0.34374458845E+03  0.00000000000E+00 0.  1.
         -4    1    4    4    0  503 -0.41153771571E+02 -0.57082975721E+03 -0.37700807451E+03  0.68532863130E+03  0.00000000000E+00 0. -1.
</event>
<event>
 8    1  0.6759491E-006  0.1145221E+04  0.7818608E-02  0.8657339E-01
         21   -1    0    0  503  502  0.00000000000E+00  0.00000000000E+00  0.13186085446E+04  0.13186085446E+04  0.00000000000E+00 0.  1.
         21   -1    0    0  501  503 -0.00000000000E+00 -0.00000000000E+00 -0.12805150122E+04  0.12805150122E+04  0.00000000000E+00 0. -1.
    9000010    2    1    2  501    0  0.44702655336E+03  0.36715753282E+03  0.66961648909E+03  0.12913191392E+04  0.94046875738E+03 0.  0.
   -9000010    2    1    2    0  502 -0.44702655336E+03 -0.36715753282E+03 -0.63152295668E+03  0.13078044176E+04  0.98837935868E+03 0.  0.
        -13    1    3    3    0    0  0.40719569443E+02 -0.29667505400E+03  0.66673336908E+02  0.30678904155E+03  0.10566000000E+00 0.  1.
         13    1    4    4    0    0  0.20580822089E+03 -0.36640385648E+03 -0.47932112609E+03  0.63746181290E+03  0.10566000000E+00 0. -1.
          4    1    3    3  501    0  0.40630698391E+03  0.66383258681E+03  0.60294315218E+03  0.98453009769E+03  0.00000000000E+00 0.  1.
         -4    1    4    4    0  502 -0.65283477425E+03 -0.75367634213E+00 -0.15220183060E+03  0.67034260474E+03  0.00000000000E+00 0. -1.
</event>
<event>
 8    1  0.6759491E-006  0.1113187E+04  0.7818608E-02  0.8675372E-01
         21   -1    0    0  503  502  0.00000000000E+00  0.00000000000E+00  0.16799794207E+04  0.16799794207E+04  0.00000000000E+00 0.  1.
         21   -1    0    0  501  503 -0.00000000000E+00 -0.00000000000E+00 -0.96073873223E+03  0.96073873223E+03  0.00000000000E+00 0.  1.
    9000010    2    1    2  501    0  0.32673717211E+03 -0.39024557118E+03 -0.27827448989E+03  0.11474417059E+04  0.99001868222E+03 0.  0.
   -9000010    2    1    2    0  502 -0.32673717211E+03  0.39024557118E+03  0.99751517832E+03  0.14932764470E+04  0.98782044462E+03 0.  0.
        -13    1    3    3    0    0  0.48521753642E+03  0.20294227382E+02  0.17450249960E+03  0.51604171038E+03  0.10566000000E+00 0.  1.
         13    1    4    4    0    0 -0.30325257406E+03  0.52178146329E+03  0.13234024015E+03  0.61784461593E+03  0.10566000000E+00 0. -1.
          4    1    3    3  501    0 -0.15848036431E+03 -0.41053979856E+03 -0.45277698950E+03  0.63139999548E+03  0.00000000000E+00 0.  1.
         -4    1    4    4    0  502 -0.23484598058E+02 -0.13153589212E+03  0.86517493817E+03  0.87543183109E+03  0.00000000000E+00 0. -1.
</event>
<event>
 8    1  0.6759491E-006  0.1172024E+04  0.7818608E-02  0.8632464E-01
         21   -1    0    0  501  502  0.00000000000E+00  0.00000000000E+00  0.87731439332E+03  0.87731439332E+03  0.00000000000E+00 0. -1.
         21   -1    0    0  502  503 -0.00000000000E+00 -0.00000000000E+00 -0.18139940857E+04  0.18139940857E+04  0.00000000000E+00 0. -1.
    9000010    2    1    2  501    0  0.53682231802E+03 -0.20758985092E+03  0.63358984101E+02  0.11506208893E+04  0.99430494448E+03 0.  0.
   -9000010    2    1    2    0  503 -0.53682231802E+03  0.20758985092E+03 -0.10000386765E+04  0.15406875898E+04  0.10209648121E+04 0.  0.
        -13    1    3    3    0    0  0.10211694962E+03  0.39289322051E+03 -0.66995653822E+01  0.40600227766E+03  0.10566000000E+00 0.  1.
         13    1    4    4    0    0 -0.54363650661E+03 -0.32889795014E+03 -0.53177579689E+03  0.82855296888E+03  0.10566000000E+00 0. -1.
          4    1    3    3  501    0  0.43470536840E+03 -0.60048307143E+03  0.70058549483E+02  0.74461861160E+03  0.00000000000E+00 0.  1.
         -4    1    4    4    0  503  0.68141885886E+01  0.53648780106E+03 -0.46826287961E+03  0.71213462089E+03  0.00000000000E+00 0. -1.
</event>
<event>
 8    1  0.6759491E-006  0.1010134E+04  0.7818608E-02  0.8765394E-01
         21   -1    0    0  503  502  0.00000000000E+00  0.00000000000E+00  0.10127803594E+04  0.10127803594E+04  0.00000000000E+00 0.  1.
         21   -1    0    0  501  503 -0.00000000000E+00 -0.00000000000E+00 -0.10103126778E+04  0.10103126778E+04  0.00000000000E+00 0.  1.
    9000010    2    1    2  501    0  0.43687783651E+02  0.13448520165E+03 -0.62101293399E+02  0.10120407859E+04  0.10001875273E+04 0.  0.
   -9000010    2    1    2    0  502 -0.43687783651E+02 -0.13448520165E+03  0.64568974947E+02  0.10110522513E+04  0.99903083556E+03 0.  0.
        -13    1    3    3    0    0 -0.81729324331E+02 -0.24896967247E+03 -0.40512302315E+03  0.48248342491E+03  0.10566000000E+00 0.  1.
         13    1    4    4    0    0 -0.27070514110E+03  0.31462153262E+03  0.23840549966E+03  0.47864932428E+03  0.10566000000E+00 0. -1.
          4    1    3    3  501    0  0.12541710798E+03  0.38345487412E+03  0.34302172975E+03  0.52955736096E+03  0.00000000000E+00 0.  1.
         -4    1    4    4    0  502  0.22701735745E+03 -0.44910673428E+03 -0.17383652471E+03  0.53240292700E+03  0.00000000000E+00 0. -1.
</event>
<event>
 8    1  0.6759491E-006  0.1057764E+04  0.7818608E-02  0.8723610E-01
         21   -1    0    0  503  502  0.00000000000E+00  0.00000000000E+00  0.86367000057E+03  0.86367000057E+03  0.00000000000E+00 0.  1.
         21   -1    0    0  501  503 -0.00000000000E+00 -0.00000000000E+00 -0.28350145431E+04  0.28350145431E+04  0.00000000000E+00 0.  1.
    9000010    2    1    2  501    0 -0.15475602659E+03  0.31527915926E+03 -0.23506811411E+04  0.25749584674E+04  0.99063560694E+03 0.  0.
   -9000010    2    1    2    0  502  0.15475602659E+03 -0.31527915926E+03  0.37933659860E+03  0.11237260762E+04  0.99775431011E+03 0.  0.
        -13    1    3    3    0    0  0.28881649117E+03 -0.20020285151E+03 -0.10495989069E+04  0.11068667598E+04  0.10566000000E+00 0.  1.
         13    1    4    4    0    0 -0.23604334162E+03 -0.30998415404E+03 -0.18973642579E+03  0.43336653922E+03  0.10566000000E+00 0. -1.
          4    1    3    3  501    0 -0.44357251776E+03  0.51548201077E+03 -0.13010822342E+04  0.14680917077E+04  0.00000000000E+00 0.  1.
         -4    1    4    4    0  502  0.39079936820E+03 -0.52950052264E+01  0.56907302439E+03  0.69035953702E+03  0.00000000000E+00 0. -1.
</event>
<event>
 8    1  0.6759491E-006  0.1037532E+04  0.7818608E-02  0.8747900E-01
         21   -1    0    0  503  502  0.00000000000E+00  0.00000000000E+00  0.94480844349E+03  0.94480844349E+03  0.00000000000E+00 0.  1.
         21   -1    0    0  501  503 -0.00000000000E+00 -0.00000000000E+00 -0.11264057473E+04  0.11264057473E+04  0.00000000000E+00 0.  1.
    9000010    2    1    2  501    0 -0.13306757780E+03 -0.64246286869E+02 -0.24398779039E+03  0.10658338199E+04  0.10269552688E+04 0.  0.
   -9000010    2    1    2    0  502  0.13306757780E+03  0.64246286869E+02  0.62390486547E+02  0.10053803710E+04  0.99250317474E+03 0.  0.
        -13    1    3    3    0    0  0.30720222913E+03 -0.52986280991E+02  0.25321779950E+03  0.40162173834E+03  0.10566000000E+00 0.  1.
         13    1    4    4    0    0  0.32770111967E+03  0.32496325983E+03  0.34357673097E+03  0.57535565114E+03  0.10566000000E+00 0. -1.
          4    1    3    3  501    0 -0.44026980694E+03 -0.11260005878E+02 -0.49720558989E+03  0.66421208153E+03  0.00000000000E+00 0.  1.
         -4    1    4    4    0  502 -0.19463354187E+03 -0.26071697296E+03 -0.28118624442E+03  0.43002471982E+03  0.00000000000E+00 0. -1.
</event>
<event>
 8    1  0.6759491E-006  0.9836895E+03  0.7818608E-02  0.8806933E-01
         21   -1    0    0  503  502  0.00000000000E+00  0.00000000000E+00  0.20259601584E+04  0.20259601584E+04  0.00000000000E+00 0. -1.
         21   -1    0    0  501  503 -0.00000000000E+00 -0.00000000000E+00 -0.10307439150E+04  0.10307439150E+04  0.00000000000E+00 0. -1.
    9000010    2    1    2  501    0  0.48211752140E+02  0.13303253302E+03 -0.66161374298E+03  0.11298593284E+04  0.90489078305E+03 0.  0.
   -9000010    2    1    2    0  502 -0.48211752140E+02 -0.13303253302E+03  0.16568299864E+04  0.19268447449E+04  0.97345931578E+03 0.  0.
        -13    1    3    3    0    0 -0.28149050783E+03 -0.27291453248E+03 -0.25952110702E+03  0.47018130992E+03  0.10566000000E+00 0.  1.
         13    1    4    4    0    0  0.43939393060E+03  0.87029649659E+02  0.71659378233E+03  0.84507268694E+03  0.10566000000E+00 0. -1.
          4    1    3    3  501    0  0.32970225997E+03  0.40594706550E+03 -0.40209263596E+03  0.65967801852E+03  0.00000000000E+00 0.  1.
         -4    1    4    4    0  502 -0.48760568274E+03 -0.22006218268E+03  0.94023620402E+03  0.10817720580E+04  0.00000000000E+00 0. -1.
</event>
<event>
 8    1  0.6759491E-006  0.1015807E+04  0.7818608E-02  0.8761533E-01
         21   -1    0    0  501  502  0.00000000000E+00  0.00000000000E+00  0.24366037296E+04  0.24366037296E+04  0.00000000000E+00 0. -1.
         21   -1    0    0  502  503 -0.00000000000E+00 -0.00000000000E+00 -0.65847747478E+03  0.65847747478E+03  0.00000000000E+00 0. -1.
    9000010    2    1    2  501    0 -0.15938896250E+03  0.30292253494E+02  0.18173695915E+04  0.20785159584E+04  0.99552694349E+03 0.  0.
   -9000010    2    1    2    0  503  0.15938896250E+03 -0.30292253494E+02 -0.39243336692E+02  0.10165652460E+04  0.10027673697E+04 0.  0.
        -13    1    3    3    0    0 -0.42234300001E+03  0.20238637144E+03  0.36841274709E+03  0.59587063729E+03  0.10566000000E+00 0.  1.
         13    1    4    4    0    0 -0.15286247001E+03 -0.24238560799E+03 -0.40157517314E+03  0.49333593884E+03  0.10566000000E+00 0. -1.
          4    1    3    3  501    0  0.26295403750E+03 -0.17209411794E+03  0.14489568444E+04  0.14826453211E+04  0.00000000000E+00 0.  1.
         -4    1    4    4    0  503  0.31225143251E+03  0.21209335450E+03  0.36233183645E+03  0.52322930712E+03  0.00000000000E+00 0. -1.
</event>
<event>
 8    1  0.6759491E-006  0.1039264E+04  0.7818608E-02  0.8746273E-01
         21   -1    0    0  503  502  0.00000000000E+00  0.00000000000E+00  0.46935138453E+03  0.46935138453E+03  0.00000000000E+00 0.  1.
         21   -1    0    0  501  503 -0.00000000000E+00 -0.00000000000E+00 -0.22782600557E+04  0.22782600557E+04  0.00000000000E+00 0.  1.
    9000010    2    1    2  501    0 -0.13363042810E+03  0.10241883501E+03 -0.11254310479E+04  0.15318829518E+04  0.10255357749E+04 0.  0.
   -9000010    2    1    2    0  502  0.13363042810E+03 -0.10241883501E+03 -0.68347762334E+03  0.12157284884E+04  0.99121510628E+03 0.  0.
        -13    1    3    3    0    0  0.13964073105E+03  0.50857315107E+03 -0.74063094469E+03  0.90921966056E+03  0.10566000000E+00 0.  1.
         13    1    4    4    0    0  0.10423783262E+03 -0.50977821861E+03 -0.60824596683E+03  0.80043895785E+03  0.10566000000E+00 0. -1.
          4    1    3    3  501    0 -0.27327115915E+03 -0.40615431606E+03 -0.38480010319E+03  0.62266329127E+03  0.00000000000E+00 0.  1.
         -4    1    4    4    0  502  0.29392595475E+02  0.40735938360E+03 -0.75231656511E+02  0.41528953059E+03  0.00000000000E+00 0. -1.
</event>
<event>
 8    1  0.6759491E-006  0.1013087E+04  0.7818608E-02  0.8767872E-01
         21   -1    0    0  501  502  0.00000000000E+00  0.00000000000E+00  0.91584628488E+03  0.91584628488E+03  0.00000000000E+00 0. -1.
         21   -1    0    0  502  503 -0.00000000000E+00 -0.00000000000E+00 -0.12378555225E+04  0.12378555225E+04  0.00000000000E+00 0. -1.
    9000010    2    1    2  501    0 -0.15242954528E+03 -0.38291006858E+02  0.20325009440E+03  0.10332747680E+04  0.10008222509E+04 0.  0.
   -9000010    2    1    2    0  503  0.15242954528E+03  0.38291006858E+02 -0.52525933197E+03  0.11204270393E+04  0.97711740189E+03 0.  0.
        -13    1    3    3    0    0  0.11721261953E+03 -0.12929410297E+02 -0.37588094803E+03  0.39394475004E+03  0.10566000000E+00 0.  1.
         13    1    4    4    0    0  0.44235082287E+03 -0.29832070262E+03 -0.37222091260E+03  0.65055200488E+03  0.10566000000E+00 0. -1.
          4    1    3    3  501    0 -0.26964216481E+03 -0.25361596561E+02  0.57913104243E+03  0.63933001800E+03  0.00000000000E+00 0.  1.
         -4    1    4    4    0  503 -0.28992127759E+03  0.33661170948E+03 -0.15303841937E+03  0.46987503441E+03  0.00000000000E+00 0. -1.
</event>
<event>
 8    1  0.6759491E-006  0.1031515E+04  0.7818608E-02  0.8746791E-01
         21   -1    0    0  501  502  0.00000000000E+00  0.00000000000E+00  0.20962473578E+04  0.20962473578E+04  0.00000000000E+00 0.  1.
         21   -1    0    0  502  503 -0.00000000000E+00 -0.00000000000E+00 -0.64795532421E+03  0.64795532421E+03  0.00000000000E+00 0.  1.
    9000010    2    1    2  501    0  0.10685862817E+00 -0.26690286324E+03  0.13674302572E+04  0.17095228027E+04  0.99063896293E+03 0.  0.
   -9000010    2    1    2    0  503 -0.10685862817E+00  0.26690286324E+03  0.80861776416E+02  0.10346798793E+04  0.99638681042E+03 0.  0.
        -13    1    3    3    0    0  0.43515779963E+03 -0.18701959384E+03  0.31747767220E+03  0.57020235230E+03  0.10566000000E+00 0.  1.
         13    1    4    4    0    0  0.35184667036E+02  0.30410308088E+03  0.51413981263E+03  0.59837814356E+03  0.10566000000E+00 0. -1.
          4    1    3    3  501    0 -0.43505094100E+03 -0.79883269399E+02  0.10499525850E+04  0.11393204504E+04  0.00000000000E+00 0.  1.
         -4    1    4    4    0  503 -0.35291525664E+02 -0.37200217642E+02 -0.43327803621E+03  0.43630173577E+03  0.00000000000E+00 0. -1.
</event>
<event>
 8    1  0.6759491E-006  0.1130619E+04  0.7818608E-02  0.8667783E-01
         21   -1    0    0  503  502  0.00000000000E+00  0.00000000000E+00  0.15174846369E+04  0.15174846369E+04  0.00000000000E+00 0.  1.
         21   -1    0    0  501  503 -0.00000000000E+00 -0.00000000000E+00 -0.11880816349E+04  0.11880816349E+04  0.00000000000E+00 0.  1.
    9000010    2    1    2  501    0 -0.39792252442E+02  0.46478108685E+03 -0.58952005302E+03  0.12750815360E+04  0.10299000672E+04 0.  0.
   -9000010    2    1    2    0  502  0.39792252442E+02 -0.46478108685E+03  0.91892305496E+03  0.14304847358E+04  0.99209985204E+03 0.  0.
        -13    1    3    3    0    0  0.23289624873E+03 -0.14349572079E+03 -0.54159328321E+03  0.60675776067E+03  0.10566000000E+00 0.  1.
         13    1    4    4    0    0 -0.37167504676E+03 -0.43155046156E+03  0.83257846191E+03  0.10087442925E+04  0.10566000000E+00 0. -1.
          4    1    3    3  501    0 -0.27268850118E+03  0.60827680764E+03 -0.47926769812E+02  0.66832377532E+03  0.00000000000E+00 0.  1.
         -4    1    4    4    0  502  0.41146729921E+03 -0.33230625293E+02  0.86344593041E+02  0.42174044331E+03  0.00000000000E+00 0. -1.
</event>
<event>
 8    1  0.6759491E-006  0.1015069E+04  0.7818608E-02  0.8762003E-01
         21   -1    0    0  503  502  0.00000000000E+00  0.00000000000E+00  0.87384893937E+03  0.87384893937E+03  0.00000000000E+00 0. -1.
         21   -1    0    0  501  503 -0.00000000000E+00 -0.00000000000E+00 -0.11868133013E+04  0.11868133013E+04  0.00000000000E+00 0. -1.
    9000010    2    1    2  501    0 -0.57726977082E+01 -0.11523067014E+03 -0.27156375611E+03  0.10447496852E+04  0.10022193371E+04 0.  0.
   -9000010    2    1    2    0  502  0.57726977082E+01  0.11523067014E+03 -0.41400605792E+02  0.10159125554E+04  0.10084903960E+04 0.  0.
        -13    1    3    3    0    0  0.11651888002E+03  0.22583673714E+02  0.36408186006E+03  0.38293900782E+03  0.10566000000E+00 0.  1.
         13    1    4    4    0    0 -0.23247979450E+03  0.40960481172E+03 -0.29902088911E+03  0.55788570507E+03  0.10566000000E+00 0. -1.
          4    1    3    3  501    0 -0.12229157773E+03 -0.13781434386E+03 -0.63564561616E+03  0.66181067739E+03  0.00000000000E+00 0.  1.
         -4    1    4    4    0  502  0.23825249221E+03 -0.29437414157E+03  0.25762028332E+03  0.45802685036E+03  0.00000000000E+00 0. -1.
</event>
<event>
 8    1  0.6759491E-006  0.1089631E+04  0.7818608E-02  0.8697083E-01
         21   -1    0    0  501  502  0.00000000000E+00  0.00000000000E+00  0.11186073355E+04  0.11186073355E+04  0.00000000000E+00 0.  1.
         21   -1    0    0  502  503 -0.00000000000E+00 -0.00000000000E+00 -0.11761072393E+04  0.11761072393E+04  0.00000000000E+00 0.  1.
    9000010    2    1    2  501    0 -0.37059168706E+03  0.22353764865E+03  0.34632287528E+03  0.11433441156E+04  0.99999447687E+03 0.  0.
   -9000010    2    1    2    0  503  0.37059168706E+03 -0.22353764865E+03 -0.40382277907E+03  0.11513704593E+04  0.98755952669E+03 0.  0.
        -13    1    3    3    0    0 -0.52615472321E+03 -0.10203351645E+03 -0.12443151554E+03  0.55021163606E+03  0.10566000000E+00 0.  1.
         13    1    4    4    0    0  0.28703518322E+03 -0.51756277201E+03 -0.55412413355E+03  0.81074902770E+03  0.10566000000E+00 0. -1.
          4    1    3    3  501    0  0.15556303615E+03  0.32557116510E+03  0.47075439082E+03  0.59313247950E+03  0.00000000000E+00 0.  1.
         -4    1    4    4    0  503  0.83556503835E+02  0.29402512336E+03  0.15030135448E+03  0.34062143159E+03  0.00000000000E+00 0. -1.
</event>
<event>
 8    1  0.6759491E-006  0.1104806E+04  0.7818608E-02  0.8709418E-01
         21   -1    0    0  503  502  0.00000000000E+00  0.00000000000E+00  0.13158679358E+04  0.13158679358E+04  0.00000000000E+00 0.  1.
         21   -1    0    0  501  503 -0.00000000000E+00 -0.00000000000E+00 -0.11344212972E+04  0.11344212972E+04  0.00000000000E+00 0.  1.
    9000010    2    1    2  501    0 -0.12086296430E+03 -0.44727609208E+03 -0.54303188680E+03  0.12310479497E+04  0.10029614478E+04 0.  0.
   -9000010    2    1    2    0  502  0.12086296430E+03  0.44727609208E+03  0.72447852535E+03  0.12192412833E+04  0.86430111330E+03 0.  0.
        -13    1    3    3    0    0 -0.32222905886E+03  0.15168617796E+03  0.55776347392E+02  0.36048755187E+03  0.10566000000E+00 0.  1.
         13    1    4    4    0    0  0.42651331962E+03  0.47301290278E+03  0.32338683880E+03  0.71430657052E+03  0.10566000000E+00 0. -1.
          4    1    3    3  501    0  0.20136609456E+03 -0.59896227004E+03 -0.59880823419E+03  0.87056039785E+03  0.00000000000E+00 0.  1.
         -4    1    4    4    0  502 -0.30565035531E+03 -0.25736810698E+02  0.40109168654E+03  0.50493471275E+03  0.00000000000E+00 0. -1.
</event>
<event>
 8    1  0.6759491E-006  0.1157772E+04  0.7818608E-02  0.8650638E-01
         21   -1    0    0  501  502  0.00000000000E+00  0.00000000000E+00  0.14646831084E+04  0.14646831084E+04  0.00000000000E+00 0. -1.
         21   -1    0    0  502  503 -0.00000000000E+00 -0.00000000000E+00 -0.95089947020E+03  0.95089947020E+03  0.00000000000E+00 0. -1.
    9000010    2    1    2  501    0 -0.26602194072E+03 -0.45598843871E+03  0.60222749005E+03  0.12544371522E+04  0.96552653507E+03 0.  0.
   -9000010    2    1    2    0  503  0.26602194072E+03  0.45598843871E+03 -0.88443851833E+02  0.11611454264E+04  0.10304092668E+04 0.  0.
        -13    1    3    3    0    0  0.16481876253E+03 -0.21561313232E+02  0.62044342965E+03  0.64232404226E+03  0.10566000000E+00 0.  1.
         13    1    4    4    0    0  0.21772290497E+03 -0.23436990905E+03 -0.29890090627E+03  0.43780621347E+03  0.10566000000E+00 0. -1.
          4    1    3    3  501    0 -0.43084070325E+03 -0.43442712548E+03 -0.18215939597E+02  0.61211310996E+03  0.00000000000E+00 0.  1.
         -4    1    4    4    0  503  0.48299035752E+02  0.69035834777E+03  0.21045705444E+03  0.72333921292E+03  0.00000000000E+00 0. -1.
</event>
<event>
 8    1  0.6759491E-006  0.1240976E+04  0.7818608E-02  0.8590106E-01
         21   -1    0    0  503  502  0.00000000000E+00  0.00000000000E+00  0.74756537636E+03  0.74756537636E+03  0.00000000000E+00 0. -1.
         21   -1    0    0  501  503 -0.00000000000E+00 -0.00000000000E+00 -0.20057743695E+04  0.20057743695E+04  0.00000000000E+00 0.  1.
    9000010    2    1    2  501    0  0.57585291273E+03  0.46585837860E+03 -0.39732937941E+03  0.13030316784E+04  0.99568585066E+03 0.  0.
   -9000010    2    1    2    0  502 -0.57585291273E+03 -0.46585837860E+03 -0.86087961372E+03  0.14503080674E+04  0.90202504130E+03 0.  0.
        -13    1    3    3    0    0 -0.17550378335E+03  0.16057321144E+03 -0.42994877100E+03  0.49136675819E+03  0.10566000000E+00 0.  1.
         13    1    4    4    0    0 -0.30420457071E+03 -0.37783401964E+03 -0.10156257430E+04  0.11255197148E+04  0.10566000000E+00 0. -1.
          4    1    3    3  501    0  0.75135669608E+03  0.30528516715E+03  0.32619391586E+02  0.81166492023E+03  0.00000000000E+00 0.  1.
         -4    1    4    4    0  502 -0.27164834202E+03 -0.88024358953E+02  0.15474612932E+03  0.32478835267E+03  0.00000000000E+00 0. -1.
</event>
<event>
 8    1  0.6759491E-006  0.1116472E+04  0.7818608E-02  0.8704087E-01
         21   -1    0    0  503  502  0.00000000000E+00  0.00000000000E+00  0.10159902026E+04  0.10159902026E+04  0.00000000000E+00 0. -1.
         21   -1    0    0  501  503 -0.00000000000E+00 -0.00000000000E+00 -0.12879979617E+04  0.12879979617E+04  0.00000000000E+00 0. -1.
    9000010    2    1    2  501    0 -0.38840790412E+03 -0.31693709822E+03 -0.59718664156E+03  0.11411250053E+04  0.83320139736E+03 0.  0.
   -9000010    2    1    2    0  502  0.38840790412E+03  0.31693709822E+03  0.32517888252E+03  0.11628631590E+04  0.99759691098E+03 0.  0.
        -13    1    3    3    0    0  0.22366799003E+03 -0.39101501901E+02  0.20828836976E+02  0.22801348387E+03  0.10566000000E+00 0.  1.
         13    1    4    4    0    0 -0.82344585784E+02  0.22368313120E+03 -0.29463580537E+03  0.37897894792E+03  0.10566000000E+00 0. -1.
          4    1    3    3  501    0 -0.61207589415E+03 -0.27783559632E+03 -0.61801547854E+03  0.91311152139E+03  0.00000000000E+00 0.  1.
         -4    1    4    4    0  502  0.47075248990E+03  0.93253967020E+02  0.61981468789E+03  0.78388421112E+03  0.00000000000E+00 0. -1.
</event>
<event>
 8    1  0.6759491E-006  0.1011004E+04  0.7818608E-02  0.8767775E-01
         21   -1    0    0  501  502  0.00000000000E+00  0.00000000000E+00  0.96473959521E+03  0.96473959521E+03  0.00000000000E+00 0. -1.
         21   -1    0    0  502  503 -0.00000000000E+00 -0.00000000000E+00 -0.11113741473E+04  0.11113741473E+04  0.00000000000E+00 0. -1.
    9000010    2    1    2  501    0  0.15184108327E+03 -0.11347649924E+03  0.18166462353E+03  0.10271955170E+04  0.99307399738E+03 0.  0.
   -9000010    2    1    2    0  503 -0.15184108327E+03  0.11347649924E+03 -0.32829917560E+03  0.10489182255E+04  0.97801659730E+03 0.  0.
        -13    1    3    3    0    0  0.46040584009E+02 -0.48117741802E+03 -0.16512741772E+03  0.51080183852E+03  0.10566000000E+00 0.  1.
         13    1    4    4    0    0 -0.17459013045E+03  0.39001289442E+03  0.18483376015E+03  0.46556986750E+03  0.10566000000E+00 0. -1.
          4    1    3    3  501    0  0.10580049926E+03  0.36770091878E+03  0.34679204125E+03  0.51639367849E+03  0.00000000000E+00 0.  1.
         -4    1    4    4    0  503  0.22749047185E+02 -0.27653639518E+03 -0.51313293575E+03  0.58334835798E+03  0.00000000000E+00 0. -1.
</event>
<event>
 8    1  0.6759491E-006  0.1052685E+04  0.7818608E-02  0.8727674E-01
         21   -1    0    0  501  502  0.00000000000E+00  0.00000000000E+00  0.13683899726E+04  0.13683899726E+04  0.00000000000E+00 0. -1.
         21   -1    0    0  502  503 -0.00000000000E+00 -0.00000000000E+00 -0.87085453214E+03  0.87085453214E+03  0.00000000000E+00 0. -1.
    9000010    2    1    2  501    0  0.40529984164E+03 -0.17402316702E+03  0.55353640497E+03  0.11850706155E+04  0.95049344434E+03 0.  0.
   -9000010    2    1    2    0  503 -0.40529984164E+03  0.17402316702E+03 -0.56000964542E+02  0.10541738892E+04  0.95582135173E+03 0.  0.
        -13    1    3    3    0    0  0.56131325405E+02 -0.43156910959E+03  0.60808725491E+03  0.74777853860E+03  0.10566000000E+00 0.  1.
         13    1    4    4    0    0 -0.19429789894E+03 -0.13009061824E+03 -0.45398771550E+03  0.51066632890E+03  0.10566000000E+00 0. -1.
          4    1    3    3  501    0  0.34916851624E+03  0.25754594257E+03 -0.54550849937E+02  0.43729207687E+03  0.00000000000E+00 0.  1.
         -4    1    4    4    0  503 -0.21100194271E+03  0.30411378526E+03  0.39798675096E+03  0.54350756034E+03  0.00000000000E+00 0. -1.
</event>
<event>
 8    1  0.6759491E-006  0.1003326E+04  0.7818608E-02  0.8772422E-01
         21   -1    0    0  501  502  0.00000000000E+00  0.00000000000E+00  0.41006937602E+04  0.41006937602E+04  0.00000000000E+00 0. -1.
         21   -1    0    0  502  503 -0.00000000000E+00 -0.00000000000E+00 -0.25180994646E+03  0.25180994646E+03  0.00000000000E+00 0. -1.
    9000010    2    1    2  501    0 -0.78855545827E+02 -0.11171353820E+03  0.22991066015E+04  0.25084962400E+04  0.99396383698E+03 0.  0.
   -9000010    2    1    2    0  503  0.78855545827E+02  0.11171353820E+03  0.15497772122E+04  0.18440074666E+04  0.98987676901E+03 0.  0.
        -13    1    3    3    0    0 -0.42540671750E+03  0.25404297652E+03  0.12515531550E+04  0.13460661277E+04  0.10566000000E+00 0.  1.
         13    1    4    4    0    0  0.11491405364E+03  0.37756175529E+03  0.15556117344E+03  0.42421387133E+03  0.10566000000E+00 0. -1.
          4    1    3    3  501    0  0.34655117167E+03 -0.36575651472E+03  0.10475534465E+04  0.11624301122E+04  0.00000000000E+00 0.  1.
         -4    1    4    4    0  503 -0.36058507812E+02 -0.26584821709E+03  0.13942160388E+04  0.14197935953E+04  0.00000000000E+00 0. -1.
</event>
<event>
 8    1  0.6759491E-006  0.1042113E+04  0.7818608E-02  0.8740830E-01
         21   -1    0    0  503  502  0.00000000000E+00  0.00000000000E+00  0.12516165580E+04  0.12516165580E+04  0.00000000000E+00 0.  1.
         21   -1    0    0  501  503 -0.00000000000E+00 -0.00000000000E+00 -0.16147526585E+04  0.16147526585E+04  0.00000000000E+00 0.  1.
    9000010    2    1    2  501    0  0.21486302109E+03 -0.80878613850E+02 -0.11668740534E+04  0.15503165460E+04  0.99457471731E+03 0.  0.
   -9000010    2    1    2    0  502 -0.21486302109E+03  0.80878613850E+02  0.80373795288E+03  0.13160526705E+04  0.10165099442E+04 0.  0.
        -13    1    3    3    0    0 -0.92809971275E+02 -0.12820871237E+03  0.13728581225E+03  0.20951985611E+03  0.10566000000E+00 0.  1.
         13    1    4    4    0    0 -0.76152851866E+01 -0.27493950875E+03  0.85773338179E+03  0.90075318009E+03  0.10566000000E+00 0. -1.
          4    1    3    3  501    0  0.30767299236E+03  0.47330098521E+02 -0.13041598657E+04  0.13407966899E+04  0.00000000000E+00 0.  1.
         -4    1    4    4    0  502 -0.20724773590E+03  0.35581812260E+03 -0.53995428904E+02  0.41529949043E+03  0.00000000000E+00 0. -1.
</event>
<event>
 8    1  0.6759491E-006  0.1050276E+04  0.7818608E-02  0.8738804E-01
         21   -1    0    0  503  502  0.00000000000E+00  0.00000000000E+00  0.78134236821E+03  0.78134236821E+03  0.00000000000E+00 0. -1.
         21   -1    0    0  501  503 -0.00000000000E+00 -0.00000000000E+00 -0.14815194252E+04  0.14815194252E+04  0.00000000000E+00 0. -1.
    9000010    2    1    2  501    0 -0.35464164829E+03 -0.91656282989E+02 -0.23372289202E+02  0.10505358533E+04  0.98433111411E+03 0.  0.
   -9000010    2    1    2    0  502  0.35464164829E+03  0.91656282989E+02 -0.67680476781E+03  0.12123259402E+04  0.93674858875E+03 0.  0.
        -13    1    3    3    0    0  0.70474869985E+01 -0.47632898919E+03  0.14224276657E+03  0.49716394562E+03  0.10566000000E+00 0.  1.
         13    1    4    4    0    0  0.18792731048E+03 -0.34957533917E+03 -0.11843950218E+02  0.39706407808E+03  0.10566000000E+00 0. -1.
          4    1    3    3  501    0 -0.36168913529E+03  0.38467270620E+03 -0.16561505577E+03  0.55337190766E+03  0.00000000000E+00 0.  1.
         -4    1    4    4    0  502  0.16671433782E+03  0.44123162216E+03 -0.66496081759E+03  0.81526186208E+03  0.00000000000E+00 0. -1.
</event>
<event>
 8    1  0.6759491E-006  0.1049125E+04  0.7818608E-02  0.8739304E-01
         21   -1    0    0  503  502  0.00000000000E+00  0.00000000000E+00  0.19403913793E+04  0.19403913793E+04  0.00000000000E+00 0. -1.
         21   -1    0    0  501  503 -0.00000000000E+00 -0.00000000000E+00 -0.60571066380E+03  0.60571066380E+03  0.00000000000E+00 0. -1.
    9000010    2    1    2  501    0 -0.26121716091E+03 -0.13803845496E+03  0.25098993082E+03  0.10377751694E+04  0.96264860492E+03 0.  0.
   -9000010    2    1    2    0  502  0.26121716091E+03  0.13803845496E+03  0.10836907846E+04  0.15083268737E+04  0.10066653968E+04 0.  0.
        -13    1    3    3    0    0 -0.34670781442E+03  0.34120983421E+03  0.25857862491E+03  0.55090232888E+03  0.10566000000E+00 0.  1.
         13    1    4    4    0    0 -0.11955202747E+03  0.18396193208E+03 -0.11645573536E+03  0.24838806169E+03  0.10566000000E+00 0. -1.
          4    1    3    3  501    0  0.85490653511E+02 -0.47924828917E+03 -0.75886940947E+01  0.48687284047E+03  0.00000000000E+00 0.  1.
         -4    1    4    4    0  502  0.38076918838E+03 -0.45923477125E+02  0.12001465200E+04  0.12599388120E+04  0.00000000000E+00 0. -1.
</event>
<event>
 8    1  0.6759491E-006  0.1147776E+04  0.7818608E-02  0.8668619E-01
         21   -1    0    0  501  502  0.00000000000E+00  0.00000000000E+00  0.26365001466E+04  0.26365001466E+04  0.00000000000E+00 0.  1.
         21   -1    0    0  502  503 -0.00000000000E+00 -0.00000000000E+00 -0.58736619494E+03  0.58736619494E+03  0.00000000000E+00 0.  1.
    9000010    2    1    2  501    0  0.16815822698E+03 -0.41312543825E+03  0.18251654073E+04  0.21560655694E+04  0.10575633120E+04 0.  0.
   -9000010    2    1    2    0  503 -0.16815822698E+03  0.41312543825E+03  0.22396854439E+03  0.10678007721E+04  0.94397392071E+03 0.  0.
        -13    1    3    3    0    0  0.71445245707E+02 -0.17024240684E+03 -0.10221707410E+03  0.21103374523E+03  0.10566000000E+00 0.  1.
         13    1    4    4    0    0 -0.21076857715E+02 -0.30295818314E+03  0.13151795543E+03  0.33094543119E+03  0.10566000000E+00 0. -1.
          4    1    3    3  501    0  0.96712981272E+02 -0.24288303141E+03  0.19273824814E+04  0.19450318242E+04  0.00000000000E+00 0.  1.
         -4    1    4    4    0  503 -0.14708136926E+03  0.71608362139E+03  0.92450588959E+02  0.73685534090E+03  0.00000000000E+00 0. -1.
</event>
<event>
 8    1  0.6759491E-006  0.1129169E+04  0.7818608E-02  0.8664476E-01
         21   -1    0    0  501  502  0.00000000000E+00  0.00000000000E+00  0.19813228631E+04  0.19813228631E+04  0.00000000000E+00 0.  1.
         21   -1    0    0  502  503 -0.00000000000E+00 -0.00000000000E+00 -0.69977495178E+03  0.69977495178E+03  0.00000000000E+00 0.  1.
    9000010    2    1    2  501    0 -0.11175303462E+03 -0.48636671904E+03  0.10476789700E+04  0.15403421803E+04  0.10129074401E+04 0.  0.
   -9000010    2    1    2    0  503  0.11175303462E+03  0.48636671904E+03  0.23386894137E+03  0.11407556346E+04  0.99879297654E+03 0.  0.
        -13    1    3    3    0    0  0.36843715954E+03 -0.44592906196E+03  0.82972348713E+03  0.10114542724E+04  0.10566000000E+00 0.  1.
         13    1    4    4    0    0 -0.58494339526E+02  0.54133542415E+03  0.55226559861E+03  0.77554041272E+03  0.10566000000E+00 0. -1.
          4    1    3    3  501    0 -0.48019019415E+03 -0.40437657082E+02  0.21795548284E+03  0.52888790795E+03  0.00000000000E+00 0.  1.
         -4    1    4    4    0  503  0.17024737414E+03 -0.54968705110E+02 -0.31839665724E+03  0.36521522187E+03  0.00000000000E+00 0. -1.
</event>
<event>
 8    1  0.6759491E-006  0.1162878E+04  0.7818608E-02  0.8635343E-01
         21   -1    0    0  503  502  0.00000000000E+00  0.00000000000E+00  0.10219078636E+04  0.10219078636E+04  0.00000000000E+00 0.  1.
         21   -1    0    0  501  503 -0.00000000000E+00 -0.00000000000E+00 -0.14681593526E+04  0.14681593526E+04  0.00000000000E+00 0.  1.
    9000010    2    1    2  501    0  0.40280271520E+03 -0.42331020968E+03 -0.61660909646E+03  0.13162416083E+04  0.10054071975E+04 0.  0.
   -9000010    2    1    2    0  502 -0.40280271520E+03  0.42331020968E+03  0.17035760746E+03  0.11738256078E+04  0.10036948152E+04 0.  0.
        -13    1    3    3    0    0  0.68773018429E+03 -0.48018578369E+02 -0.32562240342E+03  0.76243593241E+03  0.10566000000E+00 0.  1.
         13    1    4    4    0    0  0.43806183251E+02  0.64939252579E+03  0.20063643492E+02  0.65117754507E+03  0.10566000000E+00 0. -1.
          4    1    3    3  501    0 -0.28492746909E+03 -0.37529163132E+03 -0.29098669304E+03  0.55380567594E+03  0.00000000000E+00 0.  1.
         -4    1    4    4    0  502 -0.44660889845E+03 -0.22608231611E+03  0.15029396397E+03  0.52264806269E+03  0.00000000000E+00 0. -1.
</event>
<event>
 8    1  0.6759491E-006  0.1036810E+04  0.7818608E-02  0.8752869E-01
         21   -1    0    0  503  502  0.00000000000E+00  0.00000000000E+00  0.88020379038E+03  0.88020379038E+03  0.00000000000E+00 0. -1.
         21   -1    0    0  501  503 -0.00000000000E+00 -0.00000000000E+00 -0.12645095678E+04  0.12645095678E+04  0.00000000000E+00 0. -1.
    9000010    2    1    2  501    0  0.14969897989E+03 -0.10942856821E+03 -0.50447659971E+03  0.11530270275E+04  0.10200932753E+04 0.  0.
   -9000010    2    1    2    0  502 -0.14969897989E+03  0.10942856821E+03  0.12017082226E+03  0.99168633074E+03  0.96675558231E+03 0.  0.
        -13    1    3    3    0    0  0.22287577490E+01  0.30161052488E+03 -0.63014616304E+03  0.69861153300E+03  0.10566000000E+00 0.  1.
         13    1    4    4    0    0 -0.37640964364E+03 -0.60067246528E+02 -0.29999363107E+03  0.48506544278E+03  0.10566000000E+00 0. -1.
          4    1    3    3  501    0  0.14747022214E+03 -0.41103909308E+03  0.12566956333E+03  0.45441549447E+03  0.00000000000E+00 0.  1.
         -4    1    4    4    0  502  0.22671066375E+03  0.16949581473E+03  0.42016445333E+03  0.50662088796E+03  0.00000000000E+00 0. -1.
</event>
<event>
 8    1  0.6759491E-006  0.1036498E+04  0.7818608E-02  0.8741747E-01
         21   -1    0    0  501  502  0.00000000000E+00  0.00000000000E+00  0.65962634859E+03  0.65962634859E+03  0.00000000000E+00 0.  1.
         21   -1    0    0  502  503 -0.00000000000E+00 -0.00000000000E+00 -0.18353652016E+04  0.18353652016E+04  0.00000000000E+00 0.  1.
    9000010    2    1    2  501    0 -0.66543424728E+02 -0.24788970638E+03 -0.10122869123E+04  0.14488109761E+04  0.10042166687E+04 0.  0.
   -9000010    2    1    2    0  503  0.66543424728E+02  0.24788970638E+03 -0.16345194072E+03  0.10461805741E+04  0.10009495106E+04 0.  0.
        -13    1    3    3    0    0 -0.20890324789E+03  0.32819376309E+03 -0.63788041946E+03  0.74715671301E+03  0.10566000000E+00 0.  1.
         13    1    4    4    0    0 -0.42100837769E+03  0.11696998741E+03  0.13796526221E+03  0.45821878702E+03  0.10566000000E+00 0. -1.
          4    1    3    3  501    0  0.14235982316E+03 -0.57608346947E+03 -0.37440649288E+03  0.70165426312E+03  0.00000000000E+00 0.  1.
         -4    1    4    4    0  503  0.48755180242E+03  0.13091971897E+03 -0.30141720293E+03  0.58796178709E+03  0.00000000000E+00 0. -1.
</event>
<event>
 8    1  0.6759491E-006  0.1009478E+04  0.7818608E-02  0.8772207E-01
         21   -1    0    0  503  502  0.00000000000E+00  0.00000000000E+00  0.11284613769E+04  0.11284613769E+04  0.00000000000E+00 0. -1.
         21   -1    0    0  501  503 -0.00000000000E+00 -0.00000000000E+00 -0.88974591960E+03  0.88974591960E+03  0.00000000000E+00 0. -1.
    9000010    2    1    2  501    0  0.58675777277E+02  0.65640638542E+02  0.82735544244E+01  0.10095117347E+04  0.10056311205E+04 0.  0.
   -9000010    2    1    2    0  502 -0.58675777277E+02 -0.65640638542E+02  0.23044190291E+03  0.10086955619E+04  0.97806529722E+03 0.  0.
        -13    1    3    3    0    0 -0.26956544215E+03  0.22437355420E+03 -0.35202197313E+03  0.49691900764E+03  0.10566000000E+00 0.  1.
         13    1    4    4    0    0  0.22019584028E+03  0.36618089657E+03 -0.37650659821E+02  0.42894316691E+03  0.10566000000E+00 0. -1.
          4    1    3    3  501    0  0.32824121943E+03 -0.15873291565E+03  0.36029552755E+03  0.51259272704E+03  0.00000000000E+00 0.  1.
         -4    1    4    4    0  502 -0.27887161755E+03 -0.43182153511E+03  0.26809256274E+03  0.57975239495E+03  0.00000000000E+00 0. -1.
</event>
<event>
 8    1  0.6759491E-006  0.1020558E+04  0.7818608E-02  0.8757929E-01
         21   -1    0    0  503  502  0.00000000000E+00  0.00000000000E+00  0.89944802415E+03  0.89944802415E+03  0.00000000000E+00 0.  1.
         21   -1    0    0  501  503 -0.00000000000E+00 -0.00000000000E+00 -0.12878697856E+04  0.12878697856E+04  0.00000000000E+00 0.  1.
    9000010    2    1    2  501    0  0.19596128529E+03 -0.30376894388E+01 -0.55795515731E+03  0.11631220912E+04  0.10015632724E+04 0.  0.
   -9000010    2    1    2    0  502 -0.19596128529E+03  0.30376894388E+01  0.16953339583E+03  0.10241957185E+04  0.99087095259E+03 0.  0.
        -13    1    3    3    0    0  0.37729029998E+03  0.28421930851E+03 -0.65708539462E+03  0.80925262605E+03  0.10566000000E+00 0.  1.
         13    1    4    4    0    0 -0.56079459019E+03  0.11946612746E+03  0.26173522881E+03  0.63029205069E+03  0.10566000000E+00 0. -1.
          4    1    3    3  501    0 -0.18132901469E+03 -0.28725699795E+03  0.99130237312E+02  0.35386946518E+03  0.00000000000E+00 0.  1.
         -4    1    4    4    0  502  0.36483330490E+03 -0.11642843802E+03 -0.92201832984E+02  0.39390366785E+03  0.00000000000E+00 0. -1.
</event>
<event>
 8    1  0.6759491E-006  0.1044626E+04  0.7818608E-02  0.8733824E-01
         21   -1    0    0  503  502  0.00000000000E+00  0.00000000000E+00  0.14618861266E+04  0.14618861266E+04  0.00000000000E+00 0. -1.
         21   -1    0    0  501  503 -0.00000000000E+00 -0.00000000000E+00 -0.12134900599E+04  0.12134900599E+04  0.00000000000E+00 0. -1.
    9000010    2    1    2  501    0 -0.24772675434E+03 -0.17095079100E+03 -0.70587669176E+03  0.12604977785E+04  0.10000000140E+04 0.  0.
   -9000010    2    1    2    0  502  0.24772675434E+03  0.17095079100E+03  0.95427275850E+03  0.14148784079E+04  0.10003257938E+04 0.  0.
        -13    1    3    3    0    0 -0.60196759577E+03 -0.27220816312E+03 -0.34728889614E+03  0.74637246665E+03  0.10566000000E+00 0.  1.
         13    1    4    4    0    0  0.56831862723E+03  0.39688946387E+02  0.23449857912E+03  0.61607699949E+03  0.10566000000E+00 0. -1.
          4    1    3    3  501    0  0.35424084143E+03  0.10125737212E+03 -0.35858779562E+03  0.51412531188E+03  0.00000000000E+00 0.  1.
         -4    1    4    4    0  502 -0.32059187289E+03  0.13126184461E+03  0.71977417938E+03  0.79880140843E+03  0.00000000000E+00 0. -1.
</event>
<event>
 8    1  0.6759491E-006  0.1010188E+04  0.7818608E-02  0.8776001E-01
         21   -1    0    0  501  502  0.00000000000E+00  0.00000000000E+00  0.74454362524E+03  0.74454362524E+03  0.00000000000E+00 0. -1.
         21   -1    0    0  502  503 -0.00000000000E+00 -0.00000000000E+00 -0.15036755161E+04  0.15036755161E+04  0.00000000000E+00 0. -1.
    9000010    2    1    2  501    0  0.91268143389E+02 -0.13731944491E+03  0.17138367421E+02  0.10103335614E+04  0.99664119811E+03 0.  0.
   -9000010    2    1    2    0  503 -0.91268143389E+02  0.13731944491E+03 -0.77627025829E+03  0.12378855799E+04  0.95004141548E+03 0.  0.
        -13    1    3    3    0    0  0.40486874406E+03  0.20630735842E+03 -0.20056876716E+03  0.49669836680E+03  0.10566000000E+00 0.  1.
         13    1    4    4    0    0  0.20880347705E+03 -0.15860564867E+03  0.87796188733E+02  0.27651912364E+03  0.10566000000E+00 0. -1.
          4    1    3    3  501    0 -0.31360060068E+03 -0.34362680333E+03  0.21770713459E+03  0.51363519463E+03  0.00000000000E+00 0.  1.
         -4    1    4    4    0  503 -0.30007162043E+03  0.29592509358E+03 -0.86406644703E+03  0.96136645629E+03  0.00000000000E+00 0. -1.
</event>
<event>
 8    1  0.6759491E-006  0.1350269E+04  0.7818608E-02  0.8509082E-01
         21   -1    0    0  503  502  0.00000000000E+00  0.00000000000E+00  0.12995382940E+04  0.12995382940E+04  0.00000000000E+00 0.  1.
         21   -1    0    0  501  503 -0.00000000000E+00 -0.00000000000E+00 -0.14074616630E+04  0.14074616630E+04  0.00000000000E+00 0. -1.
    9000010    2    1    2  501    0 -0.59212282810E+03  0.59376409777E+03 -0.31737010309E+03  0.13870649478E+04  0.10583289374E+04 0.  0.
   -9000010    2    1    2    0  502  0.59212282810E+03 -0.59376409777E+03  0.20944673408E+03  0.13199350092E+04  0.99759473069E+03 0.  0.
        -13    1    3    3    0    0 -0.56679165560E+03  0.23547482922E+03  0.29202648499E+03  0.67969158827E+03  0.10566000000E+00 0.  1.
         13    1    4    4    0    0  0.50624137911E+03 -0.73885962936E+03 -0.16367604631E+03  0.91048544476E+03  0.10566000000E+00 0. -1.
          4    1    3    3  501    0 -0.25331172503E+02  0.35828926855E+03 -0.60939658808E+03  0.70737335957E+03  0.00000000000E+00 0.  1.
         -4    1    4    4    0  502  0.85881448996E+02  0.14509553159E+03  0.37312278039E+03  0.40944956443E+03  0.00000000000E+00 0. -1.
</event>
<event>
 8    1  0.6759491E-006  0.1071140E+04  0.7818608E-02  0.8712660E-01
         21   -1    0    0  503  502  0.00000000000E+00  0.00000000000E+00  0.13436559882E+04  0.13436559882E+04  0.00000000000E+00 0. -1.
         21   -1    0    0  501  503 -0.00000000000E+00 -0.00000000000E+00 -0.94811954655E+03  0.94811954655E+03  0.00000000000E+00 0. -1.
    9000010    2    1    2  501    0  0.39571056214E+03  0.10026158604E+02 -0.17929669338E+03  0.10761385375E+04  0.98449960632E+03 0.  0.
   -9000010    2    1    2    0  502 -0.39571056214E+03 -0.10026158604E+02  0.57483313502E+03  0.12156369972E+04  0.99531542890E+03 0.  0.
        -13    1    3    3    0    0  0.62420227328E+03 -0.17452986065E+03  0.11735330199E+03  0.65868122706E+03  0.10566000000E+00 0.  1.
         13    1    4    4    0    0 -0.60190221143E+03  0.33496712355E+02 -0.59578597628E+00  0.60283386434E+03  0.10566000000E+00 0. -1.
          4    1    3    3  501    0 -0.22849171114E+03  0.18455601926E+03 -0.29664999537E+03  0.41745731046E+03  0.00000000000E+00 0.  1.
         -4    1    4    4    0  502  0.20619164929E+03 -0.43522870959E+02  0.57542892099E+03  0.61280313287E+03  0.00000000000E+00 0. -1.
</event>
<event>
 8    1  0.6759491E-006  0.1039837E+04  0.7818608E-02  0.8740878E-01
         21   -1    0    0  501  502  0.00000000000E+00  0.00000000000E+00  0.10084617763E+04  0.10084617763E+04  0.00000000000E+00 0.  1.
         21   -1    0    0  502  503 -0.00000000000E+00 -0.00000000000E+00 -0.11859194889E+04  0.11859194889E+04  0.00000000000E+00 0.  1.
    9000010    2    1    2  501    0  0.15026334564E+03 -0.21116103884E+03  0.27035589847E+03  0.10622156761E+04  0.99400290407E+03 0.  0.
   -9000010    2    1    2    0  503 -0.15026334564E+03  0.21116103884E+03 -0.44781361108E+03  0.11321655891E+04  0.10070222607E+04 0.  0.
        -13    1    3    3    0    0  0.49612094122E+02 -0.24689485053E+03  0.63454386247E+03  0.68268905929E+03  0.10566000000E+00 0.  1.
         13    1    4    4    0    0 -0.56936518870E+03  0.21026421592E+03 -0.17346110251E+03  0.63124996938E+03  0.10566000000E+00 0. -1.
          4    1    3    3  501    0  0.10065125152E+03  0.35733811684E+02 -0.36418796401E+03  0.37952661680E+03  0.00000000000E+00 0.  1.
         -4    1    4    4    0  503  0.41910184305E+03  0.89682292589E+00 -0.27435250857E+03  0.50091561974E+03  0.00000000000E+00 0. -1.
</event>
<event>
 8    1  0.1681792E-005  0.9339520E+03  0.7818608E-02  0.8841474E-01
         21   -1    0    0  501  502  0.00000000000E+00  0.00000000000E+00  0.70615581200E+03  0.70615581200E+03  0.00000000000E+00 0. -1.
         21   -1    0    0  502  503 -0.00000000000E+00 -0.00000000000E+00 -0.13491759511E+04  0.13491759511E+04  0.00000000000E+00 0. -1.
    9000010    2    1    2  501    0  0.27318767253E+03 -0.27827169800E+02 -0.95976752337E+01  0.93400128459E+03  0.89267039183E+03 0.  0.
   -9000010    2    1    2    0  503 -0.27318767253E+03  0.27827169800E+02 -0.63342246391E+03  0.11213304786E+04  0.88360181561E+03 0.  0.
        -13    1    3    3    0    0 -0.80764249654E+02 -0.26558156744E+03  0.29874361434E+03  0.40780410893E+03  0.10566000000E+00 0.  1.
         13    1    4    4    0    0 -0.46934418654E+03 -0.24623003622E+03 -0.18712525020E+03  0.56207567694E+03  0.10566000000E+00 0. -1.
          4    1    3    3  501    0  0.35395192218E+03  0.23775439764E+03 -0.30834128958E+03  0.52619717566E+03  0.00000000000E+00 0.  1.
         -4    1    4    4    0  503  0.19615651401E+03  0.27405720602E+03 -0.44629721371E+03  0.55925480162E+03  0.00000000000E+00 0. -1.
</event>
<event>
 8    1  0.6759491E-006  0.1069178E+04  0.7818608E-02  0.8716514E-01
         21   -1    0    0  501  502  0.00000000000E+00  0.00000000000E+00  0.31301606864E+04  0.31301606864E+04  0.00000000000E+00 0.  1.
         21   -1    0    0  502  503 -0.00000000000E+00 -0.00000000000E+00 -0.57910047962E+03  0.57910047962E+03  0.00000000000E+00 0.  1.
    9000010    2    1    2  501    0  0.23972194624E+02  0.36351364935E+03  0.24128886159E+04  0.26311919610E+04  0.98408476444E+03 0.  0.
   -9000010    2    1    2    0  503 -0.23972194624E+02 -0.36351364935E+03  0.13817159083E+03  0.10780692050E+04  0.10051989767E+04 0.  0.
        -13    1    3    3    0    0 -0.43570258082E+01  0.68141702695E+03  0.12315968717E+04  0.14075436100E+04  0.10566000000E+00 0.  1.
         13    1    4    4    0    0  0.22163060284E+03  0.43786674928E+02  0.45402453716E+03  0.50712492398E+03  0.10566000000E+00 0. -1.
          4    1    3    3  501    0  0.28329220432E+02 -0.31790337760E+03  0.11812917442E+04  0.12236483511E+04  0.00000000000E+00 0.  1.
         -4    1    4    4    0  503 -0.24560279746E+03 -0.40730032428E+03 -0.31585294633E+03  0.57094428098E+03  0.00000000000E+00 0. -1.
</event>
<event>
 8    1  0.6759491E-006  0.1211996E+04  0.7818608E-02  0.8602071E-01
         21   -1    0    0  501  502  0.00000000000E+00  0.00000000000E+00  0.14429465049E+04  0.14429465049E+04  0.00000000000E+00 0.  1.
         21   -1    0    0  502  503 -0.00000000000E+00 -0.00000000000E+00 -0.13334377787E+04  0.13334377787E+04  0.00000000000E+00 0.  1.
    9000010    2    1    2  501    0 -0.16909202643E+02 -0.61562246361E+03  0.75133646948E+03  0.14259873820E+04  0.10438661717E+04 0.  0.
   -9000010    2    1    2    0  503  0.16909202643E+02  0.61562246361E+03 -0.64182774328E+03  0.13503969015E+04  0.10160472434E+04 0.  0.
        -13    1    3    3    0    0  0.48398298680E+03 -0.40380613224E+03  0.22531261229E+03  0.66937635779E+03  0.10566000000E+00 0.  1.
         13    1    4    4    0    0 -0.92242184609E+01  0.58717606566E+03 -0.90804538603E+03  0.10813913503E+04  0.10566000000E+00 0. -1.
          4    1    3    3  501    0 -0.50089218944E+03 -0.21181633137E+03  0.52602385718E+03  0.75661102424E+03  0.00000000000E+00 0.  1.
         -4    1    4    4    0  503  0.26133421104E+02  0.28446397951E+02  0.26621764275E+03  0.26900555119E+03  0.00000000000E+00 0. -1.
</event>
<event>
 8    1  0.6759491E-006  0.1009968E+04  0.7818608E-02  0.8777851E-01
         21   -1    0    0  503  502  0.00000000000E+00  0.00000000000E+00  0.18401894230E+04  0.18401894230E+04  0.00000000000E+00 0. -1.
         21   -1    0    0  501  503 -0.00000000000E+00 -0.00000000000E+00 -0.10123825798E+04  0.10123825798E+04  0.00000000000E+00 0. -1.
    9000010    2    1    2  501    0  0.65592829443E+02 -0.85104116642E+02 -0.58048868241E+03  0.11195599509E+04  0.95126349831E+03 0.  0.
   -9000010    2    1    2    0  502 -0.65592829443E+02  0.85104116642E+02  0.14082955255E+04  0.17330120519E+04  0.10042357069E+04 0.  0.
        -13    1    3    3    0    0  0.12203713762E+03  0.40713809194E+03 -0.11639254174E+03  0.44068324657E+03  0.10566000000E+00 0.  1.
         13    1    4    4    0    0 -0.46677040571E+03  0.13900181438E+02  0.30723698605E+03  0.55898336599E+03  0.10566000000E+00 0. -1.
          4    1    3    3  501    0 -0.56444308179E+02 -0.49224220859E+03 -0.46409614068E+03  0.67887670429E+03  0.00000000000E+00 0.  1.
         -4    1    4    4    0  502  0.40117757626E+03  0.71203935203E+02  0.11010585395E+04  0.11740286859E+04  0.00000000000E+00 0. -1.
</event>
<event>
 8    1  0.6759491E-006  0.1029481E+04  0.7818608E-02  0.8748441E-01
         21   -1    0    0  503  502  0.00000000000E+00  0.00000000000E+00  0.39428965928E+03  0.39428965928E+03  0.00000000000E+00 0.  1.
         21   -1    0    0  501  503 -0.00000000000E+00 -0.00000000000E+00 -0.29078604996E+04  0.29078604996E+04  0.00000000000E+00 0.  1.
    9000010    2    1    2  501    0  0.80510799919E+02 -0.17771699118E+03 -0.17259368101E+04  0.20096488439E+04  0.10108240626E+04 0.  0.
   -9000010    2    1    2    0  502 -0.80510799919E+02  0.17771699118E+03 -0.78763403021E+03  0.12925013150E+04  0.10060452106E+04 0.  0.
        -13    1    3    3    0    0 -0.15400703334E+03 -0.35468868795E+03 -0.16349579330E+03  0.41982510319E+03  0.10566000000E+00 0.  1.
         13    1    4    4    0    0 -0.32123730182E+03 -0.33144048629E+03 -0.35046910940E+03  0.57954707129E+03  0.10566000000E+00 0. -1.
          4    1    3    3  501    0  0.23451783325E+03  0.17697169677E+03 -0.15624410168E+04  0.15898237407E+04  0.00000000000E+00 0.  1.
         -4    1    4    4    0  502  0.24072650190E+03  0.50915747747E+03 -0.43716492081E+03  0.71295424367E+03  0.00000000000E+00 0. -1.
</event>
<event>
 8    1  0.6759491E-006  0.1033259E+04  0.7818608E-02  0.8749087E-01
         21   -1    0    0  501  502  0.00000000000E+00  0.00000000000E+00  0.15073707086E+04  0.15073707086E+04  0.00000000000E+00 0. -1.
         21   -1    0    0  502  503 -0.00000000000E+00 -0.00000000000E+00 -0.85508099566E+03  0.85508099566E+03  0.00000000000E+00 0. -1.
    9000010    2    1    2  501    0 -0.93674988167E+02 -0.23509410054E+03  0.83756775168E+03  0.13127129749E+04  0.97859663622E+03 0.  0.
   -9000010    2    1    2    0  503  0.93674988167E+02  0.23509410054E+03 -0.18527803870E+03  0.10497387294E+04  0.10017880059E+04 0.  0.
        -13    1    3    3    0    0 -0.17556466711E+03 -0.60035033195E+03  0.61513734032E+03  0.87728982214E+03  0.10566000000E+00 0.  1.
         13    1    4    4    0    0  0.40870430688E+03  0.31353197454E+03  0.19405174832E+03  0.55045217932E+03  0.10566000000E+00 0. -1.
          4    1    3    3  501    0  0.81889678938E+02  0.36525623142E+03  0.22243041136E+03  0.43542315281E+03  0.00000000000E+00 0.  1.
         -4    1    4    4    0  503 -0.31502931872E+03 -0.78437874002E+02 -0.37932978702E+03  0.49928655004E+03  0.00000000000E+00 0. -1.
</event>
<event>
 8    1  0.6759491E-006  0.1042239E+04  0.7818608E-02  0.8736701E-01
         21   -1    0    0  501  502  0.00000000000E+00  0.00000000000E+00  0.62844218950E+03  0.62844218950E+03  0.00000000000E+00 0. -1.
         21   -1    0    0  502  503 -0.00000000000E+00 -0.00000000000E+00 -0.19899853161E+04  0.19899853161E+04  0.00000000000E+00 0. -1.
    9000010    2    1    2  501    0 -0.25350641542E+03 -0.10880065345E+03 -0.19971799563E+03  0.10576262930E+04  0.10012906736E+04 0.  0.
   -9000010    2    1    2    0  503  0.25350641542E+03  0.10880065345E+03 -0.11618251310E+04  0.15608012127E+04  0.10050670154E+04 0.  0.
        -13    1    3    3    0    0  0.16581159360E+03 -0.66909166124E+01  0.33298308927E+03  0.37204301075E+03  0.10566000000E+00 0.  1.
         13    1    4    4    0    0 -0.27049236565E+03 -0.63220466043E+02 -0.34133072521E+01  0.27780318399E+03  0.10566000000E+00 0. -1.
          4    1    3    3  501    0 -0.41931800902E+03 -0.10210973683E+03 -0.53270108490E+03  0.68558328225E+03  0.00000000000E+00 0.  1.
         -4    1    4    4    0  503  0.52399878108E+03  0.17202111949E+03 -0.11584118238E+04  0.12829980287E+04  0.00000000000E+00 0. -1.
</event>
<event>
 8    1  0.6759491E-006  0.1027340E+04  0.7818608E-02  0.8752773E-01
         21   -1    0    0  501  502  0.00000000000E+00  0.00000000000E+00  0.22015589094E+04  0.22015589094E+04  0.00000000000E+00 0.  1.
         21   -1    0    0  502  503 -0.00000000000E+00 -0.00000000000E+00 -0.52610963651E+03  0.52610963651E+03  0.00000000000E+00 0.  1.
    9000010    2    1    2  501    0  0.14444953124E+03 -0.40435511237E+02  0.39638268244E+03  0.10871080597E+04  0.10010914069E+04 0.  0.
   -9000010    2    1    2    0  503 -0.14444953124E+03  0.40435511237E+02  0.12790665904E+04  0.16405604861E+04  0.10163299997E+04 0.  0.
        -13    1    3    3    0    0 -0.80992240158E+02 -0.89218295415E+02  0.69748152384E+03  0.70781362976E+03  0.10566000000E+00 0.  1.
         13    1    4    4    0    0 -0.40434064667E+03  0.32101641721E+03  0.11064218828E+04  0.12209472931E+04  0.10566000000E+00 0. -1.
          4    1    3    3  501    0  0.22544177140E+03  0.48782784179E+02 -0.30109884140E+03  0.37929442999E+03  0.00000000000E+00 0.  1.
         -4    1    4    4    0  503  0.25989111543E+03 -0.28058090597E+03  0.17264470760E+03  0.41961319300E+03  0.00000000000E+00 0. -1.
</event>
<event>
 8    1  0.6759491E-006  0.1114589E+04  0.7818608E-02  0.8681844E-01
         21   -1    0    0  503  502  0.00000000000E+00  0.00000000000E+00  0.10176447500E+04  0.10176447500E+04  0.00000000000E+00 0.  1.
         21   -1    0    0  501  503 -0.00000000000E+00 -0.00000000000E+00 -0.13067229198E+04  0.13067229198E+04  0.00000000000E+00 0.  1.
    9000010    2    1    2  501    0 -0.15158911300E+03 -0.35896660218E+03 -0.50984200685E+03  0.12256621606E+04  0.10442569508E+04 0.  0.
   -9000010    2    1    2    0  502  0.15158911300E+03  0.35896660218E+03  0.22076383707E+03  0.10987055091E+04  0.10032850260E+04 0.  0.
        -13    1    3    3    0    0  0.31776431917E+03 -0.20575211611E+02 -0.56069951215E+03  0.64481117853E+03  0.10566000000E+00 0.  1.
         13    1    4    4    0    0 -0.29364051323E+03  0.42277536485E+03 -0.12697779702E+03  0.53017651045E+03  0.10566000000E+00 0. -1.
          4    1    3    3  501    0 -0.46935343218E+03 -0.33839139057E+03  0.50857505296E+02  0.58085098205E+03  0.00000000000E+00 0.  1.
         -4    1    4    4    0  502  0.44522962623E+03 -0.63808762669E+02  0.34774163409E+03  0.56852899869E+03  0.00000000000E+00 0. -1.
</event>
<event>
 8    1  0.6759491E-006  0.1043740E+04  0.7818608E-02  0.8742033E-01
         21   -1    0    0  501  502  0.00000000000E+00  0.00000000000E+00  0.84294404305E+03  0.84294404305E+03  0.00000000000E+00 0.  1.
         21   -1    0    0  502  503 -0.00000000000E+00 -0.00000000000E+00 -0.14997630038E+04  0.14997630038E+04  0.00000000000E+00 0.  1.
    9000010    2    1    2  501    0 -0.11523956765E+03 -0.99741883612E+02  0.15221013283E+03  0.10221310990E+04  0.99917739052E+03 0.  0.
   -9000010    2    1    2    0  503  0.11523956765E+03  0.99741883612E+02 -0.80902909355E+03  0.13205759478E+04  0.10325522546E+04 0.  0.
        -13    1    3    3    0    0 -0.14309371237E+03 -0.54547138630E+03  0.95220110597E+02  0.57191059128E+03  0.10566000000E+00 0.  1.
         13    1    4    4    0    0  0.49037476228E+03  0.19252320687E+03 -0.13533803447E+03  0.54392001931E+03  0.10566000000E+00 0. -1.
          4    1    3    3  501    0  0.27854144728E+02  0.44572950269E+03  0.56990022230E+02  0.45022050773E+03  0.00000000000E+00 0.  1.
         -4    1    4    4    0  503 -0.37513519464E+03 -0.92781323261E+02 -0.67369105908E+03  0.77665592851E+03  0.00000000000E+00 0. -1.
</event>
<event>
 8    1  0.6759491E-006  0.1096052E+04  0.7818608E-02  0.8693828E-01
         21   -1    0    0  503  502  0.00000000000E+00  0.00000000000E+00  0.95529520186E+03  0.95529520186E+03  0.00000000000E+00 0.  1.
         21   -1    0    0  501  503 -0.00000000000E+00 -0.00000000000E+00 -0.12472761629E+04  0.12472761629E+04  0.00000000000E+00 0.  1.
    9000010    2    1    2  501    0 -0.35933493826E+03  0.19565566145E+03 -0.26286472835E+03  0.11061330932E+04  0.99349374364E+03 0.  0.
   -9000010    2    1    2    0  502  0.35933493826E+03 -0.19565566145E+03 -0.29116232699E+02  0.10964382716E+04  0.10168217114E+04 0.  0.
        -13    1    3    3    0    0  0.19915551535E+03 -0.11643554584E+03  0.20890425566E+03  0.31122524773E+03  0.10566000000E+00 0.  1.
         13    1    4    4    0    0 -0.10342331015E+02 -0.51578965162E+03 -0.23368026409E+03  0.56635007329E+03  0.10566000000E+00 0. -1.
          4    1    3    3  501    0 -0.55849045361E+03  0.31209120729E+03 -0.47176898401E+03  0.79490784542E+03  0.00000000000E+00 0.  1.
         -4    1    4    4    0  502  0.36967726927E+03  0.32013399017E+03  0.20456403139E+03  0.53008819834E+03  0.00000000000E+00 0. -1.
</event>
<event>
 8    1  0.6759491E-006  0.1022093E+04  0.7818608E-02  0.8755923E-01
         21   -1    0    0  501  502  0.00000000000E+00  0.00000000000E+00  0.12725952862E+04  0.12725952862E+04  0.00000000000E+00 0.  1.
         21   -1    0    0  502  503 -0.00000000000E+00 -0.00000000000E+00 -0.89327077370E+03  0.89327077370E+03  0.00000000000E+00 0.  1.
    9000010    2    1    2  501    0 -0.11993402012E+03 -0.63183214286E+02  0.51044987181E+03  0.11353967477E+04  0.10050822928E+04 0.  0.
   -9000010    2    1    2    0  503  0.11993402012E+03  0.63183214286E+02 -0.13112535934E+03  0.10304693122E+04  0.10130631055E+04 0.  0.
        -13    1    3    3    0    0  0.88092142920E+02  0.42458141494E+03  0.56370283978E+02  0.43727248214E+03  0.10566000000E+00 0.  1.
         13    1    4    4    0    0 -0.97934528352E+02 -0.35914903392E+03 -0.34664312504E+03  0.50866557551E+03  0.10566000000E+00 0. -1.
          4    1    3    3  501    0 -0.20802616304E+03 -0.48776462923E+03  0.45407958783E+03  0.69812426553E+03  0.00000000000E+00 0.  1.
         -4    1    4    4    0  503  0.21786854847E+03  0.42233224821E+03  0.21551776569E+03  0.52180373669E+03  0.00000000000E+00 0. -1.
</event>
<event>
 8    1  0.6759491E-006  0.1024296E+04  0.7818608E-02  0.8761490E-01
         21   -1    0    0  501  502  0.00000000000E+00  0.00000000000E+00  0.89835114609E+03  0.89835114609E+03  0.00000000000E+00 0.  1.
         21   -1    0    0  502  503 -0.00000000000E+00 -0.00000000000E+00 -0.14436368118E+04  0.14436368118E+04  0.00000000000E+00 0.  1.
    9000010    2    1    2  501    0  0.13678627381E+03 -0.13286072122E+03  0.27541869582E+03  0.10606776106E+04  0.10063891293E+04 0.  0.
   -9000010    2    1    2    0  503 -0.13678627381E+03  0.13286072122E+03 -0.82070436154E+03  0.12813103473E+04  0.96531761669E+03 0.  0.
        -13    1    3    3    0    0 -0.16604580187E+03 -0.45278528368E+03  0.37275093900E+03  0.60953178352E+03  0.10566000000E+00 0.  1.
         13    1    4    4    0    0  0.29369384315E+03 -0.48309375675E+02  0.41709434322E+02  0.30054876037E+03  0.10566000000E+00 0. -1.
          4    1    3    3  501    0  0.30283207568E+03  0.31992456246E+03 -0.97332243174E+02  0.45114582707E+03  0.00000000000E+00 0.  1.
         -4    1    4    4    0  503 -0.43048011696E+03  0.18117009689E+03 -0.86241379587E+03  0.98076158693E+03  0.00000000000E+00 0. -1.
</event>
<event>
 8    1  0.6759491E-006  0.1021263E+04  0.7818608E-02  0.8770286E-01
         21   -1    0    0  503  502  0.00000000000E+00  0.00000000000E+00  0.16421068835E+04  0.16421068835E+04  0.00000000000E+00 0. -1.
         21   -1    0    0  501  503 -0.00000000000E+00 -0.00000000000E+00 -0.77545007264E+03  0.77545007264E+03  0.00000000000E+00 0. -1.
    9000010    2    1    2  501    0 -0.17263757468E+03 -0.45095475010E+02 -0.15994679895E+03  0.96949190560E+03  0.93941164698E+03 0.  0.
   -9000010    2    1    2    0  502  0.17263757468E+03  0.45095475010E+02  0.10266036098E+04  0.14480650505E+04  0.10055546156E+04 0.  0.
        -13    1    3    3    0    0  0.26225912041E+03 -0.30517548734E+03  0.77677122156E+02  0.40981175042E+03  0.10566000000E+00 0.  1.
         13    1    4    4    0    0 -0.38925077917E+03  0.86342013218E+02  0.19566920115E+03  0.44413687054E+03  0.10566000000E+00 0. -1.
          4    1    3    3  501    0 -0.43489669510E+03  0.26008001233E+03 -0.23762392111E+03  0.55968015518E+03  0.00000000000E+00 0.  1.
         -4    1    4    4    0  502  0.56188835385E+03 -0.41246538208E+02  0.83093440864E+03  0.10039281800E+04  0.00000000000E+00 0. -1.
</event>
<event>
 8    1  0.6759491E-006  0.1065719E+04  0.7818608E-02  0.8717030E-01
         21   -1    0    0  501  502  0.00000000000E+00  0.00000000000E+00  0.14240917410E+04  0.14240917410E+04  0.00000000000E+00 0.  1.
         21   -1    0    0  502  503 -0.00000000000E+00 -0.00000000000E+00 -0.94274016242E+03  0.94274016242E+03  0.00000000000E+00 0.  1.
    9000010    2    1    2  501    0 -0.26621331935E+02  0.32499857195E+03  0.71593903617E+03  0.12838712238E+04  0.10146052674E+04 0.  0.
   -9000010    2    1    2    0  503  0.26621331935E+02 -0.32499857195E+03 -0.23458745757E+03  0.10829606797E+04  0.10057036300E+04 0.  0.
        -13    1    3    3    0    0  0.31110867560E+03  0.35634921101E+03  0.80454283143E+03  0.93330731648E+03  0.10566000000E+00 0.  1.
         13    1    4    4    0    0  0.62638581497E+02 -0.64738352396E+03  0.48779209281E+02  0.65223342556E+03  0.10566000000E+00 0. -1.
          4    1    3    3  501    0 -0.33773000753E+03 -0.31350639060E+02 -0.88603795266E+02  0.35056390729E+03  0.00000000000E+00 0.  1.
         -4    1    4    4    0  503 -0.36017249562E+02  0.32238495202E+03 -0.28336666686E+03  0.43072725411E+03  0.00000000000E+00 0. -1.
</event>
<event>
 8    1  0.6759491E-006  0.1041017E+04  0.7818608E-02  0.8744050E-01
         21   -1    0    0  503  502  0.00000000000E+00  0.00000000000E+00  0.80115293266E+03  0.80115293266E+03  0.00000000000E+00 0.  1.
         21   -1    0    0  501  503 -0.00000000000E+00 -0.00000000000E+00 -0.15738636281E+04  0.15738636281E+04  0.00000000000E+00 0.  1.
    9000010    2    1    2  501    0 -0.17940862978E+03  0.11933966858E+03 -0.86526693601E+03  0.13298931063E+04  0.98666072719E+03 0.  0.
   -9000010    2    1    2    0  502  0.17940862978E+03 -0.11933966858E+03  0.92556240620E+02  0.10451234545E+04  0.10184728590E+04 0.  0.
        -13    1    3    3    0    0  0.35279034737E+03  0.24726711223E+03 -0.54857102556E+03  0.69751862716E+03  0.10566000000E+00 0.  1.
         13    1    4    4    0    0  0.14682419690E+03  0.44864078262E+03  0.36993985581E+02  0.47350233659E+03  0.10566000000E+00 0. -1.
          4    1    3    3  501    0 -0.53219897715E+03 -0.12792744364E+03 -0.31669591045E+03  0.63237447910E+03  0.00000000000E+00 0.  1.
         -4    1    4    4    0  502  0.32584432872E+02 -0.56798045120E+03  0.55562255038E+02  0.57162111787E+03  0.00000000000E+00 0. -1.
</event>
<event>
 8    1  0.6759491E-006  0.1080896E+04  0.7818608E-02  0.8710319E-01
         21   -1    0    0  501  502  0.00000000000E+00  0.00000000000E+00  0.59181345798E+03  0.59181345798E+03  0.00000000000E+00 0. -1.
         21   -1    0    0  502  503 -0.00000000000E+00 -0.00000000000E+00 -0.34277332970E+04  0.34277332970E+04  0.00000000000E+00 0. -1.
    9000010    2    1    2  501    0  0.20381774797E+03 -0.27790611212E+03 -0.92895075926E+02  0.10848802547E+04  0.10244814251E+04 0.  0.
   -9000010    2    1    2    0  503 -0.20381774797E+03  0.27790611212E+03 -0.27430247631E+04  0.29346665003E+04  0.98453498421E+03 0.  0.
        -13    1    3    3    0    0  0.21879498812E+03  0.32295044224E+03  0.17413366643E+03  0.42718939584E+03  0.10566000000E+00 0.  1.
         13    1    4    4    0    0 -0.32228064771E+03  0.59398972511E+03 -0.14742841535E+04  0.16217898710E+04  0.10566000000E+00 0. -1.
          4    1    3    3  501    0 -0.14977240158E+02 -0.60085655436E+03 -0.26702874236E+03  0.65769085890E+03  0.00000000000E+00 0.  1.
         -4    1    4    4    0  503  0.11846289975E+03 -0.31608361299E+03 -0.12687406097E+04  0.13128766293E+04  0.00000000000E+00 0. -1.
</event>
<event>
 8    1  0.6759491E-006  0.1018132E+04  0.7818608E-02  0.8760464E-01
         21   -1    0    0  503  502  0.00000000000E+00  0.00000000000E+00  0.84015741362E+03  0.84015741362E+03  0.00000000000E+00 0.  1.
         21   -1    0    0  501  503 -0.00000000000E+00 -0.00000000000E+00 -0.12721539867E+04  0.12721539867E+04  0.00000000000E+00 0.  1.
    9000010    2    1    2  501    0  0.14939485396E+03 -0.59192228155E+02 -0.43192067181E+03  0.11059607362E+04  0.10053711459E+04 0.  0.
   -9000010    2    1    2    0  502 -0.14939485396E+03  0.59192228155E+02 -0.75901255719E-01  0.10063506641E+04  0.99343802583E+03 0.  0.
        -13    1    3    3    0    0  0.28546938840E+03 -0.22782044468E+03  0.21493122899E+03  0.42378104144E+03  0.10566000000E+00 0.  1.
         13    1    4    4    0    0  0.45478941460E+02  0.15205676078E+03 -0.46630312319E+03  0.49257304684E+03  0.10566000000E+00 0. -1.
          4    1    3    3  501    0 -0.13607453444E+03  0.16862821652E+03 -0.64685190080E+03  0.68217969473E+03  0.00000000000E+00 0.  1.
         -4    1    4    4    0  502 -0.19487379542E+03 -0.92864532620E+02  0.46622722193E+03  0.51377761729E+03  0.00000000000E+00 0. -1.
</event>
<event>
 8    1  0.6759491E-006  0.1072016E+04  0.7818608E-02  0.8725955E-01
         21   -1    0    0  503  502  0.00000000000E+00  0.00000000000E+00  0.18965734914E+04  0.18965734914E+04  0.00000000000E+00 0. -1.
         21   -1    0    0  501  503 -0.00000000000E+00 -0.00000000000E+00 -0.61318060392E+03  0.61318060392E+03  0.00000000000E+00 0. -1.
    9000010    2    1    2  501    0 -0.17750372502E+03  0.11284376278E+03  0.31332036455E+03  0.11168649717E+04  0.10511785895E+04 0.  0.
   -9000010    2    1    2    0  502  0.17750372502E+03 -0.11284376278E+03  0.97007252293E+03  0.13928891236E+04  0.97716842140E+03 0.  0.
        -13    1    3    3    0    0 -0.54796057713E+03 -0.77626780656E+02  0.41058530771E+03  0.68910595501E+03  0.10566000000E+00 0.  1.
         13    1    4    4    0    0 -0.31167845373E+03  0.10076594554E+03  0.53058985667E+02  0.33183203797E+03  0.10566000000E+00 0. -1.
          4    1    3    3  501    0  0.37045685211E+03  0.19047054343E+03 -0.97264943161E+02  0.42775901669E+03  0.00000000000E+00 0.  1.
         -4    1    4    4    0  502  0.48918217875E+03 -0.21360970832E+03  0.91701353726E+03  0.10610570857E+04  0.00000000000E+00 0. -1.
</event>
<event>
 8    1  0.6759491E-006  0.1034768E+04  0.7818608E-02  0.8742849E-01
         21   -1    0    0  501  502  0.00000000000E+00  0.00000000000E+00  0.10833666937E+04  0.10833666937E+04  0.00000000000E+00 0. -1.
         21   -1    0    0  502  503 -0.00000000000E+00 -0.00000000000E+00 -0.12514728573E+04  0.12514728573E+04  0.00000000000E+00 0. -1.
    9000010    2    1    2  501    0  0.56595973075E+02  0.25410455863E+03  0.45231312113E+03  0.11293057845E+04  0.10014849796E+04 0.  0.
   -9000010    2    1    2    0  503 -0.56595973075E+02 -0.25410455863E+03 -0.62041928472E+03  0.12055337666E+04  0.10003096234E+04 0.  0.
        -13    1    3    3    0    0  0.32482599115E+03  0.74157103793E+02  0.66414910915E+03  0.74303785295E+03  0.10566000000E+00 0.  1.
         13    1    4    4    0    0  0.42413225766E+03 -0.30108545366E+02 -0.50966209170E+03  0.66373952374E+03  0.10566000000E+00 0. -1.
          4    1    3    3  501    0 -0.26823001807E+03  0.17994745484E+03 -0.21183598803E+03  0.38626793152E+03  0.00000000000E+00 0.  1.
         -4    1    4    4    0  503 -0.48072823073E+03 -0.22399601326E+03 -0.11075719302E+03  0.54179424285E+03  0.00000000000E+00 0. -1.
</event>
<event>
 8    1  0.6759491E-006  0.1001809E+04  0.7818608E-02  0.8773694E-01
         21   -1    0    0  503  502  0.00000000000E+00  0.00000000000E+00  0.14886225353E+04  0.14886225353E+04  0.00000000000E+00 0. -1.
         21   -1    0    0  501  503 -0.00000000000E+00 -0.00000000000E+00 -0.10122839961E+04  0.10122839961E+04  0.00000000000E+00 0. -1.
    9000010    2    1    2  501    0 -0.68998207363E+02  0.47316864864E+02 -0.48720174181E+03  0.11109311434E+04  0.99488835045E+03 0.  0.
   -9000010    2    1    2    0  502  0.68998207363E+02 -0.47316864864E+02  0.96354028104E+03  0.13899753880E+04  0.99830960517E+03 0.  0.
        -13    1    3    3    0    0 -0.20408765617E+03  0.29337822899E+03 -0.68151280691E+03  0.76953380289E+03  0.10566000000E+00 0.  1.
         13    1    4    4    0    0 -0.19298322768E+03  0.14164566162E+03  0.10323223139E+04  0.10597147685E+04  0.10566000000E+00 0. -1.
          4    1    3    3  501    0  0.13508944881E+03 -0.24606136412E+03  0.19431106510E+03  0.34139734052E+03  0.00000000000E+00 0.  1.
         -4    1    4    4    0  502  0.26198143504E+03 -0.18896252648E+03 -0.68782032912E+02  0.33026061947E+03  0.00000000000E+00 0. -1.
</event>
<event>
 8    1  0.6759491E-006  0.1022581E+04  0.7818608E-02  0.8755732E-01
         21   -1    0    0  501  502  0.00000000000E+00  0.00000000000E+00  0.61865836721E+03  0.61865836721E+03  0.00000000000E+00 0. -1.
         21   -1    0    0  502  503 -0.00000000000E+00 -0.00000000000E+00 -0.19617214576E+04  0.19617214576E+04  0.00000000000E+00 0. -1.
    9000010    2    1    2  501    0 -0.19986337563E+03  0.51013516685E+02 -0.18112808211E+03  0.10384981785E+04  0.10015604509E+04 0.  0.
   -9000010    2    1    2    0  503  0.19986337563E+03 -0.51013516685E+02 -0.11619350082E+04  0.15418816463E+04  0.99234988788E+03 0.  0.
        -13    1    3    3    0    0 -0.19129321734E+03 -0.43956833167E+03 -0.25389949692E+03  0.54247431175E+03  0.10566000000E+00 0.  1.
         13    1    4    4    0    0  0.44940268342E+03 -0.21024164232E+03 -0.19916248717E+03  0.53463073938E+03  0.10566000000E+00 0. -1.
          4    1    3    3  501    0 -0.85701582903E+01  0.49058184836E+03  0.72771414817E+02  0.49602386673E+03  0.00000000000E+00 0.  1.
         -4    1    4    4    0  503 -0.24953930779E+03  0.15922812564E+03 -0.96277252107E+03  0.10072509069E+04  0.00000000000E+00 0. -1.
</event>
<event>
 8    1  0.6759491E-006  0.1043150E+04  0.7818608E-02  0.8738474E-01
         21   -1    0    0  503  502  0.00000000000E+00  0.00000000000E+00  0.10396910253E+04  0.10396910253E+04  0.00000000000E+00 0.  1.
         21   -1    0    0  501  503 -0.00000000000E+00 -0.00000000000E+00 -0.16173853746E+04  0.16173853746E+04  0.00000000000E+00 0.  1.
    9000010    2    1    2  501    0 -0.25143792077E+03 -0.11265525394E+03 -0.10870901006E+04  0.14961948001E+04  0.99041494273E+03 0.  0.
   -9000010    2    1    2    0  502  0.25143792077E+03  0.11265525394E+03  0.50939575130E+03  0.11608815998E+04  0.10061062683E+04 0.  0.
        -13    1    3    3    0    0  0.29996421374E+03 -0.22913967226E+03 -0.15728631274E+03  0.40892849530E+03  0.10566000000E+00 0.  1.
         13    1    4    4    0    0  0.39400377947E+03  0.14595713770E+03  0.76128354744E+03  0.86953729940E+03  0.10566000000E+00 0. -1.
          4    1    3    3  501    0 -0.55140213451E+03  0.11648441832E+03 -0.92980378781E+03  0.10872663048E+04  0.00000000000E+00 0.  1.
         -4    1    4    4    0  502 -0.14256585870E+03 -0.33301883757E+02 -0.25188779614E+03  0.29134430039E+03  0.00000000000E+00 0. -1.
</event>
<event>
 8    1  0.6759491E-006  0.1041333E+04  0.7818608E-02  0.8746503E-01
         21   -1    0    0  501  502  0.00000000000E+00  0.00000000000E+00  0.18325692175E+04  0.18325692175E+04  0.00000000000E+00 0. -1.
         21   -1    0    0  502  503 -0.00000000000E+00 -0.00000000000E+00 -0.63409936283E+03  0.63409936283E+03  0.00000000000E+00 0. -1.
    9000010    2    1    2  501    0 -0.27630608123E+03  0.41011675800E+02  0.10098206409E+04  0.14505559766E+04  0.10031689321E+04 0.  0.
   -9000010    2    1    2    0  503  0.27630608123E+03 -0.41011675800E+02  0.18864921377E+03  0.10161126037E+04  0.95857669989E+03 0.  0.
        -13    1    3    3    0    0  0.50788891464E+02  0.46509987725E+03  0.27981317105E+03  0.54515394997E+03  0.10566000000E+00 0.  1.
         13    1    4    4    0    0  0.27133076905E+02  0.37131938009E+03 -0.17608375833E+03  0.41184922849E+03  0.10566000000E+00 0. -1.
          4    1    3    3  501    0 -0.32709497270E+03 -0.42408820145E+03  0.73000746986E+03  0.90540202663E+03  0.00000000000E+00 0.  1.
         -4    1    4    4    0  503  0.24917300433E+03 -0.41233105589E+03  0.36473297210E+03  0.60426337526E+03  0.00000000000E+00 0. -1.
</event>
<event>
 8    1  0.6759491E-006  0.1061050E+04  0.7818608E-02  0.8727286E-01
         21   -1    0    0  503  502  0.00000000000E+00  0.00000000000E+00  0.11276112120E+04  0.11276112120E+04  0.00000000000E+00 0.  1.
         21   -1    0    0  501  503 -0.00000000000E+00 -0.00000000000E+00 -0.13161681904E+04  0.13161681904E+04  0.00000000000E+00 0.  1.
    9000010    2    1    2  501    0 -0.17864417514E+03 -0.10384315034E+03 -0.72677253238E+03  0.12860894842E+04  0.10407356563E+04 0.  0.
   -9000010    2    1    2    0  502  0.17864417514E+03  0.10384315034E+03  0.53821555398E+03  0.11576899183E+04  0.10039286943E+04 0.  0.
        -13    1    3    3    0    0 -0.20208997811E+03  0.37992154843E+03 -0.21934436906E+02  0.43088498803E+03  0.10566000000E+00 0.  1.
         13    1    4    4    0    0  0.59079470840E+03  0.13433322888E+03  0.37989787136E+03  0.71512670743E+03  0.10566000000E+00 0. -1.
          4    1    3    3  501    0  0.23445802977E+02 -0.48376469877E+03 -0.70483809547E+03  0.85520449618E+03  0.00000000000E+00 0.  1.
         -4    1    4    4    0  502 -0.41215053327E+03 -0.30490078540E+02  0.15831768262E+03  0.44256321084E+03  0.00000000000E+00 0. -1.
</event>
<event>
 8    1  0.6759491E-006  0.1039669E+04  0.7818608E-02  0.8739628E-01
         21   -1    0    0  501  502  0.00000000000E+00  0.00000000000E+00  0.89154200402E+03  0.89154200402E+03  0.00000000000E+00 0. -1.
         21   -1    0    0  502  503 -0.00000000000E+00 -0.00000000000E+00 -0.12733486987E+04  0.12733486987E+04  0.00000000000E+00 0. -1.
    9000010    2    1    2  501    0  0.68494750106E+02  0.27042354028E+03  0.59424972795E+02  0.10413663091E+04  0.10015448270E+04 0.  0.
   -9000010    2    1    2    0  503 -0.68494750106E+02 -0.27042354028E+03 -0.44123166749E+03  0.11235243936E+04  0.99488755984E+03 0.  0.
        -13    1    3    3    0    0  0.48677729201E+02 -0.19407748237E+03  0.41190500048E+03  0.45793157902E+03  0.10566000000E+00 0.  1.
         13    1    4    4    0    0 -0.39434053932E+03 -0.10041534996E+03 -0.59852181404E+03  0.72375139137E+03  0.10566000000E+00 0. -1.
          4    1    3    3  501    0  0.19817020905E+02  0.46450102266E+03 -0.35248002768E+03  0.58343473010E+03  0.00000000000E+00 0.  1.
         -4    1    4    4    0  503  0.32584578922E+03 -0.17000819033E+03  0.15729014655E+03  0.39977300225E+03  0.00000000000E+00 0. -1.
</event>
<event>
 8    1  0.6759491E-006  0.9959075E+03  0.7818608E-02  0.8782185E-01
         21   -1    0    0  501  502  0.00000000000E+00  0.00000000000E+00  0.55540821313E+03  0.55540821313E+03  0.00000000000E+00 0. -1.
         21   -1    0    0  502  503 -0.00000000000E+00 -0.00000000000E+00 -0.18547084314E+04  0.18547084314E+04  0.00000000000E+00 0. -1.
    9000010    2    1    2  501    0  0.71319225786E+01  0.61862570808E+02 -0.37898225503E+03  0.10655792932E+04  0.99395867039E+03 0.  0.
   -9000010    2    1    2    0  503 -0.71319225786E+01 -0.61862570808E+02 -0.92031796323E+03  0.13445373513E+04  0.97822169968E+03 0.  0.
        -13    1    3    3    0    0 -0.14787743208E+03  0.49339628481E+03 -0.31194009898E+03  0.60217461363E+03  0.10566000000E+00 0.  1.
         13    1    4    4    0    0 -0.10304742648E+03 -0.39063817664E+03 -0.91698837551E+03  0.10020402433E+04  0.10566000000E+00 0. -1.
          4    1    3    3  501    0  0.15500935466E+03 -0.43153371400E+03 -0.67042156058E+02  0.46340467956E+03  0.00000000000E+00 0.  1.
         -4    1    4    4    0  503  0.95915503897E+02  0.32877560584E+03 -0.33295877200E+01  0.34249710807E+03  0.00000000000E+00 0. -1.
</event>
<event>
 8    1  0.6759491E-006  0.1008713E+04  0.7818608E-02  0.8793057E-01
         21   -1    0    0  503  502  0.00000000000E+00  0.00000000000E+00  0.13621770899E+04  0.13621770899E+04  0.00000000000E+00 0.  1.
         21   -1    0    0  501  503 -0.00000000000E+00 -0.00000000000E+00 -0.97458833620E+03  0.97458833620E+03  0.00000000000E+00 0.  1.
    9000010    2    1    2  501    0 -0.10041181557E+03  0.44244685423E+02  0.85464384669E+03  0.13220887005E+04  0.10027274318E+04 0.  0.
   -9000010    2    1    2    0  502  0.10041181557E+03 -0.44244685423E+02 -0.46705509295E+03  0.10146767256E+04  0.89408515966E+03 0.  0.
        -13    1    3    3    0    0 -0.24128445440E+03  0.17122908334E+03  0.10251888265E+04  0.10670284570E+04  0.10566000000E+00 0.  1.
         13    1    4    4    0    0 -0.19329149372E+03  0.34239157257E+03 -0.32119632883E+03  0.50770137220E+03  0.10566000000E+00 0. -1.
          4    1    3    3  501    0  0.14087263883E+03 -0.12698439792E+03 -0.17054497981E+03  0.25506024352E+03  0.00000000000E+00 0.  1.
         -4    1    4    4    0  502  0.29370330929E+03 -0.38663625799E+03 -0.14585876412E+03  0.50697535340E+03  0.00000000000E+00 0. -1.
</event>
<event>
 8    1  0.6759491E-006  0.1069640E+04  0.7818608E-02  0.8715724E-01
         21   -1    0    0  501  502  0.00000000000E+00  0.00000000000E+00  0.26149799108E+04  0.26149799108E+04  0.00000000000E+00 0. -1.
         21   -1    0    0  502  503 -0.00000000000E+00 -0.00000000000E+00 -0.83506790415E+03  0.83506790415E+03  0.00000000000E+00 0. -1.
    9000010    2    1    2  501    0 -0.18098142862E+03  0.24560700585E+03  0.20950195413E+04  0.23522832036E+04  0.10252084240E+04 0.  0.
   -9000010    2    1    2    0  503  0.18098142862E+03 -0.24560700585E+03 -0.31510753474E+03  0.10977646113E+04  0.10063385636E+04 0.  0.
        -13    1    3    3    0    0  0.21840832627E+03  0.25706472955E+03  0.15443266388E+03  0.37099047292E+03  0.10566000000E+00 0.  1.
         13    1    4    4    0    0  0.37631787224E+03  0.28352333309E+03 -0.23993266313E+03  0.52874220125E+03  0.10566000000E+00 0. -1.
          4    1    3    3  501    0 -0.39938975489E+03 -0.11457723696E+02  0.19405868775E+04  0.19812927307E+04  0.00000000000E+00 0.  1.
         -4    1    4    4    0  503 -0.19533644362E+03 -0.52913033894E+03 -0.75174871604E+02  0.56902241003E+03  0.00000000000E+00 0. -1.
</event>
<event>
 8    1  0.6759491E-006  0.1026166E+04  0.7818608E-02  0.8752037E-01
         21   -1    0    0  501  502  0.00000000000E+00  0.00000000000E+00  0.22145768744E+04  0.22145768744E+04  0.00000000000E+00 0.  1.
         21   -1    0    0  502  503 -0.00000000000E+00 -0.00000000000E+00 -0.48174855955E+03  0.48174855955E+03  0.00000000000E+00 0.  1.
    9000010    2    1    2  501    0 -0.20738743090E+03  0.14093136890E+03  0.10596515287E+04  0.14750858787E+04  0.99506069665E+03 0.  0.
   -9000010    2    1    2    0  503  0.20738743090E+03 -0.14093136890E+03  0.67317678615E+03  0.12212395553E+04  0.98761726832E+03 0.  0.
        -13    1    3    3    0    0 -0.25586302815E+03 -0.35633734867E+02  0.12105573711E+04  0.12378145305E+04  0.10566000000E+00 0.  1.
         13    1    4    4    0    0 -0.36331865645E+03  0.61190546148E+02  0.43643889883E+03  0.57115991862E+03  0.10566000000E+00 0. -1.
          4    1    3    3  501    0  0.48475597252E+02  0.17656510377E+03 -0.15090584235E+03  0.23727134815E+03  0.00000000000E+00 0.  1.
         -4    1    4    4    0  503  0.57070608735E+03 -0.20212191505E+03  0.23673788732E+03  0.65007963664E+03  0.00000000000E+00 0. -1.
</event>
<event>
 8    1  0.6759491E-006  0.1089329E+04  0.7818608E-02  0.8696221E-01
         21   -1    0    0  501  502  0.00000000000E+00  0.00000000000E+00  0.18082821774E+04  0.18082821774E+04  0.00000000000E+00 0.  1.
         21   -1    0    0  502  503 -0.00000000000E+00 -0.00000000000E+00 -0.86865868321E+03  0.86865868321E+03  0.00000000000E+00 0.  1.
    9000010    2    1    2  501    0  0.44855954914E+03  0.10248193558E+02  0.11364658951E+04  0.15699703692E+04  0.98587095243E+03 0.  0.
   -9000010    2    1    2    0  503 -0.44855954914E+03 -0.10248193558E+02 -0.19684240091E+03  0.11069704914E+04  0.99263590679E+03 0.  0.
        -13    1    3    3    0    0  0.57327660487E+02 -0.45366615777E+03  0.34602967704E+03  0.57344223067E+03  0.10566000000E+00 0.  1.
         13    1    4    4    0    0 -0.72688084614E+03 -0.13471397712E+03 -0.28071173871E+03  0.79076084344E+03  0.10566000000E+00 0. -1.
          4    1    3    3  501    0  0.39123188865E+03  0.46391435133E+03  0.79043621805E+03  0.99652813853E+03  0.00000000000E+00 0.  1.
         -4    1    4    4    0  503  0.27832129700E+03  0.12446578356E+03  0.83869337800E+02  0.31620964796E+03  0.00000000000E+00 0. -1.
</event>
<event>
 8    1  0.6759491E-006  0.1149595E+04  0.7818608E-02  0.8653031E-01
         21   -1    0    0  501  502  0.00000000000E+00  0.00000000000E+00  0.15878871867E+04  0.15878871867E+04  0.00000000000E+00 0. -1.
         21   -1    0    0  502  503 -0.00000000000E+00 -0.00000000000E+00 -0.10808742204E+04  0.10808742204E+04  0.00000000000E+00 0. -1.
    9000010    2    1    2  501    0  0.45036818000E+03 -0.20355076663E+03  0.92380311952E+03  0.14459440721E+04  0.99653281117E+03 0.  0.
   -9000010    2    1    2    0  503 -0.45036818000E+03  0.20355076663E+03 -0.41679015324E+03  0.12228173350E+04  0.10379324597E+04 0.  0.
        -13    1    3    3    0    0  0.67227527418E+03  0.11977357845E+03  0.39925420521E+03  0.79101433989E+03  0.10566000000E+00 0.  1.
         13    1    4    4    0    0 -0.16565069772E+03  0.38944799892E+03 -0.67441826072E+03  0.79620970797E+03  0.10566000000E+00 0. -1.
          4    1    3    3  501    0 -0.22190709418E+03 -0.32332434508E+03  0.52454891431E+03  0.65492973217E+03  0.00000000000E+00 0.  1.
         -4    1    4    4    0  503 -0.28471748228E+03 -0.18589723229E+03  0.25762810748E+03  0.42660762705E+03  0.00000000000E+00 0. -1.
</event>
<event>
 8    1  0.6759491E-006  0.9983540E+03  0.7818608E-02  0.8777374E-01
         21   -1    0    0  501  502  0.00000000000E+00  0.00000000000E+00  0.19217166569E+04  0.19217166569E+04  0.00000000000E+00 0. -1.
         21   -1    0    0  502  503 -0.00000000000E+00 -0.00000000000E+00 -0.53216910451E+03  0.53216910451E+03  0.00000000000E+00 0. -1.
    9000010    2    1    2  501    0 -0.80651285793E+02  0.38195524320E+02  0.90725357208E+03  0.13451395446E+04  0.98910455591E+03 0.  0.
   -9000010    2    1    2    0  503  0.80651285793E+02 -0.38195524320E+02  0.48229398034E+03  0.11087462168E+04  0.99435766293E+03 0.  0.
        -13    1    3    3    0    0  0.99257687854E+02 -0.45506588994E+03  0.47237897452E+03  0.66338447337E+03  0.10566000000E+00 0.  1.
         13    1    4    4    0    0  0.36443528896E+03  0.21177141535E+03 -0.82048243976E+02  0.42940905638E+03  0.10566000000E+00 0. -1.
          4    1    3    3  501    0 -0.17990897365E+03  0.49326141426E+03  0.43487459756E+03  0.68175507127E+03  0.00000000000E+00 0.  1.
         -4    1    4    4    0  503 -0.28378400317E+03 -0.24996693967E+03  0.56434222432E+03  0.67933716042E+03  0.00000000000E+00 0. -1.
</event>
<event>
 8    1  0.6759491E-006  0.1061411E+04  0.7818608E-02  0.8723748E-01
         21   -1    0    0  501  502  0.00000000000E+00  0.00000000000E+00  0.78788827981E+03  0.78788827981E+03  0.00000000000E+00 0. -1.
         21   -1    0    0  502  503 -0.00000000000E+00 -0.00000000000E+00 -0.17324344152E+04  0.17324344152E+04  0.00000000000E+00 0. -1.
    9000010    2    1    2  501    0 -0.29707194407E+03  0.55511904648E+02  0.83084617617E+02  0.10429543145E+04  0.99474486027E+03 0.  0.
   -9000010    2    1    2    0  503  0.29707194407E+03 -0.55511904648E+02 -0.10276307530E+04  0.14773683804E+04  0.10174768084E+04 0.  0.
        -13    1    3    3    0    0  0.35111211448E+03  0.15500974613E+03  0.35926375804E+02  0.38548470005E+03  0.10566000000E+00 0.  1.
         13    1    4    4    0    0  0.56817498452E+03  0.18720737981E+03 -0.92091916380E+03  0.10981627992E+04  0.10566000000E+00 0. -1.
          4    1    3    3  501    0 -0.64818405855E+03 -0.99497841478E+02  0.47158241813E+02  0.65746961450E+03  0.00000000000E+00 0.  1.
         -4    1    4    4    0  503 -0.27110304045E+03 -0.24271928446E+03 -0.10671158918E+03  0.37920558125E+03  0.00000000000E+00 0. -1.
</event>
<event>
 8    1  0.6759491E-006  0.1010665E+04  0.7818608E-02  0.8768604E-01
         21   -1    0    0  503  502  0.00000000000E+00  0.00000000000E+00  0.64299233473E+03  0.64299233473E+03  0.00000000000E+00 0. -1.
         21   -1    0    0  501  503 -0.00000000000E+00 -0.00000000000E+00 -0.15976962446E+04  0.15976962446E+04  0.00000000000E+00 0. -1.
    9000010    2    1    2  501    0 -0.14701918969E+03  0.56094238205E+02 -0.30600436875E+03  0.10397495616E+04  0.98116220442E+03 0.  0.
   -9000010    2    1    2    0  502  0.14701918969E+03 -0.56094238205E+02 -0.64869954116E+03  0.12009390178E+04  0.99833973379E+03 0.  0.
        -13    1    3    3    0    0  0.33045230947E+03  0.28728086529E+03 -0.25524025887E+03  0.50682997673E+03  0.10566000000E+00 0.  1.
         13    1    4    4    0    0 -0.31663895456E+02 -0.49031555187E+03 -0.14491267280E+03  0.51226129717E+03  0.10566000000E+00 0. -1.
          4    1    3    3  501    0 -0.47747149916E+03 -0.23118662708E+03 -0.50764109876E+02  0.53291958484E+03  0.00000000000E+00 0.  1.
         -4    1    4    4    0  502  0.17868308515E+03  0.43422131366E+03 -0.50378686836E+03  0.68867772063E+03  0.00000000000E+00 0. -1.
</event>
<event>
 8    1  0.6759491E-006  0.1224687E+04  0.7818608E-02  0.8608620E-01
         21   -1    0    0  501  502  0.00000000000E+00  0.00000000000E+00  0.27700566109E+04  0.27700566109E+04  0.00000000000E+00 0. -1.
         21   -1    0    0  502  503 -0.00000000000E+00 -0.00000000000E+00 -0.54834199467E+03  0.54834199467E+03  0.00000000000E+00 0. -1.
    9000010    2    1    2  501    0 -0.62476607667E+02 -0.51272840137E+03  0.64212781937E+03  0.13828183863E+04  0.11104345154E+04 0.  0.
   -9000010    2    1    2    0  503  0.62476607667E+02  0.51272840137E+03  0.15795867969E+04  0.19355802193E+04  0.99226135489E+03 0.  0.
        -13    1    3    3    0    0 -0.16909600833E+03 -0.49564073629E+03 -0.17989893288E+03  0.55372993121E+03  0.10566000000E+00 0.  1.
         13    1    4    4    0    0 -0.38672734365E+03  0.43440783934E+02  0.26978514026E+03  0.47352842903E+03  0.10566000000E+00 0. -1.
          4    1    3    3  501    0  0.10661940066E+03 -0.17087665082E+02  0.82202675225E+03  0.82908845506E+03  0.00000000000E+00 0.  1.
         -4    1    4    4    0  503  0.44920395132E+03  0.46928761744E+03  0.13098016566E+04  0.14620517903E+04  0.00000000000E+00 0. -1.
</event>
<event>
 8    1  0.6759491E-006  0.1013792E+04  0.7818608E-02  0.8762983E-01
         21   -1    0    0  503  502  0.00000000000E+00  0.00000000000E+00  0.11011462459E+04  0.11011462459E+04  0.00000000000E+00 0. -1.
         21   -1    0    0  501  503 -0.00000000000E+00 -0.00000000000E+00 -0.96224903055E+03  0.96224903055E+03  0.00000000000E+00 0. -1.
    9000010    2    1    2  501    0 -0.53323377771E+02 -0.19173255765E+03  0.26302414638E+03  0.10473564737E+04  0.99406696215E+03 0.  0.
   -9000010    2    1    2    0  502  0.53323377771E+02  0.19173255765E+03 -0.12412693104E+03  0.10160388027E+04  0.98859627619E+03 0.  0.
        -13    1    3    3    0    0  0.23908038820E+02 -0.52874294041E+03  0.41214413483E+03  0.67082299483E+03  0.10566000000E+00 0.  1.
         13    1    4    4    0    0  0.45812555725E+03 -0.14860238413E+02  0.15360831841E+03  0.48342049971E+03  0.10566000000E+00 0. -1.
          4    1    3    3  501    0 -0.77231416591E+02  0.33701038275E+03 -0.14911998845E+03  0.37653347892E+03  0.00000000000E+00 0.  1.
         -4    1    4    4    0  502 -0.40480217948E+03  0.20659279607E+03 -0.27773524944E+03  0.53261830299E+03  0.00000000000E+00 0. -1.
</event>
<event>
 8    1  0.6759491E-006  0.1039946E+04  0.7818608E-02  0.8740452E-01
         21   -1    0    0  501  502  0.00000000000E+00  0.00000000000E+00  0.11021813344E+04  0.11021813344E+04  0.00000000000E+00 0. -1.
         21   -1    0    0  502  503 -0.00000000000E+00 -0.00000000000E+00 -0.11209855280E+04  0.11209855280E+04  0.00000000000E+00 0. -1.
    9000010    2    1    2  501    0  0.28449091016E+03 -0.14112293511E+03  0.39760770157E+03  0.11029497135E+04  0.97854761016E+03 0.  0.
   -9000010    2    1    2    0  503 -0.28449091016E+03  0.14112293511E+03 -0.41641189518E+03  0.11202171490E+04  0.99027109100E+03 0.  0.
        -13    1    3    3    0    0  0.56039248370E+03  0.19268173041E+03  0.27199444441E+03  0.65203295467E+03  0.10566000000E+00 0.  1.
         13    1    4    4    0    0 -0.20176274891E+03  0.50289633659E+03 -0.50277841773E+03  0.73918812267E+03  0.10566000000E+00 0. -1.
          4    1    3    3  501    0 -0.27590157354E+03 -0.33380466551E+03  0.12561325716E+03  0.45091675881E+03  0.00000000000E+00 0.  1.
         -4    1    4    4    0  503 -0.82728161249E+02 -0.36177340148E+03  0.86366522547E+02  0.38102902632E+03  0.00000000000E+00 0. -1.
</event>
<event>
 8    1  0.6759491E-006  0.1083772E+04  0.7818608E-02  0.8703023E-01
         21   -1    0    0  503  502  0.00000000000E+00  0.00000000000E+00  0.89890087676E+03  0.89890087676E+03  0.00000000000E+00 0.  1.
         21   -1    0    0  501  503 -0.00000000000E+00 -0.00000000000E+00 -0.13486469192E+04  0.13486469192E+04  0.00000000000E+00 0.  1.
    9000010    2    1    2  501    0 -0.11624432879E+03  0.37722830648E+03 -0.46533175196E+03  0.11794471540E+04  0.10093304763E+04 0.  0.
   -9000010    2    1    2    0  502  0.11624432879E+03 -0.37722830648E+03  0.15585709536E+02  0.10681006420E+04  0.99236189360E+03 0.  0.
        -13    1    3    3    0    0 -0.44140974788E+03  0.18307141475E+03  0.11027272697E+03  0.49042613501E+03  0.10566000000E+00 0.  1.
         13    1    4    4    0    0  0.29555195226E+03 -0.73677748293E+02 -0.41297875368E+03  0.51315770406E+03  0.10566000000E+00 0. -1.
          4    1    3    3  501    0  0.32516541909E+03  0.19415689174E+03 -0.57560447894E+03  0.68902101895E+03  0.00000000000E+00 0.  1.
         -4    1    4    4    0  502 -0.17930762347E+03 -0.30355055819E+03  0.42856446322E+03  0.55494293792E+03  0.00000000000E+00 0. -1.
</event>
<event>
 8    1  0.6759491E-006  0.1101863E+04  0.7818608E-02  0.8684869E-01
         21   -1    0    0  501  502  0.00000000000E+00  0.00000000000E+00  0.23041178728E+04  0.23041178728E+04  0.00000000000E+00 0.  1.
         21   -1    0    0  502  503 -0.00000000000E+00 -0.00000000000E+00 -0.56457625144E+03  0.56457625144E+03  0.00000000000E+00 0.  1.
    9000010    2    1    2  501    0  0.14184060237E+03 -0.45459063865E+03  0.49291281084E+03  0.12049077133E+04  0.99099351832E+03 0.  0.
   -9000010    2    1    2    0  503 -0.14184060237E+03  0.45459063865E+03  0.12466288105E+04  0.16637864109E+04  0.99364501941E+03 0.  0.
        -13    1    3    3    0    0  0.33965777692E+03 -0.26461931300E+03 -0.18876072633E+03  0.47012914099E+03  0.10566000000E+00 0.  1.
         13    1    4    4    0    0 -0.49737357911E+03 -0.32371869317E+02  0.58909728998E+03  0.77166316703E+03  0.10566000000E+00 0. -1.
          4    1    3    3  501    0 -0.19781717456E+03 -0.18997132565E+03  0.68167353717E+03  0.73477857236E+03  0.00000000000E+00 0.  1.
         -4    1    4    4    0  503  0.35553297675E+03  0.48696250797E+03  0.65753152050E+03  0.89212324383E+03  0.00000000000E+00 0. -1.
</event>
<event>
 8    1  0.6759491E-006  0.1012170E+04  0.7818608E-02  0.8765637E-01
         21   -1    0    0  503  502  0.00000000000E+00  0.00000000000E+00  0.83171294669E+03  0.83171294669E+03  0.00000000000E+00 0.  1.
         21   -1    0    0  501  503 -0.00000000000E+00 -0.00000000000E+00 -0.14438890034E+04  0.14438890034E+04  0.00000000000E+00 0.  1.
    9000010    2    1    2  501    0  0.16614917381E+02 -0.47841581491E+02 -0.75352067294E+03  0.12536103959E+04  0.10005901997E+04 0.  0.
   -9000010    2    1    2    0  502 -0.16614917381E+02  0.47841581491E+02  0.14134461624E+03  0.10219915542E+04  0.10109023513E+04 0.  0.
        -13    1    3    3    0    0  0.56872962979E+02 -0.44847276101E+03 -0.65995484838E+02  0.45685639589E+03  0.10566000000E+00 0.  1.
         13    1    4    4    0    0  0.28023096552E+02  0.51990767322E+03 -0.20207632335E+02  0.52105435626E+03  0.10566000000E+00 0. -1.
          4    1    3    3  501    0 -0.40258045598E+02  0.40063117952E+03 -0.68752518810E+03  0.79675400000E+03  0.00000000000E+00 0.  1.
         -4    1    4    4    0  502 -0.44638013933E+02 -0.47206609173E+03  0.16155224858E+03  0.50093719793E+03  0.00000000000E+00 0. -1.
</event>
<event>
 8    1  0.6759491E-006  0.1057879E+04  0.7818608E-02  0.8725407E-01
         21   -1    0    0  501  502  0.00000000000E+00  0.00000000000E+00  0.12064655030E+04  0.12064655030E+04  0.00000000000E+00 0. -1.
         21   -1    0    0  502  503 -0.00000000000E+00 -0.00000000000E+00 -0.10058576089E+04  0.10058576089E+04  0.00000000000E+00 0. -1.
    9000010    2    1    2  501    0  0.29210453336E+03 -0.70600577455E+02  0.43477098180E+03  0.11437364215E+04  0.10142966505E+04 0.  0.
   -9000010    2    1    2    0  503 -0.29210453336E+03  0.70600577455E+02 -0.23416308768E+03  0.10685866905E+04  0.99836649756E+03 0.  0.
        -13    1    3    3    0    0 -0.17981096225E+02  0.23851838357E+03 -0.24033347522E+03  0.33907894302E+03  0.10566000000E+00 0.  1.
         13    1    4    4    0    0 -0.35908920939E+02 -0.44156416382E+03  0.16803051342E+02  0.44334040542E+03  0.10566000000E+00 0. -1.
          4    1    3    3  501    0  0.31008562958E+03 -0.30911896102E+03  0.67510445702E+03  0.80465747845E+03  0.00000000000E+00 0.  1.
         -4    1    4    4    0  503 -0.25619561242E+03  0.51216474128E+03 -0.25096613903E+03  0.62524628505E+03  0.00000000000E+00 0. -1.
</event>
<event>
 8    1  0.6759491E-006  0.1030903E+04  0.7818608E-02  0.8747629E-01
         21   -1    0    0  501  502  0.00000000000E+00  0.00000000000E+00  0.25028915985E+04  0.25028915985E+04  0.00000000000E+00 0. -1.
         21   -1    0    0  502  503 -0.00000000000E+00 -0.00000000000E+00 -0.53303821027E+03  0.53303821027E+03  0.00000000000E+00 0. -1.
    9000010    2    1    2  501    0  0.10390630272E+03 -0.18476588125E+03  0.16808802612E+04  0.19718317401E+04  0.10088741289E+04 0.  0.
   -9000010    2    1    2    0  503 -0.10390630272E+03  0.18476588125E+03  0.28897312700E+03  0.10640980687E+04  0.10019302776E+04 0.  0.
        -13    1    3    3    0    0  0.23876576257E+03 -0.29232061869E+03  0.17468420570E+04  0.17871534956E+04  0.10566000000E+00 0.  1.
         13    1    4    4    0    0  0.44174779428E+03  0.13403842459E+03  0.22126717737E+03  0.51192439672E+03  0.10566000000E+00 0. -1.
          4    1    3    3  501    0 -0.13485945986E+03  0.10755473744E+03 -0.65961795823E+02  0.18467824444E+03  0.00000000000E+00 0.  1.
         -4    1    4    4    0  503 -0.54565409699E+03  0.50727456651E+02  0.67705949636E+02  0.55217367199E+03  0.00000000000E+00 0. -1.
</event>
<event>
 8    1  0.6759491E-006  0.1036445E+04  0.7818608E-02  0.8746202E-01
         21   -1    0    0  503  502  0.00000000000E+00  0.00000000000E+00  0.70587506043E+03  0.70587506043E+03  0.00000000000E+00 0. -1.
         21   -1    0    0  501  503 -0.00000000000E+00 -0.00000000000E+00 -0.15090715139E+04  0.15090715139E+04  0.00000000000E+00 0. -1.
    9000010    2    1    2  501    0 -0.77067023156E+02 -0.79869370668E+02 -0.53375379959E+03  0.11658097039E+04  0.10304856645E+04 0.  0.
   -9000010    2    1    2    0  502  0.77067023156E+02  0.79869370668E+02 -0.26944265390E+03  0.10491368704E+04  0.10078543480E+04 0.  0.
        -13    1    3    3    0    0  0.15206346934E+03 -0.38682059021E+03  0.97973672442E+02  0.42702730519E+03  0.10566000000E+00 0.  1.
         13    1    4    4    0    0  0.47538707329E+03  0.21994540006E+03  0.40488071914E+02  0.52536477193E+03  0.10566000000E+00 0. -1.
          4    1    3    3  501    0 -0.22913049250E+03  0.30695121955E+03 -0.63172747203E+03  0.73878239874E+03  0.00000000000E+00 0.  1.
         -4    1    4    4    0  502 -0.39832005013E+03 -0.14007602940E+03 -0.30993072582E+03  0.52377209849E+03  0.00000000000E+00 0. -1.
</event>
<event>
 8    1  0.6759491E-006  0.1613889E+04  0.7818608E-02  0.8347631E-01
         21   -1    0    0  503  502  0.00000000000E+00  0.00000000000E+00  0.24009928838E+04  0.24009928838E+04  0.00000000000E+00 0.  1.
         21   -1    0    0  501  503 -0.00000000000E+00 -0.00000000000E+00 -0.12179906072E+04  0.12179906072E+04  0.00000000000E+00 0.  1.
    9000010    2    1    2  501    0 -0.27401499528E+03 -0.12297892698E+04  0.11981203374E+04  0.20050236158E+04  0.99857973712E+03 0.  0.
   -9000010    2    1    2    0  502  0.27401499528E+03  0.12297892698E+04 -0.15118060833E+02  0.16139598752E+04  0.10085494818E+04 0.  0.
        -13    1    3    3    0    0  0.33515501853E+03 -0.47391919503E+03  0.20330635376E+03  0.61502989725E+03  0.10566000000E+00 0.  1.
         13    1    4    4    0    0  0.33804821116E+03  0.21605213878E+03 -0.36223732830E+03  0.54052845708E+03  0.10566000000E+00 0. -1.
          4    1    3    3  501    0 -0.60917001382E+03 -0.75587007477E+03  0.99481398359E+03  0.13899937186E+04  0.00000000000E+00 0.  1.
         -4    1    4    4    0  502 -0.64033215879E+02  0.10137371310E+04  0.34711926746E+03  0.10734314181E+04  0.00000000000E+00 0. -1.
</event>
<event>
 8    1  0.6759491E-006  0.1068662E+04  0.7818608E-02  0.8717965E-01
         21   -1    0    0  503  502  0.00000000000E+00  0.00000000000E+00  0.16715141585E+04  0.16715141585E+04  0.00000000000E+00 0. -1.
         21   -1    0    0  501  503 -0.00000000000E+00 -0.00000000000E+00 -0.73697644970E+03  0.73697644970E+03  0.00000000000E+00 0. -1.
    9000010    2    1    2  501    0  0.31567061100E+03 -0.49950020312E+02  0.93355184498E+02  0.10484806934E+04  0.99421005562E+03 0.  0.
   -9000010    2    1    2    0  502 -0.31567061100E+03  0.49950020312E+02  0.84118252430E+03  0.13600099148E+04  0.10197529064E+04 0.  0.
        -13    1    3    3    0    0  0.91320361677E+02  0.33551889291E+03  0.38251470389E+03  0.51694278776E+03  0.10566000000E+00 0.  1.
         13    1    4    4    0    0  0.36029865188E+03 -0.63696118055E+02  0.18050365409E+03  0.40798761538E+03  0.10566000000E+00 0. -1.
          4    1    3    3  501    0  0.22435024932E+03 -0.38546891322E+03 -0.28915951940E+03  0.53153790560E+03  0.00000000000E+00 0.  1.
         -4    1    4    4    0  502 -0.67596926288E+03  0.11364613837E+03  0.66067887021E+03  0.95202229945E+03  0.00000000000E+00 0. -1.
</event>
<event>
 8    1  0.6759491E-006  0.1032856E+04  0.7818608E-02  0.8745792E-01
         21   -1    0    0  501  502  0.00000000000E+00  0.00000000000E+00  0.89197567234E+03  0.89197567234E+03  0.00000000000E+00 0.  1.
         21   -1    0    0  502  503 -0.00000000000E+00 -0.00000000000E+00 -0.12139909733E+04  0.12139909733E+04  0.00000000000E+00 0.  1.
    9000010    2    1    2  501    0 -0.14241271949E+03  0.13431004976E+03 -0.31318022552E+03  0.10730731053E+04  0.10075135053E+04 0.  0.
   -9000010    2    1    2    0  503  0.14241271949E+03 -0.13431004976E+03 -0.88350754296E+01  0.10328935404E+04  0.10141353140E+04 0.  0.
        -13    1    3    3    0    0  0.26196120280E+03 -0.31492618946E+03 -0.20850981167E+03  0.45965044251E+03  0.10566000000E+00 0.  1.
         13    1    4    4    0    0 -0.37045055872E+03  0.11936568091E+03  0.18210668038E+03  0.42970296303E+03  0.10566000000E+00 0. -1.
          4    1    3    3  501    0 -0.40437392229E+03  0.44923623921E+03 -0.10467041386E+03  0.61342266276E+03  0.00000000000E+00 0.  1.
         -4    1    4    4    0  503  0.51286327821E+03 -0.25367573067E+03 -0.19094175581E+03  0.60319057733E+03  0.00000000000E+00 0. -1.
</event>
<event>
 8    1  0.6759491E-006  0.1034699E+04  0.7818608E-02  0.8748885E-01
         21   -1    0    0  503  502  0.00000000000E+00  0.00000000000E+00  0.11166870892E+04  0.11166870892E+04  0.00000000000E+00 0.  1.
         21   -1    0    0  501  503 -0.00000000000E+00 -0.00000000000E+00 -0.99362500644E+03  0.99362500644E+03  0.00000000000E+00 0.  1.
    9000010    2    1    2  501    0  0.11958469323E+02  0.13992738743E+03 -0.19846076249E+03  0.10268085825E+04  0.99761040093E+03 0.  0.
   -9000010    2    1    2    0  502 -0.11958469323E+02 -0.13992738743E+03  0.32152284528E+03  0.10835035132E+04  0.10251245019E+04 0.  0.
        -13    1    3    3    0    0  0.12710905806E+03  0.16666943130E+03 -0.58562096419E+03  0.62200268234E+03  0.10566000000E+00 0.  1.
         13    1    4    4    0    0 -0.38231254611E+03 -0.40647664019E+03  0.28272660671E+03  0.62555614236E+03  0.10566000000E+00 0. -1.
          4    1    3    3  501    0 -0.11515058873E+03 -0.26742043868E+02  0.38716020170E+03  0.40480590013E+03  0.00000000000E+00 0.  1.
         -4    1    4    4    0  502  0.37035407679E+03  0.26654925276E+03  0.38796238579E+02  0.45794737085E+03  0.00000000000E+00 0. -1.
</event>
<event>
 8    1  0.6759491E-006  0.1022208E+04  0.7818608E-02  0.8760083E-01
         21   -1    0    0  501  502  0.00000000000E+00  0.00000000000E+00  0.94110487340E+03  0.94110487340E+03  0.00000000000E+00 0.  1.
         21   -1    0    0  502  503 -0.00000000000E+00 -0.00000000000E+00 -0.13392585600E+04  0.13392585600E+04  0.00000000000E+00 0.  1.
    9000010    2    1    2  501    0  0.52286123877E+02 -0.15234834333E+03  0.30270802636E+03  0.10409614445E+04  0.98286556719E+03 0.  0.
   -9000010    2    1    2    0  503 -0.52286123877E+02  0.15234834333E+03 -0.70086171294E+03  0.12394019889E+04  0.10094386029E+04 0.  0.
        -13    1    3    3    0    0  0.85051958641E+02 -0.55040824521E+03  0.31786957942E+03  0.64126761399E+03  0.10566000000E+00 0.  1.
         13    1    4    4    0    0  0.26951559841E+03  0.15088011974E+03 -0.83534967693E+03  0.89062481564E+03  0.10566000000E+00 0. -1.
          4    1    3    3  501    0 -0.32765834764E+02  0.39805990189E+03 -0.15161553067E+02  0.39969383046E+03  0.00000000000E+00 0.  1.
         -4    1    4    4    0  503 -0.32180172229E+03  0.14682235832E+01  0.13448796399E+03  0.34877717329E+03  0.00000000000E+00 0. -1.
</event>
<event>
 8    1  0.6759491E-006  0.1045190E+04  0.7818608E-02  0.8735600E-01
         21   -1    0    0  501  502  0.00000000000E+00  0.00000000000E+00  0.16332262600E+04  0.16332262600E+04  0.00000000000E+00 0. -1.
         21   -1    0    0  502  503 -0.00000000000E+00 -0.00000000000E+00 -0.76514152749E+03  0.76514152749E+03  0.00000000000E+00 0. -1.
    9000010    2    1    2  501    0 -0.15982821372E+03  0.29666784960E+03  0.87583080276E+03  0.13636358449E+04  0.98937669856E+03 0.  0.
   -9000010    2    1    2    0  503  0.15982821372E+03 -0.29666784960E+03 -0.77460702421E+01  0.10347319426E+04  0.97829102034E+03 0.  0.
        -13    1    3    3    0    0 -0.36079827232E+03 -0.23388952596E+03  0.58520538297E+03  0.72618527600E+03  0.10566000000E+00 0.  1.
         13    1    4    4    0    0 -0.38298847087E+03 -0.44812506072E+02  0.15343353188E+03  0.41500625223E+03  0.10566000000E+00 0. -1.
          4    1    3    3  501    0  0.20097005860E+03  0.53055737555E+03  0.29062541979E+03  0.63745056894E+03  0.00000000000E+00 0.  1.
         -4    1    4    4    0  503  0.54281668459E+03 -0.25185534353E+03 -0.16117960212E+03  0.61972569034E+03  0.00000000000E+00 0. -1.
</event>
<event>
 8    1  0.6759491E-006  0.1082560E+04  0.7818608E-02  0.8702505E-01
         21   -1    0    0  501  502  0.00000000000E+00  0.00000000000E+00  0.11483670976E+04  0.11483670976E+04  0.00000000000E+00 0.  1.
         21   -1    0    0  502  503 -0.00000000000E+00 -0.00000000000E+00 -0.12892301361E+04  0.12892301361E+04  0.00000000000E+00 0.  1.
    9000010    2    1    2  501    0  0.37786790546E+03 -0.86326099343E+02 -0.63536585533E+03  0.12552395795E+04  0.10107919086E+04 0.  0.
   -9000010    2    1    2    0  503 -0.37786790546E+03  0.86326099343E+02  0.49450281692E+03  0.11823576542E+04  0.10015988404E+04 0.  0.
        -13    1    3    3    0    0  0.31486664107E+03 -0.53966499395E+03 -0.37330920675E+03  0.72783176790E+03  0.10566000000E+00 0.  1.
         13    1    4    4    0    0 -0.46955757664E+03  0.29476468080E+03 -0.83919935278E+02  0.56072551354E+03  0.10566000000E+00 0. -1.
          4    1    3    3  501    0  0.63001264399E+02  0.45333889461E+03 -0.26205664858E+03  0.52740781161E+03  0.00000000000E+00 0.  1.
         -4    1    4    4    0  503  0.91689671179E+02 -0.20843858145E+03  0.57842275220E+03  0.62163214066E+03  0.00000000000E+00 0. -1.
</event>
<event>
 8    1  0.6759491E-006  0.1061540E+04  0.7818608E-02  0.8722040E-01
         21   -1    0    0  501  502  0.00000000000E+00  0.00000000000E+00  0.60470701496E+03  0.60470701496E+03  0.00000000000E+00 0.  1.
         21   -1    0    0  502  503 -0.00000000000E+00 -0.00000000000E+00 -0.18436942296E+04  0.18436942296E+04  0.00000000000E+00 0.  1.
    9000010    2    1    2  501    0  0.28571143008E+03  0.15186572139E+03 -0.55534745242E+03  0.11980308674E+04  0.10110256909E+04 0.  0.
   -9000010    2    1    2    0  503 -0.28571143008E+03 -0.15186572139E+03 -0.68363976218E+03  0.12503703772E+04  0.99567491536E+03 0.  0.
        -13    1    3    3    0    0  0.17291322817E+03 -0.21477904662E+03  0.20688220280E+03  0.34471623162E+03  0.10566000000E+00 0.  1.
         13    1    4    4    0    0  0.20960238022E+03 -0.42068742463E+03 -0.41081694366E+03  0.62424485533E+03  0.10566000000E+00 0. -1.
          4    1    3    3  501    0  0.11279820191E+03  0.36664476801E+03 -0.76222965522E+03  0.85331463573E+03  0.00000000000E+00 0.  1.
         -4    1    4    4    0  503 -0.49531381029E+03  0.26882170325E+03 -0.27282281852E+03  0.62612552185E+03  0.00000000000E+00 0. -1.
</event>
<event>
 8    1  0.6759491E-006  0.1042915E+04  0.7818608E-02  0.8736362E-01
         21   -1    0    0  501  502  0.00000000000E+00  0.00000000000E+00  0.14526031647E+04  0.14526031647E+04  0.00000000000E+00 0. -1.
         21   -1    0    0  502  503 -0.00000000000E+00 -0.00000000000E+00 -0.86481803246E+03  0.86481803246E+03  0.00000000000E+00 0. -1.
    9000010    2    1    2  501    0  0.17751328845E+03 -0.21890986011E+03  0.72403580241E+03  0.12656436549E+04  0.99909635357E+03 0.  0.
   -9000010    2    1    2    0  503 -0.17751328845E+03  0.21890986011E+03 -0.13625067019E+03  0.10517775422E+04  0.10041111785E+04 0.  0.
        -13    1    3    3    0    0 -0.72407570781E+02  0.32828166929E+03  0.54083902317E+03  0.63680340047E+03  0.10566000000E+00 0.  1.
         13    1    4    4    0    0 -0.27619594421E+02 -0.13341382272E+03  0.38306551626E+03  0.40657261467E+03  0.10566000000E+00 0. -1.
          4    1    3    3  501    0  0.24992085923E+03 -0.54719152940E+03  0.18319677923E+03  0.62884025447E+03  0.00000000000E+00 0.  1.
         -4    1    4    4    0  503 -0.14989369403E+03  0.35232368283E+03 -0.51931618645E+03  0.64520492752E+03  0.00000000000E+00 0. -1.
</event>
<event>
 8    1  0.6759491E-006  0.1054990E+04  0.7818608E-02  0.8726193E-01
         21   -1    0    0  503  502  0.00000000000E+00  0.00000000000E+00  0.47417935075E+03  0.47417935075E+03  0.00000000000E+00 0. -1.
         21   -1    0    0  501  503 -0.00000000000E+00 -0.00000000000E+00 -0.24468432878E+04  0.24468432878E+04  0.00000000000E+00 0. -1.
    9000010    2    1    2  501    0  0.19751919167E+03 -0.28405871746E+03 -0.13075039657E+04  0.16800508365E+04  0.99664487506E+03 0.  0.
   -9000010    2    1    2    0  502 -0.19751919167E+03  0.28405871746E+03 -0.66515997134E+03  0.12409718020E+04  0.98887311614E+03 0.  0.
        -13    1    3    3    0    0  0.12478039635E+03  0.23467285538E+03 -0.10742776966E+04  0.11066680067E+04  0.10566000000E+00 0.  1.
         13    1    4    4    0    0 -0.18911971050E+03 -0.12605602446E+03 -0.78207818890E+03  0.81443396965E+03  0.10566000000E+00 0. -1.
          4    1    3    3  501    0  0.72738795322E+02 -0.51873157284E+03 -0.23322626908E+03  0.57338282987E+03  0.00000000000E+00 0.  1.
         -4    1    4    4    0  502 -0.83994811693E+01  0.41011474192E+03  0.11691821756E+03  0.42653783234E+03  0.00000000000E+00 0. -1.
</event>
<event>
 8    1  0.6759491E-006  0.1061051E+04  0.7818608E-02  0.8722192E-01
         21   -1    0    0  503  502  0.00000000000E+00  0.00000000000E+00  0.16471907512E+04  0.16471907512E+04  0.00000000000E+00 0.  1.
         21   -1    0    0  501  503 -0.00000000000E+00 -0.00000000000E+00 -0.71402388834E+03  0.71402388834E+03  0.00000000000E+00 0.  1.
    9000010    2    1    2  501    0 -0.29391882234E+03 -0.13770656110E+03  0.74011928490E+03  0.12827452954E+04  0.99614635770E+03 0.  0.
   -9000010    2    1    2    0  502  0.29391882234E+03  0.13770656110E+03  0.19304757795E+03  0.10784693441E+04  0.10101868083E+04 0.  0.
        -13    1    3    3    0    0  0.34532897157E+02 -0.26753645607E+03 -0.16151042005E+03  0.31441040577E+03  0.10566000000E+00 0.  1.
         13    1    4    4    0    0 -0.12087146752E+03 -0.30596713845E+03  0.31892750645E+03  0.45819271820E+03  0.10566000000E+00 0. -1.
          4    1    3    3  501    0 -0.32845171950E+03  0.12982989497E+03  0.90162970495E+03  0.96833488965E+03  0.00000000000E+00 0.  1.
         -4    1    4    4    0  502  0.41479028986E+03  0.44367369955E+03 -0.12587992851E+03  0.62027662590E+03  0.00000000000E+00 0. -1.
</event>
<event>
 8    1  0.6759491E-006  0.1042398E+04  0.7818608E-02  0.8742983E-01
         21   -1    0    0  501  502  0.00000000000E+00  0.00000000000E+00  0.13536335210E+04  0.13536335210E+04  0.00000000000E+00 0. -1.
         21   -1    0    0  502  503 -0.00000000000E+00 -0.00000000000E+00 -0.79680996939E+03  0.79680996939E+03  0.00000000000E+00 0. -1.
    9000010    2    1    2  501    0  0.27010799050E+03  0.11723625702E+03  0.44621424505E+03  0.11338875009E+04  0.99994552139E+03 0.  0.
   -9000010    2    1    2    0  503 -0.27010799050E+03 -0.11723625702E+03  0.11060930660E+03  0.10165559895E+04  0.96666902020E+03 0.  0.
        -13    1    3    3    0    0  0.20235190019E+03 -0.41591180694E+03  0.48020134470E+02  0.46501060971E+03  0.10566000000E+00 0.  1.
         13    1    4    4    0    0 -0.61195158783E+03 -0.15051692460E+03  0.20087820231E+03  0.66143189655E+03  0.10566000000E+00 0. -1.
          4    1    3    3  501    0  0.67756090314E+02  0.53314806396E+03  0.39819411058E+03  0.66887689120E+03  0.00000000000E+00 0.  1.
         -4    1    4    4    0  503  0.34184359733E+03  0.33280667585E+02 -0.90268895710E+02  0.35512409296E+03  0.00000000000E+00 0. -1.
</event>
<event>
 8    1  0.6759491E-006  0.1054055E+04  0.7818608E-02  0.8729730E-01
         21   -1    0    0  503  502  0.00000000000E+00  0.00000000000E+00  0.10649063110E+04  0.10649063110E+04  0.00000000000E+00 0.  1.
         21   -1    0    0  501  503 -0.00000000000E+00 -0.00000000000E+00 -0.10831330185E+04  0.10831330185E+04  0.00000000000E+00 0.  1.
    9000010    2    1    2  501    0 -0.28708310981E+03  0.15628954432E+03 -0.25985531009E+03  0.10856138461E+04  0.10020925641E+04 0.  0.
   -9000010    2    1    2    0  502  0.28708310981E+03 -0.15628954432E+03  0.24162860257E+03  0.10624254835E+04  0.98159074606E+03 0.  0.
        -13    1    3    3    0    0 -0.46662892568E+03  0.40649651661E+03 -0.41065740961E+03  0.74271225352E+03  0.10566000000E+00 0.  1.
         13    1    4    4    0    0  0.52190317127E+03 -0.64892889886E+01 -0.18428528006E+03  0.55352155031E+03  0.10566000000E+00 0. -1.
          4    1    3    3  501    0  0.17954581588E+03 -0.25020697229E+03  0.15080209952E+03  0.34290159259E+03  0.00000000000E+00 0.  1.
         -4    1    4    4    0  502 -0.23482006146E+03 -0.14980025533E+03  0.42591388264E+03  0.50890393316E+03  0.00000000000E+00 0. -1.
</event>
<event>
 8    1  0.6759491E-006  0.1190080E+04  0.7818608E-02  0.8636005E-01
         21   -1    0    0  501  502  0.00000000000E+00  0.00000000000E+00  0.17063223962E+04  0.17063223962E+04  0.00000000000E+00 0.  1.
         21   -1    0    0  502  503 -0.00000000000E+00 -0.00000000000E+00 -0.10143948325E+04  0.10143948325E+04  0.00000000000E+00 0.  1.
    9000010    2    1    2  501    0 -0.30512249907E+03 -0.27054352501E+03  0.10453189079E+04  0.15839765575E+04  0.11180324580E+04 0.  0.
   -9000010    2    1    2    0  503  0.30512249907E+03  0.27054352501E+03 -0.35339134413E+03  0.11367406712E+04  0.10005000615E+04 0.  0.
        -13    1    3    3    0    0 -0.53277286314E+03  0.27315443425E+03  0.57182141167E+03  0.82791304293E+03  0.10566000000E+00 0.  1.
         13    1    4    4    0    0 -0.34828130561E+03 -0.22648175662E+01 -0.67013361859E+01  0.34835314884E+03  0.10566000000E+00 0. -1.
          4    1    3    3  501    0  0.22765036407E+03 -0.54369795926E+03  0.47349749623E+03  0.75606351460E+03  0.00000000000E+00 0.  1.
         -4    1    4    4    0  503  0.65340380468E+03  0.27280834258E+03 -0.34669000795E+03  0.78838752232E+03  0.00000000000E+00 0. -1.
</event>
<event>
 7    1  0.6759491E-006  0.1125620E+04  0.7818608E-02  0.8760192E-01
         21   -1    0    0  501  502  0.00000000000E+00  0.00000000000E+00  0.75305220579E+03  0.75305220579E+03  0.00000000000E+00 0.  1.
         21   -1    0    0  502  503 -0.00000000000E+00 -0.00000000000E+00 -0.14080841176E+04  0.14080841176E+04  0.00000000000E+00 0. -1.
   -9000010    2    1    2    0  503 -0.39947168823E+03 -0.28692611923E+03 -0.82605006498E+03  0.13962016001E+04  0.10124801088E+04 0.  0.
        -13    1    1    2    0    0 -0.86779750270E+02  0.21429121874E+03  0.14436369952E+03  0.27256621285E+03  0.10566000000E+00 0.  1.
         13    1    3    3    0    0  0.82076755976E+01  0.19690069958E+03 -0.73016403066E+03  0.75629146119E+03  0.10566000000E+00 0. -1.
          4    1    1    2  501    0  0.48625143850E+03  0.72634900487E+02  0.26654453624E+02  0.49236851048E+03  0.00000000000E+00 0.  1.
         -4    1    3    3    0  503 -0.40767936383E+03 -0.48382681880E+03 -0.95886034316E+02  0.63991013890E+03  0.00000000000E+00 0. -1.
</event>
<event>
 8    1  0.6759491E-006  0.1007184E+04  0.7818608E-02  0.8769714E-01
         21   -1    0    0  503  502  0.00000000000E+00  0.00000000000E+00  0.94339780673E+03  0.94339780673E+03  0.00000000000E+00 0. -1.
         21   -1    0    0  501  503 -0.00000000000E+00 -0.00000000000E+00 -0.11845592373E+04  0.11845592373E+04  0.00000000000E+00 0. -1.
    9000010    2    1    2  501    0 -0.45649259885E+02  0.22350075625E+02  0.21433887943E+03  0.10297383910E+04  0.10059008986E+04 0.  0.
   -9000010    2    1    2    0  502  0.45649259885E+02 -0.22350075625E+02 -0.45550030997E+03  0.10982186530E+04  0.99800816463E+03 0.  0.
        -13    1    3    3    0    0 -0.35477973514E+03  0.37679026169E+03  0.11784487380E+02  0.51766634725E+03  0.10566000000E+00 0.  1.
         13    1    4    4    0    0 -0.13805160472E+03 -0.24306548789E+03 -0.67902812585E+03  0.73431483972E+03  0.10566000000E+00 0. -1.
          4    1    3    3  501    0  0.30913047526E+03 -0.35444018606E+03  0.20255439204E+03  0.51207204372E+03  0.00000000000E+00 0.  1.
         -4    1    4    4    0  502  0.18370086461E+03  0.22071541226E+03  0.22352781588E+03  0.36390381331E+03  0.00000000000E+00 0. -1.
</event>
<event>
 8    1  0.6759491E-006  0.1072316E+04  0.7818608E-02  0.8710481E-01
         21   -1    0    0  503  502  0.00000000000E+00  0.00000000000E+00  0.13108860869E+04  0.13108860869E+04  0.00000000000E+00 0. -1.
         21   -1    0    0  501  503 -0.00000000000E+00 -0.00000000000E+00 -0.10038618515E+04  0.10038618515E+04  0.00000000000E+00 0. -1.
    9000010    2    1    2  501    0  0.36836899903E+03  0.78138090705E+02  0.57117577202E+03  0.12149502581E+04  0.10040224531E+04 0.  0.
   -9000010    2    1    2    0  502 -0.36836899903E+03 -0.78138090705E+02 -0.26415153662E+03  0.10997976803E+04  0.99898829958E+03 0.  0.
        -13    1    3    3    0    0  0.55860242684E+03  0.27510800957E+03  0.67842696824E+03  0.92086060324E+03  0.10566000000E+00 0.  1.
         13    1    4    4    0    0 -0.51453700770E+03  0.13043563714E+03  0.20253215016E+03  0.56813824967E+03  0.10566000000E+00 0. -1.
          4    1    3    3  501    0 -0.19023342781E+03 -0.19696991887E+03 -0.10725119622E+03  0.29408965484E+03  0.00000000000E+00 0.  1.
         -4    1    4    4    0  502  0.14616800867E+03 -0.20857372784E+03 -0.46668368678E+03  0.53165943066E+03  0.00000000000E+00 0. -1.
</event>
<event>
 8    1  0.6759491E-006  0.1015058E+04  0.7818608E-02  0.8763339E-01
         21   -1    0    0  503  502  0.00000000000E+00  0.00000000000E+00  0.13902316654E+04  0.13902316654E+04  0.00000000000E+00 0.  1.
         21   -1    0    0  501  503 -0.00000000000E+00 -0.00000000000E+00 -0.76370857481E+03  0.76370857481E+03  0.00000000000E+00 0.  1.
    9000010    2    1    2  501    0  0.22070496932E+02  0.58103450742E+02  0.93601140287E+02  0.10074894699E+04  0.10012046447E+04 0.  0.
   -9000010    2    1    2    0  502 -0.22070496932E+02 -0.58103450742E+02  0.53292195030E+03  0.11464507703E+04  0.10131537129E+04 0.  0.
        -13    1    3    3    0    0 -0.31963118900E+03  0.40304682766E+03  0.88279701434E+02  0.52192351846E+03  0.10566000000E+00 0.  1.
         13    1    4    4    0    0  0.11754678256E+03  0.46130610370E+03  0.22285533244E+03  0.52562826956E+03  0.10566000000E+00 0. -1.
          4    1    3    3  501    0  0.34170168594E+03 -0.34494337692E+03  0.53214388530E+01  0.48556595140E+03  0.00000000000E+00 0.  1.
         -4    1    4    4    0  502 -0.13961727949E+03 -0.51940955444E+03  0.31006661786E+03  0.62082250079E+03  0.00000000000E+00 0. -1.
</event>
<event>
 8    1  0.6759491E-006  0.1030812E+04  0.7818608E-02  0.8759827E-01
         21   -1    0    0  503  502  0.00000000000E+00  0.00000000000E+00  0.34932428133E+04  0.34932428133E+04  0.00000000000E+00 0.  1.
         21   -1    0    0  501  503 -0.00000000000E+00 -0.00000000000E+00 -0.30386536378E+03  0.30386536378E+03  0.00000000000E+00 0.  1.
    9000010    2    1    2  501    0  0.11670398003E+03  0.13845545027E+03  0.19956281660E+04  0.22198922459E+04  0.95530103944E+03 0.  0.
   -9000010    2    1    2    0  502 -0.11670398003E+03 -0.13845545027E+03  0.11937492836E+04  0.15772159312E+04  0.10147822480E+04 0.  0.
        -13    1    3    3    0    0 -0.11516581878E+03 -0.10522081566E+03 -0.36421917082E+02  0.16019098936E+03  0.10566000000E+00 0.  1.
         13    1    4    4    0    0 -0.50898137901E+03 -0.14669798926E+03  0.10174210327E+04  0.11470518355E+04  0.10566000000E+00 0. -1.
          4    1    3    3  501    0  0.23186979881E+03  0.24367626593E+03  0.20320500831E+04  0.20597012565E+04  0.00000000000E+00 0.  1.
         -4    1    4    4    0  502  0.39227739898E+03  0.82425389916E+01  0.17632825082E+03  0.43016409571E+03  0.00000000000E+00 0. -1.
</event>
<event>
 8    1  0.6759491E-006  0.1166764E+04  0.7818608E-02  0.8648496E-01
         21   -1    0    0  503  502  0.00000000000E+00  0.00000000000E+00  0.23330949373E+04  0.23330949373E+04  0.00000000000E+00 0. -1.
         21   -1    0    0  501  503 -0.00000000000E+00 -0.00000000000E+00 -0.58778930524E+03  0.58778930524E+03  0.00000000000E+00 0. -1.
    9000010    2    1    2  501    0  0.53077653578E+03  0.25952538112E+03  0.44269075623E+03  0.11721290880E+04  0.91040339356E+03 0.  0.
   -9000010    2    1    2    0  502 -0.53077653578E+03 -0.25952538112E+03  0.13026148758E+04  0.17487551545E+04  0.10061122806E+04 0.  0.
        -13    1    3    3    0    0 -0.16296045009E+03  0.34665874687E+03  0.11486385345E+03  0.39990262698E+03  0.10566000000E+00 0.  1.
         13    1    4    4    0    0  0.11996396383E+03 -0.25757698969E+03 -0.93203435504E+01  0.28429586385E+03  0.10566000000E+00 0. -1.
          4    1    3    3  501    0  0.69373698587E+03 -0.87133365743E+02  0.32782690278E+03  0.77222646106E+03  0.00000000000E+00 0.  1.
         -4    1    4    4    0  502 -0.65074049961E+03 -0.19483914324E+01  0.13119352194E+04  0.14644592906E+04  0.00000000000E+00 0. -1.
</event>
<event>
 8    1  0.6759491E-006  0.1022971E+04  0.7818608E-02  0.8759263E-01
         21   -1    0    0  501  502  0.00000000000E+00  0.00000000000E+00  0.14577667818E+04  0.14577667818E+04  0.00000000000E+00 0.  1.
         21   -1    0    0  502  503 -0.00000000000E+00 -0.00000000000E+00 -0.74972459874E+03  0.74972459874E+03  0.00000000000E+00 0.  1.
    9000010    2    1    2  501    0 -0.20891744137E+03  0.10527457739E+03  0.64270247589E+03  0.12081125645E+04  0.99586156766E+03 0.  0.
   -9000010    2    1    2    0  503  0.20891744137E+03 -0.10527457739E+03  0.65339707124E+02  0.99937881604E+03  0.96941193858E+03 0.  0.
        -13    1    3    3    0    0  0.74829349342E+02 -0.12295464294E+03  0.79898678889E+03  0.81184800038E+03  0.10566000000E+00 0.  1.
         13    1    4    4    0    0  0.45633586348E+03  0.28124354295E+03  0.15640735752E+01  0.53604366263E+03  0.10566000000E+00 0. -1.
          4    1    3    3  501    0 -0.28374679071E+03  0.22822922033E+03 -0.15628431300E+03  0.39626456408E+03  0.00000000000E+00 0.  1.
         -4    1    4    4    0  503 -0.24741842211E+03 -0.38651812035E+03  0.63775633548E+02  0.46333515341E+03  0.00000000000E+00 0. -1.
</event>
<event>
 8    1  0.6759491E-006  0.1010710E+04  0.7818608E-02  0.8765624E-01
         21   -1    0    0  501  502  0.00000000000E+00  0.00000000000E+00  0.94593179909E+03  0.94593179909E+03  0.00000000000E+00 0.  1.
         21   -1    0    0  502  503 -0.00000000000E+00 -0.00000000000E+00 -0.11516654385E+04  0.11516654385E+04  0.00000000000E+00 0.  1.
    9000010    2    1    2  501    0  0.76805558325E+02  0.68082931859E+02  0.16718208513E+03  0.10244439476E+04  0.10054855408E+04 0.  0.
   -9000010    2    1    2    0  503 -0.76805558325E+02 -0.68082931859E+02 -0.37291572453E+03  0.10731532899E+04  0.10010282048E+04 0.  0.
        -13    1    3    3    0    0  0.22310139417E+03 -0.98026145703E+02  0.53911333235E+03  0.59163041978E+03  0.10566000000E+00 0.  1.
         13    1    4    4    0    0  0.28369747013E+02  0.44219077998E+03 -0.32588439573E+03  0.55003470708E+03  0.10566000000E+00 0. -1.
          4    1    3    3  501    0 -0.14629583584E+03  0.16610907756E+03 -0.37193124722E+03  0.43281352786E+03  0.00000000000E+00 0.  1.
         -4    1    4    4    0  503 -0.10517530534E+03 -0.51027371184E+03 -0.47031328799E+02  0.52311858286E+03  0.00000000000E+00 0. -1.
</event>
<event>
 8    1  0.6759491E-006  0.1129411E+04  0.7818608E-02  0.8662114E-01
         21   -1    0    0  503  502  0.00000000000E+00  0.00000000000E+00  0.21079988772E+04  0.21079988772E+04  0.00000000000E+00 0.  1.
         21   -1    0    0  501  503 -0.00000000000E+00 -0.00000000000E+00 -0.86958618861E+03  0.86958618861E+03  0.00000000000E+00 0.  1.
    9000010    2    1    2  501    0  0.53047126456E+03 -0.58974812312E+02 -0.20314803744E+03  0.11475361760E+04  0.99533529979E+03 0.  0.
   -9000010    2    1    2    0  502 -0.53047126456E+03  0.58974812312E+02  0.14415607261E+04  0.18300488899E+04  0.99302760358E+03 0.  0.
        -13    1    3    3    0    0  0.46515249235E+03 -0.11183395721E+03  0.34700423810E+03  0.59100391500E+03  0.10566000000E+00 0.  1.
         13    1    4    4    0    0 -0.61120654846E+02  0.46131349970E+03  0.87720290102E+03  0.99299084597E+03  0.10566000000E+00 0. -1.
          4    1    3    3  501    0  0.65318772207E+02  0.52859144897E+02 -0.55015227554E+03  0.55653226096E+03  0.00000000000E+00 0.  1.
         -4    1    4    4    0  502 -0.46935060971E+03 -0.40233868739E+03  0.56435782504E+03  0.83705804392E+03  0.00000000000E+00 0. -1.
</event>
<event>
 8    1  0.6759491E-006  0.9876791E+03  0.7818608E-02  0.8786684E-01
         21   -1    0    0  501  502  0.00000000000E+00  0.00000000000E+00  0.83863447500E+03  0.83863447500E+03  0.00000000000E+00 0. -1.
         21   -1    0    0  502  503 -0.00000000000E+00 -0.00000000000E+00 -0.11945503696E+04  0.11945503696E+04  0.00000000000E+00 0. -1.
    9000010    2    1    2  501    0 -0.79145947245E+02 -0.23933217469E+03 -0.76736203561E+01  0.98591092615E+03  0.95310938462E+03 0.  0.
   -9000010    2    1    2    0  503  0.79145947245E+02  0.23933217469E+03 -0.34824227426E+03  0.10472739185E+04  0.95496911359E+03 0.  0.
        -13    1    3    3    0    0 -0.13500745193E+03  0.12401679805E+03 -0.40502880333E+03  0.44458466119E+03  0.10566000000E+00 0.  1.
         13    1    4    4    0    0  0.39745057888E+03  0.21405032057E+02 -0.49443957658E+03  0.63474061166E+03  0.10566000000E+00 0. -1.
          4    1    3    3  501    0  0.55861504690E+02 -0.36334897274E+03  0.39735518298E+03  0.54132626496E+03  0.00000000000E+00 0.  1.
         -4    1    4    4    0  503 -0.31830463163E+03  0.21792714264E+03  0.14619730232E+03  0.41253330680E+03  0.00000000000E+00 0. -1.
</event>
<event>
 8    1  0.6759491E-006  0.1018449E+04  0.7818608E-02  0.8760514E-01
         21   -1    0    0  503  502  0.00000000000E+00  0.00000000000E+00  0.76385786219E+03  0.76385786219E+03  0.00000000000E+00 0. -1.
         21   -1    0    0  501  503 -0.00000000000E+00 -0.00000000000E+00 -0.19137398268E+04  0.19137398268E+04  0.00000000000E+00 0. -1.
    9000010    2    1    2  501    0  0.92090132979E+02 -0.88670648697E+02 -0.13051603590E+04  0.16473791448E+04  0.99703129712E+03 0.  0.
   -9000010    2    1    2    0  502 -0.92090132979E+02  0.88670648697E+02  0.15527839439E+03  0.10302185442E+04  0.10103938799E+04 0.  0.
        -13    1    3    3    0    0  0.34699955566E+03 -0.34294464388E+03 -0.11613675199E+04  0.12596802165E+04  0.10566000000E+00 0.  1.
         13    1    4    4    0    0 -0.41899891077E+03 -0.75220337296E+02 -0.24247153310E+03  0.48990880978E+03  0.10566000000E+00 0. -1.
          4    1    3    3  501    0 -0.25490942268E+03  0.25427399519E+03 -0.14379283904E+03  0.38769892824E+03  0.00000000000E+00 0.  1.
         -4    1    4    4    0  502  0.32690877779E+03  0.16389098599E+03  0.39774992749E+03  0.54030973442E+03  0.00000000000E+00 0. -1.
</event>
<event>
 8    1  0.6759491E-006  0.1018959E+04  0.7818608E-02  0.8759079E-01
         21   -1    0    0  501  502  0.00000000000E+00  0.00000000000E+00  0.22006290028E+04  0.22006290028E+04  0.00000000000E+00 0.  1.
         21   -1    0    0  502  503 -0.00000000000E+00 -0.00000000000E+00 -0.78807293475E+03  0.78807293475E+03  0.00000000000E+00 0.  1.
    9000010    2    1    2  501    0  0.15571118416E+03 -0.65847882500E+02  0.16610821787E+04  0.19487099785E+04  0.10048356380E+04 0.  0.
   -9000010    2    1    2    0  503 -0.15571118416E+03  0.65847882500E+02 -0.24852611066E+03  0.10399919590E+04  0.99560842237E+03 0.  0.
        -13    1    3    3    0    0  0.40211930420E+03 -0.41365547924E+03  0.78231623538E+03  0.97202340178E+03  0.10566000000E+00 0.  1.
         13    1    4    4    0    0  0.28557968766E+02  0.12888578680E+03  0.36930609966E+03  0.39219142014E+03  0.10566000000E+00 0. -1.
          4    1    3    3  501    0 -0.24640812004E+03  0.34780759674E+03  0.87876594336E+03  0.97668657674E+03  0.00000000000E+00 0.  1.
         -4    1    4    4    0  503 -0.18426915293E+03 -0.63037904303E+02 -0.61783221032E+03  0.64780053891E+03  0.00000000000E+00 0. -1.
</event>
<event>
 8    1  0.6759491E-006  0.1033468E+04  0.7818608E-02  0.8744063E-01
         21   -1    0    0  501  502  0.00000000000E+00  0.00000000000E+00  0.11656686991E+04  0.11656686991E+04  0.00000000000E+00 0. -1.
         21   -1    0    0  502  503 -0.00000000000E+00 -0.00000000000E+00 -0.10882545984E+04  0.10882545984E+04  0.00000000000E+00 0. -1.
    9000010    2    1    2  501    0 -0.26040866819E+03  0.29793476031E+02  0.48826667530E+03  0.11430048481E+04  0.99967765348E+03 0.  0.
   -9000010    2    1    2    0  503  0.26040866819E+03 -0.29793476031E+02 -0.41085257454E+03  0.11109184494E+04  0.99831840488E+03 0.  0.
        -13    1    3    3    0    0 -0.31980106209E+03 -0.22430617001E+03 -0.17665553201E+03  0.42871105115E+03  0.10566000000E+00 0.  1.
         13    1    4    4    0    0  0.43842022994E+03 -0.37173380070E+03 -0.40317288953E+02  0.57621507404E+03  0.10566000000E+00 0. -1.
          4    1    3    3  501    0  0.59392393903E+02  0.25409964604E+03  0.66492220731E+03  0.71429379694E+03  0.00000000000E+00 0.  1.
         -4    1    4    4    0  503 -0.17801156174E+03  0.34194032467E+03 -0.37053528559E+03  0.53470337536E+03  0.00000000000E+00 0. -1.
</event>
<event>
 8    1  0.6759491E-006  0.1045800E+04  0.7818608E-02  0.8734779E-01
         21   -1    0    0  503  502  0.00000000000E+00  0.00000000000E+00  0.19677431533E+04  0.19677431533E+04  0.00000000000E+00 0. -1.
         21   -1    0    0  501  503 -0.00000000000E+00 -0.00000000000E+00 -0.63666730807E+03  0.63666730807E+03  0.00000000000E+00 0. -1.
    9000010    2    1    2  501    0  0.70558196207E+02  0.29006555761E+03  0.11460353042E+04  0.15514812167E+04  0.10022876636E+04 0.  0.
   -9000010    2    1    2    0  502 -0.70558196207E+02 -0.29006555761E+03  0.18504054103E+03  0.10529292446E+04  0.99262455421E+03 0.  0.
        -13    1    3    3    0    0 -0.24245108290E+03  0.57335708268E+03  0.64750186577E+03  0.89820907877E+03  0.10566000000E+00 0.  1.
         13    1    4    4    0    0  0.24638248672E+03  0.27994117167E+03  0.14293206900E+03  0.39937573395E+03  0.10566000000E+00 0. -1.
          4    1    3    3  501    0  0.31300927911E+03 -0.28329152507E+03  0.49853343839E+03  0.65327213791E+03  0.00000000000E+00 0.  1.
         -4    1    4    4    0  502 -0.31694068292E+03 -0.57000672928E+03  0.42108472036E+02  0.65355351069E+03  0.00000000000E+00 0. -1.
</event>
<event>
 8    1  0.6759491E-006  0.1174309E+04  0.7818608E-02  0.8635904E-01
         21   -1    0    0  503  502  0.00000000000E+00  0.00000000000E+00  0.80073105759E+03  0.80073105759E+03  0.00000000000E+00 0. -1.
         21   -1    0    0  501  503 -0.00000000000E+00 -0.00000000000E+00 -0.24839466263E+04  0.24839466263E+04  0.00000000000E+00 0. -1.
    9000010    2    1    2  501    0  0.31746296762E+03 -0.42218984584E+03 -0.18046826386E+04  0.21531094046E+04  0.10487963007E+04 0.  0.
   -9000010    2    1    2    0  502 -0.31746296762E+03  0.42218984584E+03  0.12146706988E+03  0.11315682793E+04  0.99331038450E+03 0.  0.
        -13    1    3    3    0    0 -0.20149281588E+03 -0.76960863232E+02  0.27846032602E+02  0.21748044054E+03  0.10566000000E+00 0.  1.
         13    1    4    4    0    0 -0.50184542567E+03 -0.26018747393E+02 -0.20976146475E+03  0.54454172451E+03  0.10566000000E+00 0. -1.
          4    1    3    3  501    0  0.51895578350E+03 -0.34522898261E+03 -0.18325286712E+04  0.19356289640E+04  0.00000000000E+00 0.  1.
         -4    1    4    4    0  502  0.18438245805E+03  0.44820859324E+03  0.33122853464E+03  0.58702655480E+03  0.00000000000E+00 0. -1.
</event>
<event>
 8    1  0.6759491E-006  0.1091800E+04  0.7818608E-02  0.8700141E-01
         21   -1    0    0  503  502  0.00000000000E+00  0.00000000000E+00  0.10745790315E+04  0.10745790315E+04  0.00000000000E+00 0. -1.
         21   -1    0    0  501  503 -0.00000000000E+00 -0.00000000000E+00 -0.15885171312E+04  0.15885171312E+04  0.00000000000E+00 0. -1.
    9000010    2    1    2  501    0  0.22995985331E+03 -0.36296330485E+03 -0.10112676736E+04  0.14633612882E+04  0.96650921233E+03 0.  0.
   -9000010    2    1    2    0  502 -0.22995985331E+03  0.36296330485E+03  0.49732957388E+03  0.11997348745E+04  0.10036947590E+04 0.  0.
        -13    1    3    3    0    0  0.42087260760E+02  0.33308127221E+03 -0.35176844135E+03  0.48626692146E+03  0.10566000000E+00 0.  1.
         13    1    4    4    0    0  0.25863073343E+03  0.51499965320E+03  0.31328986567E+03  0.65594592015E+03  0.10566000000E+00 0. -1.
          4    1    3    3  501    0  0.18787259255E+03 -0.69604457706E+03 -0.65949923222E+03  0.97709436678E+03  0.00000000000E+00 0.  1.
         -4    1    4    4    0  502 -0.48859058674E+03 -0.15203634836E+03  0.18403970821E+03  0.54378895435E+03  0.00000000000E+00 0. -1.
</event>
<event>
 8    1  0.6759491E-006  0.1064508E+04  0.7818608E-02  0.8716632E-01
         21   -1    0    0  501  502  0.00000000000E+00  0.00000000000E+00  0.95686368098E+03  0.95686368098E+03  0.00000000000E+00 0.  1.
         21   -1    0    0  502  503 -0.00000000000E+00 -0.00000000000E+00 -0.11837753478E+04  0.11837753478E+04  0.00000000000E+00 0.  1.
    9000010    2    1    2  501    0  0.32693151997E+03  0.68177916306E+02 -0.15204050908E+03  0.10735012073E+04  0.10088389756E+04 0.  0.
   -9000010    2    1    2    0  503 -0.32693151997E+03 -0.68177916306E+02 -0.74871157689E+02  0.10671378214E+04  0.10107645585E+04 0.  0.
        -13    1    3    3    0    0  0.37726993863E+03  0.46547118438E+03  0.89527260543E+02  0.60581446964E+03  0.10566000000E+00 0.  1.
         13    1    4    4    0    0 -0.18280525970E+03 -0.29542282975E+03 -0.47283051843E+03  0.58673769406E+03  0.10566000000E+00 0. -1.
          4    1    3    3  501    0 -0.50338418662E+02 -0.39729326808E+03 -0.24156776963E+03  0.46768673765E+03  0.00000000000E+00 0.  1.
         -4    1    4    4    0  503 -0.14412626027E+03  0.22724491345E+03  0.39795936074E+03  0.48040012738E+03  0.00000000000E+00 0. -1.
</event>
<event>
 8    1  0.6759491E-006  0.1049856E+04  0.7818608E-02  0.8729589E-01
         21   -1    0    0  503  502  0.00000000000E+00  0.00000000000E+00  0.12052864966E+04  0.12052864966E+04  0.00000000000E+00 0. -1.
         21   -1    0    0  501  503 -0.00000000000E+00 -0.00000000000E+00 -0.99194541475E+03  0.99194541475E+03  0.00000000000E+00 0. -1.
    9000010    2    1    2  501    0 -0.12047698231E+03 -0.27968754638E+03 -0.20419197267E+03  0.10673950914E+04  0.10024460547E+04 0.  0.
   -9000010    2    1    2    0  502  0.12047698231E+03  0.27968754638E+03  0.41753305457E+03  0.11298368200E+04  0.10047176525E+04 0.  0.
        -13    1    3    3    0    0 -0.14945518322E+03 -0.58248441125E+03  0.13026842964E+03  0.61530059001E+03  0.10566000000E+00 0.  1.
         13    1    4    4    0    0 -0.13656179069E+03  0.60308885454E+03  0.35211306913E+03  0.71158197965E+03  0.10566000000E+00 0. -1.
          4    1    3    3  501    0  0.28978200915E+02  0.30279686487E+03 -0.33446040231E+03  0.45209450142E+03  0.00000000000E+00 0.  1.
         -4    1    4    4    0  502  0.25703877299E+03 -0.32340130817E+03  0.65419985436E+02  0.41825484031E+03  0.00000000000E+00 0. -1.
</event>
<event>
 8    1  0.6759491E-006  0.1009523E+04  0.7818608E-02  0.8767610E-01
         21   -1    0    0  503  502  0.00000000000E+00  0.00000000000E+00  0.17865396555E+04  0.17865396555E+04  0.00000000000E+00 0. -1.
         21   -1    0    0  501  503 -0.00000000000E+00 -0.00000000000E+00 -0.58258295673E+03  0.58258295673E+03  0.00000000000E+00 0. -1.
    9000010    2    1    2  501    0 -0.57451359740E+02 -0.11545516971E+03  0.80050408530E+03  0.12819655480E+04  0.99297448138E+03 0.  0.
   -9000010    2    1    2    0  502  0.57451359740E+02  0.11545516971E+03  0.40345261349E+03  0.10871570643E+04  0.10012521741E+04 0.  0.
        -13    1    3    3    0    0 -0.14494044113E+03 -0.54448647330E+03  0.44844606930E+03  0.72012300290E+03  0.10566000000E+00 0.  1.
         13    1    4    4    0    0 -0.43898380062E+03 -0.11313259732E+03  0.25797993163E+03  0.52159315378E+03  0.10566000000E+00 0. -1.
          4    1    3    3  501    0  0.87489081391E+02  0.42903130359E+03  0.35205801600E+03  0.56184254507E+03  0.00000000000E+00 0.  1.
         -4    1    4    4    0  502  0.49643516036E+03  0.22858776703E+03  0.14547268186E+03  0.56556391049E+03  0.00000000000E+00 0. -1.
</event>
<event>
 8    1  0.6759491E-006  0.1001638E+04  0.7818608E-02  0.8802670E-01
         21   -1    0    0  503  502  0.00000000000E+00  0.00000000000E+00  0.87910617838E+03  0.87910617838E+03  0.00000000000E+00 0.  1.
         21   -1    0    0  501  503 -0.00000000000E+00 -0.00000000000E+00 -0.13692630240E+04  0.13692630240E+04  0.00000000000E+00 0.  1.
    9000010    2    1    2  501    0  0.28333978945E+03 -0.14092756920E+03 -0.83110375318E+03  0.13015420210E+04  0.95033476612E+03 0.  0.
   -9000010    2    1    2    0  502 -0.28333978945E+03  0.14092756920E+03  0.34094690762E+03  0.94682718139E+03  0.82467866564E+03 0.  0.
        -13    1    3    3    0    0  0.42034860721E+03  0.22267357571E+03 -0.77445443978E+03  0.90887631907E+03  0.10566000000E+00 0.  1.
         13    1    4    4    0    0 -0.42119904604E+03  0.38919696126E+03  0.33212338529E+03  0.66271326021E+03  0.10566000000E+00 0. -1.
          4    1    3    3  501    0 -0.13700881777E+03 -0.36360114491E+03 -0.56649313403E+02  0.39266570188E+03  0.00000000000E+00 0.  1.
         -4    1    4    4    0  502  0.13785925660E+03 -0.24826939206E+03  0.88235223301E+01  0.28411392118E+03  0.00000000000E+00 0. -1.
</event>
<event>
 8    1  0.6759491E-006  0.1021925E+04  0.7818608E-02  0.8756941E-01
         21   -1    0    0  501  502  0.00000000000E+00  0.00000000000E+00  0.14047397344E+04  0.14047397344E+04  0.00000000000E+00 0. -1.
         21   -1    0    0  502  503 -0.00000000000E+00 -0.00000000000E+00 -0.75595242261E+03  0.75595242261E+03  0.00000000000E+00 0. -1.
    9000010    2    1    2  501    0  0.77853730572E+02 -0.22466846609E+03  0.50249966366E+03  0.11283502252E+04  0.98190182588E+03 0.  0.
   -9000010    2    1    2    0  503 -0.77853730572E+02  0.22466846609E+03  0.14628764816E+03  0.10323419319E+04  0.99387759067E+03 0.  0.
        -13    1    3    3    0    0 -0.17179916560E+03 -0.94236782205E+02 -0.25418245190E+03  0.32094275882E+03  0.10566000000E+00 0.  1.
         13    1    4    4    0    0 -0.42831893867E+03 -0.47913326242E+02 -0.19430123575E+03  0.47276398068E+03  0.10566000000E+00 0. -1.
          4    1    3    3  501    0  0.24965289617E+03 -0.13043168388E+03  0.75668211556E+03  0.80740746636E+03  0.00000000000E+00 0.  1.
         -4    1    4    4    0  503  0.35046520810E+03  0.27258179233E+03  0.34058888391E+03  0.55957795117E+03  0.00000000000E+00 0. -1.
</event>
<event>
 8    1  0.6759491E-006  0.1095447E+04  0.7818608E-02  0.8690503E-01
         21   -1    0    0  503  502  0.00000000000E+00  0.00000000000E+00  0.11881570470E+04  0.11881570470E+04  0.00000000000E+00 0. -1.
         21   -1    0    0  501  503 -0.00000000000E+00 -0.00000000000E+00 -0.13049960461E+04  0.13049960461E+04  0.00000000000E+00 0. -1.
    9000010    2    1    2  501    0 -0.37961504977E+03 -0.24967980430E+03 -0.65436742914E+03  0.12729313366E+04  0.99282922232E+03 0.  0.
   -9000010    2    1    2    0  502  0.37961504977E+03  0.24967980430E+03  0.53752843002E+03  0.12202217566E+04  0.99677315946E+03 0.  0.
        -13    1    3    3    0    0 -0.42911508356E+03  0.11572647624E+03  0.79622535167E+02  0.45152201664E+03  0.10566000000E+00 0.  1.
         13    1    4    4    0    0  0.19637562271E+03  0.45620019700E+03 -0.11663451645E+03  0.51018195433E+03  0.10566000000E+00 0. -1.
          4    1    3    3  501    0  0.49500033794E+02 -0.36540628054E+03 -0.73398996431E+03  0.82140931995E+03  0.00000000000E+00 0.  1.
         -4    1    4    4    0  502  0.18323942706E+03 -0.20652039269E+03  0.65416294646E+03  0.71003980223E+03  0.00000000000E+00 0. -1.
</event>
<event>
 8    1  0.6759491E-006  0.1070408E+04  0.7818608E-02  0.8712478E-01
         21   -1    0    0  503  502  0.00000000000E+00  0.00000000000E+00  0.26144867638E+04  0.26144867638E+04  0.00000000000E+00 0. -1.
         21   -1    0    0  501  503 -0.00000000000E+00 -0.00000000000E+00 -0.45052450446E+03  0.45052450446E+03  0.00000000000E+00 0. -1.
    9000010    2    1    2  501    0  0.22493809749E+02  0.35622754470E+03  0.80674611874E+03  0.13403779559E+04  0.10091430669E+04 0.  0.
   -9000010    2    1    2    0  502 -0.22493809749E+02 -0.35622754470E+03  0.13572161406E+04  0.17246333124E+04  0.10024571686E+04 0.  0.
        -13    1    3    3    0    0  0.32640107253E+03 -0.20368583360E+03  0.11858951149E+03  0.40260285935E+03  0.10566000000E+00 0.  1.
         13    1    4    4    0    0  0.15307249283E+03  0.15752205346E+03 -0.42135657505E+02  0.22365109028E+03  0.10566000000E+00 0. -1.
          4    1    3    3  501    0 -0.30390726278E+03  0.55991337830E+03  0.68815660725E+03  0.93777509652E+03  0.00000000000E+00 0.  1.
         -4    1    4    4    0  502 -0.17556630258E+03 -0.51374959815E+03  0.13993517981E+04  0.15009822221E+04  0.00000000000E+00 0. -1.
</event>
<event>
 8    1  0.6759491E-006  0.1059108E+04  0.7818608E-02  0.8725572E-01
         21   -1    0    0  503  502  0.00000000000E+00  0.00000000000E+00  0.10545402355E+04  0.10545402355E+04  0.00000000000E+00 0.  1.
         21   -1    0    0  501  503 -0.00000000000E+00 -0.00000000000E+00 -0.11734419581E+04  0.11734419581E+04  0.00000000000E+00 0.  1.
    9000010    2    1    2  501    0  0.25223009817E+03  0.22730063888E+03 -0.43158893432E+03  0.11436692471E+04  0.10032072247E+04 0.  0.
   -9000010    2    1    2    0  502 -0.25223009817E+03 -0.22730063888E+03  0.31268721171E+03  0.10843129465E+04  0.98116036951E+03 0.  0.
        -13    1    3    3    0    0  0.66863403485E+02  0.60737017850E+03 -0.37526100840E+03  0.71707048750E+03  0.10566000000E+00 0.  1.
         13    1    4    4    0    0  0.15752297026E+03 -0.45183907798E+03  0.38157177796E+03  0.61202048286E+03  0.10566000000E+00 0. -1.
          4    1    3    3  501    0  0.18536669469E+03 -0.38006953962E+03 -0.56327925917E+02  0.42659875959E+03  0.00000000000E+00 0.  1.
         -4    1    4    4    0  502 -0.40975306844E+03  0.22453843910E+03 -0.68884566250E+02  0.47229246362E+03  0.00000000000E+00 0. -1.
</event>
<event>
 8    1  0.6759491E-006  0.1019578E+04  0.7818608E-02  0.8762054E-01
         21   -1    0    0  501  502  0.00000000000E+00  0.00000000000E+00  0.19006762206E+04  0.19006762206E+04  0.00000000000E+00 0. -1.
         21   -1    0    0  502  503 -0.00000000000E+00 -0.00000000000E+00 -0.53459004998E+03  0.53459004998E+03  0.00000000000E+00 0. -1.
    9000010    2    1    2  501    0 -0.14749476555E+03  0.10490244831E+03  0.63375014618E+03  0.11799354332E+04  0.97869768023E+03 0.  0.
   -9000010    2    1    2    0  503  0.14749476555E+03 -0.10490244831E+03  0.73233602449E+03  0.12553308374E+04  0.10033843875E+04 0.  0.
        -13    1    3    3    0    0 -0.21435281930E+03  0.45641176147E+03  0.65583980213E+02  0.50848804979E+03  0.10566000000E+00 0.  1.
         13    1    4    4    0    0  0.71020560013E+02 -0.49799731541E+03  0.10942947996E+03  0.51480099878E+03  0.10566000000E+00 0. -1.
          4    1    3    3  501    0  0.66858053749E+02 -0.35150931316E+03  0.56816616596E+03  0.67144738345E+03  0.00000000000E+00 0.  1.
         -4    1    4    4    0  503  0.76474205536E+02  0.39309486710E+03  0.62290654452E+03  0.74052983860E+03  0.00000000000E+00 0. -1.
</event>
<event>
 8    1  0.6759491E-006  0.1064025E+04  0.7818608E-02  0.8727058E-01
         21   -1    0    0  501  502  0.00000000000E+00  0.00000000000E+00  0.94923503575E+03  0.94923503575E+03  0.00000000000E+00 0.  1.
         21   -1    0    0  502  503 -0.00000000000E+00 -0.00000000000E+00 -0.11602849135E+04  0.11602849135E+04  0.00000000000E+00 0.  1.
    9000010    2    1    2  501    0 -0.11688803473E+03  0.13735841664E+03  0.32728905181E+02  0.10179262865E+04  0.10012854719E+04 0.  0.
   -9000010    2    1    2    0  503  0.11688803473E+03 -0.13735841664E+03 -0.24377878296E+03  0.10915936628E+04  0.10486269510E+04 0.  0.
        -13    1    3    3    0    0 -0.34796585447E+03  0.11930926757E+03  0.42512999573E+03  0.56218365472E+03  0.10566000000E+00 0.  1.
         13    1    4    4    0    0  0.57683069968E+03 -0.28423766234E+02 -0.46468350652E+02  0.57939700151E+03  0.10566000000E+00 0. -1.
          4    1    3    3  501    0  0.23107781975E+03  0.18049149061E+02 -0.39240109055E+03  0.45574263178E+03  0.00000000000E+00 0.  1.
         -4    1    4    4    0  503 -0.45994266496E+03 -0.10893465040E+03 -0.19731043230E+03  0.51219666125E+03  0.00000000000E+00 0. -1.
</event>
<event>
 8    1  0.6759491E-006  0.1081239E+04  0.7818608E-02  0.8704100E-01
         21   -1    0    0  503  502  0.00000000000E+00  0.00000000000E+00  0.59018055194E+03  0.59018055194E+03  0.00000000000E+00 0. -1.
         21   -1    0    0  501  503 -0.00000000000E+00 -0.00000000000E+00 -0.23158459840E+04  0.23158459840E+04  0.00000000000E+00 0. -1.
    9000010    2    1    2  501    0 -0.36402421421E+03  0.19730862234E+03 -0.14277296704E+04  0.17844904740E+04  0.98719294931E+03 0.  0.
   -9000010    2    1    2    0  502  0.36402421421E+03 -0.19730862234E+03 -0.29793576168E+03  0.11215360619E+04  0.99881584845E+03 0.  0.
        -13    1    3    3    0    0 -0.53440110535E+03  0.37330134338E+03 -0.49055471508E+03  0.81583231979E+03  0.10566000000E+00 0.  1.
         13    1    4    4    0    0  0.38921764637E+03 -0.38406769198E+03 -0.57045760781E+03  0.79020267131E+03  0.10566000000E+00 0. -1.
          4    1    3    3  501    0  0.17037689113E+03 -0.17599272105E+03 -0.93717495529E+03  0.96865815421E+03  0.00000000000E+00 0.  1.
         -4    1    4    4    0  502 -0.25193432155E+02  0.18675906964E+03  0.27252184613E+03  0.33133339062E+03  0.00000000000E+00 0. -1.
</event>
<event>
 8    1  0.6759491E-006  0.1045680E+04  0.7818608E-02  0.8738477E-01
         21   -1    0    0  501  502  0.00000000000E+00  0.00000000000E+00  0.96047723973E+03  0.96047723973E+03  0.00000000000E+00 0.  1.
         21   -1    0    0  502  503 -0.00000000000E+00 -0.00000000000E+00 -0.11863805821E+04  0.11863805821E+04  0.00000000000E+00 0.  1.
    9000010    2    1    2  501    0 -0.31010233743E+03  0.69679590491E+02  0.15840894464E+03  0.10327921856E+04  0.96981833341E+03 0.  0.
   -9000010    2    1    2    0  503  0.31010233743E+03 -0.69679590491E+02 -0.38431228701E+03  0.11140656363E+04  0.99620660655E+03 0.  0.
        -13    1    3    3    0    0  0.10426196665E+03  0.47876318555E+02 -0.35476338634E+03  0.37285355171E+03  0.10566000000E+00 0.  1.
         13    1    4    4    0    0  0.23774968308E+03 -0.47077322621E+03  0.35959707821E+02  0.52862600586E+03  0.10566000000E+00 0. -1.
          4    1    3    3  501    0 -0.41436430408E+03  0.21803271936E+02  0.51317233099E+03  0.65993863386E+03  0.00000000000E+00 0.  1.
         -4    1    4    4    0  503  0.72352654349E+02  0.40109363572E+03 -0.42027199483E+03  0.58543963040E+03  0.00000000000E+00 0. -1.
</event>
<event>
 8    1  0.6759491E-006  0.1067015E+04  0.7818608E-02  0.8714845E-01
         21   -1    0    0  503  502  0.00000000000E+00  0.00000000000E+00  0.15242212244E+04  0.15242212244E+04  0.00000000000E+00 0. -1.
         21   -1    0    0  501  503 -0.00000000000E+00 -0.00000000000E+00 -0.12716684847E+04  0.12716684847E+04  0.00000000000E+00 0. -1.
    9000010    2    1    2  501    0 -0.14452610758E+01 -0.35438316744E+03 -0.77400336115E+03  0.13152349746E+04  0.10025828231E+04 0.  0.
   -9000010    2    1    2    0  502  0.14452610758E+01  0.35438316744E+03  0.10265561008E+04  0.14806547345E+04  0.10064449794E+04 0.  0.
        -13    1    3    3    0    0  0.18872818754E+02 -0.18786613046E+03  0.22985248265E+03  0.29745931017E+03  0.10566000000E+00 0.  1.
         13    1    4    4    0    0  0.40970557095E+03  0.81298087008E+02  0.96239938361E+02  0.42863757502E+03  0.10566000000E+00 0. -1.
          4    1    3    3  501    0 -0.20318079830E+02 -0.16651703698E+03 -0.10038558438E+04  0.10177756644E+04  0.00000000000E+00 0.  1.
         -4    1    4    4    0  502 -0.40826030988E+03  0.27308508043E+03  0.93031616247E+03  0.10520171595E+04  0.00000000000E+00 0. -1.
</event>
<event>
 8    1  0.6759491E-006  0.1083240E+04  0.7818608E-02  0.8708466E-01
         21   -1    0    0  501  502  0.00000000000E+00  0.00000000000E+00  0.11337766981E+04  0.11337766981E+04  0.00000000000E+00 0. -1.
         21   -1    0    0  502  503 -0.00000000000E+00 -0.00000000000E+00 -0.10432119277E+04  0.10432119277E+04  0.00000000000E+00 0. -1.
    9000010    2    1    2  501    0  0.38148200466E+03  0.15595951076E+03  0.26993777430E+03  0.10789981153E+04  0.95995762514E+03 0.  0.
   -9000010    2    1    2    0  503 -0.38148200466E+03 -0.15595951076E+03 -0.17937300391E+03  0.10979905104E+04  0.10017767204E+04 0.  0.
        -13    1    3    3    0    0  0.61406382609E+03 -0.16894361641E+03  0.99541917594E+02  0.64461223426E+03  0.10566000000E+00 0.  1.
         13    1    4    4    0    0  0.14415636127E+03 -0.80064443712E+02  0.32571142341E+03  0.36507439536E+03  0.10566000000E+00 0. -1.
          4    1    3    3  501    0 -0.23258182143E+03  0.32490312717E+03  0.17039585671E+03  0.43438588109E+03  0.00000000000E+00 0.  1.
         -4    1    4    4    0  503 -0.52563836593E+03 -0.75895067046E+02 -0.50508442733E+03  0.73291611502E+03  0.00000000000E+00 0. -1.
</event>
<event>
 8    1  0.6759491E-006  0.1030213E+04  0.7818608E-02  0.8753955E-01
         21   -1    0    0  503  502  0.00000000000E+00  0.00000000000E+00  0.64728632265E+03  0.64728632265E+03  0.00000000000E+00 0.  1.
         21   -1    0    0  501  503 -0.00000000000E+00 -0.00000000000E+00 -0.16007365203E+04  0.16007365203E+04  0.00000000000E+00 0.  1.
    9000010    2    1    2  501    0  0.39173216404E+02 -0.50999777142E+02 -0.57614512512E+03  0.11803740939E+04  0.10282043952E+04 0.  0.
   -9000010    2    1    2    0  502 -0.39173216404E+02  0.50999777142E+02 -0.37730507257E+03  0.10676487491E+04  0.99668411016E+03 0.  0.
        -13    1    3    3    0    0  0.13316000683E+03 -0.34982404839E+03 -0.73820486799E+03  0.82768042779E+03  0.10566000000E+00 0.  1.
         13    1    4    4    0    0  0.54111143197E+02 -0.32506474370E+03  0.19020072793E+03  0.38048841176E+03  0.10566000000E+00 0. -1.
          4    1    3    3  501    0 -0.93986790430E+02  0.29882427125E+03  0.16205974287E+03  0.35269366612E+03  0.00000000000E+00 0.  1.
         -4    1    4    4    0  502 -0.93284359601E+02  0.37606452084E+03 -0.56750580050E+03  0.68716033731E+03  0.00000000000E+00 0. -1.
</event>
<event>
 8    1  0.7308672E-006  0.1013206E+04  0.7818608E-02  0.8774722E-01
         21   -1    0    0  501  502  0.00000000000E+00  0.00000000000E+00  0.17169246932E+04  0.17169246932E+04  0.00000000000E+00 0.  1.
         21   -1    0    0  502  503 -0.00000000000E+00 -0.00000000000E+00 -0.83656384711E+03  0.83656384711E+03  0.00000000000E+00 0.  1.
    9000010    2    1    2  501    0  0.14863819269E+03  0.11553515866E+03  0.11720804014E+04  0.15493094604E+04  0.99556298220E+03 0.  0.
   -9000010    2    1    2    0  503 -0.14863819269E+03 -0.11553515866E+03 -0.29171955533E+03  0.10041790799E+04  0.94224924532E+03 0.  0.
        -13    1    3    3    0    0 -0.49336599712E+01  0.41879413483E+03  0.10838703779E+03  0.43262065310E+03  0.10566000000E+00 0.  1.
         13    1    4    4    0    0  0.56548372640E+02 -0.24826374205E+03 -0.57572024192E+03  0.62951283718E+03  0.10566000000E+00 0. -1.
          4    1    3    3  501    0  0.15357185266E+03 -0.30325897617E+03  0.10636933636E+04  0.11166888073E+04  0.00000000000E+00 0.  1.
         -4    1    4    4    0  503 -0.20518656533E+03  0.13272858339E+03  0.28400068658E+03  0.37466624270E+03  0.00000000000E+00 0. -1.
</event>
<event>
 8    1  0.6759491E-006  0.1161267E+04  0.7818608E-02  0.8637415E-01
         21   -1    0    0  503  502  0.00000000000E+00  0.00000000000E+00  0.15398968014E+04  0.15398968014E+04  0.00000000000E+00 0. -1.
         21   -1    0    0  501  503 -0.00000000000E+00 -0.00000000000E+00 -0.91953894056E+03  0.91953894056E+03  0.00000000000E+00 0. -1.
    9000010    2    1    2  501    0  0.58168297365E+03 -0.10860866629E+03  0.29856797397E+02  0.11616510486E+04  0.99919507916E+03 0.  0.
   -9000010    2    1    2    0  502 -0.58168297365E+03  0.10860866629E+03  0.59050106340E+03  0.12977846933E+04  0.99267450861E+03 0.  0.
        -13    1    3    3    0    0  0.25194512600E+03 -0.51947620481E+03 -0.16417127330E+03  0.60023669666E+03  0.10566000000E+00 0.  1.
         13    1    4    4    0    0 -0.62894222458E+03  0.43821684138E+03  0.21546176071E+03  0.79625756098E+03  0.10566000000E+00 0. -1.
          4    1    3    3  501    0  0.32973784765E+03  0.41086753852E+03  0.19402807069E+03  0.56141435197E+03  0.00000000000E+00 0.  1.
         -4    1    4    4    0  502  0.47259250930E+02 -0.32960817509E+03  0.37503930268E+03  0.50152713231E+03  0.00000000000E+00 0. -1.
</event>
<event>
 8    1  0.6759491E-006  0.1007792E+04  0.7818608E-02  0.8771000E-01
         21   -1    0    0  503  502  0.00000000000E+00  0.00000000000E+00  0.93242286006E+03  0.93242286006E+03  0.00000000000E+00 0.  1.
         21   -1    0    0  501  503 -0.00000000000E+00 -0.00000000000E+00 -0.11238002469E+04  0.11238002469E+04  0.00000000000E+00 0.  1.
    9000010    2    1    2  501    0  0.12277640269E+03 -0.79600878418E+02  0.12511899287E+03  0.99990172201E+03  0.98119230857E+03 0.  0.
   -9000010    2    1    2    0  502 -0.12277640269E+03  0.79600878418E+02 -0.31649637968E+03  0.10563213849E+04  0.99711311546E+03 0.  0.
        -13    1    3    3    0    0  0.53210487390E+03 -0.81865970374E+02 -0.76212984029E+02  0.54373344943E+03  0.10566000000E+00 0.  1.
         13    1    4    4    0    0  0.39561825175E+03  0.23950202687E+03 -0.10628620483E+03  0.47452269755E+03  0.10566000000E+00 0. -1.
          4    1    3    3  501    0 -0.40932847121E+03  0.22650919562E+01  0.20133197690E+03  0.45616827257E+03  0.00000000000E+00 0.  1.
         -4    1    4    4    0  502 -0.51839465444E+03 -0.15990114845E+03 -0.21021017486E+03  0.58179868739E+03  0.00000000000E+00 0. -1.
</event>
<event>
 8    1  0.6759491E-006  0.1173565E+04  0.7818608E-02  0.8628882E-01
         21   -1    0    0  501  502  0.00000000000E+00  0.00000000000E+00  0.15474746811E+04  0.15474746811E+04  0.00000000000E+00 0.  1.
         21   -1    0    0  502  503 -0.00000000000E+00 -0.00000000000E+00 -0.10046101755E+04  0.10046101755E+04  0.00000000000E+00 0.  1.
    9000010    2    1    2  501    0  0.15622160542E+03 -0.58825141480E+03 -0.17609354215E+03  0.11758016868E+04  0.99048258649E+03 0.  0.
   -9000010    2    1    2    0  503 -0.15622160542E+03  0.58825141480E+03  0.71895804772E+03  0.13762831698E+04  0.10033991091E+04 0.  0.
        -13    1    3    3    0    0  0.25633677782E+03  0.22353883519E+03 -0.49638848772E+01  0.34015115143E+03  0.10566000000E+00 0.  1.
         13    1    4    4    0    0 -0.49989156984E+03  0.37550288528E+03  0.94336935469E+02  0.63229223229E+03  0.10566000000E+00 0. -1.
          4    1    3    3  501    0 -0.10011517239E+03 -0.81179024999E+03 -0.17112965728E+03  0.83565053540E+03  0.00000000000E+00 0.  1.
         -4    1    4    4    0  503  0.34366996442E+03  0.21274852952E+03  0.62462111225E+03  0.74399093753E+03  0.00000000000E+00 0. -1.
</event>
<event>
 8    1  0.6759491E-006  0.1021583E+04  0.7818608E-02  0.8755669E-01
         21   -1    0    0  501  502  0.00000000000E+00  0.00000000000E+00  0.19116631778E+04  0.19116631778E+04  0.00000000000E+00 0.  1.
         21   -1    0    0  502  503 -0.00000000000E+00 -0.00000000000E+00 -0.71604839537E+03  0.71604839537E+03  0.00000000000E+00 0.  1.
    9000010    2    1    2  501    0 -0.11666265700E+03  0.12550042902E+03 -0.48440631722E+02  0.10179583870E+04  0.10022635630E+04 0.  0.
   -9000010    2    1    2    0  503  0.11666265700E+03 -0.12550042902E+03  0.12440554142E+04  0.16097531862E+04  0.10071101795E+04 0.  0.
        -13    1    3    3    0    0 -0.41331348386E+03  0.18910797490E+03 -0.36243578648E+03  0.58133430364E+03  0.10566000000E+00 0.  1.
         13    1    4    4    0    0  0.12454086741E+03 -0.36441703178E+03  0.45728641044E+02  0.38781609105E+03  0.10566000000E+00 0. -1.
          4    1    3    3  501    0  0.29665082685E+03 -0.63607545870E+02  0.31399515476E+03  0.43662408337E+03  0.00000000000E+00 0.  1.
         -4    1    4    4    0  503 -0.78782104062E+01  0.23891660275E+03  0.11983267731E+04  0.12219370951E+04  0.00000000000E+00 0. -1.
</event>
<event>
 8    1  0.6759491E-006  0.1031036E+04  0.7818608E-02  0.8746879E-01
         21   -1    0    0  501  502  0.00000000000E+00  0.00000000000E+00  0.11326631912E+04  0.11326631912E+04  0.00000000000E+00 0. -1.
         21   -1    0    0  502  503 -0.00000000000E+00 -0.00000000000E+00 -0.11457265909E+04  0.11457265909E+04  0.00000000000E+00 0. -1.
    9000010    2    1    2  501    0  0.11849852718E+03 -0.18608197314E+03  0.48217339246E+03  0.11382115513E+04  0.10071573628E+04 0.  0.
   -9000010    2    1    2    0  503 -0.11849852718E+03  0.18608197314E+03 -0.49523679215E+03  0.11401782308E+04  0.10030346534E+04 0.  0.
        -13    1    3    3    0    0  0.45534746226E+03 -0.18580901174E+03  0.60499454994E+03  0.77966962032E+03  0.10566000000E+00 0.  1.
         13    1    4    4    0    0  0.14287179698E+03  0.11322612021E+01  0.27286700075E+03  0.30800981096E+03  0.10566000000E+00 0. -1.
          4    1    3    3  501    0 -0.33684893508E+03 -0.27296140283E+00 -0.12282115748E+03  0.35854193101E+03  0.00000000000E+00 0.  1.
         -4    1    4    4    0  503 -0.26137032416E+03  0.18494971194E+03 -0.76810379290E+03  0.83216841983E+03  0.00000000000E+00 0. -1.
</event>
<event>
 8    1  0.6759491E-006  0.1010268E+04  0.7818608E-02  0.8765413E-01
         21   -1    0    0  501  502  0.00000000000E+00  0.00000000000E+00  0.10017698048E+04  0.10017698048E+04  0.00000000000E+00 0.  1.
         21   -1    0    0  502  503 -0.00000000000E+00 -0.00000000000E+00 -0.11981247907E+04  0.11981247907E+04  0.00000000000E+00 0.  1.
    9000010    2    1    2  501    0 -0.64542525138E+02 -0.10764615251E+00  0.32949694113E+03  0.10609642122E+04  0.10064348346E+04 0.  0.
   -9000010    2    1    2    0  503  0.64542525138E+02  0.10764615251E+00 -0.52585192703E+03  0.11389303832E+04  0.10082045524E+04 0.  0.
        -13    1    3    3    0    0 -0.78950391139E+02  0.46705015025E+03  0.35644414118E+03  0.59280810053E+03  0.10566000000E+00 0.  1.
         13    1    4    4    0    0  0.33935336601E+03 -0.38664421336E+03 -0.15667842248E+03  0.53777559816E+03  0.10566000000E+00 0. -1.
          4    1    3    3  501    0  0.14407866001E+02 -0.46715779640E+03 -0.26947200056E+02  0.46815611171E+03  0.00000000000E+00 0.  1.
         -4    1    4    4    0  503 -0.27481084087E+03  0.38675185952E+03 -0.36917350455E+03  0.60115478502E+03  0.00000000000E+00 0. -1.
</event>
<event>
 8    1  0.6759491E-006  0.1181274E+04  0.7818608E-02  0.8622943E-01
         21   -1    0    0  501  502  0.00000000000E+00  0.00000000000E+00  0.12430287879E+04  0.12430287879E+04  0.00000000000E+00 0. -1.
         21   -1    0    0  502  503 -0.00000000000E+00 -0.00000000000E+00 -0.12723888465E+04  0.12723888465E+04  0.00000000000E+00 0. -1.
    9000010    2    1    2  501    0  0.27695344404E+03 -0.53987120594E+03  0.43185109547E+03  0.12472993645E+04  0.10005479533E+04 0.  0.
   -9000010    2    1    2    0  503 -0.27695344404E+03  0.53987120594E+03 -0.46121115404E+03  0.12681182699E+04  0.10135305070E+04 0.  0.
        -13    1    3    3    0    0 -0.25888916580E+03 -0.13172592872E+03  0.49167416866E+03  0.57106813933E+03  0.10566000000E+00 0.  1.
         13    1    4    4    0    0 -0.63377043699E+03  0.44355204112E+03 -0.45706716471E+03  0.89850641857E+03  0.10566000000E+00 0. -1.
          4    1    3    3  501    0  0.53584260985E+03 -0.40814527722E+03 -0.59823073187E+02  0.67623122520E+03  0.00000000000E+00 0.  1.
         -4    1    4    4    0  503  0.35681699295E+03  0.96319164818E+02 -0.41439893330E+01  0.36961185129E+03  0.00000000000E+00 0. -1.
</event>
<event>
 8    1  0.6759491E-006  0.1054032E+04  0.7818608E-02  0.8729724E-01
         21   -1    0    0  501  502  0.00000000000E+00  0.00000000000E+00  0.16130941083E+04  0.16130941083E+04  0.00000000000E+00 0. -1.
         21   -1    0    0  502  503 -0.00000000000E+00 -0.00000000000E+00 -0.84662013696E+03  0.84662013696E+03  0.00000000000E+00 0. -1.
    9000010    2    1    2  501    0 -0.22056558029E+03  0.16176368954E+03  0.93793596069E+03  0.14109239614E+04  0.10179223409E+04 0.  0.
   -9000010    2    1    2    0  503  0.22056558029E+03 -0.16176368954E+03 -0.17146198934E+03  0.10487902839E+04  0.99787032187E+03 0.  0.
        -13    1    3    3    0    0  0.39633875306E+03  0.81586624830E+00  0.49729460191E+03  0.63591430639E+03  0.10566000000E+00 0.  1.
         13    1    4    4    0    0  0.43243535563E+03  0.21241764325E+03  0.15805209970E+03  0.50705233394E+03  0.10566000000E+00 0. -1.
          4    1    3    3  501    0 -0.61690433335E+03  0.16094782329E+03  0.44064135878E+03  0.77500965503E+03  0.00000000000E+00 0.  1.
         -4    1    4    4    0  503 -0.21186977534E+03 -0.37418133279E+03 -0.32951408904E+03  0.54173794992E+03  0.00000000000E+00 0. -1.
</event>
<event>
 8    1  0.6759491E-006  0.1037853E+04  0.7818608E-02  0.8752068E-01
         21   -1    0    0  503  502  0.00000000000E+00  0.00000000000E+00  0.72461413236E+03  0.72461413236E+03  0.00000000000E+00 0.  1.
         21   -1    0    0  501  503 -0.00000000000E+00 -0.00000000000E+00 -0.24643088441E+04  0.24643088441E+04  0.00000000000E+00 0.  1.
    9000010    2    1    2  501    0  0.12184232074E+03  0.82925991869E+02 -0.19249115528E+04  0.21868754016E+04  0.10273350303E+04 0.  0.
   -9000010    2    1    2    0  502 -0.12184232074E+03 -0.82925991869E+02  0.18521684115E+03  0.10020475748E+04  0.97368978261E+03 0.  0.
        -13    1    3    3    0    0  0.10350504433E+03  0.40788478593E+03 -0.17826884256E+04  0.18316826490E+04  0.10566000000E+00 0.  1.
         13    1    4    4    0    0 -0.50549911057E+03  0.93090899731E+02  0.25571243748E+03  0.57409418064E+03  0.10566000000E+00 0. -1.
          4    1    3    3  501    0  0.18337276414E+02 -0.32495879406E+03 -0.14222312726E+03  0.35519275256E+03  0.00000000000E+00 0.  1.
         -4    1    4    4    0  502  0.38365678983E+03 -0.17601689160E+03 -0.70495596334E+02  0.42795339421E+03  0.00000000000E+00 0. -1.
</event>
<event>
 8    1  0.6759491E-006  0.1016807E+04  0.7818608E-02  0.8759168E-01
         21   -1    0    0  501  502  0.00000000000E+00  0.00000000000E+00  0.11059453419E+04  0.11059453419E+04  0.00000000000E+00 0. -1.
         21   -1    0    0  502  503 -0.00000000000E+00 -0.00000000000E+00 -0.10504465486E+04  0.10504465486E+04  0.00000000000E+00 0. -1.
    9000010    2    1    2  501    0  0.11226604690E+03  0.75032300733E+02  0.38671724114E+03  0.10878637471E+04  0.10078014666E+04 0.  0.
   -9000010    2    1    2    0  503 -0.11226604690E+03 -0.75032300733E+02 -0.33121844789E+03  0.10685281434E+04  0.10068829235E+04 0.  0.
        -13    1    3    3    0    0 -0.14109829860E+03 -0.28759891187E+03  0.53305973667E+03  0.62191201790E+03  0.10566000000E+00 0.  1.
         13    1    4    4    0    0  0.42023570861E-01  0.43391760772E+03  0.29127169711E+02  0.43489411957E+03  0.10566000000E+00 0. -1.
          4    1    3    3  501    0  0.25336434550E+03  0.36263121260E+03 -0.14634249553E+03  0.46595172918E+03  0.00000000000E+00 0.  1.
         -4    1    4    4    0  503 -0.11230807047E+03 -0.50894990846E+03 -0.36034561760E+03  0.63363402381E+03  0.00000000000E+00 0. -1.
</event>
<event>
 8    1  0.6759491E-006  0.1073468E+04  0.7818608E-02  0.8709818E-01
         21   -1    0    0  501  502  0.00000000000E+00  0.00000000000E+00  0.12942143897E+04  0.12942143897E+04  0.00000000000E+00 0. -1.
         21   -1    0    0  502  503 -0.00000000000E+00 -0.00000000000E+00 -0.89928774478E+03  0.89928774478E+03  0.00000000000E+00 0. -1.
    9000010    2    1    2  501    0 -0.79946609886E+01 -0.37955548578E+03  0.33417300045E+03  0.11183162206E+04  0.99741330128E+03 0.  0.
   -9000010    2    1    2    0  503  0.79946609886E+01  0.37955548578E+03  0.60753644429E+02  0.10751859139E+04  0.10040953454E+04 0.  0.
        -13    1    3    3    0    0  0.13826024284E+03  0.98689212639E+02  0.54851085871E+03  0.57421218093E+03  0.10566000000E+00 0.  1.
         13    1    4    4    0    0  0.36446550679E+03  0.17166987956E+03 -0.31939134445E+03  0.51411719993E+03  0.10566000000E+00 0. -1.
          4    1    3    3  501    0 -0.14625490383E+03 -0.47824469842E+03 -0.21433785827E+03  0.54410403964E+03  0.00000000000E+00 0.  1.
         -4    1    4    4    0  503 -0.35647084580E+03  0.20788560622E+03  0.38014498887E+03  0.56106871393E+03  0.00000000000E+00 0. -1.
</event>
<event>
 8    1  0.6759491E-006  0.1026747E+04  0.7818608E-02  0.8750677E-01
         21   -1    0    0  503  502  0.00000000000E+00  0.00000000000E+00  0.17975005374E+04  0.17975005374E+04  0.00000000000E+00 0.  1.
         21   -1    0    0  501  503 -0.00000000000E+00 -0.00000000000E+00 -0.17059155253E+04  0.17059155253E+04  0.00000000000E+00 0.  1.
    9000010    2    1    2  501    0 -0.23845349015E+03 -0.86115192811E+02 -0.13745278670E+04  0.17135289814E+04  0.99125113845E+03 0.  0.
   -9000010    2    1    2    0  502  0.23845349015E+03  0.86115192811E+02  0.14661128792E+04  0.17898870812E+04  0.99495371535E+03 0.  0.
        -13    1    3    3    0    0 -0.43677179489E+02 -0.51350035970E+03 -0.94828155366E+03  0.10792720841E+04  0.10566000000E+00 0.  1.
         13    1    4    4    0    0 -0.72634675561E+01  0.52430986765E+03  0.74762211298E+03  0.91317710783E+03  0.10566000000E+00 0. -1.
          4    1    3    3  501    0 -0.19477631066E+03  0.42738516689E+03 -0.42624631338E+03  0.63425689728E+03  0.00000000000E+00 0.  1.
         -4    1    4    4    0  502  0.24571695770E+03 -0.43819467484E+03  0.71849076619E+03  0.87670997340E+03  0.00000000000E+00 0. -1.
</event>
<event>
 8    1  0.6759491E-006  0.1020234E+04  0.7818608E-02  0.8757465E-01
         21   -1    0    0  501  502  0.00000000000E+00  0.00000000000E+00  0.10034944839E+04  0.10034944839E+04  0.00000000000E+00 0. -1.
         21   -1    0    0  502  503 -0.00000000000E+00 -0.00000000000E+00 -0.11014689672E+04  0.11014689672E+04  0.00000000000E+00 0. -1.
    9000010    2    1    2  501    0 -0.19460518570E+03  0.65742516139E+02  0.21903540768E+03  0.10434819764E+04  0.99934221789E+03 0.  0.
   -9000010    2    1    2    0  503  0.19460518570E+03 -0.65742516139E+02 -0.31700989093E+03  0.10614814748E+04  0.99199515805E+03 0.  0.
        -13    1    3    3    0    0 -0.44617290126E+03  0.13955750703E+03 -0.23191863981E+03  0.52185517363E+03  0.10566000000E+00 0.  1.
         13    1    4    4    0    0 -0.16531858627E+03  0.30855841045E+03  0.13287749997E+03  0.37442618604E+03  0.10566000000E+00 0. -1.
          4    1    3    3  501    0  0.25156771556E+03 -0.73814990890E+02  0.45095404749E+03  0.52162680274E+03  0.00000000000E+00 0.  1.
         -4    1    4    4    0  503  0.35992377198E+03 -0.37430092659E+03 -0.44988739090E+03  0.68705528873E+03  0.00000000000E+00 0. -1.
</event>
<event>
 8    1  0.6759491E-006  0.1054408E+04  0.7818608E-02  0.8725675E-01
         21   -1    0    0  501  502  0.00000000000E+00  0.00000000000E+00  0.86582723784E+03  0.86582723784E+03  0.00000000000E+00 0. -1.
         21   -1    0    0  502  503 -0.00000000000E+00 -0.00000000000E+00 -0.16795003554E+04  0.16795003554E+04  0.00000000000E+00 0. -1.
    9000010    2    1    2  501    0  0.10245932215E+03  0.30585410145E+03  0.21363447324E+03  0.10732077508E+04  0.10010447264E+04 0.  0.
   -9000010    2    1    2    0  503 -0.10245932215E+03 -0.30585410145E+03 -0.10273075908E+04  0.14721198425E+04  0.10038582072E+04 0.  0.
        -13    1    3    3    0    0  0.21420853609E+02 -0.34868214747E+03  0.22147111335E+03  0.41362731794E+03  0.10566000000E+00 0.  1.
         13    1    4    4    0    0 -0.31388813828E+03  0.26382468128E+03 -0.60989642705E+03  0.73491692639E+03  0.10566000000E+00 0. -1.
          4    1    3    3  501    0  0.81038468540E+02  0.65453624891E+03 -0.78366401083E+01  0.65958043289E+03  0.00000000000E+00 0.  1.
         -4    1    4    4    0  503  0.21142881613E+03 -0.56967878273E+03 -0.41741116380E+03  0.73720291606E+03  0.00000000000E+00 0. -1.
</event>
<event>
 8    1  0.6759491E-006  0.1122511E+04  0.7818608E-02  0.8671040E-01
         21   -1    0    0  501  502  0.00000000000E+00  0.00000000000E+00  0.12428857212E+04  0.12428857212E+04  0.00000000000E+00 0.  1.
         21   -1    0    0  502  503 -0.00000000000E+00 -0.00000000000E+00 -0.15350039929E+04  0.15350039929E+04  0.00000000000E+00 0.  1.
    9000010    2    1    2  501    0  0.40247519465E+03 -0.26794161331E+03  0.67657995492E+03  0.12951869658E+04  0.99296014551E+03 0.  0.
   -9000010    2    1    2    0  503 -0.40247519465E+03  0.26794161331E+03 -0.96869822661E+03  0.14827027484E+04  0.10130410630E+04 0.  0.
        -13    1    3    3    0    0 -0.58985777606E+02  0.18304424229E+03  0.61807167299E+03  0.64729986923E+03  0.10566000000E+00 0.  1.
         13    1    4    4    0    0 -0.10013922272E+03  0.63727886265E+03 -0.56703637974E+03  0.85888443915E+03  0.10566000000E+00 0. -1.
          4    1    3    3  501    0  0.46146097226E+03 -0.45098585560E+03  0.58508281935E+02  0.64788709659E+03  0.00000000000E+00 0.  1.
         -4    1    4    4    0  503 -0.30233597193E+03 -0.36933724934E+03 -0.40166184687E+03  0.62381830921E+03  0.00000000000E+00 0. -1.
</event>
<event>
 8    1  0.6759491E-006  0.1158133E+04  0.7818608E-02  0.8639073E-01
         21   -1    0    0  503  502  0.00000000000E+00  0.00000000000E+00  0.10012800014E+04  0.10012800014E+04  0.00000000000E+00 0. -1.
         21   -1    0    0  501  503 -0.00000000000E+00 -0.00000000000E+00 -0.22283245569E+04  0.22283245569E+04  0.00000000000E+00 0.  1.
    9000010    2    1    2  501    0  0.15797050556E+03 -0.57510787774E+03 -0.16345917678E+04  0.20032878743E+04  0.99275793035E+03 0.  0.
   -9000010    2    1    2    0  502 -0.15797050556E+03  0.57510787774E+03  0.40754721233E+03  0.12263166840E+04  0.99098644162E+03 0.  0.
        -13    1    3    3    0    0  0.31563554469E+03 -0.81048652998E+03 -0.13099404625E+04  0.15724052400E+04  0.10566000000E+00 0.  1.
         13    1    4    4    0    0 -0.34265691603E+03 -0.14533839232E+03  0.29323908021E+03  0.47384193536E+03  0.10566000000E+00 0. -1.
          4    1    3    3  501    0 -0.15766503913E+03  0.23537865224E+03 -0.32465130530E+03  0.43088263429E+03  0.00000000000E+00 0.  1.
         -4    1    4    4    0  502  0.18468641046E+03  0.72044627005E+03  0.11430813212E+03  0.75247474862E+03  0.00000000000E+00 0. -1.
</event>
<event>
 8    1  0.6759491E-006  0.9243739E+03  0.7818608E-02  0.8881989E-01
         21   -1    0    0  503  502  0.00000000000E+00  0.00000000000E+00  0.22221980394E+03  0.22221980394E+03  0.00000000000E+00 0. -1.
         21   -1    0    0  501  503 -0.00000000000E+00 -0.00000000000E+00 -0.34510457185E+04  0.34510457185E+04  0.00000000000E+00 0. -1.
    9000010    2    1    2  501    0 -0.13549252870E+03  0.25915440158E+02 -0.20069702428E+04  0.22096145873E+04  0.91402255623E+03 0.  0.
   -9000010    2    1    2    0  502  0.13549252870E+03 -0.25915440158E+02 -0.12218556718E+04  0.14636509352E+04  0.79392250386E+03 0.  0.
        -13    1    3    3    0    0 -0.32596088408E+03  0.18376135925E+03 -0.28604097622E+03  0.47099701309E+03  0.10566000000E+00 0.  1.
         13    1    4    4    0    0  0.39692544353E+02  0.37909668181E+03 -0.47898424483E+03  0.61214027004E+03  0.10566000000E+00 0. -1.
          4    1    3    3  501    0  0.19046835538E+03 -0.15784591909E+03 -0.17209292666E+04  0.17386175742E+04  0.00000000000E+00 0.  1.
         -4    1    4    4    0  502  0.95799984349E+02 -0.40501212197E+03 -0.74287142693E+03  0.85151066517E+03  0.00000000000E+00 0. -1.
</event>
<event>
 8    1  0.6759491E-006  0.1154384E+04  0.7818608E-02  0.8657071E-01
         21   -1    0    0  501  502  0.00000000000E+00  0.00000000000E+00  0.13372030470E+04  0.13372030470E+04  0.00000000000E+00 0. -1.
         21   -1    0    0  502  503 -0.00000000000E+00 -0.00000000000E+00 -0.11515583256E+04  0.11515583256E+04  0.00000000000E+00 0. -1.
    9000010    2    1    2  501    0  0.44410002120E+03  0.16088190549E+03  0.63745633970E+03  0.13186934143E+04  0.10533251727E+04 0.  0.
   -9000010    2    1    2    0  503 -0.44410002120E+03 -0.16088190549E+03 -0.45181161831E+03  0.11700679584E+04  0.97047280869E+03 0.  0.
        -13    1    3    3    0    0  0.54241170114E+03 -0.33680667122E+03  0.43450444869E+03  0.77229742613E+03  0.10566000000E+00 0.  1.
         13    1    4    4    0    0 -0.55746622290E+03  0.27627146273E+03 -0.31984552176E+03  0.69956820951E+03  0.10566000000E+00 0. -1.
          4    1    3    3  501    0 -0.98311679941E+02  0.49768857671E+03  0.20295189101E+03  0.54639598815E+03  0.00000000000E+00 0.  1.
         -4    1    4    4    0  503  0.11336620171E+03 -0.43715336822E+03 -0.13196609655E+03  0.47049974886E+03  0.00000000000E+00 0. -1.
</event>
<event>
 8    1  0.6759491E-006  0.1043507E+04  0.7818608E-02  0.8734980E-01
         21   -1    0    0  501  502  0.00000000000E+00  0.00000000000E+00  0.84159246289E+03  0.84159246289E+03  0.00000000000E+00 0. -1.
         21   -1    0    0  502  503 -0.00000000000E+00 -0.00000000000E+00 -0.14101761758E+04  0.14101761758E+04  0.00000000000E+00 0. -1.
    9000010    2    1    2  501    0  0.29507631486E+03  0.12600752757E+03  0.40926463313E+02  0.10432943501E+04  0.99188718962E+03 0.  0.
   -9000010    2    1    2    0  503 -0.29507631486E+03 -0.12600752757E+03 -0.60951017622E+03  0.12084742886E+04  0.99295494495E+03 0.  0.
        -13    1    3    3    0    0 -0.38693506803E+02  0.19120700237E+03  0.46231835930E+03  0.50179236914E+03  0.10566000000E+00 0.  1.
         13    1    4    4    0    0  0.11673355125E+02  0.37019809353E+03 -0.48791395156E+03  0.61257075588E+03  0.10566000000E+00 0. -1.
          4    1    3    3  501    0  0.33376982167E+03 -0.65199474796E+02 -0.42139189599E+03  0.54150198095E+03  0.00000000000E+00 0.  1.
         -4    1    4    4    0  503 -0.30674966999E+03 -0.49620562110E+03 -0.12159622466E+03  0.59590353271E+03  0.00000000000E+00 0. -1.
</event>
<event>
 8    1  0.6759491E-006  0.1084716E+04  0.7818608E-02  0.8699862E-01
         21   -1    0    0  501  502  0.00000000000E+00  0.00000000000E+00  0.94449439841E+03  0.94449439841E+03  0.00000000000E+00 0.  1.
         21   -1    0    0  502  503 -0.00000000000E+00 -0.00000000000E+00 -0.18447829455E+04  0.18447829455E+04  0.00000000000E+00 0.  1.
    9000010    2    1    2  501    0  0.37161472870E+03  0.17420314969E+03  0.34756942203E+03  0.11390401686E+04  0.10040735823E+04 0.  0.
   -9000010    2    1    2    0  503 -0.37161472870E+03 -0.17420314969E+03 -0.12478579691E+04  0.16502371753E+04  0.99884382146E+03 0.  0.
        -13    1    3    3    0    0  0.58810929941E+03 -0.18915674454E+03  0.36162798006E+03  0.71584050541E+03  0.10566000000E+00 0.  1.
         13    1    4    4    0    0  0.45538608148E+02 -0.50379448756E+03 -0.83843626999E+03  0.97921296995E+03  0.10566000000E+00 0. -1.
          4    1    3    3  501    0 -0.21649457072E+03  0.36335989423E+03 -0.14058558038E+02  0.42319966321E+03  0.00000000000E+00 0.  1.
         -4    1    4    4    0  503 -0.41715333685E+03  0.32959133786E+03 -0.40942169913E+03  0.67102420534E+03  0.00000000000E+00 0. -1.
</event>
<event>
 8    1  0.6759491E-006  0.1148479E+04  0.7818608E-02  0.8670349E-01
         21   -1    0    0  503  502  0.00000000000E+00  0.00000000000E+00  0.19894314883E+04  0.19894314883E+04  0.00000000000E+00 0. -1.
         21   -1    0    0  501  503 -0.00000000000E+00 -0.00000000000E+00 -0.62275107347E+03  0.62275107347E+03  0.00000000000E+00 0. -1.
    9000010    2    1    2  501    0 -0.16357698068E+03  0.18564697062E+03  0.39278563337E+03  0.11063686469E+04  0.10042653050E+04 0.  0.
   -9000010    2    1    2    0  502  0.16357698068E+03 -0.18564697062E+03  0.97389478143E+03  0.15058139148E+04  0.11215089275E+04 0.  0.
        -13    1    3    3    0    0 -0.57188817197E+03  0.93295821918E+01  0.11935091733E+03  0.58428398487E+03  0.10566000000E+00 0.  1.
         13    1    4    4    0    0 -0.35686550845E+03 -0.28834116761E+03  0.79062154898E+02  0.46555821930E+03  0.10566000000E+00 0. -1.
          4    1    3    3  501    0  0.40831119129E+03  0.17631738843E+03  0.27343471604E+03  0.52208466204E+03  0.00000000000E+00 0.  1.
         -4    1    4    4    0  502  0.52044248913E+03  0.10269419699E+03  0.89483262653E+03  0.10402556955E+04  0.00000000000E+00 0. -1.
</event>
<event>
 8    1  0.6759491E-006  0.1005164E+04  0.7818608E-02  0.8771194E-01
         21   -1    0    0  503  502  0.00000000000E+00  0.00000000000E+00  0.15233383597E+04  0.15233383597E+04  0.00000000000E+00 0.  1.
         21   -1    0    0  501  503 -0.00000000000E+00 -0.00000000000E+00 -0.66504829092E+03  0.66504829092E+03  0.00000000000E+00 0.  1.
    9000010    2    1    2  501    0 -0.11194913083E+03 -0.55278267011E+02  0.53044069474E+03  0.11311069571E+04  0.99118480770E+03 0.  0.
   -9000010    2    1    2    0  502  0.11194913083E+03  0.55278267011E+02  0.32784937406E+03  0.10572796936E+04  0.99737998959E+03 0.  0.
        -13    1    3    3    0    0  0.35509056573E+03  0.44786616465E+02 -0.69152135946E+02  0.36452322279E+03  0.10566000000E+00 0.  1.
         13    1    4    4    0    0 -0.21819488080E+03 -0.19969558567E+03 -0.22004906673E+03  0.36865829148E+03  0.10566000000E+00 0. -1.
          4    1    3    3  501    0 -0.46703969656E+03 -0.10006488348E+03  0.59959283068E+03  0.76658373429E+03  0.00000000000E+00 0.  1.
         -4    1    4    4    0  502  0.33014401164E+03  0.25497385268E+03  0.54789844079E+03  0.68862140207E+03  0.00000000000E+00 0. -1.
</event>
<event>
 8    1  0.6759491E-006  0.1006658E+04  0.7818608E-02  0.8773542E-01
         21   -1    0    0  503  502  0.00000000000E+00  0.00000000000E+00  0.28522257433E+04  0.28522257433E+04  0.00000000000E+00 0. -1.
         21   -1    0    0  501  503 -0.00000000000E+00 -0.00000000000E+00 -0.35025507879E+03  0.35025507879E+03  0.00000000000E+00 0. -1.
    9000010    2    1    2  501    0  0.10618006509E+03 -0.12023021654E+03  0.11245498292E+04  0.15092955595E+04  0.99379638575E+03 0.  0.
   -9000010    2    1    2    0  502 -0.10618006509E+03  0.12023021654E+03  0.13774208354E+04  0.16931852627E+04  0.97152388792E+03 0.  0.
        -13    1    3    3    0    0  0.64885041067E+02 -0.37323660799E+03  0.11865429469E+04  0.12455520102E+04  0.10566000000E+00 0.  1.
         13    1    4    4    0    0  0.17335682145E+03  0.34489666668E+03  0.12569084373E+04  0.13148479491E+04  0.10566000000E+00 0. -1.
          4    1    3    3  501    0  0.41295024024E+02  0.25300639145E+03 -0.61993117742E+02  0.26374354925E+03  0.00000000000E+00 0.  1.
         -4    1    4    4    0  502 -0.27953688654E+03 -0.22466645014E+03  0.12051239802E+03  0.37833731356E+03  0.00000000000E+00 0. -1.
</event>
<event>
 8    1  0.6759491E-006  0.1086855E+04  0.7818608E-02  0.8709224E-01
         21   -1    0    0  503  502  0.00000000000E+00  0.00000000000E+00  0.53861570817E+03  0.53861570817E+03  0.00000000000E+00 0.  1.
         21   -1    0    0  501  503 -0.00000000000E+00 -0.00000000000E+00 -0.21790204425E+04  0.21790204425E+04  0.00000000000E+00 0.  1.
    9000010    2    1    2  501    0 -0.40313066366E+03 -0.55849730115E+02 -0.10865734749E+04  0.14978071105E+04  0.94718039444E+03 0.  0.
   -9000010    2    1    2    0  502  0.40313066366E+03  0.55849730115E+02 -0.55383125948E+03  0.12198290402E+04  0.10077798862E+04 0.  0.
        -13    1    3    3    0    0 -0.25035025730E+02  0.23617264163E+03  0.69047919389E+02  0.24732952817E+03  0.10566000000E+00 0.  1.
         13    1    4    4    0    0  0.69799086333E+03  0.97583851593E+02 -0.59092119938E+03  0.91972916036E+03  0.10566000000E+00 0. -1.
          4    1    3    3  501    0 -0.37809563793E+03 -0.29202237175E+03 -0.11556213942E+04  0.12504775823E+04  0.00000000000E+00 0.  1.
         -4    1    4    4    0  502 -0.29486019967E+03 -0.41734121478E+02  0.37089939894E+02  0.30009987985E+03  0.00000000000E+00 0. -1.
</event>
<event>
 8    1  0.6759491E-006  0.9898407E+03  0.7818608E-02  0.8797900E-01
         21   -1    0    0  501  502  0.00000000000E+00  0.00000000000E+00  0.71751027182E+03  0.71751027182E+03  0.00000000000E+00 0. -1.
         21   -1    0    0  502  503 -0.00000000000E+00 -0.00000000000E+00 -0.13157886268E+04  0.13157886268E+04  0.00000000000E+00 0. -1.
    9000010    2    1    2  501    0 -0.39071828696E+02  0.77012084832E+02 -0.45128014002E+03  0.10878595082E+04  0.98606646625E+03 0.  0.
   -9000010    2    1    2    0  503  0.39071828696E+02 -0.77012084832E+02 -0.14699821496E+03  0.94543939040E+03  0.92994069527E+03 0.  0.
        -13    1    3    3    0    0 -0.27044895678E+03  0.72574831948E+02  0.23377333695E+03  0.36477353068E+03  0.10566000000E+00 0.  1.
         13    1    4    4    0    0 -0.12885609362E+03  0.39391996191E+03  0.28793635831E+02  0.41545867891E+03  0.10566000000E+00 0. -1.
          4    1    3    3  501    0  0.23137712808E+03  0.44372528832E+01 -0.68505347697E+03  0.72308597755E+03  0.00000000000E+00 0.  1.
         -4    1    4    4    0  503  0.16792792231E+03 -0.47093204675E+03 -0.17579185079E+03  0.52998071149E+03  0.00000000000E+00 0. -1.
</event>
<event>
 8    1  0.6759491E-006  0.1019169E+04  0.7818608E-02  0.8759509E-01
         21   -1    0    0  501  502  0.00000000000E+00  0.00000000000E+00  0.13149137899E+04  0.13149137899E+04  0.00000000000E+00 0. -1.
         21   -1    0    0  502  503 -0.00000000000E+00 -0.00000000000E+00 -0.83413192716E+03  0.83413192716E+03  0.00000000000E+00 0. -1.
    9000010    2    1    2  501    0  0.14934514567E+03 -0.18203452999E+02  0.51331155438E+03  0.11411375368E+04  0.10080033670E+04 0.  0.
   -9000010    2    1    2    0  503 -0.14934514567E+03  0.18203452999E+02 -0.32529691638E+02  0.10079081802E+04  0.99608502685E+03 0.  0.
        -13    1    3    3    0    0  0.38789040357E+03 -0.33913831431E+03  0.53228212149E+03  0.74080903709E+03  0.10566000000E+00 0.  1.
         13    1    4    4    0    0 -0.21648774297E+03  0.31102340839E+03 -0.38809516499E+03  0.54242084369E+03  0.10566000000E+00 0. -1.
          4    1    3    3  501    0 -0.23854525791E+03  0.32093486131E+03 -0.18970567115E+02  0.40032849972E+03  0.00000000000E+00 0.  1.
         -4    1    4    4    0  503  0.67142597305E+02 -0.29281995539E+03  0.35556547335E+03  0.46548733655E+03  0.00000000000E+00 0. -1.
</event>
<event>
 8    1  0.6759491E-006  0.1033707E+04  0.7818608E-02  0.8747457E-01
         21   -1    0    0  503  502  0.00000000000E+00  0.00000000000E+00  0.97100243833E+03  0.97100243833E+03  0.00000000000E+00 0. -1.
         21   -1    0    0  501  503 -0.00000000000E+00 -0.00000000000E+00 -0.11626570253E+04  0.11626570253E+04  0.00000000000E+00 0. -1.
    9000010    2    1    2  501    0 -0.79365473365E+02  0.11209380207E+03  0.18543096765E+03  0.10333215291E+04  0.10072263101E+04 0.  0.
   -9000010    2    1    2    0  502  0.79365473365E+02 -0.11209380207E+03 -0.37708555459E+03  0.11003379346E+04  0.10245419249E+04 0.  0.
        -13    1    3    3    0    0  0.16256234385E+03 -0.20808691390E+03 -0.30251492034E+03  0.40154945843E+03  0.10566000000E+00 0.  1.
         13    1    4    4    0    0  0.33631158424E+03 -0.16195358420E+03  0.23054536338E+03  0.43873183252E+03  0.10566000000E+00 0. -1.
          4    1    3    3  501    0 -0.24192781722E+03  0.32018071597E+03  0.48794588798E+03  0.63177207063E+03  0.00000000000E+00 0.  1.
         -4    1    4    4    0  502 -0.25694611088E+03  0.49859782133E+02 -0.60763091797E+03  0.66160610203E+03  0.00000000000E+00 0. -1.
</event>
<event>
 8    1  0.6759491E-006  0.1022236E+04  0.7818608E-02  0.8755436E-01
         21   -1    0    0  501  502  0.00000000000E+00  0.00000000000E+00  0.15843361938E+04  0.15843361938E+04  0.00000000000E+00 0.  1.
         21   -1    0    0  502  503 -0.00000000000E+00 -0.00000000000E+00 -0.89042224060E+03  0.89042224060E+03  0.00000000000E+00 0.  1.
    9000010    2    1    2  501    0 -0.20615606839E+03 -0.17658671284E+03  0.98178731472E+03  0.14127612082E+04  0.97893038989E+03 0.  0.
   -9000010    2    1    2    0  503  0.20615606839E+03  0.17658671284E+03 -0.28787336148E+03  0.10619972263E+04  0.98553733806E+03 0.  0.
        -13    1    3    3    0    0  0.88286618143E+02 -0.49741839257E+03  0.78820192841E+03  0.93620610729E+03  0.10566000000E+00 0.  1.
         13    1    4    4    0    0  0.59374561855E+03  0.19446513179E+03 -0.24705948225E+03  0.67185485484E+03  0.10566000000E+00 0. -1.
          4    1    3    3  501    0 -0.29444268653E+03  0.32083167974E+03  0.19358538631E+03  0.47655510087E+03  0.00000000000E+00 0.  1.
         -4    1    4    4    0  503 -0.38758955017E+03 -0.17878418954E+02 -0.40813879225E+02  0.39014237145E+03  0.00000000000E+00 0. -1.
</event>
<event>
 8    1  0.6759491E-006  0.1011507E+04  0.7818608E-02  0.8768693E-01
         21   -1    0    0  501  502  0.00000000000E+00  0.00000000000E+00  0.18887370659E+04  0.18887370659E+04  0.00000000000E+00 0.  1.
         21   -1    0    0  502  503 -0.00000000000E+00 -0.00000000000E+00 -0.69844414091E+03  0.69844414091E+03  0.00000000000E+00 0.  1.
    9000010    2    1    2  501    0  0.21185255722E+03 -0.31245872556E+02  0.12337309404E+04  0.15953800942E+04  0.98857867725E+03 0.  0.
   -9000010    2    1    2    0  503 -0.21185255722E+03  0.31245872556E+02 -0.43438015481E+02  0.99180111254E+03  0.96743205193E+03 0.  0.
        -13    1    3    3    0    0 -0.38789891531E+03  0.89527151484E+02  0.53085576415E+03  0.66354241224E+03  0.10566000000E+00 0.  1.
         13    1    4    4    0    0  0.37334144861E+03  0.23010657809E+02 -0.13852191158E+03  0.39887549283E+03  0.10566000000E+00 0. -1.
          4    1    3    3  501    0  0.59975147252E+03 -0.12077302404E+03  0.70287517630E+03  0.93183768200E+03  0.00000000000E+00 0.  1.
         -4    1    4    4    0  503 -0.58519400583E+03  0.82352147476E+01  0.95083896103E+02  0.59292561972E+03  0.00000000000E+00 0. -1.
</event>
<event>
 8    1  0.6759491E-006  0.1005137E+04  0.7818608E-02  0.8775125E-01
         21   -1    0    0  503  502  0.00000000000E+00  0.00000000000E+00  0.37882534667E+03  0.37882534667E+03  0.00000000000E+00 0. -1.
         21   -1    0    0  501  503 -0.00000000000E+00 -0.00000000000E+00 -0.27076364440E+04  0.27076364440E+04  0.00000000000E+00 0. -1.
    9000010    2    1    2  501    0  0.19437743201E+03 -0.51895132973E+02 -0.14743110158E+04  0.17843467119E+04  0.98479669269E+03 0.  0.
   -9000010    2    1    2    0  502 -0.19437743201E+03  0.51895132973E+02 -0.85450008146E+03  0.13021150787E+04  0.96169516905E+03 0.  0.
        -13    1    3    3    0    0  0.29277729577E+03  0.87166834918E+02 -0.15628032412E+04  0.15923789071E+04  0.10566000000E+00 0.  1.
         13    1    4    4    0    0  0.46636616544E+02  0.46050383911E+03 -0.22714930946E+03  0.51559245513E+03  0.10566000000E+00 0. -1.
          4    1    3    3  501    0 -0.98399863766E+02 -0.13906196789E+03  0.88492225385E+02  0.19196780474E+03  0.00000000000E+00 0.  1.
         -4    1    4    4    0  502 -0.24101404855E+03 -0.40860870613E+03 -0.62735077200E+03  0.78652262361E+03  0.00000000000E+00 0. -1.
</event>
<event>
 8    1  0.6759491E-006  0.1030175E+04  0.7818608E-02  0.8750452E-01
         21   -1    0    0  503  502  0.00000000000E+00  0.00000000000E+00  0.14467639297E+04  0.14467639297E+04  0.00000000000E+00 0. -1.
         21   -1    0    0  501  503 -0.00000000000E+00 -0.00000000000E+00 -0.80012615610E+03  0.80012615610E+03  0.00000000000E+00 0. -1.
    9000010    2    1    2  501    0  0.39215521256E+02  0.21963492258E+03 -0.29955080188E+02  0.10143975046E+04  0.98910446070E+03 0.  0.
   -9000010    2    1    2    0  502 -0.39215521256E+02 -0.21963492258E+03  0.67659285381E+03  0.12324925812E+04  0.10057249707E+04 0.  0.
        -13    1    3    3    0    0 -0.34364278272E+03 -0.67941953783E+02 -0.30302394308E+03  0.46317382530E+03  0.10566000000E+00 0.  1.
         13    1    4    4    0    0 -0.14182175979E+03 -0.43985835955E+03  0.82655389283E+03  0.94698476067E+03  0.10566000000E+00 0. -1.
          4    1    3    3  501    0  0.38285830397E+03  0.28757687637E+03  0.27306886289E+03  0.55122367930E+03  0.00000000000E+00 0.  1.
         -4    1    4    4    0  502  0.10260623853E+03  0.22022343697E+03 -0.14996103902E+03  0.28550782056E+03  0.00000000000E+00 0. -1.
</event>
<event>
 8    1  0.6759491E-006  0.1221201E+04  0.7818608E-02  0.8605744E-01
         21   -1    0    0  503  502  0.00000000000E+00  0.00000000000E+00  0.75192364774E+03  0.75192364774E+03  0.00000000000E+00 0.  1.
         21   -1    0    0  501  503 -0.00000000000E+00 -0.00000000000E+00 -0.21765393968E+04  0.21765393968E+04  0.00000000000E+00 0.  1.
    9000010    2    1    2  501    0  0.88951704449E+02  0.53686533779E+03 -0.12924509924E+04  0.17781341255E+04  0.10932495616E+04 0.  0.
   -9000010    2    1    2    0  502 -0.88951704449E+02 -0.53686533779E+03 -0.13216475668E+03  0.11503289191E+04  0.10048145612E+04 0.  0.
        -13    1    3    3    0    0 -0.16293753320E+03  0.79922169265E+03 -0.66285871600E+03  0.10510402667E+04  0.10566000000E+00 0.  1.
         13    1    4    4    0    0 -0.12132460663E+03 -0.73968982477E+03 -0.37013547211E+03  0.83597905232E+03  0.10566000000E+00 0. -1.
          4    1    3    3  501    0  0.25188923765E+03 -0.26235635486E+03 -0.62959227639E+03  0.72709385878E+03  0.00000000000E+00 0.  1.
         -4    1    4    4    0  502  0.32372902183E+02  0.20282448698E+03  0.23797071543E+03  0.31434986674E+03  0.00000000000E+00 0. -1.
</event>
<event>
 8    1  0.6759491E-006  0.1023640E+04  0.7818608E-02  0.8756840E-01
         21   -1    0    0  501  502  0.00000000000E+00  0.00000000000E+00  0.73647711497E+03  0.73647711497E+03  0.00000000000E+00 0. -1.
         21   -1    0    0  502  503 -0.00000000000E+00 -0.00000000000E+00 -0.14238423113E+04  0.14238423113E+04  0.00000000000E+00 0. -1.
    9000010    2    1    2  501    0 -0.10426674228E+03 -0.11913482181E+03 -0.19479377555E+03  0.10243324267E+04  0.99310001821E+03 0.  0.
   -9000010    2    1    2    0  503  0.10426674228E+03  0.11913482181E+03 -0.49257142077E+03  0.11359869995E+04  0.10113234889E+04 0.  0.
        -13    1    3    3    0    0 -0.52545488896E+03  0.92206668796E+02 -0.81569956281E+02  0.53968377689E+03  0.10566000000E+00 0.  1.
         13    1    4    4    0    0 -0.15384321095E+03  0.41054217054E+03 -0.58965579480E+03  0.73478335232E+03  0.10566000000E+00 0. -1.
          4    1    3    3  501    0  0.42118814668E+03 -0.21134149060E+03 -0.11322381927E+03  0.48464864985E+03  0.00000000000E+00 0.  1.
         -4    1    4    4    0  503  0.25810995322E+03 -0.29140734873E+03  0.97084374022E+02  0.40120364720E+03  0.00000000000E+00 0. -1.
</event>
<event>
 8    1  0.6759491E-006  0.1048673E+04  0.7818608E-02  0.8730526E-01
         21   -1    0    0  501  502  0.00000000000E+00  0.00000000000E+00  0.99348729112E+03  0.99348729112E+03  0.00000000000E+00 0.  1.
         21   -1    0    0  502  503 -0.00000000000E+00 -0.00000000000E+00 -0.12756744498E+04  0.12756744498E+04  0.00000000000E+00 0.  1.
    9000010    2    1    2  501    0 -0.28328172534E+02  0.31818225909E+03  0.27380245904E+03  0.10822159700E+04  0.99708634724E+03 0.  0.
   -9000010    2    1    2    0  503  0.28328172534E+02 -0.31818225909E+03 -0.55598961775E+03  0.11869457709E+04  0.99883600890E+03 0.  0.
        -13    1    3    3    0    0 -0.46023368388E+03  0.34992265169E+03  0.16319375338E+02  0.57838329776E+03  0.10566000000E+00 0.  1.
         13    1    4    4    0    0  0.25802703252E+03 -0.25604437727E+03  0.18557697746E+03  0.40813661729E+03  0.10566000000E+00 0. -1.
          4    1    3    3  501    0  0.43190551135E+03 -0.31740392605E+02  0.25748308371E+03  0.50383267228E+03  0.00000000000E+00 0.  1.
         -4    1    4    4    0  503 -0.22969885999E+03 -0.62137881813E+02 -0.74156659520E+03  0.77880915362E+03  0.00000000000E+00 0. -1.
</event>
<event>
 8    1  0.6759491E-006  0.1014935E+04  0.7818608E-02  0.8766026E-01
         21   -1    0    0  501  502  0.00000000000E+00  0.00000000000E+00  0.53754079249E+03  0.53754079249E+03  0.00000000000E+00 0. -1.
         21   -1    0    0  502  503 -0.00000000000E+00 -0.00000000000E+00 -0.19146867829E+04  0.19146867829E+04  0.00000000000E+00 0. -1.
    9000010    2    1    2  501    0  0.10437536131E+03  0.13053909009E+03 -0.51612415079E+03  0.11386294787E+04  0.10010785587E+04 0.  0.
   -9000010    2    1    2    0  503 -0.10437536131E+03 -0.13053909009E+03 -0.86102183957E+03  0.13135980967E+04  0.97787866387E+03 0.  0.
        -13    1    3    3    0    0 -0.35420082669E+03  0.22507322311E+03  0.28230932044E+02  0.42061048261E+03  0.10566000000E+00 0.  1.
         13    1    4    4    0    0  0.19189465954E+03 -0.43647352017E+03 -0.17851231978E+03  0.50911624767E+03  0.10566000000E+00 0. -1.
          4    1    3    3  501    0  0.45857618800E+03 -0.94534133024E+02 -0.54435508283E+03  0.71801899607E+03  0.00000000000E+00 0.  1.
         -4    1    4    4    0  503 -0.29627002085E+03  0.30593443008E+03 -0.68250951979E+03  0.80448184899E+03  0.00000000000E+00 0. -1.
</event>
<event>
 8    1  0.6759491E-006  0.1045270E+04  0.7818608E-02  0.8737114E-01
         21   -1    0    0  503  502  0.00000000000E+00  0.00000000000E+00  0.17915848652E+04  0.17915848652E+04  0.00000000000E+00 0.  1.
         21   -1    0    0  501  503 -0.00000000000E+00 -0.00000000000E+00 -0.65501262660E+03  0.65501262660E+03  0.00000000000E+00 0.  1.
    9000010    2    1    2  501    0  0.24135185958E+03  0.47056766513E+01  0.20834485899E+03  0.10486723653E+04  0.99901615903E+03 0.  0.
   -9000010    2    1    2    0  502 -0.24135185958E+03 -0.47056766513E+01  0.92822737963E+03  0.13979251265E+04  0.10170131403E+04 0.  0.
        -13    1    3    3    0    0  0.51228907229E+03 -0.27476385081E+03 -0.46890261721E+02  0.58321006088E+03  0.10566000000E+00 0.  1.
         13    1    4    4    0    0 -0.32721934657E+03 -0.35407350175E+02  0.11297574408E+04  0.11767234456E+04  0.10566000000E+00 0. -1.
          4    1    3    3  501    0 -0.27093721272E+03  0.27946952746E+03  0.25523512072E+03  0.46546230445E+03  0.00000000000E+00 0.  1.
         -4    1    4    4    0  502  0.85867486997E+02  0.30701673524E+02 -0.20153006117E+03  0.22120168091E+03  0.00000000000E+00 0. -1.
</event>
<event>
 8    1  0.6759491E-006  0.1069947E+04  0.7818608E-02  0.8717802E-01
         21   -1    0    0  501  502  0.00000000000E+00  0.00000000000E+00  0.97554967399E+03  0.97554967399E+03  0.00000000000E+00 0. -1.
         21   -1    0    0  502  503 -0.00000000000E+00 -0.00000000000E+00 -0.12163462617E+04  0.12163462617E+04  0.00000000000E+00 0. -1.
    9000010    2    1    2  501    0  0.27648782030E+03  0.16762754151E+03  0.14852485671E+03  0.10802064539E+04  0.10199224688E+04 0.  0.
   -9000010    2    1    2    0  503 -0.27648782030E+03 -0.16762754151E+03 -0.38932144439E+03  0.11116894818E+04  0.98981705857E+03 0.  0.
        -13    1    3    3    0    0  0.40246083889E+02  0.30722847314E+03 -0.37661373142E+03  0.48769559752E+03  0.10566000000E+00 0.  1.
         13    1    4    4    0    0 -0.48464721305E+03 -0.23665349532E+03 -0.60056185259E+03  0.80719412035E+03  0.10566000000E+00 0. -1.
          4    1    3    3  501    0  0.23624173641E+03 -0.13960093163E+03  0.52513858813E+03  0.59251085634E+03  0.00000000000E+00 0.  1.
         -4    1    4    4    0  503  0.20815939275E+03  0.69025953810E+02  0.21124040820E+03  0.30449536146E+03  0.00000000000E+00 0. -1.
</event>
<event>
 8    1  0.6759491E-006  0.1202731E+04  0.7818608E-02  0.8605380E-01
         21   -1    0    0  501  502  0.00000000000E+00  0.00000000000E+00  0.11718271623E+04  0.11718271623E+04  0.00000000000E+00 0.  1.
         21   -1    0    0  502  503 -0.00000000000E+00 -0.00000000000E+00 -0.12662408788E+04  0.12662408788E+04  0.00000000000E+00 0.  1.
    9000010    2    1    2  501    0  0.66088812152E+03 -0.25108352185E+02  0.15977894210E+03  0.12132973880E+04  0.10045684162E+04 0.  0.
   -9000010    2    1    2    0  503 -0.66088812152E+03  0.25108352185E+02 -0.25419265864E+03  0.12247706531E+04  0.99902237542E+03 0.  0.
        -13    1    3    3    0    0  0.39671928206E+03  0.21258230271E+03 -0.36502362094E+03  0.57949950750E+03  0.10566000000E+00 0.  1.
         13    1    4    4    0    0  0.70655418036E+02  0.29062793509E+03 -0.32697421672E+03  0.44313534537E+03  0.10566000000E+00 0. -1.
          4    1    3    3  501    0  0.26416883945E+03 -0.23769065490E+03  0.52480256304E+03  0.63379788051E+03  0.00000000000E+00 0.  1.
         -4    1    4    4    0  503 -0.73154353955E+03 -0.26551958290E+03  0.72781558085E+02  0.78163530778E+03  0.00000000000E+00 0. -1.
</event>
<event>
 8    1  0.6759491E-006  0.1076155E+04  0.7818608E-02  0.8707066E-01
         21   -1    0    0  501  502  0.00000000000E+00  0.00000000000E+00  0.13982875662E+04  0.13982875662E+04  0.00000000000E+00 0. -1.
         21   -1    0    0  502  503 -0.00000000000E+00 -0.00000000000E+00 -0.14515678601E+04  0.14515678601E+04  0.00000000000E+00 0. -1.
    9000010    2    1    2  501    0 -0.67877992959E+02  0.36913899488E+03  0.90958273709E+03  0.14058279241E+04  0.10040619389E+04 0.  0.
   -9000010    2    1    2    0  503  0.67877992959E+02 -0.36913899488E+03 -0.96286303103E+03  0.14440275021E+04  0.10085827635E+04 0.  0.
        -13    1    3    3    0    0  0.10557550816E+03  0.58433700910E+03  0.17207517130E+03  0.61822795462E+03  0.10566000000E+00 0.  1.
         13    1    4    4    0    0 -0.45924542263E+03 -0.99982319908E+02 -0.54414410098E+03  0.71902408603E+03  0.10566000000E+00 0. -1.
          4    1    3    3  501    0 -0.17345350112E+03 -0.21519801422E+03  0.73750756580E+03  0.78759996952E+03  0.00000000000E+00 0.  1.
         -4    1    4    4    0  503  0.52712341558E+03 -0.26915667497E+03 -0.41871893005E+03  0.72500341607E+03  0.00000000000E+00 0. -1.
</event>
<event>
 8    1  0.6759491E-006  0.1114760E+04  0.7818608E-02  0.8674384E-01
         21   -1    0    0  501  502  0.00000000000E+00  0.00000000000E+00  0.16305335336E+04  0.16305335336E+04  0.00000000000E+00 0. -1.
         21   -1    0    0  502  503 -0.00000000000E+00 -0.00000000000E+00 -0.88627004347E+03  0.88627004347E+03  0.00000000000E+00 0. -1.
    9000010    2    1    2  501    0 -0.21369742207E+03 -0.45495783739E+03  0.84704712698E+03  0.13973150314E+04  0.99113431962E+03 0.  0.
   -9000010    2    1    2    0  503  0.21369742207E+03  0.45495783739E+03 -0.10278363688E+03  0.11194885457E+04  0.99500598286E+03 0.  0.
        -13    1    3    3    0    0 -0.52105039569E+03 -0.40086667411E+03  0.21372628341E+03  0.69127891668E+03  0.10566000000E+00 0.  1.
         13    1    4    4    0    0  0.29573376512E+03  0.74977972046E+03 -0.10945447204E+03  0.81339312860E+03  0.10566000000E+00 0. -1.
          4    1    3    3  501    0  0.30735297362E+03 -0.54091163276E+02  0.63332084357E+03  0.70603611468E+03  0.00000000000E+00 0.  1.
         -4    1    4    4    0  503 -0.82036343050E+02 -0.29482188307E+03  0.66708351568E+01  0.30609541709E+03  0.00000000000E+00 0. -1.
</event>
<event>
 8    1  0.6759491E-006  0.1049318E+04  0.7818608E-02  0.8730912E-01
         21   -1    0    0  503  502  0.00000000000E+00  0.00000000000E+00  0.57643672897E+03  0.57643672897E+03  0.00000000000E+00 0.  1.
         21   -1    0    0  501  503 -0.00000000000E+00 -0.00000000000E+00 -0.19269848551E+04  0.19269848551E+04  0.00000000000E+00 0.  1.
    9000010    2    1    2  501    0  0.26660885511E+03  0.19158492996E+03 -0.52326462913E+03  0.11672079265E+04  0.99034509368E+03 0.  0.
   -9000010    2    1    2    0  502 -0.26660885511E+03 -0.19158492996E+03 -0.82728349695E+03  0.13362136575E+04  0.99663628633E+03 0.  0.
        -13    1    3    3    0    0  0.10430648899E+02 -0.39796835733E+03 -0.16169039989E+03  0.42968757075E+03  0.10566000000E+00 0.  1.
         13    1    4    4    0    0  0.63944660987E+02 -0.46129596303E+03 -0.77802205221E+03  0.90675311417E+03  0.10566000000E+00 0. -1.
          4    1    3    3  501    0  0.25617820621E+03  0.58955328729E+03 -0.36157422925E+03  0.73752035575E+03  0.00000000000E+00 0.  1.
         -4    1    4    4    0  502 -0.33055351610E+03  0.26971103307E+03 -0.49261444746E+02  0.42946054336E+03  0.00000000000E+00 0. -1.
</event>
<event>
 8    1  0.6759491E-006  0.1017991E+04  0.7818608E-02  0.8766973E-01
         21   -1    0    0  503  502  0.00000000000E+00  0.00000000000E+00  0.10620262138E+04  0.10620262138E+04  0.00000000000E+00 0. -1.
         21   -1    0    0  501  503 -0.00000000000E+00 -0.00000000000E+00 -0.11061333855E+04  0.11061333855E+04  0.00000000000E+00 0. -1.
    9000010    2    1    2  501    0 -0.11961355833E+03 -0.38984297286E+02 -0.44308936332E+03  0.10747734329E+04  0.97107289607E+03 0.  0.
   -9000010    2    1    2    0  502  0.11961355833E+03  0.38984297286E+02  0.39898219157E+03  0.10933861664E+04  0.10101877751E+04 0.  0.
        -13    1    3    3    0    0  0.21998295306E+03 -0.40321753427E+03 -0.32586736656E+03  0.56317531136E+03  0.10566000000E+00 0.  1.
         13    1    4    4    0    0  0.24571561489E+03  0.11385934179E+03  0.70435486477E+03  0.75462301833E+03  0.10566000000E+00 0. -1.
          4    1    3    3  501    0 -0.33959651139E+03  0.36423323698E+03 -0.11722199675E+03  0.51159812157E+03  0.00000000000E+00 0.  1.
         -4    1    4    4    0  502 -0.12610205656E+03 -0.74875044502E+02 -0.30537267320E+03  0.33876314808E+03  0.00000000000E+00 0. -1.
</event>
<event>
 8    1  0.6759491E-006  0.1046145E+04  0.7818608E-02  0.8733497E-01
         21   -1    0    0  503  502  0.00000000000E+00  0.00000000000E+00  0.25074926391E+04  0.25074926391E+04  0.00000000000E+00 0.  1.
         21   -1    0    0  501  503 -0.00000000000E+00 -0.00000000000E+00 -0.44397267246E+03  0.44397267246E+03  0.00000000000E+00 0.  1.
    9000010    2    1    2  501    0  0.22603828781E+03 -0.17922972757E+03  0.81285138309E+03  0.13209468609E+04  0.10004782034E+04 0.  0.
   -9000010    2    1    2    0  502 -0.22603828781E+03  0.17922972757E+03  0.12506685836E+04  0.16305184507E+04  0.10055853565E+04 0.  0.
        -13    1    3    3    0    0  0.43652908213E+03 -0.20824394449E+03  0.95140452702E+03  0.10672833575E+04  0.10566000000E+00 0.  1.
         13    1    4    4    0    0 -0.37376409506E+02  0.42135420360E+03  0.12541325718E+04  0.13235501047E+04  0.10566000000E+00 0. -1.
          4    1    3    3  501    0 -0.21049079432E+03  0.29014216926E+02 -0.13855314392E+03  0.25366350342E+03  0.00000000000E+00 0.  1.
         -4    1    4    4    0  502 -0.18866187830E+03 -0.24212447603E+03 -0.34639882261E+01  0.30696834598E+03  0.00000000000E+00 0. -1.
</event>
<event>
 8    1  0.1495845E-005  0.1043607E+04  0.7818608E-02  0.8741745E-01
         21   -1    0    0  501  502  0.00000000000E+00  0.00000000000E+00  0.16227611122E+04  0.16227611122E+04  0.00000000000E+00 0. -1.
         21   -1    0    0  502  503 -0.00000000000E+00 -0.00000000000E+00 -0.92177209806E+03  0.92177209806E+03  0.00000000000E+00 0. -1.
    9000010    2    1    2  501    0 -0.90744569648E+02  0.29593615955E+02  0.10434824819E+04  0.14757949342E+04  0.10392327163E+04 0.  0.
   -9000010    2    1    2    0  503  0.90744569648E+02 -0.29593615955E+02 -0.34249346783E+03  0.10687382760E+04  0.10078637646E+04 0.  0.
        -13    1    3    3    0    0  0.32845967133E+03  0.26909167741E+03  0.86036405592E+03  0.95943858919E+03  0.10566000000E+00 0.  1.
         13    1    4    4    0    0 -0.28274815797E+03 -0.35375001046E+02 -0.56582667972E+03  0.63352802162E+03  0.10566000000E+00 0. -1.
          4    1    3    3  501    0 -0.41920424098E+03 -0.23949806146E+03  0.18311842601E+03  0.51635634502E+03  0.00000000000E+00 0.  1.
         -4    1    4    4    0  503  0.37349272762E+03  0.57813850913E+01  0.22333321189E+03  0.43521025439E+03  0.00000000000E+00 0. -1.
</event>
<event>
 8    1  0.6759491E-006  0.1002901E+04  0.7818608E-02  0.8780850E-01
         21   -1    0    0  501  502  0.00000000000E+00  0.00000000000E+00  0.10704323932E+04  0.10704323932E+04  0.00000000000E+00 0. -1.
         21   -1    0    0  502  503 -0.00000000000E+00 -0.00000000000E+00 -0.90570162135E+03  0.90570162135E+03  0.00000000000E+00 0. -1.
    9000010    2    1    2  501    0  0.13295278314E+03  0.43481432140E+02  0.11624913805E+03  0.10096159759E+04  0.99309792026E+03 0.  0.
   -9000010    2    1    2    0  503 -0.13295278314E+03 -0.43481432140E+02  0.48481633820E+02  0.96651803867E+03  0.95511233516E+03 0.  0.
        -13    1    3    3    0    0  0.13893177690E+03 -0.45467720650E+03  0.17789502802E+03  0.50762195865E+03  0.10566000000E+00 0.  1.
         13    1    4    4    0    0 -0.53728665077E+03  0.22517092370E+02 -0.64310566723E+02  0.54159008918E+03  0.10566000000E+00 0. -1.
          4    1    3    3  501    0 -0.59789937606E+01  0.49815863864E+03 -0.61645889976E+02  0.50199401726E+03  0.00000000000E+00 0.  1.
         -4    1    4    4    0  503  0.40433386763E+03 -0.65998524510E+02  0.11279220054E+03  0.42492794948E+03  0.00000000000E+00 0. -1.
</event>
<event>
 8    1  0.6759491E-006  0.1043040E+04  0.7818608E-02  0.8736498E-01
         21   -1    0    0  501  502  0.00000000000E+00  0.00000000000E+00  0.11500640168E+04  0.11500640168E+04  0.00000000000E+00 0.  1.
         21   -1    0    0  502  503 -0.00000000000E+00 -0.00000000000E+00 -0.11950929807E+04  0.11950929807E+04  0.00000000000E+00 0.  1.
    9000010    2    1    2  501    0  0.30867406061E+03  0.42278999444E+02  0.51863166745E+03  0.11595580543E+04  0.98920618954E+03 0.  0.
   -9000010    2    1    2    0  503 -0.30867406061E+03 -0.42278999444E+02 -0.56366063140E+03  0.11855989432E+04  0.99542169815E+03 0.  0.
        -13    1    3    3    0    0  0.63521248335E+03 -0.69606043161E+02  0.15369328127E+03  0.65723780790E+03  0.10566000000E+00 0.  1.
         13    1    4    4    0    0 -0.10705928155E+03  0.44946001816E+03 -0.44408178458E+03  0.64084681496E+03  0.10566000000E+00 0. -1.
          4    1    3    3  501    0 -0.32653842274E+03  0.11188504260E+03  0.36493838617E+03  0.50232024645E+03  0.00000000000E+00 0.  1.
         -4    1    4    4    0  503 -0.20161477906E+03 -0.49173901760E+03 -0.11957884682E+03  0.54475212820E+03  0.00000000000E+00 0. -1.
</event>
<event>
 8    1  0.6759491E-006  0.1107582E+04  0.7818608E-02  0.8702943E-01
         21   -1    0    0  503  502  0.00000000000E+00  0.00000000000E+00  0.11874783150E+04  0.11874783150E+04  0.00000000000E+00 0. -1.
         21   -1    0    0  501  503 -0.00000000000E+00 -0.00000000000E+00 -0.10886612856E+04  0.10886612856E+04  0.00000000000E+00 0. -1.
    9000010    2    1    2  501    0 -0.12174254274E+03 -0.15818720996E+03 -0.37418010979E+03  0.11690805460E+04  0.10894467074E+04 0.  0.
   -9000010    2    1    2    0  502  0.12174254274E+03  0.15818720996E+03  0.47299713912E+03  0.11070590546E+04  0.98082058333E+03 0.  0.
        -13    1    3    3    0    0 -0.34361231781E+03 -0.47170705321E+02  0.29504250684E+03  0.45535106500E+03  0.10566000000E+00 0.  1.
         13    1    4    4    0    0 -0.33329478644E+03  0.34688939942E+03  0.10556027252E+03  0.49250446942E+03  0.10566000000E+00 0. -1.
          4    1    3    3  501    0  0.22186977507E+03 -0.11101650463E+03 -0.66922261663E+03  0.71372948097E+03  0.00000000000E+00 0.  1.
         -4    1    4    4    0  502  0.45503732918E+03 -0.18870218946E+03  0.36743686660E+03  0.61455458520E+03  0.00000000000E+00 0. -1.
</event>
<event>
 8    1  0.6759491E-006  0.1097351E+04  0.7818608E-02  0.8690938E-01
         21   -1    0    0  501  502  0.00000000000E+00  0.00000000000E+00  0.28404630211E+04  0.28404630211E+04  0.00000000000E+00 0.  1.
         21   -1    0    0  502  503 -0.00000000000E+00 -0.00000000000E+00 -0.58148273812E+03  0.58148273812E+03  0.00000000000E+00 0.  1.
    9000010    2    1    2  501    0 -0.47258877336E+02 -0.42235161949E+03  0.20294077144E+04  0.23008382337E+04  0.99736984848E+03 0.  0.
   -9000010    2    1    2    0  503  0.47258877336E+02  0.42235161949E+03  0.22957256858E+03  0.11211075255E+04  0.10117135106E+04 0.  0.
        -13    1    3    3    0    0 -0.74644299963E+02 -0.58595172688E+03  0.20502626430E+04  0.21336560440E+04  0.10566000000E+00 0.  1.
         13    1    4    4    0    0 -0.37663285429E+03 -0.10229131678E+03 -0.45023070131E+02  0.39286500026E+03  0.10566000000E+00 0. -1.
          4    1    3    3  501    0  0.27385422627E+02  0.16360010739E+03 -0.20854928618E+02  0.16718218971E+03  0.00000000000E+00 0.  1.
         -4    1    4    4    0  503  0.42389173163E+03  0.52464293627E+03  0.27459563871E+03  0.72824252521E+03  0.00000000000E+00 0. -1.
</event>
<event>
 8    1  0.6759491E-006  0.1036467E+04  0.7818608E-02  0.8742475E-01
         21   -1    0    0  503  502  0.00000000000E+00  0.00000000000E+00  0.86529872712E+03  0.86529872712E+03  0.00000000000E+00 0.  1.
         21   -1    0    0  501  503 -0.00000000000E+00 -0.00000000000E+00 -0.22678938547E+04  0.22678938547E+04  0.00000000000E+00 0.  1.
    9000010    2    1    2  501    0  0.21953720351E+03  0.12582484981E+03 -0.17578870440E+04  0.20375211163E+04  0.99864756711E+03 0.  0.
   -9000010    2    1    2    0  502 -0.21953720351E+03 -0.12582484981E+03  0.35529191643E+03  0.10956714655E+04  0.10051045408E+04 0.  0.
        -13    1    3    3    0    0  0.12134865947E+03 -0.29249583932E+03 -0.11109113825E+03  0.33558987669E+03  0.10566000000E+00 0.  1.
         13    1    4    4    0    0 -0.56679068527E+03 -0.29996233930E+03  0.28112037163E+03  0.70018409038E+03  0.10566000000E+00 0. -1.
          4    1    3    3  501    0  0.98188544043E+02  0.41832068913E+03 -0.16467959058E+04  0.17019312396E+04  0.00000000000E+00 0.  1.
         -4    1    4    4    0  502  0.34725348176E+03  0.17413748949E+03  0.74171544801E+02  0.39548737515E+03  0.00000000000E+00 0. -1.
</event>
<event>
 8    1  0.6759491E-006  0.1001585E+04  0.7818608E-02  0.8784729E-01
         21   -1    0    0  501  502  0.00000000000E+00  0.00000000000E+00  0.73427648731E+03  0.73427648731E+03  0.00000000000E+00 0. -1.
         21   -1    0    0  502  503 -0.00000000000E+00 -0.00000000000E+00 -0.13567449581E+04  0.13567449581E+04  0.00000000000E+00 0. -1.
    9000010    2    1    2  501    0  0.18704136236E+02 -0.15046680802E+03 -0.51554341290E+03  0.10837452758E+04  0.94113160998E+03 0.  0.
   -9000010    2    1    2    0  503 -0.18704136236E+02  0.15046680802E+03 -0.10692505786E+03  0.10072761695E+04  0.99004151866E+03 0.  0.
        -13    1    3    3    0    0 -0.22181244034E+03 -0.23134299682E+03  0.16281222419E+03  0.35948320180E+03  0.10566000000E+00 0.  1.
         13    1    4    4    0    0  0.38578037938E+03  0.36602649164E+03  0.18411788194E+02  0.53210985596E+03  0.10566000000E+00 0. -1.
          4    1    3    3  501    0  0.24051657658E+03  0.80876188805E+02 -0.67835563709E+03  0.72426207404E+03  0.00000000000E+00 0.  1.
         -4    1    4    4    0  503 -0.40448451562E+03 -0.21555968362E+03 -0.12533684606E+03  0.47516631358E+03  0.00000000000E+00 0. -1.
</event>
<event>
 8    1  0.6759491E-006  0.1084042E+04  0.7818608E-02  0.8701456E-01
         21   -1    0    0  501  502  0.00000000000E+00  0.00000000000E+00  0.14294496042E+04  0.14294496042E+04  0.00000000000E+00 0.  1.
         21   -1    0    0  502  503 -0.00000000000E+00 -0.00000000000E+00 -0.10971381015E+04  0.10971381015E+04  0.00000000000E+00 0.  1.
    9000010    2    1    2  501    0  0.33237492580E+03  0.27052798568E+03  0.80750533940E+03  0.13517438888E+04  0.99573499764E+03 0.  0.
   -9000010    2    1    2    0  503 -0.33237492580E+03 -0.27052798568E+03 -0.47519383669E+03  0.11748438168E+04  0.98528692728E+03 0.  0.
        -13    1    3    3    0    0 -0.94236360775E+02 -0.14013880305E+02 -0.19983929893E+03  0.22138797866E+03  0.10566000000E+00 0.  1.
         13    1    4    4    0    0 -0.36128177422E+03  0.17095133160E+03 -0.59472913202E+03  0.71655539199E+03  0.10566000000E+00 0. -1.
          4    1    3    3  501    0  0.42661128657E+03  0.28454186598E+03  0.10073446383E+04  0.11303559102E+04  0.00000000000E+00 0.  1.
         -4    1    4    4    0  503  0.28906848421E+02 -0.44147931728E+03  0.11953529533E+03  0.45828842479E+03  0.00000000000E+00 0. -1.
</event>
<event>
 8    1  0.6759491E-006  0.1169977E+04  0.7818608E-02  0.8658166E-01
         21   -1    0    0  503  502  0.00000000000E+00  0.00000000000E+00  0.11227567334E+04  0.11227567334E+04  0.00000000000E+00 0.  1.
         21   -1    0    0  501  503 -0.00000000000E+00 -0.00000000000E+00 -0.14356578375E+04  0.14356578375E+04  0.00000000000E+00 0.  1.
    9000010    2    1    2  501    0  0.16847181018E+03  0.58539896919E+03 -0.78532849441E+03  0.12966561753E+04  0.83276748786E+03 0.  0.
   -9000010    2    1    2    0  502 -0.16847181018E+03 -0.58539896919E+03  0.47242739039E+03  0.12617583956E+04  0.99888533165E+03 0.  0.
        -13    1    3    3    0    0  0.83102126158E+02  0.52778202092E+03 -0.95724087556E+03  0.10962526762E+04  0.10566000000E+00 0.  1.
         13    1    4    4    0    0  0.18449798571E+03 -0.64448472780E+03  0.58169997324E+03  0.88756686573E+03  0.10566000000E+00 0. -1.
          4    1    3    3  501    0  0.85369684021E+02  0.57616948268E+02  0.17191238114E+03  0.20040349914E+03  0.00000000000E+00 0.  1.
         -4    1    4    4    0  502 -0.35296979589E+03  0.59085758613E+02 -0.10927258286E+03  0.37419152990E+03  0.00000000000E+00 0. -1.
</event>
<event>
 8    1  0.6759491E-006  0.1060972E+04  0.7818608E-02  0.8725423E-01
         21   -1    0    0  503  502  0.00000000000E+00  0.00000000000E+00  0.11770148448E+04  0.11770148448E+04  0.00000000000E+00 0.  1.
         21   -1    0    0  501  503 -0.00000000000E+00 -0.00000000000E+00 -0.14779026002E+04  0.14779026002E+04  0.00000000000E+00 0.  1.
    9000010    2    1    2  501    0 -0.28103320920E+02 -0.31110638954E+03 -0.95863163679E+03  0.14299080084E+04  0.10139454202E+04 0.  0.
   -9000010    2    1    2    0  502  0.28103320920E+02  0.31110638954E+03  0.65774388138E+03  0.12250094365E+04  0.98511122408E+03 0.  0.
        -13    1    3    3    0    0 -0.50118431278E+03 -0.23349504002E+03 -0.34696486946E+03  0.65275591218E+03  0.10566000000E+00 0.  1.
         13    1    4    4    0    0  0.12137587765E+02  0.66000865532E+03  0.55081099645E+03  0.85973921110E+03  0.10566000000E+00 0. -1.
          4    1    3    3  501    0  0.47308099186E+03 -0.77611349529E+02 -0.61166676733E+03  0.77715209624E+03  0.00000000000E+00 0.  1.
         -4    1    4    4    0  502  0.15965733156E+02 -0.34890226577E+03  0.10693288493E+03  0.36527022542E+03  0.00000000000E+00 0. -1.
</event>
<event>
 8    1  0.6759491E-006  0.1027121E+04  0.7818608E-02  0.8750066E-01
         21   -1    0    0  503  502  0.00000000000E+00  0.00000000000E+00  0.13452222077E+04  0.13452222077E+04  0.00000000000E+00 0.  1.
         21   -1    0    0  501  503 -0.00000000000E+00 -0.00000000000E+00 -0.96196033341E+03  0.96196033341E+03  0.00000000000E+00 0.  1.
    9000010    2    1    2  501    0  0.19755871243E+03  0.11945388383E+03 -0.30657869208E+03  0.10718989243E+04  0.10008387155E+04 0.  0.
   -9000010    2    1    2    0  502 -0.19755871243E+03 -0.11945388383E+03  0.68984056633E+03  0.12352836167E+04  0.99837214082E+03 0.  0.
        -13    1    3    3    0    0  0.51985881696E+03  0.21407577919E+03  0.70833258622E+02  0.56665597190E+03  0.10566000000E+00 0.  1.
         13    1    4    4    0    0 -0.32381839244E+03 -0.34601100201E+03 -0.25287373563E+02  0.47457499642E+03  0.10566000000E+00 0. -1.
          4    1    3    3  501    0 -0.32230010452E+03 -0.94621895356E+02 -0.37741195070E+03  0.50524295244E+03  0.00000000000E+00 0.  1.
         -4    1    4    4    0  502  0.12625968001E+03  0.22655711818E+03  0.71512793989E+03  0.76070862030E+03  0.00000000000E+00 0. -1.
</event>
<event>
 8    1  0.6759491E-006  0.1013951E+04  0.7818608E-02  0.8763611E-01
         21   -1    0    0  501  502  0.00000000000E+00  0.00000000000E+00  0.10130834148E+04  0.10130834148E+04  0.00000000000E+00 0. -1.
         21   -1    0    0  502  503 -0.00000000000E+00 -0.00000000000E+00 -0.10345057058E+04  0.10345057058E+04  0.00000000000E+00 0. -1.
    9000010    2    1    2  501    0 -0.31927366605E+02  0.17087122079E+03  0.15879645854E+03  0.10263103641E+04  0.99893959644E+03 0.  0.
   -9000010    2    1    2    0  503  0.31927366605E+02 -0.17087122079E+03 -0.18021874956E+03  0.10212787564E+04  0.99010866567E+03 0.  0.
        -13    1    3    3    0    0 -0.49846474524E+03  0.12522596628E+03  0.20908424198E+03  0.55485572565E+03  0.10566000000E+00 0.  1.
         13    1    4    4    0    0  0.33991441879E+03 -0.44825679396E+03  0.15789193334E+02  0.56278350653E+03  0.10566000000E+00 0. -1.
          4    1    3    3  501    0  0.46653737864E+03  0.45645254512E+02 -0.50287783442E+02  0.47145463842E+03  0.00000000000E+00 0.  1.
         -4    1    4    4    0  503 -0.30798705218E+03  0.27738557317E+03 -0.19600794289E+03  0.45849524991E+03  0.00000000000E+00 0. -1.
</event>
<event>
 8    1  0.6759491E-006  0.1019805E+04  0.7818608E-02  0.8766896E-01
         21   -1    0    0  501  502  0.00000000000E+00  0.00000000000E+00  0.24601239538E+04  0.24601239538E+04  0.00000000000E+00 0.  1.
         21   -1    0    0  502  503 -0.00000000000E+00 -0.00000000000E+00 -0.62290224631E+03  0.62290224631E+03  0.00000000000E+00 0.  1.
    9000010    2    1    2  501    0  0.43248659338E+02  0.52574800060E+01  0.18184949776E+04  0.20630491428E+04  0.97331890695E+03 0.  0.
   -9000010    2    1    2    0  503 -0.43248659338E+02 -0.52574800060E+01  0.18726729869E+02  0.10199770572E+04  0.10188740939E+04 0.  0.
        -13    1    3    3    0    0 -0.28896320709E+03 -0.22688475714E+03  0.15090716616E+04  0.15531496126E+04  0.10566000000E+00 0.  1.
         13    1    4    4    0    0 -0.24895277289E+03  0.28119594348E+02  0.46457828556E+03  0.52782685542E+03  0.10566000000E+00 0. -1.
          4    1    3    3  501    0  0.33221186643E+03  0.23214223715E+03  0.30942331596E+03  0.50989953023E+03  0.00000000000E+00 0.  1.
         -4    1    4    4    0  503  0.20570411356E+03 -0.33377074354E+02 -0.44585155569E+03  0.49215020181E+03  0.00000000000E+00 0. -1.
</event>
<event>
 8    1  0.6759491E-006  0.1271769E+04  0.7818608E-02  0.8570626E-01
         21   -1    0    0  501  502  0.00000000000E+00  0.00000000000E+00  0.23010208203E+04  0.23010208203E+04  0.00000000000E+00 0.  1.
         21   -1    0    0  502  503 -0.00000000000E+00 -0.00000000000E+00 -0.10065514509E+04  0.10065514509E+04  0.00000000000E+00 0.  1.
    9000010    2    1    2  501    0 -0.58690723696E+03 -0.46570566853E+03  0.16400843260E+04  0.20753968454E+04  0.10276446832E+04 0.  0.
   -9000010    2    1    2    0  503  0.58690723696E+03  0.46570566853E+03 -0.34561495665E+03  0.12321754258E+04  0.91513097811E+03 0.  0.
        -13    1    3    3    0    0 -0.83775268477E+03 -0.37983905551E+03  0.89037374772E+03  0.12801846315E+04  0.10566000000E+00 0.  1.
         13    1    4    4    0    0  0.31443235649E+03 -0.17874428635E+03  0.13199747481E+03  0.38502022185E+03  0.10566000000E+00 0. -1.
          4    1    3    3  501    0  0.25084544782E+03 -0.85866613022E+02  0.74971057829E+03  0.79521221389E+03  0.00000000000E+00 0.  1.
         -4    1    4    4    0  503  0.27247488046E+03  0.64444995488E+03 -0.47761243146E+03  0.84715520391E+03  0.00000000000E+00 0. -1.
</event>
<event>
 8    1  0.6759491E-006  0.1056644E+04  0.7818608E-02  0.8730849E-01
         21   -1    0    0  501  502  0.00000000000E+00  0.00000000000E+00  0.59795525195E+03  0.59795525195E+03  0.00000000000E+00 0. -1.
         21   -1    0    0  502  503 -0.00000000000E+00 -0.00000000000E+00 -0.18480559899E+04  0.18480559899E+04  0.00000000000E+00 0. -1.
    9000010    2    1    2  501    0  0.23175608743E+03  0.81516416226E+02 -0.45204954620E+03  0.11492805467E+04  0.10276872932E+04 0.  0.
   -9000010    2    1    2    0  503 -0.23175608743E+03 -0.81516416226E+02 -0.79805119174E+03  0.12967306951E+04  0.99210331161E+03 0.  0.
        -13    1    3    3    0    0 -0.35312427024E+03  0.26619621402E+03 -0.21510132203E+03  0.49175783115E+03  0.10566000000E+00 0.  1.
         13    1    4    4    0    0  0.33486818542E+03  0.19001083333E+03 -0.38695620238E+03  0.54587171763E+03  0.10566000000E+00 0. -1.
          4    1    3    3  501    0  0.58488035767E+03 -0.18467979779E+03 -0.23694822417E+03  0.65752271553E+03  0.00000000000E+00 0.  1.
         -4    1    4    4    0  503 -0.56662427285E+03 -0.27152724956E+03 -0.41109498936E+03  0.75085897751E+03  0.00000000000E+00 0. -1.
</event>
<event>
 8    1  0.6759491E-006  0.1045083E+04  0.7818608E-02  0.8746531E-01
         21   -1    0    0  501  502  0.00000000000E+00  0.00000000000E+00  0.14932592829E+04  0.14932592829E+04  0.00000000000E+00 0.  1.
         21   -1    0    0  502  503 -0.00000000000E+00 -0.00000000000E+00 -0.74110855920E+03  0.74110855920E+03  0.00000000000E+00 0.  1.
    9000010    2    1    2  501    0  0.32298575424E+03 -0.11867143907E+03  0.65433945749E+03  0.11847177952E+04  0.92573939132E+03 0.  0.
   -9000010    2    1    2    0  503 -0.32298575424E+03  0.11867143907E+03  0.97811266204E+02  0.10496500469E+04  0.98681075660E+03 0.  0.
        -13    1    3    3    0    0 -0.21868078199E+03  0.15204383614E+03  0.48928044753E+03  0.55707627846E+03  0.10566000000E+00 0.  1.
         13    1    4    4    0    0  0.21536160634E+03  0.19893249868E+03 -0.26526098639E+03  0.39537091772E+03  0.10566000000E+00 0. -1.
          4    1    3    3  501    0  0.54166653624E+03 -0.27071527522E+03  0.16505900997E+03  0.62764151670E+03  0.00000000000E+00 0.  1.
         -4    1    4    4    0  503 -0.53834736058E+03 -0.80261059604E+02  0.36307225259E+03  0.65427912922E+03  0.00000000000E+00 0. -1.
</event>
<event>
 8    1  0.6759491E-006  0.1032015E+04  0.7818608E-02  0.8748907E-01
         21   -1    0    0  501  502  0.00000000000E+00  0.00000000000E+00  0.94947136563E+03  0.94947136563E+03  0.00000000000E+00 0. -1.
         21   -1    0    0  502  503 -0.00000000000E+00 -0.00000000000E+00 -0.11158622744E+04  0.11158622744E+04  0.00000000000E+00 0. -1.
    9000010    2    1    2  501    0 -0.12624536279E+02  0.17644219571E+03  0.25877121926E+02  0.10155617068E+04  0.99970231942E+03 0.  0.
   -9000010    2    1    2    0  503  0.12624536279E+02 -0.17644219571E+03 -0.19226803066E+03  0.10497719332E+04  0.10167413087E+04 0.  0.
        -13    1    3    3    0    0  0.29914383451E+03  0.18989551713E+03  0.39604220658E+03  0.53141018216E+03  0.10566000000E+00 0.  1.
         13    1    4    4    0    0 -0.19653348010E+03  0.27323921150E+03 -0.39062752129E+03  0.51563063045E+03  0.10566000000E+00 0. -1.
          4    1    3    3  501    0 -0.31176837079E+03 -0.13453321414E+02 -0.37016508465E+03  0.48415152460E+03  0.00000000000E+00 0.  1.
         -4    1    4    4    0  503  0.20915801638E+03 -0.44968140722E+03  0.19835949063E+03  0.53414130278E+03  0.00000000000E+00 0. -1.
</event>
<event>
 8    1  0.6759491E-006  0.1207774E+04  0.7818608E-02  0.8601504E-01
         21   -1    0    0  503  502  0.00000000000E+00  0.00000000000E+00  0.12671153621E+04  0.12671153621E+04  0.00000000000E+00 0. -1.
         21   -1    0    0  501  503 -0.00000000000E+00 -0.00000000000E+00 -0.11873023192E+04  0.11873023192E+04  0.00000000000E+00 0. -1.
    9000010    2    1    2  501    0 -0.46046667343E+01  0.64400149861E+03 -0.18533935449E+03  0.12219116152E+04  0.10217427200E+04 0.  0.
   -9000010    2    1    2    0  502  0.46046667343E+01 -0.64400149861E+03  0.26515239742E+03  0.12325060661E+04  0.10168609915E+04 0.  0.
        -13    1    3    3    0    0  0.17581325302E+03  0.12023579590E+03  0.37670465675E+03  0.43275091697E+03  0.10566000000E+00 0.  1.
         13    1    4    4    0    0  0.24665686242E+02 -0.67597770953E+03  0.59477542473E+03  0.90072863665E+03  0.10566000000E+00 0. -1.
          4    1    3    3  501    0 -0.18041791976E+03  0.52376570271E+03 -0.56204401125E+03  0.78916069826E+03  0.00000000000E+00 0.  1.
         -4    1    4    4    0  502 -0.20061019508E+02  0.31976210922E+02 -0.32962302731E+03  0.33177742946E+03  0.00000000000E+00 0. -1.
</event>
<event>
 8    1  0.6759491E-006  0.1299827E+04  0.7818608E-02  0.8545267E-01
         21   -1    0    0  503  502  0.00000000000E+00  0.00000000000E+00  0.21066586337E+04  0.21066586337E+04  0.00000000000E+00 0. -1.
         21   -1    0    0  501  503 -0.00000000000E+00 -0.00000000000E+00 -0.79964569759E+03  0.79964569759E+03  0.00000000000E+00 0.  1.
    9000010    2    1    2  501    0 -0.44424240870E+03 -0.59447058134E+03  0.93660661048E+03  0.15547303837E+04  0.99458937926E+03 0.  0.
   -9000010    2    1    2    0  502  0.44424240870E+03  0.59447058134E+03  0.37040632560E+03  0.13515739476E+04  0.10671479279E+04 0.  0.
        -13    1    3    3    0    0  0.31638709607E+03 -0.13092902233E+03  0.18463210222E+03  0.38901443133E+03  0.10566000000E+00 0.  1.
         13    1    4    4    0    0  0.11185798876E+03  0.45984002627E+03  0.71290147970E+03  0.85568311327E+03  0.10566000000E+00 0. -1.
          4    1    3    3  501    0 -0.76062950477E+03 -0.46354155901E+03  0.75197450826E+03  0.11657159523E+04  0.00000000000E+00 0.  1.
         -4    1    4    4    0  502  0.33238441993E+03  0.13463055508E+03 -0.34249515410E+03  0.49589083431E+03  0.00000000000E+00 0. -1.
</event>
<event>
 8    1  0.6759491E-006  0.1140483E+04  0.7818608E-02  0.8668420E-01
         21   -1    0    0  501  502  0.00000000000E+00  0.00000000000E+00  0.12261178665E+04  0.12261178665E+04  0.00000000000E+00 0.  1.
         21   -1    0    0  502  503 -0.00000000000E+00 -0.00000000000E+00 -0.16089705600E+04  0.16089705600E+04  0.00000000000E+00 0.  1.
    9000010    2    1    2  501    0 -0.97551577792E+02  0.40608548547E+03  0.68209805611E+03  0.13288938787E+04  0.10612631393E+04 0.  0.
   -9000010    2    1    2    0  503  0.97551577792E+02 -0.40608548547E+03 -0.10649507496E+04  0.15061945478E+04  0.97983681548E+03 0.  0.
        -13    1    3    3    0    0  0.28397635263E+03  0.60479464443E+03  0.58463958173E+03  0.88781900322E+03  0.10566000000E+00 0.  1.
         13    1    4    4    0    0 -0.56780957409E+02 -0.18120039876E+03  0.16180958281E+03  0.24947948591E+03  0.10566000000E+00 0. -1.
          4    1    3    3  501    0 -0.38152793043E+03 -0.19870915896E+03  0.97458474373E+02  0.44107487548E+03  0.00000000000E+00 0.  1.
         -4    1    4    4    0  503  0.15433253520E+03 -0.22488508671E+03 -0.12267603324E+04  0.12567150619E+04  0.00000000000E+00 0. -1.
</event>
<event>
 8    1  0.6759491E-006  0.1081051E+04  0.7818608E-02  0.8702854E-01
         21   -1    0    0  503  502  0.00000000000E+00  0.00000000000E+00  0.13474552403E+04  0.13474552403E+04  0.00000000000E+00 0. -1.
         21   -1    0    0  501  503 -0.00000000000E+00 -0.00000000000E+00 -0.16314538356E+04  0.16314538356E+04  0.00000000000E+00 0. -1.
    9000010    2    1    2  501    0  0.38923426515E+03  0.11810012424E+03 -0.11637368613E+04  0.15883813784E+04  0.10016091894E+04 0.  0.
   -9000010    2    1    2    0  502 -0.38923426515E+03 -0.11810012424E+03  0.87973826598E+03  0.13905276976E+04  0.99708420335E+03 0.  0.
        -13    1    3    3    0    0  0.38504091433E+03 -0.13412047375E+03 -0.12554277324E+04  0.13199786398E+04  0.10566000000E+00 0.  1.
         13    1    4    4    0    0 -0.82313521162E+02  0.31054206054E+03  0.79383551845E+03  0.85638001416E+03  0.10566000000E+00 0. -1.
          4    1    3    3  501    0  0.41933508164E+01  0.25222059799E+03  0.91690871050E+02  0.26840273858E+03  0.00000000000E+00 0.  1.
         -4    1    4    4    0  502 -0.30692074399E+03 -0.42864218479E+03  0.85902747535E+02  0.53414768342E+03  0.00000000000E+00 0. -1.
</event>
<event>
 8    1  0.6759491E-006  0.1010543E+04  0.7818608E-02  0.8764984E-01
         21   -1    0    0  503  502  0.00000000000E+00  0.00000000000E+00  0.71462325980E+03  0.71462325980E+03  0.00000000000E+00 0. -1.
         21   -1    0    0  501  503 -0.00000000000E+00 -0.00000000000E+00 -0.18264208793E+04  0.18264208793E+04  0.00000000000E+00 0. -1.
    9000010    2    1    2  501    0 -0.37095134286E+02  0.15642502131E+03 -0.11498491187E+04  0.15308006340E+04  0.99767366861E+03 0.  0.
   -9000010    2    1    2    0  502  0.37095134286E+02 -0.15642502131E+03  0.38051499256E+02  0.10102435050E+04  0.99664396180E+03 0.  0.
        -13    1    3    3    0    0  0.36301876027E+03  0.15423097650E+01 -0.10197880178E+04  0.10824752244E+04  0.10566000000E+00 0.  1.
         13    1    4    4    0    0  0.91155248427E+02 -0.41967866402E+03 -0.33905533946E+03  0.54717272843E+03  0.10566000000E+00 0. -1.
          4    1    3    3  501    0 -0.40011389456E+03  0.15488271155E+03 -0.13006110094E+03  0.44832540965E+03  0.00000000000E+00 0.  1.
         -4    1    4    4    0  502 -0.54060114141E+02  0.26325364271E+03  0.37710683872E+03  0.46307077661E+03  0.00000000000E+00 0. -1.
</event>
<event>
 8    1  0.6759491E-006  0.1044085E+04  0.7818608E-02  0.8737465E-01
         21   -1    0    0  503  502  0.00000000000E+00  0.00000000000E+00  0.10184357128E+04  0.10184357128E+04  0.00000000000E+00 0.  1.
         21   -1    0    0  501  503 -0.00000000000E+00 -0.00000000000E+00 -0.11782183849E+04  0.11782183849E+04  0.00000000000E+00 0.  1.
    9000010    2    1    2  501    0  0.22559711992E+03 -0.54367791446E+02 -0.43455538654E+03  0.11309071033E+04  0.10179698301E+04 0.  0.
   -9000010    2    1    2    0  502 -0.22559711992E+03  0.54367791446E+02  0.27477271444E+03  0.10657469944E+04  0.10032281367E+04 0.  0.
        -13    1    3    3    0    0 -0.14267271791E+03 -0.32773612689E+03 -0.55185418335E+03  0.65750248984E+03  0.10566000000E+00 0.  1.
         13    1    4    4    0    0 -0.30440860428E+02 -0.45320390657E+03 -0.48910701208E+01  0.45425142888E+03  0.10566000000E+00 0. -1.
          4    1    3    3  501    0  0.36826983783E+03  0.27336833544E+03  0.11729879681E+03  0.47340461342E+03  0.00000000000E+00 0.  1.
         -4    1    4    4    0  502 -0.19515625949E+03  0.50757169801E+03  0.27966378456E+03  0.61149556551E+03  0.00000000000E+00 0. -1.
</event>
<event>
 8    1  0.6759491E-006  0.1062031E+04  0.7818608E-02  0.8720305E-01
         21   -1    0    0  501  502  0.00000000000E+00  0.00000000000E+00  0.92578388700E+03  0.92578388700E+03  0.00000000000E+00 0.  1.
         21   -1    0    0  502  503 -0.00000000000E+00 -0.00000000000E+00 -0.14975665064E+04  0.14975665064E+04  0.00000000000E+00 0.  1.
    9000010    2    1    2  501    0 -0.30252369091E+03 -0.18969036981E+03  0.24752680291E+03  0.10820163105E+04  0.99095244995E+03 0.  0.
   -9000010    2    1    2    0  503  0.30252369091E+03  0.18969036981E+03 -0.81930942230E+03  0.13413340829E+04  0.10002030656E+04 0.  0.
        -13    1    3    3    0    0 -0.45111893804E+03 -0.44542782293E+03 -0.81965698746E+02  0.63924379436E+03  0.10566000000E+00 0.  1.
         13    1    4    4    0    0  0.89532451934E+02 -0.38717122513E+03 -0.13117711202E+03  0.41847946593E+03  0.10566000000E+00 0. -1.
          4    1    3    3  501    0  0.14859524713E+03  0.25573745312E+03  0.32949250166E+03  0.44277251614E+03  0.00000000000E+00 0.  1.
         -4    1    4    4    0  503  0.21299123897E+03  0.57686159494E+03 -0.68813231029E+03  0.92285461697E+03  0.00000000000E+00 0. -1.
</event>
<event>
 8    1  0.6759491E-006  0.1206781E+04  0.7818608E-02  0.8621546E-01
         21   -1    0    0  501  502  0.00000000000E+00  0.00000000000E+00  0.13288979216E+04  0.13288979216E+04  0.00000000000E+00 0. -1.
         21   -1    0    0  502  503 -0.00000000000E+00 -0.00000000000E+00 -0.12483385038E+04  0.12483385038E+04  0.00000000000E+00 0. -1.
    9000010    2    1    2  501    0  0.20216434948E+03 -0.57174290348E+03  0.60756974927E+03  0.12603994256E+04  0.92287883280E+03 0.  0.
   -9000010    2    1    2    0  503 -0.20216434948E+03  0.57174290348E+03 -0.52701033152E+03  0.13168369998E+04  0.10433405114E+04 0.  0.
        -13    1    3    3    0    0  0.36377246907E+03 -0.47060889892E+03  0.79510776606E+03  0.99297508318E+03  0.10566000000E+00 0.  1.
         13    1    4    4    0    0 -0.32859867183E+03  0.36182278346E+02 -0.67101070066E+03  0.74802514394E+03  0.10566000000E+00 0. -1.
          4    1    3    3  501    0 -0.16160811959E+03 -0.10113400456E+03 -0.18753801679E+03  0.26742434246E+03  0.00000000000E+00 0.  1.
         -4    1    4    4    0  503  0.12643432234E+03  0.53556062513E+03  0.14400036914E+03  0.56881185587E+03  0.00000000000E+00 0. -1.
</event>
<event>
 8    1  0.6759491E-006  0.1079078E+04  0.7818608E-02  0.8707593E-01
         21   -1    0    0  501  502  0.00000000000E+00  0.00000000000E+00  0.24821100808E+04  0.24821100808E+04  0.00000000000E+00 0. -1.
         21   -1    0    0  502  503 -0.00000000000E+00 -0.00000000000E+00 -0.66050503222E+03  0.66050503222E+03  0.00000000000E+00 0. -1.
    9000010    2    1    2  501    0 -0.23000014239E+03 -0.33659022252E+03  0.17793212147E+04  0.20809599685E+04  0.99910828340E+03 0.  0.
   -9000010    2    1    2    0  503  0.23000014239E+03  0.33659022252E+03  0.42283833942E+02  0.10616551446E+04  0.97935217366E+03 0.  0.
        -13    1    3    3    0    0  0.29833023559E+03  0.17313561784E+03  0.56387754444E+03  0.66101041438E+03  0.10566000000E+00 0.  1.
         13    1    4    4    0    0  0.22771236108E+03 -0.32560842326E+03 -0.93426032478E+01  0.39744315327E+03  0.10566000000E+00 0. -1.
          4    1    3    3  501    0 -0.52833037798E+03 -0.50972584036E+03  0.12154436702E+04  0.14199495541E+04  0.00000000000E+00 0.  1.
         -4    1    4    4    0  503  0.22877813055E+01  0.66219864577E+03  0.51626437190E+02  0.66421199133E+03  0.00000000000E+00 0. -1.
</event>
<event>
 8    1  0.6759491E-006  0.1032121E+04  0.7818608E-02  0.8748929E-01
         21   -1    0    0  503  502  0.00000000000E+00  0.00000000000E+00  0.74868423572E+03  0.74868423572E+03  0.00000000000E+00 0. -1.
         21   -1    0    0  501  503 -0.00000000000E+00 -0.00000000000E+00 -0.16514843017E+04  0.16514843017E+04  0.00000000000E+00 0. -1.
    9000010    2    1    2  501    0  0.17217270374E+03 -0.11812535121E+03 -0.91728552032E+03  0.13679459391E+04  0.99310942392E+03 0.  0.
   -9000010    2    1    2    0  502 -0.17217270374E+03  0.11812535121E+03  0.14485454374E+02  0.10322225983E+04  0.10107802064E+04 0.  0.
        -13    1    3    3    0    0 -0.27262252637E+02  0.21342222635E+03 -0.95524881166E+03  0.97917954455E+03  0.10566000000E+00 0.  1.
         13    1    4    4    0    0 -0.37231707983E+02  0.53799757845E+03  0.16863454699E+03  0.56503558835E+03  0.10566000000E+00 0. -1.
          4    1    3    3  501    0  0.19943495638E+03 -0.33154757755E+03  0.37963291343E+02  0.38876639450E+03  0.00000000000E+00 0.  1.
         -4    1    4    4    0  502 -0.13494099576E+03 -0.41987222724E+03 -0.15414909262E+03  0.46718700999E+03  0.00000000000E+00 0. -1.
</event>
<event>
 8    1  0.6759491E-006  0.1025509E+04  0.7818608E-02  0.8754495E-01
         21   -1    0    0  503  502  0.00000000000E+00  0.00000000000E+00  0.41004745404E+03  0.41004745404E+03  0.00000000000E+00 0.  1.
         21   -1    0    0  501  503 -0.00000000000E+00 -0.00000000000E+00 -0.25342751403E+04  0.25342751403E+04  0.00000000000E+00 0.  1.
    9000010    2    1    2  501    0 -0.12700555800E+03  0.80205349505E+02 -0.11506296755E+04  0.15413039766E+04  0.10144486129E+04 0.  0.
   -9000010    2    1    2    0  502  0.12700555800E+03 -0.80205349505E+02 -0.97359801078E+03  0.14030186178E+04  0.99900192461E+03 0.  0.
        -13    1    3    3    0    0 -0.46376543956E+03 -0.19697622629E+03 -0.91749489251E+03  0.10467449095E+04  0.10566000000E+00 0.  1.
         13    1    4    4    0    0  0.56157254516E+03 -0.33194846674E+02 -0.64707762131E+03  0.85742351291E+03  0.10566000000E+00 0. -1.
          4    1    3    3  501    0  0.33675988156E+03  0.27718157579E+03 -0.23313478299E+03  0.49455906707E+03  0.00000000000E+00 0.  1.
         -4    1    4    4    0  502 -0.43456698717E+03 -0.47010502831E+02 -0.32652038948E+03  0.54559510487E+03  0.00000000000E+00 0. -1.
</event>
<event>
 8    1  0.6759491E-006  0.1096795E+04  0.7818608E-02  0.8690970E-01
         21   -1    0    0  503  502  0.00000000000E+00  0.00000000000E+00  0.95163208102E+03  0.95163208102E+03  0.00000000000E+00 0. -1.
         21   -1    0    0  501  503 -0.00000000000E+00 -0.00000000000E+00 -0.13645015593E+04  0.13645015593E+04  0.00000000000E+00 0. -1.
    9000010    2    1    2  501    0  0.34862011894E+03 -0.27246961854E+03 -0.54100058713E+03  0.12229641344E+04  0.10035855511E+04 0.  0.
   -9000010    2    1    2    0  502 -0.34862011894E+03  0.27246961854E+03  0.12813110883E+03  0.10931695059E+04  0.99137596665E+03 0.  0.
        -13    1    3    3    0    0  0.58130667566E+03 -0.23559003786E+03 -0.69910554758E+03  0.93923835895E+03  0.10566000000E+00 0.  1.
         13    1    4    4    0    0 -0.66029914818E+03 -0.14138916408E+02  0.47675232855E+02  0.66216902151E+03  0.10566000000E+00 0. -1.
          4    1    3    3  501    0 -0.23268655672E+03 -0.36879580675E+02  0.15810496045E+03  0.28372577548E+03  0.00000000000E+00 0.  1.
         -4    1    4    4    0  502  0.31167902925E+03  0.28660853495E+03  0.80455875980E+02  0.43100048441E+03  0.00000000000E+00 0. -1.
</event>
<event>
 8    1  0.8152243E-006  0.1085729E+04  0.7818608E-02  0.8703157E-01
         21   -1    0    0  503  502  0.00000000000E+00  0.00000000000E+00  0.11797238380E+04  0.11797238380E+04  0.00000000000E+00 0. -1.
         21   -1    0    0  501  503 -0.00000000000E+00 -0.00000000000E+00 -0.12142553036E+04  0.12142553036E+04  0.00000000000E+00 0. -1.
    9000010    2    1    2  501    0 -0.34918631259E+03 -0.18935555864E+03 -0.54633973754E+03  0.12154400919E+04  0.10104557881E+04 0.  0.
   -9000010    2    1    2    0  502  0.34918631259E+03  0.18935555864E+03  0.51180827195E+03  0.11785390498E+04  0.98448970346E+03 0.  0.
        -13    1    3    3    0    0 -0.20985613751E+03 -0.40453202614E+03  0.14489272166E+03  0.47820463254E+03  0.10566000000E+00 0.  1.
         13    1    4    4    0    0  0.13107611571E+03 -0.34965481858E+03  0.46330045698E+03  0.59505190099E+03  0.10566000000E+00 0. -1.
          4    1    3    3  501    0 -0.13933017507E+03  0.21517646751E+03 -0.69123245920E+03  0.73723545934E+03  0.00000000000E+00 0.  1.
         -4    1    4    4    0  502  0.21811019688E+03  0.53901037722E+03  0.48507814964E+02  0.58348714882E+03  0.00000000000E+00 0. -1.
</event>
<event>
 8    1  0.6759491E-006  0.1053701E+04  0.7818608E-02  0.8735966E-01
         21   -1    0    0  503  502  0.00000000000E+00  0.00000000000E+00  0.25515332382E+04  0.25515332382E+04  0.00000000000E+00 0.  1.
         21   -1    0    0  501  503 -0.00000000000E+00 -0.00000000000E+00 -0.51337251048E+03  0.51337251048E+03  0.00000000000E+00 0.  1.
    9000010    2    1    2  501    0  0.18474640995E+03  0.12948950041E+03  0.33555400262E+03  0.10626180566E+04  0.98268096489E+03 0.  0.
   -9000010    2    1    2    0  502 -0.18474640995E+03 -0.12948950041E+03  0.17026067251E+04  0.20022876921E+04  0.10292655512E+04 0.  0.
        -13    1    3    3    0    0  0.35856836773E+03  0.42135794807E+03 -0.41834624911E+02  0.55485488349E+03  0.10566000000E+00 0.  1.
         13    1    4    4    0    0 -0.54947529134E+03 -0.79249087167E+02  0.50897934270E+03  0.75316896913E+03  0.10566000000E+00 0. -1.
          4    1    3    3  501    0 -0.17382195778E+03 -0.29186844765E+03  0.37738862753E+03  0.50776317307E+03  0.00000000000E+00 0.  1.
         -4    1    4    4    0  502  0.36472888139E+03 -0.50240413248E+02  0.11936273824E+04  0.12491187229E+04  0.00000000000E+00 0. -1.
</event>
<event>
 8    1  0.6759491E-006  0.1016848E+04  0.7818608E-02  0.8762571E-01
         21   -1    0    0  503  502  0.00000000000E+00  0.00000000000E+00  0.92138156506E+03  0.92138156506E+03  0.00000000000E+00 0. -1.
         21   -1    0    0  501  503 -0.00000000000E+00 -0.00000000000E+00 -0.12461513214E+04  0.12461513214E+04  0.00000000000E+00 0. -1.
    9000010    2    1    2  501    0 -0.18401670367E+03  0.40278084715E+02 -0.52610636638E+03  0.11309443542E+04  0.98324094311E+03 0.  0.
   -9000010    2    1    2    0  502  0.18401670367E+03 -0.40278084715E+02  0.20133661005E+03  0.10365885323E+04  0.99924715827E+03 0.  0.
        -13    1    3    3    0    0  0.10949050713E+03 -0.27144785652E+03 -0.62621068964E+03  0.69123942954E+03  0.10566000000E+00 0.  1.
         13    1    4    4    0    0 -0.27027430351E+03  0.16302743306E+03 -0.21978985325E+03  0.38462154623E+03  0.10566000000E+00 0. -1.
          4    1    3    3  501    0 -0.29350721080E+03  0.31172594124E+03  0.10010432327E+03  0.43970492466E+03  0.00000000000E+00 0.  1.
         -4    1    4    4    0  502  0.45429100718E+03 -0.20330551778E+03  0.42112646330E+03  0.65196698602E+03  0.00000000000E+00 0. -1.
</event>
<event>
 8    1  0.6759491E-006  0.1047422E+04  0.7818608E-02  0.8731850E-01
         21   -1    0    0  501  502  0.00000000000E+00  0.00000000000E+00  0.13116864965E+04  0.13116864965E+04  0.00000000000E+00 0. -1.
         21   -1    0    0  502  503 -0.00000000000E+00 -0.00000000000E+00 -0.18883249277E+04  0.18883249277E+04  0.00000000000E+00 0. -1.
    9000010    2    1    2  501    0  0.31263289917E+03 -0.12544446453E+03  0.90722369066E+03  0.13837131593E+04  0.98900537866E+03 0.  0.
   -9000010    2    1    2    0  503 -0.31263289917E+03  0.12544446453E+03 -0.14838621219E+04  0.18162982649E+04  0.99177464533E+03 0.  0.
        -13    1    3    3    0    0  0.42363636103E+03 -0.43847949011E+03  0.27350796131E+03  0.66823547174E+03  0.10566000000E+00 0.  1.
         13    1    4    4    0    0 -0.66408578338E+03  0.15989790034E+02 -0.80161909033E+03  0.10410853847E+04  0.10566000000E+00 0. -1.
          4    1    3    3  501    0 -0.11100346185E+03  0.31303502558E+03  0.63371572935E+03  0.71547768757E+03  0.00000000000E+00 0.  1.
         -4    1    4    4    0  503  0.35145288421E+03  0.10945467450E+03 -0.68224303156E+03  0.77521288025E+03  0.00000000000E+00 0. -1.
</event>
<event>
 8    1  0.6759491E-006  0.1042237E+04  0.7818608E-02  0.8737901E-01
         21   -1    0    0  503  502  0.00000000000E+00  0.00000000000E+00  0.14394315242E+04  0.14394315242E+04  0.00000000000E+00 0.  1.
         21   -1    0    0  501  503 -0.00000000000E+00 -0.00000000000E+00 -0.13305974496E+04  0.13305974496E+04  0.00000000000E+00 0.  1.
    9000010    2    1    2  501    0  0.17107848188E+03 -0.18637670390E+03 -0.86204630322E+03  0.13456464039E+04  0.10018164965E+04 0.  0.
   -9000010    2    1    2    0  502 -0.17107848188E+03  0.18637670390E+03  0.97088037785E+03  0.14243825699E+04  0.10110652177E+04 0.  0.
        -13    1    3    3    0    0  0.12247800191E+03 -0.34178866640E+03 -0.10417121391E+04  0.11031702250E+04  0.10566000000E+00 0.  1.
         13    1    4    4    0    0 -0.17631695660E+03  0.39125230604E+03  0.11009608216E+04  0.11816432533E+04  0.10566000000E+00 0. -1.
          4    1    3    3  501    0  0.48600479964E+02  0.15541196250E+03  0.17966583589E+03  0.24247617888E+03  0.00000000000E+00 0.  1.
         -4    1    4    4    0  502  0.52384747216E+01 -0.20487560214E+03 -0.13008044375E+03  0.24273931658E+03  0.00000000000E+00 0. -1.
</event>
<event>
 8    1  0.6759491E-006  0.1040937E+04  0.7818608E-02  0.8739369E-01
         21   -1    0    0  501  502  0.00000000000E+00  0.00000000000E+00  0.24423368205E+04  0.24423368205E+04  0.00000000000E+00 0.  1.
         21   -1    0    0  502  503 -0.00000000000E+00 -0.00000000000E+00 -0.67487683947E+03  0.67487683947E+03  0.00000000000E+00 0.  1.
    9000010    2    1    2  501    0  0.13441751558E+03 -0.15031727105E+03  0.18017697411E+04  0.20757115440E+04  0.10107130471E+04 0.  0.
   -9000010    2    1    2    0  503 -0.13441751558E+03  0.15031727105E+03 -0.34309760098E+02  0.10415021159E+04  0.10212179725E+04 0.  0.
        -13    1    3    3    0    0 -0.21207731902E+03  0.15605310248E+03  0.15011867213E+04  0.15241033243E+04  0.10566000000E+00 0.  1.
         13    1    4    4    0    0 -0.56283297389E+03  0.55661243344E+02 -0.15504528238E+03  0.58644537790E+03  0.10566000000E+00 0. -1.
          4    1    3    3  501    0  0.34649483461E+03 -0.30637037353E+03  0.30058301983E+03  0.55160821966E+03  0.00000000000E+00 0.  1.
         -4    1    4    4    0  503  0.42841545830E+03  0.94656027709E+02  0.12073552228E+03  0.45505673804E+03  0.00000000000E+00 0. -1.
</event>
<event>
 8    1  0.6759491E-006  0.1107852E+04  0.7818608E-02  0.8699714E-01
         21   -1    0    0  501  502  0.00000000000E+00  0.00000000000E+00  0.13002905804E+04  0.13002905804E+04  0.00000000000E+00 0.  1.
         21   -1    0    0  502  503 -0.00000000000E+00 -0.00000000000E+00 -0.11426653672E+04  0.11426653672E+04  0.00000000000E+00 0.  1.
    9000010    2    1    2  501    0  0.62030343151E+02  0.15676039442E+03  0.67694292307E+03  0.12194251113E+04  0.10001621350E+04 0.  0.
   -9000010    2    1    2    0  503 -0.62030343151E+02 -0.15676039442E+03 -0.51931770990E+03  0.12235308363E+04  0.10949498796E+04 0.  0.
        -13    1    3    3    0    0  0.13491072529E+03 -0.15950900622E+03 -0.19700975653E+03  0.28715306405E+03  0.10566000000E+00 0.  1.
         13    1    4    4    0    0  0.27688965368E+03 -0.27616391339E+03 -0.71456215079E+03  0.81457563546E+03  0.10566000000E+00 0. -1.
          4    1    3    3  501    0 -0.72880382135E+02  0.31626940063E+03  0.87395267960E+03  0.93227204723E+03  0.00000000000E+00 0.  1.
         -4    1    4    4    0  503 -0.33891999684E+03  0.11940351898E+03  0.19524444089E+03  0.40895520085E+03  0.00000000000E+00 0. -1.
</event>
<event>
 8    1  0.6759491E-006  0.1044441E+04  0.7818608E-02  0.8734877E-01
         21   -1    0    0  501  502  0.00000000000E+00  0.00000000000E+00  0.17267195105E+04  0.17267195105E+04  0.00000000000E+00 0. -1.
         21   -1    0    0  502  503 -0.00000000000E+00 -0.00000000000E+00 -0.68370904757E+03  0.68370904757E+03  0.00000000000E+00 0. -1.
    9000010    2    1    2  501    0 -0.20535657422E+03  0.21602660430E+03  0.86093316087E+03  0.13502358327E+04  0.99654005437E+03 0.  0.
   -9000010    2    1    2    0  503  0.20535657422E+03 -0.21602660430E+03  0.18207730208E+03  0.10601927254E+04  0.10010083190E+04 0.  0.
        -13    1    3    3    0    0 -0.17772979050E+03  0.93748124041E+02 -0.19906599211E+03  0.28284955289E+03  0.10566000000E+00 0.  1.
         13    1    4    4    0    0  0.37546862327E+03 -0.35988683457E+03 -0.24772943295E+03  0.57607734192E+03  0.10566000000E+00 0. -1.
          4    1    3    3  501    0 -0.27626783721E+02  0.12227848026E+03  0.10599991530E+04  0.10673862798E+04  0.00000000000E+00 0.  1.
         -4    1    4    4    0  503 -0.17011204905E+03  0.14386023028E+03  0.42980673503E+03  0.48411538352E+03  0.00000000000E+00 0. -1.
</event>
<event>
 8    1  0.6759491E-006  0.1093028E+04  0.7818608E-02  0.8700814E-01
         21   -1    0    0  503  502  0.00000000000E+00  0.00000000000E+00  0.81379219167E+03  0.81379219167E+03  0.00000000000E+00 0.  1.
         21   -1    0    0  501  503 -0.00000000000E+00 -0.00000000000E+00 -0.22963203481E+04  0.22963203481E+04  0.00000000000E+00 0.  1.
    9000010    2    1    2  501    0 -0.32303971492E+03  0.80838864429E+02 -0.17149311459E+04  0.20336418671E+04  0.10410671587E+04 0.  0.
   -9000010    2    1    2    0  502  0.32303971492E+03 -0.80838864429E+02  0.23240298946E+03  0.10764706727E+04  0.99693950681E+03 0.  0.
        -13    1    3    3    0    0 -0.41442883330E+03 -0.32191892328E+03 -0.14523276260E+04  0.15442275077E+04  0.10566000000E+00 0.  1.
         13    1    4    4    0    0  0.54882724528E+03 -0.28141808406E+03  0.39603835308E+03  0.73297603745E+03  0.10566000000E+00 0. -1.
          4    1    3    3  501    0  0.91389118378E+02  0.40275778771E+03 -0.26260351983E+03  0.48941435936E+03  0.00000000000E+00 0.  1.
         -4    1    4    4    0  502 -0.22578753036E+03  0.20057921963E+03 -0.16363536362E+03  0.34349463524E+03  0.00000000000E+00 0. -1.
</event>
<event>
 8    1  0.6759491E-006  0.1040430E+04  0.7818608E-02  0.8741649E-01
         21   -1    0    0  501  502  0.00000000000E+00  0.00000000000E+00  0.12431569302E+04  0.12431569302E+04  0.00000000000E+00 0. -1.
         21   -1    0    0  502  503 -0.00000000000E+00 -0.00000000000E+00 -0.11188812865E+04  0.11188812865E+04  0.00000000000E+00 0. -1.
    9000010    2    1    2  501    0  0.21616249600E+03  0.17616873078E+02  0.63556193108E+03  0.12191934875E+04  0.10175741805E+04 0.  0.
   -9000010    2    1    2    0  503 -0.21616249600E+03 -0.17616873078E+02 -0.51128628733E+03  0.11428447292E+04  0.99882121955E+03 0.  0.
        -13    1    3    3    0    0 -0.12988843835E+03  0.37275448851E+03  0.60501219454E+03  0.72239648520E+03  0.10566000000E+00 0.  1.
         13    1    4    4    0    0 -0.38495651119E+03  0.10182868964E+03 -0.73640519247E+03  0.83716976547E+03  0.10566000000E+00 0. -1.
          4    1    3    3  501    0  0.34605093435E+03 -0.35513761543E+03  0.30549736541E+02  0.49679700227E+03  0.00000000000E+00 0.  1.
         -4    1    4    4    0  503  0.16879401519E+03 -0.11944556272E+03  0.22511890515E+03  0.30567496376E+03  0.00000000000E+00 0. -1.
</event>
<event>
 8    1  0.6759491E-006  0.1062961E+04  0.7818608E-02  0.8719065E-01
         21   -1    0    0  501  502  0.00000000000E+00  0.00000000000E+00  0.46007153772E+03  0.46007153772E+03  0.00000000000E+00 0. -1.
         21   -1    0    0  502  503 -0.00000000000E+00 -0.00000000000E+00 -0.40938174204E+04  0.40938174204E+04  0.00000000000E+00 0. -1.
    9000010    2    1    2  501    0 -0.20757139141E+03 -0.29521597644E+03 -0.37324517899E+03  0.11265865986E+04  0.99982350701E+03 0.  0.
   -9000010    2    1    2    0  503  0.20757139141E+03  0.29521597644E+03 -0.32605007037E+04  0.34273023595E+04  0.99262191681E+03 0.  0.
        -13    1    3    3    0    0 -0.57616853232E+03  0.19927721481E+02 -0.23242514764E+03  0.62160176330E+03  0.10566000000E+00 0.  1.
         13    1    4    4    0    0 -0.68677524123E+02  0.41575882632E+02  0.50687225683E+02  0.94943995849E+02  0.10566000000E+00 0. -1.
          4    1    3    3  501    0  0.36859714091E+03 -0.31514369792E+03 -0.14082003135E+03  0.50498483527E+03  0.00000000000E+00 0.  1.
         -4    1    4    4    0  503  0.27624891553E+03  0.25364009381E+03 -0.33111879293E+04  0.33323583637E+04  0.00000000000E+00 0. -1.
</event>
<event>
 8    1  0.6759491E-006  0.1017858E+04  0.7818608E-02  0.8761489E-01
         21   -1    0    0  503  502  0.00000000000E+00  0.00000000000E+00  0.10876679952E+04  0.10876679952E+04  0.00000000000E+00 0.  1.
         21   -1    0    0  501  503 -0.00000000000E+00 -0.00000000000E+00 -0.94169520756E+03  0.94169520756E+03  0.00000000000E+00 0.  1.
    9000010    2    1    2  501    0  0.49260570213E+02 -0.58103988598E+02  0.13302816063E+03  0.10265146727E+04  0.10150040416E+04 0.  0.
   -9000010    2    1    2    0  502 -0.49260570213E+02  0.58103988598E+02  0.12944626992E+02  0.10028485301E+04  0.99986745802E+03 0.  0.
        -13    1    3    3    0    0  0.42342425192E+03  0.14924911306E+03  0.32838773851E+03  0.55623907884E+03  0.10566000000E+00 0.  1.
         13    1    4    4    0    0 -0.23960513983E+03  0.19368377573E+03 -0.41404063073E+03  0.51609464546E+03  0.10566000000E+00 0. -1.
          4    1    3    3  501    0 -0.37416368171E+03 -0.20735310166E+03 -0.19535957788E+03  0.47027559383E+03  0.00000000000E+00 0.  1.
         -4    1    4    4    0  502  0.19034456962E+03 -0.13557978714E+03  0.42698525772E+03  0.48675388460E+03  0.00000000000E+00 0. -1.
</event>
<event>
 8    1  0.6759491E-006  0.1031696E+04  0.7818608E-02  0.8746170E-01
         21   -1    0    0  503  502  0.00000000000E+00  0.00000000000E+00  0.10707647777E+04  0.10707647777E+04  0.00000000000E+00 0. -1.
         21   -1    0    0  501  503 -0.00000000000E+00 -0.00000000000E+00 -0.10229310277E+04  0.10229310277E+04  0.00000000000E+00 0. -1.
    9000010    2    1    2  501    0  0.84351037061E+02  0.20642444275E+03  0.20986242305E+03  0.10493535198E+04  0.10036804396E+04 0.  0.
   -9000010    2    1    2    0  502 -0.84351037061E+02 -0.20642444275E+03 -0.16202867307E+03  0.10443422856E+04  0.10073089747E+04 0.  0.
        -13    1    3    3    0    0  0.36983412354E+02  0.41798449365E+03 -0.28623995187E+03  0.50794894520E+03  0.10566000000E+00 0.  1.
         13    1    4    4    0    0  0.45124099995E+03 -0.11965480446E+03  0.32458783828E+02  0.46796292169E+03  0.10566000000E+00 0. -1.
          4    1    3    3  501    0  0.47367624706E+02 -0.21156005091E+03  0.49610237492E+03  0.54140457461E+03  0.00000000000E+00 0.  1.
         -4    1    4    4    0  502 -0.53559203701E+03 -0.86769638283E+02 -0.19448745690E+03  0.57637936390E+03  0.00000000000E+00 0. -1.
</event>
<event>
 8    1  0.6759491E-006  0.1029490E+04  0.7818608E-02  0.8750660E-01
         21   -1    0    0  501  502  0.00000000000E+00  0.00000000000E+00  0.21075204091E+04  0.21075204091E+04  0.00000000000E+00 0. -1.
         21   -1    0    0  502  503 -0.00000000000E+00 -0.00000000000E+00 -0.61056321794E+03  0.61056321794E+03  0.00000000000E+00 0. -1.
    9000010    2    1    2  501    0 -0.16595143667E+03 -0.15790740594E+03  0.13417750932E+04  0.16912156646E+04  0.10036809232E+04 0.  0.
   -9000010    2    1    2    0  503  0.16595143667E+03  0.15790740594E+03  0.15518209803E+03  0.10268679624E+04  0.98888912450E+03 0.  0.
        -13    1    3    3    0    0  0.11281118215E+03 -0.52273845127E+03  0.93825497331E+03  0.10799556738E+04  0.10566000000E+00 0.  1.
         13    1    4    4    0    0  0.41462459208E+03 -0.27945108487E+03  0.15593007103E+03  0.52375629773E+03  0.10566000000E+00 0. -1.
          4    1    3    3  501    0 -0.27876261882E+03  0.36483104533E+03  0.40352011986E+03  0.61125999085E+03  0.00000000000E+00 0.  1.
         -4    1    4    4    0  503 -0.24867315541E+03  0.43735849081E+03 -0.74797300558E+00  0.50311166471E+03  0.00000000000E+00 0. -1.
</event>
<event>
 8    1  0.6759491E-006  0.1121005E+04  0.7818608E-02  0.8671943E-01
         21   -1    0    0  501  502  0.00000000000E+00  0.00000000000E+00  0.59795402995E+03  0.59795402995E+03  0.00000000000E+00 0. -1.
         21   -1    0    0  502  503 -0.00000000000E+00 -0.00000000000E+00 -0.21843558036E+04  0.21843558036E+04  0.00000000000E+00 0. -1.
    9000010    2    1    2  501    0 -0.49907537275E+03  0.11165338176E+03 -0.47045407956E+03  0.12005411286E+04  0.97899400157E+03 0.  0.
   -9000010    2    1    2    0  503  0.49907537275E+03 -0.11165338176E+03 -0.11159476941E+04  0.15817687050E+04  0.99755214135E+03 0.  0.
        -13    1    3    3    0    0  0.20501311402E+03 -0.34357588187E+02 -0.43321823457E+03  0.48050897048E+03  0.10566000000E+00 0.  1.
         13    1    4    4    0    0  0.56629496649E+03  0.29800050173E+03 -0.40142511859E+03  0.75540480876E+03  0.10566000000E+00 0. -1.
          4    1    3    3  501    0 -0.70408848677E+03  0.14601096995E+03 -0.37235844992E+02  0.72003215810E+03  0.00000000000E+00 0.  1.
         -4    1    4    4    0  503 -0.67219593742E+02 -0.40965388349E+03 -0.71452257551E+03  0.82636389620E+03  0.00000000000E+00 0. -1.
</event>
<event>
 8    1  0.6759491E-006  0.1030795E+04  0.7818608E-02  0.8747256E-01
         21   -1    0    0  501  502  0.00000000000E+00  0.00000000000E+00  0.69861297455E+03  0.69861297455E+03  0.00000000000E+00 0. -1.
         21   -1    0    0  502  503 -0.00000000000E+00 -0.00000000000E+00 -0.17567819395E+04  0.17567819395E+04  0.00000000000E+00 0. -1.
    9000010    2    1    2  501    0 -0.28134155979E+03 -0.94095166114E+01 -0.71603911771E+02  0.10285627932E+04  0.98669787024E+03 0.  0.
   -9000010    2    1    2    0  503  0.28134155979E+03  0.94095166114E+01 -0.98656505321E+03  0.14268321209E+04  0.99161367713E+03 0.  0.
        -13    1    3    3    0    0 -0.55757488989E+03  0.16137670557E+03  0.19082450955E+03  0.61102062448E+03  0.10566000000E+00 0.  1.
         13    1    4    4    0    0  0.48662459278E+03 -0.53849064098E+02 -0.81138067892E+02  0.49627272062E+03  0.10566000000E+00 0. -1.
          4    1    3    3  501    0  0.27623333010E+03 -0.17078622218E+03 -0.26242842132E+03  0.41754216872E+03  0.00000000000E+00 0.  1.
         -4    1    4    4    0  503 -0.20528303299E+03  0.63258580709E+02 -0.90542698532E+03  0.93055940026E+03  0.00000000000E+00 0. -1.
</event>
<event>
 8    1  0.6759491E-006  0.1010479E+04  0.7818608E-02  0.8767207E-01
         21   -1    0    0  503  502  0.00000000000E+00  0.00000000000E+00  0.90465325542E+03  0.90465325542E+03  0.00000000000E+00 0. -1.
         21   -1    0    0  501  503 -0.00000000000E+00 -0.00000000000E+00 -0.13859497360E+04  0.13859497360E+04  0.00000000000E+00 0. -1.
    9000010    2    1    2  501    0  0.17791421309E+03 -0.54796979577E+02 -0.74396737115E+03  0.12465414016E+04  0.98271147360E+03 0.  0.
   -9000010    2    1    2    0  502 -0.17791421309E+03  0.54796979577E+02  0.26267089060E+03  0.10440615898E+04  0.99318297927E+03 0.  0.
        -13    1    3    3    0    0  0.31187112660E+03  0.87554192038E+02  0.13143764643E+03  0.34957860663E+03  0.10566000000E+00 0.  1.
         13    1    4    4    0    0 -0.12235931575E+03 -0.29050273881E+03  0.52122275035E+03  0.60912790943E+03  0.10566000000E+00 0. -1.
          4    1    3    3  501    0 -0.13395691350E+03 -0.14235117161E+03 -0.87540501758E+03  0.89696279496E+03  0.00000000000E+00 0.  1.
         -4    1    4    4    0  502 -0.55554897347E+02  0.34529971838E+03 -0.25855185975E+03  0.43493368036E+03  0.00000000000E+00 0. -1.
</event>
<event>
 8    1  0.6759491E-006  0.1072080E+04  0.7818608E-02  0.8711420E-01
         21   -1    0    0  503  502  0.00000000000E+00  0.00000000000E+00  0.80127238404E+03  0.80127238404E+03  0.00000000000E+00 0. -1.
         21   -1    0    0  501  503 -0.00000000000E+00 -0.00000000000E+00 -0.15398188158E+04  0.15398188158E+04  0.00000000000E+00 0. -1.
    9000010    2    1    2  501    0  0.38212914355E+03  0.60697438717E+02 -0.68955657480E+03  0.12678919718E+04  0.99113819470E+03 0.  0.
   -9000010    2    1    2    0  502 -0.38212914355E+03 -0.60697438717E+02 -0.48989856994E+02  0.10731992280E+04  0.99982484242E+03 0.  0.
        -13    1    3    3    0    0 -0.71941200845E+02  0.93626564520E+02  0.22060668319E+03  0.25021748499E+03  0.10566000000E+00 0.  1.
         13    1    4    4    0    0  0.10516066927E+03 -0.30029801541E+03  0.29211887022E+03  0.43193878030E+03  0.10566000000E+00 0. -1.
          4    1    3    3  501    0  0.45407034439E+03 -0.32929125804E+02 -0.91016325799E+03  0.10176744868E+04  0.00000000000E+00 0.  1.
         -4    1    4    4    0  502 -0.48728981282E+03  0.23960057669E+03 -0.34110872722E+03  0.64126044772E+03  0.00000000000E+00 0. -1.
</event>
<event>
 8    1  0.6759491E-006  0.1016144E+04  0.7818608E-02  0.8762036E-01
         21   -1    0    0  501  502  0.00000000000E+00  0.00000000000E+00  0.81397444498E+03  0.81397444498E+03  0.00000000000E+00 0. -1.
         21   -1    0    0  502  503 -0.00000000000E+00 -0.00000000000E+00 -0.17267152479E+04  0.17267152479E+04  0.00000000000E+00 0. -1.
    9000010    2    1    2  501    0 -0.34779765739E+02  0.16878666461E+03  0.20915393719E+03  0.10270197163E+04  0.99061877527E+03 0.  0.
   -9000010    2    1    2    0  503  0.34779765739E+02 -0.16878666461E+03 -0.11218947401E+04  0.15136699766E+04  0.10014241958E+04 0.  0.
        -13    1    3    3    0    0 -0.36214726479E+03  0.22451569380E+03  0.44776720076E+03  0.61810469615E+03  0.10566000000E+00 0.  1.
         13    1    4    4    0    0 -0.17121789716E+02 -0.51585438663E+03 -0.10281602854E+04  0.11504401277E+04  0.10566000000E+00 0. -1.
          4    1    3    3  501    0  0.32736749905E+03 -0.55729029196E+02 -0.23861326357E+03  0.40891502012E+03  0.00000000000E+00 0.  1.
         -4    1    4    4    0  503  0.51901555455E+02  0.34706772202E+03 -0.93734454750E+02  0.36322984890E+03  0.00000000000E+00 0. -1.
</event>
<event>
 8    1  0.6759491E-006  0.1076598E+04  0.7818608E-02  0.8719181E-01
         21   -1    0    0  501  502  0.00000000000E+00  0.00000000000E+00  0.14014391149E+04  0.14014391149E+04  0.00000000000E+00 0. -1.
         21   -1    0    0  502  503 -0.00000000000E+00 -0.00000000000E+00 -0.81976830431E+03  0.81976830431E+03  0.00000000000E+00 0. -1.
    9000010    2    1    2  501    0 -0.20329243654E+03 -0.16089606063E+03  0.52363386973E+03  0.11430460050E+04  0.98241863933E+03 0.  0.
   -9000010    2    1    2    0  503  0.20329243654E+03  0.16089606063E+03  0.58036940857E+02  0.10781614142E+04  0.10449154949E+04 0.  0.
        -13    1    3    3    0    0  0.15388102716E+03 -0.18518121050E+03  0.70266934637E+03  0.74277565438E+03  0.10566000000E+00 0.  1.
         13    1    4    4    0    0 -0.33753458669E+03 -0.21030338014E+03  0.12968512758E+03  0.41830055270E+03  0.10566000000E+00 0. -1.
          4    1    3    3  501    0 -0.35717346370E+03  0.24285149875E+02 -0.17903547664E+03  0.40027035061E+03  0.00000000000E+00 0.  1.
         -4    1    4    4    0  503  0.54082702324E+03  0.37119944077E+03 -0.71648186722E+02  0.65986086151E+03  0.00000000000E+00 0. -1.
</event>
<event>
 8    1  0.6759491E-006  0.1057647E+04  0.7818608E-02  0.8733237E-01
         21   -1    0    0  501  502  0.00000000000E+00  0.00000000000E+00  0.15955191868E+04  0.15955191868E+04  0.00000000000E+00 0. -1.
         21   -1    0    0  502  503 -0.00000000000E+00 -0.00000000000E+00 -0.12015615071E+04  0.12015615071E+04  0.00000000000E+00 0. -1.
    9000010    2    1    2  501    0  0.31948648236E+03 -0.15795181696E+03  0.11252609805E+04  0.15112261498E+04  0.94370112463E+03 0.  0.
   -9000010    2    1    2    0  503 -0.31948648236E+03  0.15795181696E+03 -0.73130330072E+03  0.12858545441E+04  0.99578963746E+03 0.  0.
        -13    1    3    3    0    0  0.28429214579E+03  0.84150328203E+02  0.12149914635E+04  0.12506428625E+04  0.10566000000E+00 0.  1.
         13    1    4    4    0    0  0.29833234063E+03  0.10664966359E+03 -0.55878502304E+03  0.64235274526E+03  0.10566000000E+00 0. -1.
          4    1    3    3  501    0  0.35194336574E+02 -0.24210214516E+03 -0.89730483039E+02  0.26058328727E+03  0.00000000000E+00 0.  1.
         -4    1    4    4    0  503 -0.61781882299E+03  0.51302153371E+02 -0.17251827768E+03  0.64350179885E+03  0.00000000000E+00 0. -1.
</event>
<event>
 8    1  0.6759491E-006  0.1167313E+04  0.7818608E-02  0.8640089E-01
         21   -1    0    0  503  502  0.00000000000E+00  0.00000000000E+00  0.87407682290E+03  0.87407682290E+03  0.00000000000E+00 0.  1.
         21   -1    0    0  501  503 -0.00000000000E+00 -0.00000000000E+00 -0.18462447596E+04  0.18462447596E+04  0.00000000000E+00 0.  1.
    9000010    2    1    2  501    0  0.51607273113E+03  0.11937999449E+03  0.10830468702E+03  0.11297114456E+04  0.99193517842E+03 0.  0.
   -9000010    2    1    2    0  502 -0.51607273113E+03 -0.11937999449E+03 -0.10804726237E+04  0.15906101369E+04  0.10402100125E+04 0.  0.
        -13    1    3    3    0    0  0.42137372102E+03  0.11155461965E+03 -0.41260702976E+03  0.60020398041E+03  0.10566000000E+00 0.  1.
         13    1    4    4    0    0 -0.82919413412E+03 -0.73387929402E+02 -0.64910379344E+03  0.10555967251E+04  0.10566000000E+00 0. -1.
          4    1    3    3  501    0  0.94699010105E+02  0.78253748378E+01  0.52091171678E+03  0.52950746518E+03  0.00000000000E+00 0.  1.
         -4    1    4    4    0  502  0.31312140299E+03 -0.45992065085E+02 -0.43136883028E+03  0.53501341180E+03  0.00000000000E+00 0. -1.
</event>
<event>
 8    1  0.6759491E-006  0.1061103E+04  0.7818608E-02  0.8720077E-01
         21   -1    0    0  501  502  0.00000000000E+00  0.00000000000E+00  0.23236324319E+04  0.23236324319E+04  0.00000000000E+00 0. -1.
         21   -1    0    0  502  503 -0.00000000000E+00 -0.00000000000E+00 -0.53226978829E+03  0.53226978829E+03  0.00000000000E+00 0. -1.
    9000010    2    1    2  501    0  0.27805493537E+03  0.15081919185E+03  0.13297185629E+04  0.16987268948E+04  0.10086925353E+04 0.  0.
   -9000010    2    1    2    0  503 -0.27805493537E+03 -0.15081919185E+03  0.46164408068E+03  0.11571753254E+04  0.10128566042E+04 0.  0.
        -13    1    3    3    0    0  0.32530817367E+03  0.30484267422E+03  0.97931174469E+02  0.45644823363E+03  0.10566000000E+00 0.  1.
         13    1    4    4    0    0  0.43715110325E+02  0.28118788285E+03 -0.16649515110E+03  0.32969422627E+03  0.10566000000E+00 0. -1.
          4    1    3    3  501    0 -0.47253238305E+02 -0.15402348237E+03  0.12317873885E+04  0.12422786612E+04  0.00000000000E+00 0.  1.
         -4    1    4    4    0  503 -0.32177004569E+03 -0.43200707470E+03  0.62813923178E+03  0.82748109912E+03  0.00000000000E+00 0. -1.
</event>
<event>
 8    1  0.6759491E-006  0.1019139E+04  0.7818608E-02  0.8758524E-01
         21   -1    0    0  501  502  0.00000000000E+00  0.00000000000E+00  0.15059949277E+04  0.15059949277E+04  0.00000000000E+00 0. -1.
         21   -1    0    0  502  503 -0.00000000000E+00 -0.00000000000E+00 -0.79109323947E+03  0.79109323947E+03  0.00000000000E+00 0. -1.
    9000010    2    1    2  501    0 -0.79042590435E+02  0.18406628727E+03  0.77759872612E+03  0.12760229172E+04  0.99168875009E+03 0.  0.
   -9000010    2    1    2    0  503  0.79042590435E+02 -0.18406628727E+03 -0.62697037887E+02  0.10210652500E+04  0.99925732271E+03 0.  0.
        -13    1    3    3    0    0  0.19807064804E+03  0.13928246230E+03 -0.16467200785E+03  0.29282839216E+03  0.10566000000E+00 0.  1.
         13    1    4    4    0    0 -0.71820665516E+02  0.21610592472E+03 -0.41075914795E+03  0.46966271672E+03  0.10566000000E+00 0. -1.
          4    1    3    3  501    0 -0.27711323848E+03  0.44783824967E+02  0.94227073396E+03  0.98319452501E+03  0.00000000000E+00 0.  1.
         -4    1    4    4    0  503  0.15086325595E+03 -0.40017221199E+03  0.34806211006E+03  0.55140253327E+03  0.00000000000E+00 0. -1.
</event>
<event>
 8    1  0.6759491E-006  0.1040280E+04  0.7818608E-02  0.8738554E-01
         21   -1    0    0  501  502  0.00000000000E+00  0.00000000000E+00  0.62797673632E+03  0.62797673632E+03  0.00000000000E+00 0.  1.
         21   -1    0    0  502  503 -0.00000000000E+00 -0.00000000000E+00 -0.20379261247E+04  0.20379261247E+04  0.00000000000E+00 0.  1.
    9000010    2    1    2  501    0 -0.25779025982E+03 -0.33179224170E+02 -0.12354855632E+04  0.16151183170E+04  0.10072864152E+04 0.  0.
   -9000010    2    1    2    0  503  0.25779025982E+03  0.33179224170E+02 -0.17446382521E+03  0.10507845440E+04  0.10030722071E+04 0.  0.
        -13    1    3    3    0    0 -0.45295981277E+02  0.20936183284E+03 -0.12726257880E+04  0.12905272219E+04  0.10566000000E+00 0.  1.
         13    1    4    4    0    0  0.14265791536E+03 -0.45882693498E+03 -0.24707647468E+03  0.54029643028E+03  0.10566000000E+00 0. -1.
          4    1    3    3  501    0 -0.21249427854E+03 -0.24254105701E+03  0.37140224824E+02  0.32459109515E+03  0.00000000000E+00 0.  1.
         -4    1    4    4    0  503  0.11513234446E+03  0.49200615915E+03  0.72612649473E+02  0.51048811371E+03  0.00000000000E+00 0. -1.
</event>
<event>
 8    1  0.6759491E-006  0.1002701E+04  0.7818608E-02  0.8772981E-01
         21   -1    0    0  501  502  0.00000000000E+00  0.00000000000E+00  0.55051400840E+03  0.55051400840E+03  0.00000000000E+00 0.  1.
         21   -1    0    0  502  503 -0.00000000000E+00 -0.00000000000E+00 -0.18516779655E+04  0.18516779655E+04  0.00000000000E+00 0.  1.
    9000010    2    1    2  501    0 -0.68746380514E+02  0.54591465214E+02 -0.49013464941E+03  0.11125491919E+04  0.99490071709E+03 0.  0.
   -9000010    2    1    2    0  503  0.68746380514E+02 -0.54591465214E+02 -0.81102930771E+03  0.12896427821E+04  0.99885117732E+03 0.  0.
        -13    1    3    3    0    0  0.37304082392E+03  0.23575455789E+03 -0.18918550815E+02  0.44169852910E+03  0.10566000000E+00 0.  1.
         13    1    4    4    0    0  0.23526524634E+03 -0.33854508568E+03  0.22496204306E+01  0.41227124946E+03  0.10566000000E+00 0. -1.
          4    1    3    3  501    0 -0.44178720444E+03 -0.18116309268E+03 -0.47121609860E+03  0.67085066277E+03  0.00000000000E+00 0.  1.
         -4    1    4    4    0  503 -0.16651886582E+03  0.28395362047E+03 -0.81327892814E+03  0.87737153260E+03  0.00000000000E+00 0. -1.
</event>
<event>
 8    1  0.6759491E-006  0.1027847E+04  0.7818608E-02  0.8752847E-01
         21   -1    0    0  501  502  0.00000000000E+00  0.00000000000E+00  0.13239579886E+04  0.13239579886E+04  0.00000000000E+00 0.  1.
         21   -1    0    0  502  503 -0.00000000000E+00 -0.00000000000E+00 -0.90814442832E+03  0.90814442832E+03  0.00000000000E+00 0.  1.
    9000010    2    1    2  501    0  0.84809557566E+02  0.18969383054E+02 -0.20539716613E+03  0.10311140440E+04  0.10067053578E+04 0.  0.
   -9000010    2    1    2    0  503 -0.84809557566E+02 -0.18969383054E+02  0.62121072638E+03  0.12009883729E+04  0.10241668842E+04 0.  0.
        -13    1    3    3    0    0 -0.25441201422E+03  0.41163034684E+03 -0.35900778969E+02  0.48523591429E+03  0.10566000000E+00 0.  1.
         13    1    4    4    0    0  0.39570464857E+02 -0.51162406830E+03  0.24426948981E+03  0.56832438252E+03  0.10566000000E+00 0. -1.
          4    1    3    3  501    0  0.33922157179E+03 -0.39266096379E+03 -0.16949638716E+03  0.54587812972E+03  0.00000000000E+00 0.  1.
         -4    1    4    4    0  503 -0.12438002242E+03  0.49265468525E+03  0.37694123657E+03  0.63266399036E+03  0.00000000000E+00 0. -1.
</event>
<event>
 8    1  0.6759491E-006  0.1053491E+04  0.7818608E-02  0.8729154E-01
         21   -1    0    0  503  502  0.00000000000E+00  0.00000000000E+00  0.16383514195E+04  0.16383514195E+04  0.00000000000E+00 0.  1.
         21   -1    0    0  501  503 -0.00000000000E+00 -0.00000000000E+00 -0.71446903651E+03  0.71446903651E+03  0.00000000000E+00 0.  1.
    9000010    2    1    2  501    0  0.26006321791E+03 -0.15837499011E+03  0.15893578110E+03  0.10509040443E+04  0.99318840766E+03 0.  0.
   -9000010    2    1    2    0  502 -0.26006321791E+03  0.15837499011E+03  0.76494660192E+03  0.13019164117E+04  0.10085274039E+04 0.  0.
        -13    1    3    3    0    0  0.28057190211E+03 -0.30283147286E+03  0.51855277286E+03  0.66281557209E+03  0.10566000000E+00 0.  1.
         13    1    4    4    0    0  0.13681434059E+03  0.50548885285E+03  0.33584646616E+03  0.62211735560E+03  0.10566000000E+00 0. -1.
          4    1    3    3  501    0 -0.20508684198E+02  0.14445648275E+03 -0.35961699176E+03  0.38808847226E+03  0.00000000000E+00 0.  1.
         -4    1    4    4    0  502 -0.39687755850E+03 -0.34711386274E+03  0.42910013576E+03  0.67979905608E+03  0.00000000000E+00 0. -1.
</event>
<event>
 8    1  0.6759491E-006  0.1009569E+04  0.7818608E-02  0.8777853E-01
         21   -1    0    0  503  502  0.00000000000E+00  0.00000000000E+00  0.77283599991E+03  0.77283599991E+03  0.00000000000E+00 0.  1.
         21   -1    0    0  501  503 -0.00000000000E+00 -0.00000000000E+00 -0.16900961982E+04  0.16900961982E+04  0.00000000000E+00 0.  1.
    9000010    2    1    2  501    0 -0.97230934156E+02  0.21214800579E+02 -0.10936609312E+04  0.14883967157E+04  0.10046524914E+04 0.  0.
   -9000010    2    1    2    0  502  0.97230934156E+02 -0.21214800579E+02  0.17640073290E+03  0.97453548245E+03  0.95325666306E+03 0.  0.
        -13    1    3    3    0    0  0.20640437390E+03 -0.41480937455E+03 -0.63769976167E+03  0.78824525370E+03  0.10566000000E+00 0.  1.
         13    1    4    4    0    0  0.10522196363E+03  0.15289584772E+02  0.56966340059E+03  0.57950136684E+03  0.10566000000E+00 0. -1.
          4    1    3    3  501    0 -0.30363530806E+03  0.43602417513E+03 -0.45596116956E+03  0.70015146201E+03  0.00000000000E+00 0.  1.
         -4    1    4    4    0  502 -0.79910294736E+01 -0.36504385351E+02 -0.39326266769E+03  0.39503411561E+03  0.00000000000E+00 0. -1.
</event>
<event>
 8    1  0.6759491E-006  0.1079414E+04  0.7818608E-02  0.8705271E-01
         21   -1    0    0  503  502  0.00000000000E+00  0.00000000000E+00  0.10266788784E+04  0.10266788784E+04  0.00000000000E+00 0. -1.
         21   -1    0    0  501  503 -0.00000000000E+00 -0.00000000000E+00 -0.12737138645E+04  0.12737138645E+04  0.00000000000E+00 0. -1.
    9000010    2    1    2  501    0  0.40235909487E+03 -0.87663788259E+02 -0.51539066878E+03  0.11881208032E+04  0.98814256080E+03 0.  0.
   -9000010    2    1    2    0  502 -0.40235909487E+03  0.87663788259E+02  0.26835568273E+03  0.11122719398E+04  0.99777568347E+03 0.  0.
        -13    1    3    3    0    0  0.34148215492E+03  0.31108172459E+03  0.80149921185E+02  0.46883464306E+03  0.10566000000E+00 0.  1.
         13    1    4    4    0    0 -0.32606079089E+03 -0.43905743249E+03  0.12274790503E+03  0.56049453854E+03  0.10566000000E+00 0. -1.
          4    1    3    3  501    0  0.60876939952E+02 -0.39874551285E+03 -0.59554058996E+03  0.71928616011E+03  0.00000000000E+00 0.  1.
         -4    1    4    4    0  502 -0.76298303983E+02  0.52672122075E+03  0.14560777769E+03  0.55177740122E+03  0.00000000000E+00 0. -1.
</event>
<event>
 8    1  0.6759491E-006  0.1094496E+04  0.7818608E-02  0.8702321E-01
         21   -1    0    0  501  502  0.00000000000E+00  0.00000000000E+00  0.71685763036E+03  0.71685763036E+03  0.00000000000E+00 0. -1.
         21   -1    0    0  502  503 -0.00000000000E+00 -0.00000000000E+00 -0.18511087108E+04  0.18511087108E+04  0.00000000000E+00 0. -1.
    9000010    2    1    2  501    0  0.88783341996E+02  0.26702703772E+03 -0.71683548569E+02  0.10425251221E+04  0.10012662874E+04 0.  0.
   -9000010    2    1    2    0  503 -0.88783341996E+02 -0.26702703772E+03 -0.10625675319E+04  0.15254412191E+04  0.10577028091E+04 0.  0.
        -13    1    3    3    0    0 -0.19312044637E+03 -0.13902831407E+03 -0.38836339222E+03  0.45546735832E+03  0.10566000000E+00 0.  1.
         13    1    4    4    0    0 -0.16516139130E+03  0.13182208706E+03 -0.10976743847E+04  0.11178302258E+04  0.10566000000E+00 0. -1.
          4    1    3    3  501    0  0.28190378836E+03  0.40605535179E+03  0.31667984365E+03  0.58705776375E+03  0.00000000000E+00 0.  1.
         -4    1    4    4    0  503  0.76378049300E+02 -0.39884912478E+03  0.35106852762E+02  0.40761099330E+03  0.00000000000E+00 0. -1.
</event>
<event>
 8    1  0.6759491E-006  0.1056858E+04  0.7818608E-02  0.8726721E-01
         21   -1    0    0  501  502  0.00000000000E+00  0.00000000000E+00  0.11998968221E+04  0.11998968221E+04  0.00000000000E+00 0.  1.
         21   -1    0    0  502  503 -0.00000000000E+00 -0.00000000000E+00 -0.95563523283E+03  0.95563523283E+03  0.00000000000E+00 0.  1.
    9000010    2    1    2  501    0  0.26154970285E+03 -0.84135725695E+02 -0.98698605611E+02  0.10444202334E+04  0.10027886825E+04 0.  0.
   -9000010    2    1    2    0  503 -0.26154970285E+03  0.84135725695E+02  0.34296019492E+03  0.11111118216E+04  0.10205198270E+04 0.  0.
        -13    1    3    3    0    0 -0.32672282516E+03  0.58382300339E+02 -0.25584681533E+03  0.41906312359E+03  0.10566000000E+00 0.  1.
         13    1    4    4    0    0  0.32177104308E+03 -0.77125851670E+02 -0.11699765870E+03  0.35096077340E+03  0.10566000000E+00 0. -1.
          4    1    3    3  501    0  0.58827252801E+03 -0.14251802603E+03  0.15714820972E+03  0.62535710980E+03  0.00000000000E+00 0.  1.
         -4    1    4    4    0  503 -0.58332074593E+03  0.16126157737E+03  0.45995785361E+03  0.76015104819E+03  0.00000000000E+00 0. -1.
</event>
<event>
 8    1  0.6759491E-006  0.1112948E+04  0.7818608E-02  0.8676884E-01
         21   -1    0    0  501  502  0.00000000000E+00  0.00000000000E+00  0.11067182770E+04  0.11067182770E+04  0.00000000000E+00 0.  1.
         21   -1    0    0  502  503 -0.00000000000E+00 -0.00000000000E+00 -0.12370985996E+04  0.12370985996E+04  0.00000000000E+00 0.  1.
    9000010    2    1    2  501    0 -0.22739206676E+03  0.43099153313E+03  0.30934679380E+03  0.11471492478E+04  0.99136022936E+03 0.  0.
   -9000010    2    1    2    0  503  0.22739206676E+03 -0.43099153313E+03 -0.43972711638E+03  0.11966676287E+04  0.10005961338E+04 0.  0.
        -13    1    3    3    0    0 -0.45319141267E+03 -0.14506220516E+03  0.21151978631E+03  0.52073614341E+03  0.10566000000E+00 0.  1.
         13    1    4    4    0    0  0.80641463304E+02 -0.61803103499E+03  0.76869536822E+02  0.62799231099E+03  0.10566000000E+00 0. -1.
          4    1    3    3  501    0  0.22579934592E+03  0.57605373829E+03  0.97827007492E+02  0.62641310444E+03  0.00000000000E+00 0.  1.
         -4    1    4    4    0  503  0.14675060345E+03  0.18703950186E+03 -0.51659665320E+03  0.56867531771E+03  0.00000000000E+00 0. -1.
</event>
<event>
 8    1  0.1017532E-005  0.1008107E+04  0.7818608E-02  0.8778360E-01
         21   -1    0    0  503  502  0.00000000000E+00  0.00000000000E+00  0.14435024128E+04  0.14435024128E+04  0.00000000000E+00 0. -1.
         21   -1    0    0  501  503 -0.00000000000E+00 -0.00000000000E+00 -0.82284238259E+03  0.82284238259E+03  0.00000000000E+00 0. -1.
    9000010    2    1    2  501    0  0.12970799731E+01 -0.61933338296E+01  0.79054211888E+03  0.12440236429E+04  0.96051962117E+03 0.  0.
   -9000010    2    1    2    0  502 -0.12970799731E+01  0.61933338296E+01 -0.16988208867E+03  0.10223211525E+04  0.10080875830E+04 0.  0.
        -13    1    3    3    0    0  0.43810897734E+02 -0.33634313953E+03  0.84148491283E+03  0.90727227002E+03  0.10566000000E+00 0.  1.
         13    1    4    4    0    0  0.61817450210E+02 -0.25858811579E+03 -0.51690812596E+03  0.58127724248E+03  0.10566000000E+00 0. -1.
          4    1    3    3  501    0 -0.42513817761E+02  0.33014980570E+03 -0.50942793946E+02  0.33675137291E+03  0.00000000000E+00 0.  1.
         -4    1    4    4    0  502 -0.63114530183E+02  0.26478144962E+03  0.34702603729E+03  0.44104390999E+03  0.00000000000E+00 0. -1.
</event>
<event>
 8    1  0.6759491E-006  0.1035792E+04  0.7818608E-02  0.8746510E-01
         21   -1    0    0  503  502  0.00000000000E+00  0.00000000000E+00  0.10483286320E+04  0.10483286320E+04  0.00000000000E+00 0.  1.
         21   -1    0    0  501  503 -0.00000000000E+00 -0.00000000000E+00 -0.15114083937E+04  0.15114083937E+04  0.00000000000E+00 0.  1.
    9000010    2    1    2  501    0  0.25742836716E+03  0.93549356701E+02 -0.97258607246E+03  0.14054137338E+04  0.97685374976E+03 0.  0.
   -9000010    2    1    2    0  502 -0.25742836716E+03 -0.93549356701E+02  0.50950631079E+03  0.11543232919E+04  0.99892178628E+03 0.  0.
        -13    1    3    3    0    0  0.36882715560E+02 -0.40545117402E+03 -0.18466140750E+03  0.44704679375E+03  0.10566000000E+00 0.  1.
         13    1    4    4    0    0 -0.46582982786E+03 -0.42980718695E+03  0.37517063390E+03  0.73653558107E+03  0.10566000000E+00 0. -1.
          4    1    3    3  501    0  0.22054565160E+03  0.49900053072E+03 -0.78792466496E+03  0.95836694004E+03  0.00000000000E+00 0.  1.
         -4    1    4    4    0  502  0.20840146071E+03  0.33625783025E+03  0.13433567689E+03  0.41778771082E+03  0.00000000000E+00 0. -1.
</event>
<event>
 8    1  0.6759491E-006  0.1042427E+04  0.7818608E-02  0.8735788E-01
         21   -1    0    0  501  502  0.00000000000E+00  0.00000000000E+00  0.19028219599E+04  0.19028219599E+04  0.00000000000E+00 0.  1.
         21   -1    0    0  502  503 -0.00000000000E+00 -0.00000000000E+00 -0.99282237866E+03  0.99282237866E+03  0.00000000000E+00 0.  1.
    9000010    2    1    2  501    0  0.56721278577E+02 -0.23285368798E+03  0.13988686641E+04  0.17445591430E+04  0.10145023019E+04 0.  0.
   -9000010    2    1    2    0  503 -0.56721278577E+02  0.23285368798E+03 -0.48886908289E+03  0.11510851955E+04  0.10141824312E+04 0.  0.
        -13    1    3    3    0    0 -0.11993218354E+03  0.36711331405E+03  0.74846956791E+03  0.84223667650E+03  0.10566000000E+00 0.  1.
         13    1    4    4    0    0 -0.52565420840E+03  0.22053848680E+03 -0.31131391948E+03  0.64951207733E+03  0.10566000000E+00 0. -1.
          4    1    3    3  501    0  0.17665346211E+03 -0.59996700203E+03  0.65039909617E+03  0.90232246647E+03  0.00000000000E+00 0.  1.
         -4    1    4    4    0  503  0.46893292983E+03  0.12315201185E+02 -0.17755516340E+03  0.50157311821E+03  0.00000000000E+00 0. -1.
</event>
<event>
 8    1  0.6759491E-006  0.9998541E+03  0.7818608E-02  0.8783137E-01
         21   -1    0    0  501  502  0.00000000000E+00  0.00000000000E+00  0.10481033880E+04  0.10481033880E+04  0.00000000000E+00 0. -1.
         21   -1    0    0  502  503 -0.00000000000E+00 -0.00000000000E+00 -0.10911870783E+04  0.10911870783E+04  0.00000000000E+00 0. -1.
    9000010    2    1    2  501    0 -0.24524128604E+02  0.52382878547E+01  0.40163753072E+03  0.10449937773E+04  0.96440158443E+03 0.  0.
   -9000010    2    1    2    0  503  0.24524128604E+02 -0.52382878547E+01 -0.44472122102E+03  0.10942966890E+04  0.99953959726E+03 0.  0.
        -13    1    3    3    0    0  0.88329324999E+02  0.28953233077E+03 -0.20501082813E+03  0.36559607633E+03  0.10566000000E+00 0.  1.
         13    1    4    4    0    0 -0.45414968501E+03 -0.17307266976E+03 -0.15492397077E+03  0.51010541391E+03  0.10566000000E+00 0. -1.
          4    1    3    3  501    0 -0.11285345360E+03 -0.28429404292E+03  0.60664835886E+03  0.67939770100E+03  0.00000000000E+00 0.  1.
         -4    1    4    4    0  503  0.47867381362E+03  0.16783438190E+03 -0.28979725025E+03  0.58419127505E+03  0.00000000000E+00 0. -1.
</event>
<event>
 8    1  0.6759491E-006  0.1034180E+04  0.7818608E-02  0.8757119E-01
         21   -1    0    0  503  502  0.00000000000E+00  0.00000000000E+00  0.87454699911E+03  0.87454699911E+03  0.00000000000E+00 0. -1.
         21   -1    0    0  501  503 -0.00000000000E+00 -0.00000000000E+00 -0.12303284919E+04  0.12303284919E+04  0.00000000000E+00 0. -1.
    9000010    2    1    2  501    0  0.13708708249E+03  0.22354442362E+03 -0.44683818459E+03  0.11265846709E+04  0.10003817671E+04 0.  0.
   -9000010    2    1    2    0  502 -0.13708708249E+03 -0.22354442362E+03  0.91056691762E+02  0.97829082017E+03  0.93808135585E+03 0.  0.
        -13    1    3    3    0    0  0.20008797738E+03  0.37929871418E+03  0.18920640057E+03  0.46872357147E+03  0.10566000000E+00 0.  1.
         13    1    4    4    0    0 -0.40371680320E+03  0.19034710293E+03 -0.87006970762E+02  0.45474113615E+03  0.10566000000E+00 0. -1.
          4    1    3    3  501    0 -0.63000894886E+02 -0.15575429056E+03 -0.63604458516E+03  0.65786109939E+03  0.00000000000E+00 0.  1.
         -4    1    4    4    0  502  0.26662972071E+03 -0.41389152656E+03  0.17806366252E+03  0.52354968402E+03  0.00000000000E+00 0. -1.
</event>
<event>
 8    1  0.6759491E-006  0.1306226E+04  0.7818608E-02  0.8533019E-01
         21   -1    0    0  503  502  0.00000000000E+00  0.00000000000E+00  0.28810383481E+04  0.28810383481E+04  0.00000000000E+00 0. -1.
         21   -1    0    0  501  503 -0.00000000000E+00 -0.00000000000E+00 -0.63764077081E+03  0.63764077081E+03  0.00000000000E+00 0. -1.
    9000010    2    1    2  501    0 -0.70409105684E+03 -0.44000621808E+03  0.61450270974E+03  0.14307316957E+04  0.98996460373E+03 0.  0.
   -9000010    2    1    2    0  502  0.70409105684E+03  0.44000621808E+03  0.16288948675E+04  0.20879474232E+04  0.10084028283E+04 0.  0.
        -13    1    3    3    0    0 -0.28379080852E+03 -0.65730372660E+02  0.78936480624E+03  0.84140032885E+03  0.10566000000E+00 0.  1.
         13    1    4    4    0    0  0.43010448271E+03  0.65741022771E+03  0.15372808403E+04  0.17263865345E+04  0.10566000000E+00 0. -1.
          4    1    3    3  501    0 -0.42030024832E+03 -0.37427584542E+03 -0.17486209650E+03  0.58933136689E+03  0.00000000000E+00 0.  1.
         -4    1    4    4    0  502  0.27398657413E+03 -0.21740400963E+03  0.91614027284E+02  0.36156088865E+03  0.00000000000E+00 0. -1.
</event>
<event>
 8    1  0.6759491E-006  0.1057596E+04  0.7818608E-02  0.8726679E-01
         21   -1    0    0  501  502  0.00000000000E+00  0.00000000000E+00  0.91414947998E+03  0.91414947998E+03  0.00000000000E+00 0.  1.
         21   -1    0    0  502  503 -0.00000000000E+00 -0.00000000000E+00 -0.16650213697E+04  0.16650213697E+04  0.00000000000E+00 0.  1.
    9000010    2    1    2  501    0 -0.27455099614E+03  0.15219871195E+03  0.30297892094E+03  0.11001385249E+04  0.10099335870E+04 0.  0.
   -9000010    2    1    2    0  503  0.27455099614E+03 -0.15219871195E+03 -0.10538508106E+04  0.14790323247E+04  0.98913719431E+03 0.  0.
        -13    1    3    3    0    0  0.10018747320E+03 -0.16381101935E+03 -0.27933469318E+03  0.33896823130E+03  0.10566000000E+00 0.  1.
         13    1    4    4    0    0  0.24107464658E+03  0.34742254861E+03 -0.15550950972E+03  0.45055813308E+03  0.10566000000E+00 0. -1.
          4    1    3    3  501    0 -0.37473846934E+03  0.31600973131E+03  0.58231361413E+03  0.76117029362E+03  0.00000000000E+00 0.  1.
         -4    1    4    4    0  503  0.33476349562E+02 -0.49962126057E+03 -0.89834130091E+03  0.10284741917E+04  0.00000000000E+00 0. -1.
</event>
<event>
 8    1  0.6759491E-006  0.1045619E+04  0.7818608E-02  0.8734887E-01
         21   -1    0    0  503  502  0.00000000000E+00  0.00000000000E+00  0.94349641206E+03  0.94349641206E+03  0.00000000000E+00 0. -1.
         21   -1    0    0  501  503 -0.00000000000E+00 -0.00000000000E+00 -0.13124286764E+04  0.13124286764E+04  0.00000000000E+00 0. -1.
    9000010    2    1    2  501    0 -0.16941257500E+03 -0.22573390283E+03  0.21448236517E+03  0.10585565589E+04  0.99743816245E+03 0.  0.
   -9000010    2    1    2    0  502  0.16941257500E+03  0.22573390283E+03 -0.58341462949E+03  0.11973685296E+04  0.10068080007E+04 0.  0.
        -13    1    3    3    0    0  0.29629079903E+03  0.66887598911E+02  0.37784878776E+03  0.48480089320E+03  0.10566000000E+00 0.  1.
         13    1    4    4    0    0  0.51651764691E+03  0.27743635408E+03 -0.60917300766E+03  0.84548990211E+03  0.10566000000E+00 0. -1.
          4    1    3    3  501    0 -0.46570337403E+03 -0.29262150174E+03 -0.16336642259E+03  0.57375566567E+03  0.00000000000E+00 0.  1.
         -4    1    4    4    0  502 -0.34710507191E+03 -0.51702451252E+02  0.25758378176E+02  0.35187862746E+03  0.00000000000E+00 0. -1.
</event>
<event>
 8    1  0.6759491E-006  0.1075553E+04  0.7818608E-02  0.8708563E-01
         21   -1    0    0  503  502  0.00000000000E+00  0.00000000000E+00  0.74743753764E+03  0.74743753764E+03  0.00000000000E+00 0. -1.
         21   -1    0    0  501  503 -0.00000000000E+00 -0.00000000000E+00 -0.18665002900E+04  0.18665002900E+04  0.00000000000E+00 0. -1.
    9000010    2    1    2  501    0 -0.21515225030E+03 -0.30252500300E+03 -0.11120958170E+04  0.15471173763E+04  0.10094568844E+04 0.  0.
   -9000010    2    1    2    0  502  0.21515225030E+03  0.30252500300E+03 -0.69669353089E+01  0.10668204513E+04  0.10001227269E+04 0.  0.
        -13    1    3    3    0    0 -0.31987063530E+03 -0.51575312680E+03 -0.11559208601E+04  0.13055541188E+04  0.10566000000E+00 0.  1.
         13    1    4    4    0    0 -0.22592670263E+03  0.17108288775E+03  0.37407948930E+03  0.46930555603E+03  0.10566000000E+00 0. -1.
          4    1    3    3  501    0  0.10471838500E+03  0.21322812381E+03  0.43825043134E+02  0.24156325744E+03  0.00000000000E+00 0.  1.
         -4    1    4    4    0  502  0.44107895293E+03  0.13144211525E+03 -0.38104642461E+03  0.59751489528E+03  0.00000000000E+00 0. -1.
</event>
<event>
 8    1  0.6759491E-006  0.1119983E+04  0.7818608E-02  0.8673197E-01
         21   -1    0    0  503  502  0.00000000000E+00  0.00000000000E+00  0.81468592765E+03  0.81468592765E+03  0.00000000000E+00 0.  1.
         21   -1    0    0  501  503 -0.00000000000E+00 -0.00000000000E+00 -0.18415194421E+04  0.18415194421E+04  0.00000000000E+00 0.  1.
    9000010    2    1    2  501    0  0.56890828216E+02 -0.48125892834E+03 -0.10766598782E+04  0.15535632419E+04  0.10097106175E+04 0.  0.
   -9000010    2    1    2    0  502 -0.56890828216E+02  0.48125892834E+03  0.49826363664E+02  0.11026421278E+04  0.98918667254E+03 0.  0.
        -13    1    3    3    0    0  0.21542207993E+03 -0.21204216577E+03 -0.11849548199E+04  0.12229008500E+04  0.10566000000E+00 0.  1.
         13    1    4    4    0    0 -0.33294372012E+03  0.65785565615E+03  0.16452468153E+03  0.75544289466E+03  0.10566000000E+00 0. -1.
          4    1    3    3  501    0 -0.15853125171E+03 -0.26921676257E+03  0.10829494176E+03  0.33066239192E+03  0.00000000000E+00 0.  1.
         -4    1    4    4    0  502  0.27605289190E+03 -0.17659672781E+03 -0.11469831787E+03  0.34719923318E+03  0.00000000000E+00 0. -1.
</event>
<event>
 8    1  0.6759491E-006  0.1142905E+04  0.7818608E-02  0.8652150E-01
         21   -1    0    0  501  502  0.00000000000E+00  0.00000000000E+00  0.21988166917E+04  0.21988166917E+04  0.00000000000E+00 0.  1.
         21   -1    0    0  502  503 -0.00000000000E+00 -0.00000000000E+00 -0.85078139705E+03  0.85078139705E+03  0.00000000000E+00 0.  1.
    9000010    2    1    2  501    0  0.28850097736E+03  0.42763496211E+03  0.15184580258E+04  0.19005121552E+04  0.10198662665E+04 0.  0.
   -9000010    2    1    2    0  503 -0.28850097736E+03 -0.42763496211E+03 -0.17042273111E+03  0.11490859335E+04  0.10125463449E+04 0.  0.
        -13    1    3    3    0    0  0.30716824419E+03 -0.24706969407E+03  0.25924459589E+03  0.47180879139E+03  0.10566000000E+00 0.  1.
         13    1    4    4    0    0  0.72549650453E+02  0.23530221950E+03 -0.29471629459E+03  0.38404204424E+03  0.10566000000E+00 0. -1.
          4    1    3    3  501    0 -0.18667266831E+02  0.67470465618E+03  0.12592134299E+04  0.14287033639E+04  0.00000000000E+00 0.  1.
         -4    1    4    4    0  503 -0.36105062782E+03 -0.66293718160E+03  0.12429356349E+03  0.76504388928E+03  0.00000000000E+00 0. -1.
</event>
<event>
 8    1  0.6759491E-006  0.1210010E+04  0.7818608E-02  0.8631632E-01
         21   -1    0    0  503  502  0.00000000000E+00  0.00000000000E+00  0.69651412645E+03  0.69651412645E+03  0.00000000000E+00 0.  1.
         21   -1    0    0  501  503 -0.00000000000E+00 -0.00000000000E+00 -0.19279869303E+04  0.19279869303E+04  0.00000000000E+00 0.  1.
    9000010    2    1    2  501    0  0.33088167261E+03 -0.52564328311E+02 -0.95307841079E+03  0.15402865357E+04  0.11627030854E+04 0.  0.
   -9000010    2    1    2    0  502 -0.33088167261E+03  0.52564328311E+02 -0.27839439303E+03  0.10842145211E+04  0.99286051376E+03 0.  0.
        -13    1    3    3    0    0  0.35029910932E+03  0.16720468395E+03 -0.11688940887E+04  0.12316575311E+04  0.10566000000E+00 0.  1.
         13    1    4    4    0    0  0.23309930135E+02 -0.43816247969E+03 -0.71135869702E+02  0.44451100613E+03  0.10566000000E+00 0. -1.
          4    1    3    3  501    0 -0.19417436706E+02 -0.21976901226E+03  0.21581567788E+03  0.30862900450E+03  0.00000000000E+00 0.  1.
         -4    1    4    4    0  502 -0.35419160275E+03  0.49072680800E+03 -0.20725852333E+03  0.63970351495E+03  0.00000000000E+00 0. -1.
</event>
<event>
 8    1  0.6759491E-006  0.1069583E+04  0.7818608E-02  0.8720679E-01
         21   -1    0    0  501  502  0.00000000000E+00  0.00000000000E+00  0.97479393088E+03  0.97479393088E+03  0.00000000000E+00 0. -1.
         21   -1    0    0  502  503 -0.00000000000E+00 -0.00000000000E+00 -0.21714661529E+04  0.21714661529E+04  0.00000000000E+00 0. -1.
    9000010    2    1    2  501    0  0.53284153341E+02  0.21074692766E+03  0.48506007518E+03  0.11744326810E+04  0.10472608926E+04 0.  0.
   -9000010    2    1    2    0  503 -0.53284153341E+02 -0.21074692766E+03 -0.16817322972E+04  0.19718274027E+04  0.10062933560E+04 0.  0.
        -13    1    3    3    0    0 -0.46656802276E+02  0.57933599420E+03  0.32287964443E+02  0.58210787247E+03  0.10566000000E+00 0.  1.
         13    1    4    4    0    0 -0.12686153966E+03  0.39365335302E+03 -0.56935720035E+03  0.70372185226E+03  0.10566000000E+00 0. -1.
          4    1    3    3  501    0  0.99940955617E+02 -0.36858906654E+03  0.45277211074E+03  0.59232480857E+03  0.00000000000E+00 0.  1.
         -4    1    4    4    0  503  0.73577386318E+02 -0.60440028068E+03 -0.11123750968E+04  0.12681055505E+04  0.00000000000E+00 0. -1.
</event>
<event>
 8    1  0.6759491E-006  0.1043577E+04  0.7818608E-02  0.8790555E-01
         21   -1    0    0  503  502  0.00000000000E+00  0.00000000000E+00  0.97974133592E+03  0.97974133592E+03  0.00000000000E+00 0. -1.
         21   -1    0    0  501  503 -0.00000000000E+00 -0.00000000000E+00 -0.18494065654E+04  0.18494065654E+04  0.00000000000E+00 0. -1.
    9000010    2    1    2  501    0 -0.24401604028E+03 -0.18607935998E+03 -0.14759418840E+04  0.18076108800E+04  0.99743836526E+03 0.  0.
   -9000010    2    1    2    0  502  0.24401604028E+03  0.18607935998E+03  0.60627665450E+03  0.10215370213E+04  0.76275628350E+03 0.  0.
        -13    1    3    3    0    0  0.29048070152E+03  0.15572617443E+03 -0.20782753728E+03  0.38964339565E+03  0.10566000000E+00 0.  1.
         13    1    4    4    0    0  0.19370540319E+03  0.25260182266E+03  0.77252587434E+03  0.83553916827E+03  0.10566000000E+00 0. -1.
          4    1    3    3  501    0 -0.53449674180E+03 -0.34180553441E+03 -0.12681143468E+04  0.14179674844E+04  0.00000000000E+00 0.  1.
         -4    1    4    4    0  502  0.50310637088E+02 -0.66522462682E+02 -0.16624921983E+03  0.18599785305E+03  0.00000000000E+00 0. -1.
</event>
<event>
 8    1  0.6759491E-006  0.1027689E+04  0.7818608E-02  0.8754798E-01
         21   -1    0    0  503  502  0.00000000000E+00  0.00000000000E+00  0.13084392651E+04  0.13084392651E+04  0.00000000000E+00 0. -1.
         21   -1    0    0  501  503 -0.00000000000E+00 -0.00000000000E+00 -0.98137802494E+03  0.98137802494E+03  0.00000000000E+00 0. -1.
    9000010    2    1    2  501    0  0.12249567832E+03  0.19322238564E+03 -0.34691035489E+03  0.10608411154E+04  0.97606198387E+03 0.  0.
   -9000010    2    1    2    0  502 -0.12249567832E+03 -0.19322238564E+03  0.67397159502E+03  0.12289761746E+04  0.10019005166E+04 0.  0.
        -13    1    3    3    0    0 -0.12820188146E+02  0.14016559711E+03  0.33512930385E+03  0.36348646921E+03  0.10566000000E+00 0.  1.
         13    1    4    4    0    0  0.95318070180E+02  0.88035759564E+02 -0.22636106520E+03  0.26091219302E+03  0.10566000000E+00 0. -1.
          4    1    3    3  501    0  0.13531586646E+03  0.53056788533E+02 -0.68203965874E+03  0.69735464623E+03  0.00000000000E+00 0.  1.
         -4    1    4    4    0  502 -0.21781374850E+03 -0.28125814521E+03  0.90033266022E+03  0.96806398154E+03  0.00000000000E+00 0. -1.
</event>
<event>
 8    1  0.6759491E-006  0.1038815E+04  0.7818608E-02  0.8741159E-01
         21   -1    0    0  503  502  0.00000000000E+00  0.00000000000E+00  0.15780943305E+04  0.15780943305E+04  0.00000000000E+00 0. -1.
         21   -1    0    0  501  503 -0.00000000000E+00 -0.00000000000E+00 -0.71618180440E+03  0.71618180440E+03  0.00000000000E+00 0. -1.
    9000010    2    1    2  501    0 -0.18100272538E+03  0.17386211242E+02  0.69598673885E+03  0.12422930746E+04  0.10128327974E+04 0.  0.
   -9000010    2    1    2    0  502  0.18100272538E+03 -0.17386211242E+02  0.16592578724E+03  0.10519830603E+04  0.10227769676E+04 0.  0.
        -13    1    3    3    0    0 -0.13093871642E+03  0.12564797196E+03 -0.23879866804E+03  0.29992861707E+03  0.10566000000E+00 0.  1.
         13    1    4    4    0    0 -0.34109123737E+03  0.27530169986E+03  0.38401077733E+02  0.44001012726E+03  0.10566000000E+00 0. -1.
          4    1    3    3  501    0 -0.50064008969E+02 -0.10826176072E+03  0.93478540690E+03  0.94236445751E+03  0.00000000000E+00 0.  1.
         -4    1    4    4    0  502  0.52209396276E+03 -0.29268791110E+03  0.12752470951E+03  0.61197293305E+03  0.00000000000E+00 0. -1.
</event>
<event>
 8    1  0.6759491E-006  0.9950416E+03  0.7818608E-02  0.8779471E-01
         21   -1    0    0  503  502  0.00000000000E+00  0.00000000000E+00  0.11229736798E+04  0.11229736798E+04  0.00000000000E+00 0.  1.
         21   -1    0    0  501  503 -0.00000000000E+00 -0.00000000000E+00 -0.11151418645E+04  0.11151418645E+04  0.00000000000E+00 0.  1.
    9000010    2    1    2  501    0  0.75418776691E+01  0.12831693125E+03 -0.50896005231E+03  0.11168744251E+04  0.98582251541E+03 0.  0.
   -9000010    2    1    2    0  502 -0.75418776691E+01 -0.12831693125E+03  0.51679186754E+03  0.11212411191E+04  0.98670446343E+03 0.  0.
        -13    1    3    3    0    0  0.23611157479E+03 -0.29340754876E+03 -0.51394879088E+03  0.63716562701E+03  0.10566000000E+00 0.  1.
         13    1    4    4    0    0 -0.13366405027E+02 -0.56157874558E+03  0.29307867685E+03  0.63359645695E+03  0.10566000000E+00 0. -1.
          4    1    3    3  501    0 -0.22856969712E+03  0.42172448001E+03  0.49887385695E+01  0.47970879812E+03  0.00000000000E+00 0.  1.
         -4    1    4    4    0  502  0.58245273578E+01  0.43326181433E+03  0.22371319069E+03  0.48764466220E+03  0.00000000000E+00 0. -1.
</event>
<event>
 8    1  0.6759491E-006  0.1036038E+04  0.7818608E-02  0.8745399E-01
         21   -1    0    0  503  502  0.00000000000E+00  0.00000000000E+00  0.84779606055E+03  0.84779606055E+03  0.00000000000E+00 0.  1.
         21   -1    0    0  501  503 -0.00000000000E+00 -0.00000000000E+00 -0.18161398490E+04  0.18161398490E+04  0.00000000000E+00 0.  1.
    9000010    2    1    2  501    0  0.19317766496E+03  0.22305290017E+03 -0.12339725568E+04  0.16112301257E+04  0.99312841082E+03 0.  0.
   -9000010    2    1    2    0  502 -0.19317766496E+03 -0.22305290017E+03  0.26562876837E+03  0.10527057839E+04  0.97496698319E+03 0.  0.
        -13    1    3    3    0    0 -0.20492181368E+03  0.29419267742E+03 -0.11413719994E+04  0.11963579453E+04  0.10566000000E+00 0.  1.
         13    1    4    4    0    0 -0.13164966153E+03 -0.56146654159E+03  0.37952956104E+03  0.69037599146E+03  0.10566000000E+00 0. -1.
          4    1    3    3  501    0  0.39809947864E+03 -0.71139777250E+02 -0.92600557445E+02  0.41487218036E+03  0.00000000000E+00 0.  1.
         -4    1    4    4    0  502 -0.61528003433E+02  0.33841364142E+03 -0.11390079268E+03  0.36232979243E+03  0.00000000000E+00 0. -1.
</event>
<event>
 8    1  0.6759491E-006  0.1190047E+04  0.7818608E-02  0.8630040E-01
         21   -1    0    0  503  502  0.00000000000E+00  0.00000000000E+00  0.13178389476E+04  0.13178389476E+04  0.00000000000E+00 0.  1.
         21   -1    0    0  501  503 -0.00000000000E+00 -0.00000000000E+00 -0.10804985841E+04  0.10804985841E+04  0.00000000000E+00 0.  1.
    9000010    2    1    2  501    0  0.28634496460E+03 -0.38194514308E+03 -0.20636006793E+03  0.11282661589E+04  0.10012614626E+04 0.  0.
   -9000010    2    1    2    0  502 -0.28634496460E+03  0.38194514308E+03  0.44370043146E+03  0.12700713728E+04  0.10901081085E+04 0.  0.
        -13    1    3    3    0    0  0.13166363991E+03 -0.71070382130E+03 -0.24428673399E+03  0.76296215846E+03  0.10566000000E+00 0.  1.
         13    1    4    4    0    0  0.25180650643E+02  0.38024180563E+03  0.74491780051E+03  0.83673199807E+03  0.10566000000E+00 0. -1.
          4    1    3    3  501    0  0.15468132469E+03  0.32875867822E+03  0.37926666056E+02  0.36530400040E+03  0.00000000000E+00 0.  1.
         -4    1    4    4    0  502 -0.31152561524E+03  0.17033374520E+01 -0.30121736905E+03  0.43333937477E+03  0.00000000000E+00 0. -1.
</event>
<event>
 8    1  0.6759491E-006  0.1068511E+04  0.7818608E-02  0.8719366E-01
         21   -1    0    0  503  502  0.00000000000E+00  0.00000000000E+00  0.33236311523E+04  0.33236311523E+04  0.00000000000E+00 0. -1.
         21   -1    0    0  501  503 -0.00000000000E+00 -0.00000000000E+00 -0.50536971445E+03  0.50536971445E+03  0.00000000000E+00 0. -1.
    9000010    2    1    2  501    0  0.10704985239E+02 -0.30217974301E+03  0.30738172994E+03  0.11118449388E+04  0.10248358143E+04 0.  0.
   -9000010    2    1    2    0  502 -0.10704985239E+02  0.30217974301E+03  0.25108797079E+04  0.27171559279E+04  0.99347482874E+03 0.  0.
        -13    1    3    3    0    0  0.16944661725E+03 -0.54404546347E+03 -0.13280895747E+03  0.58509473829E+03  0.10566000000E+00 0.  1.
         13    1    4    4    0    0  0.77869951466E+02  0.41255584493E+03  0.33616440752E+03  0.53784065909E+03  0.10566000000E+00 0. -1.
          4    1    3    3  501    0 -0.15874163201E+03  0.24186572046E+03  0.44019068741E+03  0.52675020052E+03  0.00000000000E+00 0.  1.
         -4    1    4    4    0  502 -0.88574936705E+02 -0.11037610191E+03  0.21747153004E+04  0.21793152688E+04  0.00000000000E+00 0. -1.
</event>
<event>
 8    1  0.6759491E-006  0.1005829E+04  0.7818608E-02  0.8769426E-01
         21   -1    0    0  501  502  0.00000000000E+00  0.00000000000E+00  0.84427885711E+03  0.84427885711E+03  0.00000000000E+00 0. -1.
         21   -1    0    0  502  503 -0.00000000000E+00 -0.00000000000E+00 -0.12133141669E+04  0.12133141669E+04  0.00000000000E+00 0. -1.
    9000010    2    1    2  501    0  0.10684816596E+03  0.14450026955E+03 -0.30465309986E+03  0.10509548142E+04  0.98964420462E+03 0.  0.
   -9000010    2    1    2    0  503 -0.10684816596E+03 -0.14450026955E+03 -0.64382209962E+02  0.10066382099E+04  0.98837167003E+03 0.  0.
        -13    1    3    3    0    0  0.30534400536E+03 -0.28882717570E+03  0.92716913602E+02  0.43040973068E+03  0.10566000000E+00 0.  1.
         13    1    4    4    0    0 -0.51399817101E+03 -0.17393993693E+03  0.12467629514E+03  0.55677051933E+03  0.10566000000E+00 0. -1.
          4    1    3    3  501    0 -0.19849583940E+03  0.43332744524E+03 -0.39737001347E+03  0.62054508351E+03  0.00000000000E+00 0.  1.
         -4    1    4    4    0  503  0.40715000505E+03  0.29439667385E+02 -0.18905850510E+03  0.44986769053E+03  0.00000000000E+00 0. -1.
</event>
<event>
 8    1  0.6759491E-006  0.1058952E+04  0.7818608E-02  0.8726391E-01
         21   -1    0    0  501  502  0.00000000000E+00  0.00000000000E+00  0.64993202098E+03  0.64993202098E+03  0.00000000000E+00 0.  1.
         21   -1    0    0  502  503 -0.00000000000E+00 -0.00000000000E+00 -0.18765711410E+04  0.18765711410E+04  0.00000000000E+00 0.  1.
    9000010    2    1    2  501    0 -0.28850502752E+03 -0.16119830920E+03 -0.20518593456E+03  0.10551957384E+04  0.98087549304E+03 0.  0.
   -9000010    2    1    2    0  503  0.28850502752E+03  0.16119830920E+03 -0.10214531855E+04  0.14713074236E+04  0.10060610711E+04 0.  0.
        -13    1    3    3    0    0 -0.53929398581E+03 -0.37962822995E+03 -0.27638589027E+03  0.71508374867E+03  0.10566000000E+00 0.  1.
         13    1    4    4    0    0  0.28269420782E+03  0.19746508775E+03 -0.12208198487E+04  0.12685856653E+04  0.10566000000E+00 0. -1.
          4    1    3    3  501    0  0.25078895829E+03  0.21842992075E+03  0.71199955710E+02  0.34011198975E+03  0.00000000000E+00 0.  1.
         -4    1    4    4    0  503  0.58108196960E+01 -0.36266778550E+02  0.19936666326E+03  0.20272175826E+03  0.00000000000E+00 0. -1.
</event>
<event>
 8    1  0.6759491E-006  0.1060390E+04  0.7818608E-02  0.8729263E-01
         21   -1    0    0  503  502  0.00000000000E+00  0.00000000000E+00  0.64849447738E+03  0.64849447738E+03  0.00000000000E+00 0. -1.
         21   -1    0    0  501  503 -0.00000000000E+00 -0.00000000000E+00 -0.17152016001E+04  0.17152016001E+04  0.00000000000E+00 0. -1.
    9000010    2    1    2  501    0  0.14139094839E+03  0.27592368611E+03 -0.72379669086E+03  0.12492390355E+04  0.96984083094E+03 0.  0.
   -9000010    2    1    2    0  502 -0.14139094839E+03 -0.27592368611E+03 -0.34291043188E+03  0.11144570420E+04  0.10140520959E+04 0.  0.
        -13    1    3    3    0    0 -0.23277810377E+03  0.11823667855E+03 -0.79520503519E+03  0.83696870724E+03  0.10566000000E+00 0.  1.
         13    1    4    4    0    0  0.10541226141E+03 -0.30085084076E+03 -0.64745028161E+03  0.72167503183E+03  0.10566000000E+00 0. -1.
          4    1    3    3  501    0  0.37416905216E+03  0.15768700756E+03  0.71408344331E+02  0.41227032829E+03  0.00000000000E+00 0.  1.
         -4    1    4    4    0  502 -0.24680320980E+03  0.24927154647E+02  0.30453984973E+03  0.39278201013E+03  0.00000000000E+00 0. -1.
</event>
<event>
 8    1  0.6759491E-006  0.1031912E+04  0.7818608E-02  0.8754480E-01
         21   -1    0    0  503  502  0.00000000000E+00  0.00000000000E+00  0.89361417034E+03  0.89361417034E+03  0.00000000000E+00 0.  1.
         21   -1    0    0  501  503 -0.00000000000E+00 -0.00000000000E+00 -0.14227213052E+04  0.14227213052E+04  0.00000000000E+00 0.  1.
    9000010    2    1    2  501    0 -0.24371617377E+03 -0.17194049682E+03 -0.77993078216E+03  0.12934966756E+04  0.98786664946E+03 0.  0.
   -9000010    2    1    2    0  502  0.24371617377E+03  0.17194049682E+03  0.25082364730E+03  0.10228387999E+04  0.94568789816E+03 0.  0.
        -13    1    3    3    0    0  0.12094579563E+02  0.38185783372E+02  0.22856908060E+03  0.23205229728E+03  0.10566000000E+00 0.  1.
         13    1    4    4    0    0  0.35204963693E+02  0.35095784161E+03 -0.26310955435E+03  0.44004254886E+03  0.10566000000E+00 0. -1.
          4    1    3    3  501    0 -0.25581075333E+03 -0.21012628019E+03 -0.10084998628E+04  0.10614443784E+04  0.00000000000E+00 0.  1.
         -4    1    4    4    0  502  0.20851121008E+03 -0.17901734479E+03  0.51393320165E+03  0.58279625104E+03  0.00000000000E+00 0. -1.
</event>
<event>
 8    1  0.6759491E-006  0.1051493E+04  0.7818608E-02  0.8734764E-01
         21   -1    0    0  503  502  0.00000000000E+00  0.00000000000E+00  0.20504042553E+04  0.20504042553E+04  0.00000000000E+00 0. -1.
         21   -1    0    0  501  503 -0.00000000000E+00 -0.00000000000E+00 -0.83704269945E+03  0.83704269945E+03  0.00000000000E+00 0. -1.
    9000010    2    1    2  501    0  0.24432076323E+03 -0.24197762584E+03  0.14965346468E+04  0.18290036057E+04  0.99367622184E+03 0.  0.
   -9000010    2    1    2    0  502 -0.24432076323E+03  0.24197762584E+03 -0.28317309096E+03  0.10584433490E+04  0.96014036315E+03 0.  0.
        -13    1    3    3    0    0 -0.42906865533E+02  0.72845774659E+00 -0.14175663965E+03  0.14810970869E+03  0.10566000000E+00 0.  1.
         13    1    4    4    0    0  0.20712062146E+03 -0.12421875344E+03  0.19129623475E+03  0.30809659384E+03  0.10566000000E+00 0. -1.
          4    1    3    3  501    0  0.28722762876E+03 -0.24270608358E+03  0.16382912865E+04  0.16808938970E+04  0.00000000000E+00 0.  1.
         -4    1    4    4    0  502 -0.45144138469E+03  0.36619637928E+03 -0.47446932572E+03  0.75034675521E+03  0.00000000000E+00 0. -1.
</event>
<event>
 8    1  0.6759491E-006  0.1036316E+04  0.7818608E-02  0.8744787E-01
         21   -1    0    0  503  502  0.00000000000E+00  0.00000000000E+00  0.10915279652E+04  0.10915279652E+04  0.00000000000E+00 0.  1.
         21   -1    0    0  501  503 -0.00000000000E+00 -0.00000000000E+00 -0.99755759081E+03  0.99755759081E+03  0.00000000000E+00 0.  1.
    9000010    2    1    2  501    0 -0.21418635681E+03 -0.31921783631E+02  0.22426805779E+03  0.10603050313E+04  0.10134376162E+04 0.  0.
   -9000010    2    1    2    0  502  0.21418635681E+03  0.31921783631E+02 -0.13029768335E+03  0.10287805247E+04  0.99725477490E+03 0.  0.
        -13    1    3    3    0    0  0.26861148223E+03  0.17281898816E+03  0.39575030967E+03  0.50856351601E+03  0.10566000000E+00 0.  1.
         13    1    4    4    0    0  0.50484179331E+03 -0.24200761579E+03  0.98561712010E+02  0.56846050401E+03  0.10566000000E+00 0. -1.
          4    1    3    3  501    0 -0.48279783904E+03 -0.20474077179E+03 -0.17148225187E+03  0.55174151531E+03  0.00000000000E+00 0.  1.
         -4    1    4    4    0  502 -0.29065543650E+03  0.27392939942E+03 -0.22885939536E+03  0.46032002073E+03  0.00000000000E+00 0. -1.
</event>
<event>
 8    1  0.6759491E-006  0.1063411E+04  0.7818608E-02  0.8718359E-01
         21   -1    0    0  501  502  0.00000000000E+00  0.00000000000E+00  0.94031444480E+03  0.94031444480E+03  0.00000000000E+00 0.  1.
         21   -1    0    0  502  503 -0.00000000000E+00 -0.00000000000E+00 -0.12200106370E+04  0.12200106370E+04  0.00000000000E+00 0.  1.
    9000010    2    1    2  501    0  0.34207079925E+03 -0.61161537658E+02  0.94829672481E+01  0.10634534187E+04  0.10050323784E+04 0.  0.
   -9000010    2    1    2    0  503 -0.34207079925E+03  0.61161537658E+02 -0.28917915942E+03  0.10968716631E+04  0.99937465126E+03 0.  0.
        -13    1    3    3    0    0 -0.65651240129E+02  0.33428351924E+03  0.27371651610E+03  0.43700835108E+03  0.10566000000E+00 0.  1.
         13    1    4    4    0    0  0.32873038506E+03  0.17847921792E+03 -0.63100901153E+02  0.37934184079E+03  0.10566000000E+00 0. -1.
          4    1    3    3  501    0  0.40772203938E+03 -0.39544505690E+03 -0.26423354885E+03  0.62644506763E+03  0.00000000000E+00 0.  1.
         -4    1    4    4    0  503 -0.67080118431E+03 -0.11731768026E+03 -0.22607825826E+03  0.71752982226E+03  0.00000000000E+00 0. -1.
</event>
<event>
 8    1  0.6759491E-006  0.1058989E+04  0.7818608E-02  0.8726169E-01
         21   -1    0    0  503  502  0.00000000000E+00  0.00000000000E+00  0.10485206673E+04  0.10485206673E+04  0.00000000000E+00 0.  1.
         21   -1    0    0  501  503 -0.00000000000E+00 -0.00000000000E+00 -0.15420215479E+04  0.15420215479E+04  0.00000000000E+00 0.  1.
    9000010    2    1    2  501    0  0.15484846411E+03  0.25873861886E+03 -0.97920240913E+03  0.14254825316E+04  0.99107990102E+03 0.  0.
   -9000010    2    1    2    0  502 -0.15484846411E+03 -0.25873861886E+03  0.48570152861E+03  0.11650596836E+04  0.10151523884E+04 0.  0.
        -13    1    3    3    0    0  0.10452605584E+03  0.49469697603E+03 -0.10572287179E+04  0.11719144028E+04  0.10566000000E+00 0.  1.
         13    1    4    4    0    0 -0.51386044821E+03  0.86601993647E+02  0.89879629648E+02  0.52880130912E+03  0.10566000000E+00 0. -1.
          4    1    3    3  501    0  0.50322408270E+02 -0.23595835718E+03  0.78026308747E+02  0.25356812882E+03  0.00000000000E+00 0.  1.
         -4    1    4    4    0  502  0.35901198410E+03 -0.34534061250E+03  0.39582189896E+03  0.63625837446E+03  0.00000000000E+00 0. -1.
</event>
<event>
 8    1  0.6759491E-006  0.1034305E+04  0.7818608E-02  0.8745201E-01
         21   -1    0    0  503  502  0.00000000000E+00  0.00000000000E+00  0.19831831108E+04  0.19831831108E+04  0.00000000000E+00 0. -1.
         21   -1    0    0  501  503 -0.00000000000E+00 -0.00000000000E+00 -0.55008110982E+03  0.55008110982E+03  0.00000000000E+00 0. -1.
    9000010    2    1    2  501    0 -0.62926289699E+02  0.17870247823E+03  0.93367012051E+03  0.13933867536E+04  0.10168050243E+04 0.  0.
   -9000010    2    1    2    0  502  0.62926289699E+02 -0.17870247823E+03  0.49943188048E+03  0.11398774671E+04  0.10069727618E+04 0.  0.
        -13    1    3    3    0    0 -0.29704761161E+03 -0.24207264054E+03  0.81025762335E+03  0.89630010276E+03  0.10566000000E+00 0.  1.
         13    1    4    4    0    0  0.22711804677E+03  0.27581406081E+03  0.54799188433E+03  0.65417973048E+03  0.10566000000E+00 0. -1.
          4    1    3    3  501    0  0.23412132191E+03  0.42077511877E+03  0.12341249717E+03  0.49708665080E+03  0.00000000000E+00 0.  1.
         -4    1    4    4    0  502 -0.16419175707E+03 -0.45451653905E+03 -0.48560003851E+02  0.48569773659E+03  0.00000000000E+00 0. -1.
</event>
<event>
 8    1  0.6759491E-006  0.1005314E+04  0.7818608E-02  0.8772586E-01
         21   -1    0    0  503  502  0.00000000000E+00  0.00000000000E+00  0.19278940576E+04  0.19278940576E+04  0.00000000000E+00 0.  1.
         21   -1    0    0  501  503 -0.00000000000E+00 -0.00000000000E+00 -0.82693457064E+03  0.82693457064E+03  0.00000000000E+00 0.  1.
    9000010    2    1    2  501    0  0.54802814372E+02 -0.92271060987E+02 -0.28970286315E+03  0.10462232859E+04  0.99956896606E+03 0.  0.
   -9000010    2    1    2    0  502 -0.54802814372E+02  0.92271060987E+02  0.13906623501E+04  0.17086053424E+04  0.98685011358E+03 0.  0.
        -13    1    3    3    0    0 -0.44501795905E+03 -0.19395773002E+03 -0.21419998594E+03  0.53060553149E+03  0.10566000000E+00 0.  1.
         13    1    4    4    0    0 -0.28234544195E+03  0.32938060960E+02 -0.13798270099E+02  0.28459491892E+03  0.10566000000E+00 0. -1.
          4    1    3    3  501    0  0.49982077342E+03  0.10168666903E+03 -0.75502877215E+02  0.51561775442E+03  0.00000000000E+00 0.  1.
         -4    1    4    4    0  502  0.22754262758E+03  0.59333000027E+02  0.14044606202E+04  0.14240104234E+04  0.00000000000E+00 0. -1.
</event>
<event>
 8    1  0.6759491E-006  0.1022545E+04  0.7818608E-02  0.8755048E-01
         21   -1    0    0  501  502  0.00000000000E+00  0.00000000000E+00  0.54366985653E+03  0.54366985653E+03  0.00000000000E+00 0. -1.
         21   -1    0    0  502  503 -0.00000000000E+00 -0.00000000000E+00 -0.20345231979E+04  0.20345231979E+04  0.00000000000E+00 0. -1.
    9000010    2    1    2  501    0 -0.11028431400E+03  0.16368362504E+03 -0.42721245456E+03  0.11027504510E+04  0.99729289417E+03 0.  0.
   -9000010    2    1    2    0  503  0.11028431400E+03 -0.16368362504E+03 -0.10636408868E+04  0.14754426034E+04  0.10033164909E+04 0.  0.
        -13    1    3    3    0    0  0.20992112995E+03  0.20318176277E+03 -0.64867190888E+03  0.71142460322E+03  0.10566000000E+00 0.  1.
         13    1    4    4    0    0  0.14770997088E+03 -0.48327533856E+03 -0.18233717286E+03  0.53723378908E+03  0.10566000000E+00 0. -1.
          4    1    3    3  501    0 -0.32020544395E+03 -0.39498137737E+02  0.22145945432E+03  0.39132584776E+03  0.00000000000E+00 0.  1.
         -4    1    4    4    0  503 -0.37425656881E+02  0.31959171353E+03 -0.88130371393E+03  0.93820881436E+03  0.00000000000E+00 0. -1.
</event>
<event>
 8    1  0.6759491E-006  0.1021912E+04  0.7818608E-02  0.8754647E-01
         21   -1    0    0  503  502  0.00000000000E+00  0.00000000000E+00  0.53477498405E+03  0.53477498405E+03  0.00000000000E+00 0. -1.
         21   -1    0    0  501  503 -0.00000000000E+00 -0.00000000000E+00 -0.21377894423E+04  0.21377894423E+04  0.00000000000E+00 0. -1.
    9000010    2    1    2  501    0 -0.10080835251E+02  0.21965128788E+03 -0.11973285513E+04  0.15730709775E+04  0.99629730951E+03 0.  0.
   -9000010    2    1    2    0  502  0.10080835251E+02 -0.21965128788E+03 -0.40568590690E+03  0.10994934488E+04  0.99797619081E+03 0.  0.
        -13    1    3    3    0    0 -0.16071143596E+03  0.24070692003E+03  0.69084128098E+02  0.29755775056E+03  0.10566000000E+00 0.  1.
         13    1    4    4    0    0  0.35341383000E+02  0.37892846670E+03 -0.31403669582E+03  0.49341144465E+03  0.10566000000E+00 0. -1.
          4    1    3    3  501    0  0.15063060071E+03 -0.21055632146E+02 -0.12664126794E+04  0.12755132269E+04  0.00000000000E+00 0.  1.
         -4    1    4    4    0  502 -0.25260547749E+02 -0.59857975459E+03 -0.91649211078E+02  0.60608200416E+03  0.00000000000E+00 0. -1.
</event>
<event>
 8    1  0.6759491E-006  0.1059968E+04  0.7818608E-02  0.8722339E-01
         21   -1    0    0  501  502  0.00000000000E+00  0.00000000000E+00  0.22489976864E+04  0.22489976864E+04  0.00000000000E+00 0.  1.
         21   -1    0    0  502  503 -0.00000000000E+00 -0.00000000000E+00 -0.58650987037E+03  0.58650987037E+03  0.00000000000E+00 0.  1.
    9000010    2    1    2  501    0 -0.20549088513E+03 -0.27971534881E+03  0.13944981248E+04  0.17516158855E+04  0.10015318319E+04 0.  0.
   -9000010    2    1    2    0  503  0.20549088513E+03  0.27971534881E+03  0.26798969128E+03  0.10838916713E+04  0.99122928738E+03 0.  0.
        -13    1    3    3    0    0 -0.41921494284E+03 -0.81283408048E+01  0.12738311350E+03  0.43821650699E+03  0.10566000000E+00 0.  1.
         13    1    4    4    0    0 -0.24541864028E+03  0.97431607675E+01  0.46236098250E+03  0.52354840033E+03  0.10566000000E+00 0. -1.
          4    1    3    3  501    0  0.21372405772E+03 -0.27158700801E+03  0.12671150113E+04  0.13133993785E+04  0.00000000000E+00 0.  1.
         -4    1    4    4    0  503  0.45090952541E+03  0.26997218804E+03 -0.19437129122E+03  0.56034327093E+03  0.00000000000E+00 0. -1.
</event>
<event>
 8    1  0.6759491E-006  0.1029807E+04  0.7818608E-02  0.8749277E-01
         21   -1    0    0  501  502  0.00000000000E+00  0.00000000000E+00  0.10096165007E+04  0.10096165007E+04  0.00000000000E+00 0. -1.
         21   -1    0    0  502  503 -0.00000000000E+00 -0.00000000000E+00 -0.11278093027E+04  0.11278093027E+04  0.00000000000E+00 0. -1.
    9000010    2    1    2  501    0 -0.63664599145E+02  0.22329866946E+03  0.23836525890E+03  0.10476387772E+04  0.99338488703E+03 0.  0.
   -9000010    2    1    2    0  503  0.63664599145E+02 -0.22329866946E+03 -0.35655806095E+03  0.10897870262E+04  0.10032879122E+04 0.  0.
        -13    1    3    3    0    0 -0.51492141314E+03  0.22212340499E+03  0.66318435364E+02  0.56469550625E+03  0.10566000000E+00 0.  1.
         13    1    4    4    0    0 -0.20669031595E+03  0.58704330990E+02 -0.59465679609E+03  0.63228458900E+03  0.10566000000E+00 0. -1.
          4    1    3    3  501    0  0.45125681399E+03  0.11752644669E+01  0.17204682353E+03  0.48294327090E+03  0.00000000000E+00 0.  1.
         -4    1    4    4    0  503  0.27035491509E+03 -0.28200300045E+03  0.23809873514E+03  0.45750243721E+03  0.00000000000E+00 0. -1.
</event>
<event>
 8    1  0.6759491E-006  0.1029830E+04  0.7818608E-02  0.8768949E-01
         21   -1    0    0  503  502  0.00000000000E+00  0.00000000000E+00  0.26673734358E+04  0.26673734358E+04  0.00000000000E+00 0.  1.
         21   -1    0    0  501  503 -0.00000000000E+00 -0.00000000000E+00 -0.77857734484E+03  0.77857734484E+03  0.00000000000E+00 0.  1.
    9000010    2    1    2  501    0  0.56652763487E+01  0.20696977641E+03 -0.33449349916E+03  0.99573295563E+03  0.91472926828E+03 0.  0.
   -9000010    2    1    2    0  502 -0.56652763487E+01 -0.20696977641E+03  0.22232895901E+04  0.24502178250E+04  0.10088023616E+04 0.  0.
        -13    1    3    3    0    0  0.44421242798E+03  0.19834244646E+03 -0.25738847285E+03  0.55037554847E+03  0.10566000000E+00 0.  1.
         13    1    4    4    0    0 -0.35741046181E+03 -0.43253057548E+03  0.88198779910E+03  0.10453360349E+04  0.10566000000E+00 0. -1.
          4    1    3    3  501    0 -0.43854715163E+03  0.86273299427E+01 -0.77105026310E+02  0.44535740715E+03  0.00000000000E+00 0.  1.
         -4    1    4    4    0  502  0.35174518546E+03  0.22556079907E+03  0.13413017910E+04  0.14048817901E+04  0.00000000000E+00 0. -1.
</event>
<event>
 8    1  0.6759491E-006  0.1052064E+04  0.7818608E-02  0.8727443E-01
         21   -1    0    0  501  502  0.00000000000E+00  0.00000000000E+00  0.70861150824E+03  0.70861150824E+03  0.00000000000E+00 0. -1.
         21   -1    0    0  502  503 -0.00000000000E+00 -0.00000000000E+00 -0.18669598876E+04  0.18669598876E+04  0.00000000000E+00 0. -1.
    9000010    2    1    2  501    0 -0.38425427553E+02  0.32281839288E+03 -0.56726064987E+02  0.10522823286E+04  0.99919568872E+03 0.  0.
   -9000010    2    1    2    0  503  0.38425427553E+02 -0.32281839288E+03 -0.11016223144E+04  0.15232890672E+04  0.10005746502E+04 0.  0.
        -13    1    3    3    0    0  0.21199780287E+03 -0.13241228288E+03  0.32323783681E+03  0.40860591209E+03  0.10566000000E+00 0.  1.
         13    1    4    4    0    0  0.50766662125E+03 -0.24502283555E+03 -0.47872027568E+03  0.73955033756E+03  0.10566000000E+00 0. -1.
          4    1    3    3  501    0 -0.25042323043E+03  0.45523067577E+03 -0.37996390180E+03  0.64367641651E+03  0.00000000000E+00 0.  1.
         -4    1    4    4    0  503 -0.46924119370E+03 -0.77795557331E+02 -0.62290203869E+03  0.78373872969E+03  0.00000000000E+00 0. -1.
</event>
<event>
 8    1  0.6759491E-006  0.1013596E+04  0.7818608E-02  0.8764538E-01
         21   -1    0    0  503  502  0.00000000000E+00  0.00000000000E+00  0.13876308738E+04  0.13876308738E+04  0.00000000000E+00 0. -1.
         21   -1    0    0  501  503 -0.00000000000E+00 -0.00000000000E+00 -0.10948154893E+04  0.10948154893E+04  0.00000000000E+00 0. -1.
    9000010    2    1    2  501    0 -0.74603947520E+02  0.13269256921E+03 -0.56848519704E+03  0.11523275554E+04  0.99071202114E+03 0.  0.
   -9000010    2    1    2    0  502  0.74603947520E+02 -0.13269256921E+03  0.86130058159E+03  0.13301188077E+04  0.10020999370E+04 0.  0.
        -13    1    3    3    0    0 -0.33563371608E+03  0.87576626799E+02 -0.75330200377E+03  0.82932718332E+03  0.10566000000E+00 0.  1.
         13    1    4    4    0    0  0.45396155056E+03  0.45639638614E+02  0.10927133568E+03  0.46915274907E+03  0.10566000000E+00 0. -1.
          4    1    3    3  501    0  0.26102976856E+03  0.45115942413E+02  0.18481680673E+03  0.32300037212E+03  0.00000000000E+00 0.  1.
         -4    1    4    4    0  502 -0.37935760304E+03 -0.17833220783E+03  0.75202924591E+03  0.86096605859E+03  0.00000000000E+00 0. -1.
</event>
<event>
 8    1  0.6759491E-006  0.1015810E+04  0.7818608E-02  0.8765295E-01
         21   -1    0    0  501  502  0.00000000000E+00  0.00000000000E+00  0.10275870527E+04  0.10275870527E+04  0.00000000000E+00 0.  1.
         21   -1    0    0  502  503 -0.00000000000E+00 -0.00000000000E+00 -0.10017145626E+04  0.10017145626E+04  0.00000000000E+00 0.  1.
    9000010    2    1    2  501    0 -0.11924212716E+03  0.26059698653E+02  0.15777210576E+03  0.10279888406E+04  0.10084499127E+04 0.  0.
   -9000010    2    1    2    0  503  0.11924212716E+03 -0.26059698653E+02 -0.13189961572E+03  0.10013127747E+04  0.98505429864E+03 0.  0.
        -13    1    3    3    0    0  0.75413415148E+02 -0.28665237686E+03  0.46290682946E+03  0.54967218619E+03  0.10566000000E+00 0.  1.
         13    1    4    4    0    0  0.46289520658E+03  0.17549236997E+03 -0.28880580277E+03  0.57313030549E+03  0.10566000000E+00 0. -1.
          4    1    3    3  501    0 -0.19465554230E+03  0.31271207552E+03 -0.30513472370E+03  0.47831665446E+03  0.00000000000E+00 0.  1.
         -4    1    4    4    0  503 -0.34365307943E+03 -0.20155206862E+03  0.15690618706E+03  0.42818246916E+03  0.00000000000E+00 0. -1.
</event>
<event>
 8    1  0.6759491E-006  0.1057611E+04  0.7818608E-02  0.8733755E-01
         21   -1    0    0  503  502  0.00000000000E+00  0.00000000000E+00  0.88642509283E+03  0.88642509283E+03  0.00000000000E+00 0.  1.
         21   -1    0    0  501  503 -0.00000000000E+00 -0.00000000000E+00 -0.13300381833E+04  0.13300381833E+04  0.00000000000E+00 0.  1.
    9000010    2    1    2  501    0 -0.16663935856E+03 -0.86488366987E+02 -0.57084533784E+03  0.12018344944E+04  0.10408135466E+04 0.  0.
   -9000010    2    1    2    0  502  0.16663935856E+03  0.86488366987E+02  0.12723224735E+03  0.10146287817E+04  0.98895632185E+03 0.  0.
        -13    1    3    3    0    0 -0.29962383103E+03 -0.15073375121E+03 -0.83463987730E+03  0.89951033336E+03  0.10566000000E+00 0.  1.
         13    1    4    4    0    0  0.18259050013E+03 -0.44053153439E+03  0.96028107458E+02  0.48644499393E+03  0.10566000000E+00 0. -1.
          4    1    3    3  501    0  0.13298447247E+03  0.64245384220E+02  0.26379453946E+03  0.30232416106E+03  0.00000000000E+00 0.  1.
         -4    1    4    4    0  502 -0.15951141568E+02  0.52701990138E+03  0.31204139892E+02  0.52818378782E+03  0.00000000000E+00 0. -1.
</event>
<event>
 8    1  0.6759491E-006  0.1043733E+04  0.7818608E-02  0.8734859E-01
         21   -1    0    0  503  502  0.00000000000E+00  0.00000000000E+00  0.15611054136E+04  0.15611054136E+04  0.00000000000E+00 0. -1.
         21   -1    0    0  501  503 -0.00000000000E+00 -0.00000000000E+00 -0.75997117426E+03  0.75997117426E+03  0.00000000000E+00 0. -1.
    9000010    2    1    2  501    0 -0.28414820154E+03 -0.54018012535E+02  0.66490592142E+02  0.10458485235E+04  0.10028559165E+04 0.  0.
   -9000010    2    1    2    0  502  0.28414820154E+03  0.54018012535E+02  0.73464364717E+03  0.12752280643E+04  0.10014225789E+04 0.  0.
        -13    1    3    3    0    0 -0.39499972513E+02  0.12583960237E+03 -0.43777858139E+03  0.45721543154E+03  0.10566000000E+00 0.  1.
         13    1    4    4    0    0  0.29692951414E+03 -0.33574807685E+03  0.76226579759E+03  0.88427544623E+03  0.10566000000E+00 0. -1.
          4    1    3    3  501    0 -0.24464822902E+03 -0.17985761491E+03  0.50426917353E+03  0.58863309198E+03  0.00000000000E+00 0.  1.
         -4    1    4    4    0  502 -0.12781312601E+02  0.38976608938E+03 -0.27622150414E+02  0.39095261807E+03  0.00000000000E+00 0. -1.
</event>
<event>
 8    1  0.6759491E-006  0.1248281E+04  0.7818608E-02  0.8571255E-01
         21   -1    0    0  501  502  0.00000000000E+00  0.00000000000E+00  0.87436918919E+03  0.87436918919E+03  0.00000000000E+00 0.  1.
         21   -1    0    0  502  503 -0.00000000000E+00 -0.00000000000E+00 -0.18833460334E+04  0.18833460334E+04  0.00000000000E+00 0. -1.
    9000010    2    1    2  501    0  0.73810609439E+03  0.15109482556E+03 -0.18261802668E+03  0.12615685527E+04  0.99527665327E+03 0.  0.
   -9000010    2    1    2    0  503 -0.73810609439E+03 -0.15109482556E+03 -0.82635881757E+03  0.14961466700E+04  0.99395961174E+03 0.  0.
        -13    1    3    3    0    0  0.17275419547E+03 -0.40661117888E+03 -0.15071158000E+03  0.46678759018E+03  0.10566000000E+00 0.  1.
         13    1    4    4    0    0 -0.50084605711E+03 -0.53949880945E+03 -0.28624339124E+03  0.78983607699E+03  0.10566000000E+00 0. -1.
          4    1    3    3  501    0  0.56535189892E+03  0.55770600443E+03 -0.31906446679E+02  0.79478096249E+03  0.00000000000E+00 0.  1.
         -4    1    4    4    0  503 -0.23726003728E+03  0.38840398389E+03 -0.54011542633E+03  0.70631059298E+03  0.00000000000E+00 0. -1.
</event>
<event>
 8    1  0.6759491E-006  0.1047767E+04  0.7818608E-02  0.8732880E-01
         21   -1    0    0  503  502  0.00000000000E+00  0.00000000000E+00  0.14835274888E+04  0.14835274888E+04  0.00000000000E+00 0. -1.
         21   -1    0    0  501  503 -0.00000000000E+00 -0.00000000000E+00 -0.81959831830E+03  0.81959831830E+03  0.00000000000E+00 0. -1.
    9000010    2    1    2  501    0  0.31273895285E+03 -0.26494336789E+02 -0.39097558295E+02  0.10484962346E+04  0.99965400633E+03 0.  0.
   -9000010    2    1    2    0  502 -0.31273895285E+03  0.26494336789E+02  0.70302672879E+03  0.12546295725E+04  0.99062666040E+03 0.  0.
        -13    1    3    3    0    0 -0.17500504980E+02  0.32451551462E+03 -0.34792528830E+03  0.47609726349E+03  0.10566000000E+00 0.  1.
         13    1    4    4    0    0 -0.21479448199E+03 -0.29958257640E+03  0.81641230534E+03  0.89577645261E+03  0.10566000000E+00 0. -1.
          4    1    3    3  501    0  0.33023945783E+03 -0.35100985141E+03  0.30882773000E+03  0.57239897110E+03  0.00000000000E+00 0.  1.
         -4    1    4    4    0  502 -0.97944470866E+02  0.32607691319E+03 -0.11338557655E+03  0.35885311990E+03  0.00000000000E+00 0. -1.
</event>
<event>
 8    1  0.6759491E-006  0.1137704E+04  0.7818608E-02  0.8676208E-01
         21   -1    0    0  503  502  0.00000000000E+00  0.00000000000E+00  0.66303464682E+03  0.66303464682E+03  0.00000000000E+00 0.  1.
         21   -1    0    0  501  503 -0.00000000000E+00 -0.00000000000E+00 -0.19903046559E+04  0.19903046559E+04  0.00000000000E+00 0.  1.
    9000010    2    1    2  501    0  0.14724546895E+03  0.24097421459E+03 -0.11184056916E+04  0.15953686904E+04  0.11020980751E+04 0.  0.
   -9000010    2    1    2    0  502 -0.14724546895E+03 -0.24097421459E+03 -0.20886431751E+03  0.10579706123E+04  0.99796177944E+03 0.  0.
        -13    1    3    3    0    0  0.32851126378E+03 -0.37300072601E+03 -0.51209275606E+03  0.71364430497E+03  0.10566000000E+00 0.  1.
         13    1    4    4    0    0 -0.35749933133E+03 -0.48099924356E+03  0.10723010503E+03  0.60882210111E+03  0.10566000000E+00 0. -1.
          4    1    3    3  501    0 -0.18126579483E+03  0.61397494060E+03 -0.60631293549E+03  0.88172438540E+03  0.00000000000E+00 0.  1.
         -4    1    4    4    0  502  0.21025386238E+03  0.24002502897E+03 -0.31609442255E+03  0.44914851123E+03  0.00000000000E+00 0. -1.
</event>
<event>
 8    1  0.6759491E-006  0.1100152E+04  0.7818608E-02  0.8708413E-01
         21   -1    0    0  503  502  0.00000000000E+00  0.00000000000E+00  0.88969003602E+03  0.88969003602E+03  0.00000000000E+00 0. -1.
         21   -1    0    0  501  503 -0.00000000000E+00 -0.00000000000E+00 -0.12846568928E+04  0.12846568928E+04  0.00000000000E+00 0. -1.
    9000010    2    1    2  501    0 -0.90710434759E+02 -0.21025033277E+03 -0.41726608511E+03  0.11766246939E+04  0.10760581300E+04 0.  0.
   -9000010    2    1    2    0  502  0.90710434759E+02  0.21025033277E+03  0.22299228314E+02  0.99772223493E+03  0.97083408319E+03 0.  0.
        -13    1    3    3    0    0  0.21055175969E+03  0.86633715382E+02  0.28013283101E+03  0.36098733817E+03  0.10566000000E+00 0.  1.
         13    1    4    4    0    0 -0.30006497154E+03 -0.18970512405E+03 -0.18629243259E+03  0.40091383468E+03  0.10566000000E+00 0. -1.
          4    1    3    3  501    0 -0.30126219445E+03 -0.29688404816E+03 -0.69739891612E+03  0.81563735573E+03  0.00000000000E+00 0.  1.
         -4    1    4    4    0  502  0.39077540630E+03  0.39995545682E+03  0.20859166091E+03  0.59680840025E+03  0.00000000000E+00 0. -1.
</event>
<event>
 8    1  0.6759491E-006  0.1155057E+04  0.7818608E-02  0.8641584E-01
         21   -1    0    0  503  502  0.00000000000E+00  0.00000000000E+00  0.19821442589E+04  0.19821442589E+04  0.00000000000E+00 0.  1.
         21   -1    0    0  501  503 -0.00000000000E+00 -0.00000000000E+00 -0.11260016397E+04  0.11260016397E+04  0.00000000000E+00 0.  1.
    9000010    2    1    2  501    0  0.43680417632E+03 -0.41770036684E+03  0.14147183540E+04  0.18251172236E+04  0.98201495592E+03 0.  0.
   -9000010    2    1    2    0  502 -0.43680417632E+03  0.41770036684E+03 -0.55857573492E+03  0.12830286750E+04  0.98431917812E+03 0.  0.
        -13    1    3    3    0    0 -0.16793380440E+03 -0.36741679474E+03  0.16598460172E+03  0.43674679494E+03  0.10566000000E+00 0.  1.
         13    1    4    4    0    0 -0.83935594665E+02 -0.31102826208E+03 -0.27984136764E+03  0.42672586759E+03  0.10566000000E+00 0. -1.
          4    1    3    3  501    0  0.60473798072E+03 -0.50283572098E+02  0.12487337523E+04  0.13883704286E+04  0.00000000000E+00 0.  1.
         -4    1    4    4    0  502 -0.35286858166E+03  0.72872862892E+03 -0.27873436728E+03  0.85630280744E+03  0.00000000000E+00 0. -1.
</event>
<event>
 8    1  0.6759491E-006  0.1070898E+04  0.7818608E-02  0.8718787E-01
         21   -1    0    0  501  502  0.00000000000E+00  0.00000000000E+00  0.35476922522E+04  0.35476922522E+04  0.00000000000E+00 0. -1.
         21   -1    0    0  502  503 -0.00000000000E+00 -0.00000000000E+00 -0.33363652836E+03  0.33363652836E+03  0.00000000000E+00 0. -1.
    9000010    2    1    2  501    0  0.10915826895E+02 -0.22674102884E+03  0.20719948860E+04  0.23157220295E+04  0.10088979438E+04 0.  0.
   -9000010    2    1    2    0  503 -0.10915826895E+02  0.22674102884E+03  0.11420608379E+04  0.15656067511E+04  0.10465614612E+04 0.  0.
        -13    1    3    3    0    0 -0.21878258287E+03 -0.56501906861E+03  0.10109280849E+04  0.11785957621E+04  0.10566000000E+00 0.  1.
         13    1    4    4    0    0 -0.60994361681E+02 -0.10090315352E+03 -0.17303430336E+03  0.20938634112E+03  0.10566000000E+00 0. -1.
          4    1    3    3  501    0  0.22969840977E+03  0.33827803977E+03  0.10610668011E+04  0.11371262674E+04  0.00000000000E+00 0.  1.
         -4    1    4    4    0  503  0.50078534786E+02  0.32764418236E+03  0.13150951412E+04  0.13562204099E+04  0.00000000000E+00 0. -1.
</event>
<event>
 8    1  0.6759491E-006  0.1047760E+04  0.7818608E-02  0.8732564E-01
         21   -1    0    0  501  502  0.00000000000E+00  0.00000000000E+00  0.65882209752E+03  0.65882209752E+03  0.00000000000E+00 0. -1.
         21   -1    0    0  502  503 -0.00000000000E+00 -0.00000000000E+00 -0.21559353816E+04  0.21559353816E+04  0.00000000000E+00 0. -1.
    9000010    2    1    2  501    0 -0.16633838276E+03  0.23461588344E+03 -0.72085843470E+02  0.10502367717E+04  0.10075156760E+04 0.  0.
   -9000010    2    1    2    0  503  0.16633838276E+03 -0.23461588344E+03 -0.14250274406E+04  0.17645207075E+04  0.10000585234E+04 0.  0.
        -13    1    3    3    0    0 -0.47107596093E+03  0.33322288093E+02 -0.35289796860E+03  0.58954213018E+03  0.10566000000E+00 0.  1.
         13    1    4    4    0    0 -0.36153461353E+03 -0.14326471967E+03 -0.22244647736E+03  0.44801172209E+03  0.10566000000E+00 0. -1.
          4    1    3    3  501    0  0.30473757817E+03  0.20129359535E+03  0.28081212513E+03  0.46069464149E+03  0.00000000000E+00 0.  1.
         -4    1    4    4    0  503  0.52787299628E+03 -0.91351163774E+02 -0.12025809633E+04  0.13165089854E+04  0.00000000000E+00 0. -1.
</event>
<event>
 8    1  0.6759491E-006  0.1000723E+04  0.7818608E-02  0.8779237E-01
         21   -1    0    0  501  502  0.00000000000E+00  0.00000000000E+00  0.96503842611E+03  0.96503842611E+03  0.00000000000E+00 0. -1.
         21   -1    0    0  502  503 -0.00000000000E+00 -0.00000000000E+00 -0.11374849805E+04  0.11374849805E+04  0.00000000000E+00 0. -1.
    9000010    2    1    2  501    0  0.11049015860E+03 -0.76420275030E+02  0.25840720600E+03  0.10335477228E+04  0.99166449856E+03 0.  0.
   -9000010    2    1    2    0  503 -0.11049015860E+03  0.76420275030E+02 -0.43085376043E+03  0.10689756838E+04  0.96903349587E+03 0.  0.
        -13    1    3    3    0    0  0.83498897695E+02 -0.52597166482E+03  0.23634491158E+03  0.58264670814E+03  0.10566000000E+00 0.  1.
         13    1    4    4    0    0 -0.36810949242E+03  0.38350780859E+03 -0.40317711203E+03  0.66718410689E+03  0.10566000000E+00 0. -1.
          4    1    3    3  501    0  0.26991260906E+02  0.44955138979E+03  0.22062294417E+02  0.45090101471E+03  0.00000000000E+00 0.  1.
         -4    1    4    4    0  503  0.25761933382E+03 -0.30708753356E+03 -0.27676648403E+02  0.40179157693E+03  0.00000000000E+00 0. -1.
</event>
<event>
 8    1  0.6759491E-006  0.1063845E+04  0.7818608E-02  0.8719952E-01
         21   -1    0    0  503  502  0.00000000000E+00  0.00000000000E+00  0.16370574042E+04  0.16370574042E+04  0.00000000000E+00 0.  1.
         21   -1    0    0  501  503 -0.00000000000E+00 -0.00000000000E+00 -0.71098658936E+03  0.71098658936E+03  0.00000000000E+00 0.  1.
    9000010    2    1    2  501    0  0.32554376646E+03  0.11321093838E+03  0.22930974848E+03  0.10882777587E+04  0.10064641369E+04 0.  0.
   -9000010    2    1    2    0  502 -0.32554376646E+03 -0.11321093838E+03  0.69676106632E+03  0.12597662348E+04  0.99133219575E+03 0.  0.
        -13    1    3    3    0    0  0.13810070086E+03  0.55542347402E+03  0.20296306296E+03  0.60725699268E+03  0.10566000000E+00 0.  1.
         13    1    4    4    0    0 -0.23002542775E+03 -0.21048548011E+03  0.93481329494E+03  0.98543987250E+03  0.10566000000E+00 0. -1.
          4    1    3    3  501    0  0.18744306561E+03 -0.44221253564E+03  0.26346685523E+02  0.48102076604E+03  0.00000000000E+00 0.  1.
         -4    1    4    4    0  502 -0.95518338711E+02  0.97274541733E+02 -0.23805222862E+03  0.27432636230E+03  0.00000000000E+00 0. -1.
</event>
<event>
 8    1  0.6759491E-006  0.1066091E+04  0.7818608E-02  0.8721014E-01
         21   -1    0    0  501  502  0.00000000000E+00  0.00000000000E+00  0.15950711361E+04  0.15950711361E+04  0.00000000000E+00 0. -1.
         21   -1    0    0  502  503 -0.00000000000E+00 -0.00000000000E+00 -0.71355914443E+03  0.71355914443E+03  0.00000000000E+00 0. -1.
    9000010    2    1    2  501    0 -0.30762984846E+03 -0.15011330536E+03  0.62619905521E+03  0.12123933050E+04  0.98010312782E+03 0.  0.
   -9000010    2    1    2    0  503  0.30762984846E+03  0.15011330536E+03  0.25531293647E+03  0.10962369755E+04  0.10096438396E+04 0.  0.
        -13    1    3    3    0    0 -0.52548233485E+03  0.22620636843E+03  0.20698970220E+03  0.60839604974E+03  0.10566000000E+00 0.  1.
         13    1    4    4    0    0  0.55957360737E+02  0.11158268324E+03  0.63054408610E+03  0.64278128248E+03  0.10566000000E+00 0. -1.
          4    1    3    3  501    0  0.21785248639E+03 -0.37631967380E+03  0.41920935301E+03  0.60399725526E+03  0.00000000000E+00 0.  1.
         -4    1    4    4    0  503  0.25167248773E+03  0.38530622120E+02 -0.37523114963E+03  0.45345569307E+03  0.00000000000E+00 0. -1.
</event>
<event>
 8    1  0.6759491E-006  0.1024013E+04  0.7818608E-02  0.8752721E-01
         21   -1    0    0  501  502  0.00000000000E+00  0.00000000000E+00  0.82342161731E+03  0.82342161731E+03  0.00000000000E+00 0. -1.
         21   -1    0    0  502  503 -0.00000000000E+00 -0.00000000000E+00 -0.15295172570E+04  0.15295172570E+04  0.00000000000E+00 0. -1.
    9000010    2    1    2  501    0 -0.19571066083E+02  0.25019519890E+03  0.12996276373E+03  0.10322268716E+04  0.99278463442E+03 0.  0.
   -9000010    2    1    2    0  503  0.19571066083E+02 -0.25019519890E+03 -0.83605840340E+03  0.13207120027E+04  0.99111345262E+03 0.  0.
        -13    1    3    3    0    0 -0.46436305956E+03  0.31966739013E+03  0.35185328423E+00  0.56375564419E+03  0.10566000000E+00 0.  1.
         13    1    4    4    0    0 -0.48353071965E+03 -0.10691006282E+03 -0.34778413526E+03  0.60513265841E+03  0.10566000000E+00 0. -1.
          4    1    3    3  501    0  0.44479199347E+03 -0.69472191227E+02  0.12961091045E+03  0.46847122742E+03  0.00000000000E+00 0.  1.
         -4    1    4    4    0  503  0.50310178573E+03 -0.14328513608E+03 -0.48827426814E+03  0.71557934428E+03  0.00000000000E+00 0. -1.
</event>
<event>
 8    1  0.6759491E-006  0.1025575E+04  0.7818608E-02  0.8751323E-01
         21   -1    0    0  501  502  0.00000000000E+00  0.00000000000E+00  0.11961761968E+04  0.11961761968E+04  0.00000000000E+00 0. -1.
         21   -1    0    0  502  503 -0.00000000000E+00 -0.00000000000E+00 -0.10570007100E+04  0.10570007100E+04  0.00000000000E+00 0. -1.
    9000010    2    1    2  501    0  0.92685688135E+02 -0.20864848463E+03  0.53339376276E+03  0.11544446120E+04  0.99805241804E+03 0.  0.
   -9000010    2    1    2    0  503 -0.92685688135E+02  0.20864848463E+03 -0.39421827602E+03  0.10987322948E+04  0.99983987696E+03 0.  0.
        -13    1    3    3    0    0  0.62211867980E+02 -0.14464772381E+03  0.83239439928E+03  0.84715625928E+03  0.10566000000E+00 0.  1.
         13    1    4    4    0    0 -0.54259150511E+03  0.11644613753E+03 -0.13406605232E+03  0.57091064267E+03  0.10566000000E+00 0. -1.
          4    1    3    3  501    0  0.30473820155E+02 -0.64000760816E+02 -0.29900063651E+03  0.30728835275E+03  0.00000000000E+00 0.  1.
         -4    1    4    4    0  503  0.44990581697E+03  0.92202347099E+02 -0.26015222370E+03  0.52782165213E+03  0.00000000000E+00 0. -1.
</event>
<event>
 8    1  0.6759491E-006  0.1091079E+04  0.7818608E-02  0.8693440E-01
         21   -1    0    0  503  502  0.00000000000E+00  0.00000000000E+00  0.28827923279E+04  0.28827923279E+04  0.00000000000E+00 0. -1.
         21   -1    0    0  501  503 -0.00000000000E+00 -0.00000000000E+00 -0.71802325439E+03  0.71802325439E+03  0.00000000000E+00 0. -1.
    9000010    2    1    2  501    0  0.29682748536E+03 -0.31284927702E+03 -0.91212526276E+02  0.10948415305E+04  0.10021861233E+04 0.  0.
   -9000010    2    1    2    0  502 -0.29682748536E+03  0.31284927702E+03  0.22559815998E+04  0.25059740518E+04  0.10022333778E+04 0.  0.
        -13    1    3    3    0    0 -0.43844985140E+02  0.19165048615E+03 -0.37483219828E+03  0.42326289655E+03  0.10566000000E+00 0.  1.
         13    1    4    4    0    0  0.27600341506E+03 -0.14885540647E+03  0.10248502947E+04  0.10717527489E+04  0.10566000000E+00 0. -1.
          4    1    3    3  501    0  0.34067247050E+03 -0.50449976317E+03  0.28361967200E+03  0.67157863392E+03  0.00000000000E+00 0.  1.
         -4    1    4    4    0  502 -0.57283090042E+03  0.46170468349E+03  0.12311313051E+04  0.14342213029E+04  0.00000000000E+00 0. -1.
</event>
<event>
 8    1  0.6759491E-006  0.1094751E+04  0.7818608E-02  0.8690517E-01
         21   -1    0    0  501  502  0.00000000000E+00  0.00000000000E+00  0.16825277992E+04  0.16825277992E+04  0.00000000000E+00 0.  1.
         21   -1    0    0  502  503 -0.00000000000E+00 -0.00000000000E+00 -0.80902653758E+03  0.80902653758E+03  0.00000000000E+00 0.  1.
    9000010    2    1    2  501    0  0.20947702821E+03  0.38831879313E+03  0.86890470126E+03  0.13976677769E+04  0.10019020533E+04 0.  0.
   -9000010    2    1    2    0  503 -0.20947702821E+03 -0.38831879313E+03  0.45965603336E+01  0.10938865598E+04  0.10009468352E+04 0.  0.
        -13    1    3    3    0    0  0.60938310105E+03  0.28470995357E+03  0.44957215893E+03  0.80902574666E+03  0.10566000000E+00 0.  1.
         13    1    4    4    0    0 -0.59233680329E+03 -0.10587516629E+03 -0.91120745786E+02  0.60858478526E+03  0.10566000000E+00 0. -1.
          4    1    3    3  501    0 -0.39990607284E+03  0.10360883955E+03  0.41933254233E+03  0.58864203025E+03  0.00000000000E+00 0.  1.
         -4    1    4    4    0  503  0.38285977508E+03 -0.28244362684E+03  0.95717306120E+02  0.48530177458E+03  0.00000000000E+00 0. -1.
</event>
<event>
 8    1  0.6759491E-006  0.1041314E+04  0.7818608E-02  0.8748881E-01
         21   -1    0    0  503  502  0.00000000000E+00  0.00000000000E+00  0.10170741411E+04  0.10170741411E+04  0.00000000000E+00 0. -1.
         21   -1    0    0  501  503 -0.00000000000E+00 -0.00000000000E+00 -0.10395797299E+04  0.10395797299E+04  0.00000000000E+00 0. -1.
    9000010    2    1    2  501    0 -0.13853143166E+03 -0.56768216458E+02  0.15398245259E+03  0.10526376376E+04  0.10304959060E+04 0.  0.
   -9000010    2    1    2    0  502  0.13853143166E+03  0.56768216458E+02 -0.17648804143E+03  0.10040162335E+04  0.97697849531E+03 0.  0.
        -13    1    3    3    0    0 -0.48751457771E+03 -0.60494429747E+02  0.39344002205E+03  0.62938470082E+03  0.10566000000E+00 0.  1.
         13    1    4    4    0    0  0.13234051879E+03  0.35272404215E+03 -0.45969077340E+03  0.59434323512E+03  0.10566000000E+00 0. -1.
          4    1    3    3  501    0  0.34898314605E+03  0.37262132892E+01 -0.23945756945E+03  0.42325293674E+03  0.00000000000E+00 0.  1.
         -4    1    4    4    0  502  0.61909128675E+01 -0.29595582569E+03  0.28320273197E+03  0.40967299833E+03  0.00000000000E+00 0. -1.
</event>
<event>
 8    1  0.6759491E-006  0.1154892E+04  0.7818608E-02  0.8655467E-01
         21   -1    0    0  501  502  0.00000000000E+00  0.00000000000E+00  0.15145834948E+04  0.15145834948E+04  0.00000000000E+00 0.  1.
         21   -1    0    0  502  503 -0.00000000000E+00 -0.00000000000E+00 -0.88514466937E+03  0.88514466937E+03  0.00000000000E+00 0.  1.
    9000010    2    1    2  501    0  0.23385159350E+03  0.41139598207E+03  0.20429455908E+02  0.11550728151E+04  0.10534906852E+04 0.  0.
   -9000010    2    1    2    0  503 -0.23385159350E+03 -0.41139598207E+03  0.60900936956E+03  0.12446553491E+04  0.97690393791E+03 0.  0.
        -13    1    3    3    0    0  0.12175091321E+03  0.76235216459E+03 -0.71605054071E+02  0.77532664255E+03  0.10566000000E+00 0.  1.
         13    1    4    4    0    0  0.25467173849E+03  0.18101371275E+03  0.12224521746E+03  0.33551089840E+03  0.10566000000E+00 0. -1.
          4    1    3    3  501    0  0.11210068028E+03 -0.35095618252E+03  0.92034509979E+02  0.37974617258E+03  0.00000000000E+00 0.  1.
         -4    1    4    4    0  503 -0.48852333199E+03 -0.59240969482E+03  0.48676415209E+03  0.90914445066E+03  0.00000000000E+00 0. -1.
</event>
<event>
 8    1  0.6759491E-006  0.1015895E+04  0.7818608E-02  0.8765912E-01
         21   -1    0    0  501  502  0.00000000000E+00  0.00000000000E+00  0.13594919265E+04  0.13594919265E+04  0.00000000000E+00 0.  1.
         21   -1    0    0  502  503 -0.00000000000E+00 -0.00000000000E+00 -0.80738946624E+03  0.80738946624E+03  0.00000000000E+00 0.  1.
    9000010    2    1    2  501    0 -0.91920071116E+02 -0.65345671071E+02  0.59300401579E+03  0.11763066310E+04  0.10096158533E+04 0.  0.
   -9000010    2    1    2    0  503  0.91920071116E+02  0.65345671071E+02 -0.40901555574E+02  0.99057476172E+03  0.98328330867E+03 0.  0.
        -13    1    3    3    0    0  0.77943509403E+02 -0.52209935452E+03  0.28662495433E+03  0.60068028289E+03  0.10566000000E+00 0.  1.
         13    1    4    4    0    0  0.41635868285E+03  0.12330196248E+02 -0.34643201128E+03  0.54177646324E+03  0.10566000000E+00 0. -1.
          4    1    3    3  501    0 -0.16986358052E+03  0.45675368344E+03  0.30637906146E+03  0.57562634810E+03  0.00000000000E+00 0.  1.
         -4    1    4    4    0  503 -0.32443861173E+03  0.53015474823E+02  0.30553045570E+03  0.44879829848E+03  0.00000000000E+00 0. -1.
</event>
<event>
 8    1  0.6759491E-006  0.1036264E+04  0.7818608E-02  0.8745395E-01
         21   -1    0    0  501  502  0.00000000000E+00  0.00000000000E+00  0.10571723070E+04  0.10571723070E+04  0.00000000000E+00 0. -1.
         21   -1    0    0  502  503 -0.00000000000E+00 -0.00000000000E+00 -0.11550571024E+04  0.11550571024E+04  0.00000000000E+00 0. -1.
    9000010    2    1    2  501    0  0.83297863820E+02  0.44611302454E+02  0.35937559279E+03  0.10795641693E+04  0.10135971964E+04 0.  0.
   -9000010    2    1    2    0  503 -0.83297863820E+02 -0.44611302454E+02 -0.45726038826E+03  0.11326652401E+04  0.10319470825E+04 0.  0.
        -13    1    3    3    0    0 -0.42533158087E+03  0.24054943438E+02  0.37891839304E+03  0.57014450251E+03  0.10566000000E+00 0.  1.
         13    1    4    4    0    0  0.24311096771E+03  0.40995501052E+03 -0.20632487670E+03  0.51936116449E+03  0.10566000000E+00 0. -1.
          4    1    3    3  501    0  0.50862944469E+03  0.20556359015E+02 -0.19542800246E+02  0.50941966682E+03  0.00000000000E+00 0.  1.
         -4    1    4    4    0  503 -0.32640883153E+03 -0.45456631297E+03 -0.25093551156E+03  0.61330407560E+03  0.00000000000E+00 0. -1.
</event>
<event>
 8    1  0.6759491E-006  0.1038540E+04  0.7818608E-02  0.8743612E-01
         21   -1    0    0  503  502  0.00000000000E+00  0.00000000000E+00  0.14028724896E+04  0.14028724896E+04  0.00000000000E+00 0.  1.
         21   -1    0    0  501  503 -0.00000000000E+00 -0.00000000000E+00 -0.95464349976E+03  0.95464349976E+03  0.00000000000E+00 0.  1.
    9000010    2    1    2  501    0  0.11158643453E+03 -0.18397752014E+03  0.76552519471E+03  0.12901915635E+04  0.10160050130E+04 0.  0.
   -9000010    2    1    2    0  502 -0.11158643453E+03  0.18397752014E+03 -0.31729620484E+03  0.10673244259E+04  0.99609501967E+03 0.  0.
        -13    1    3    3    0    0  0.28183973875E+03  0.34904838112E+03  0.49701484737E+03  0.66954624962E+03  0.10566000000E+00 0.  1.
         13    1    4    4    0    0 -0.18005557327E+03  0.18016309148E+03  0.32974136005E+03  0.41666308295E+03  0.10566000000E+00 0. -1.
          4    1    3    3  501    0 -0.17025330422E+03 -0.53302590126E+03  0.26851034734E+03  0.62064531388E+03  0.00000000000E+00 0.  1.
         -4    1    4    4    0  502  0.68469138741E+02  0.38144286599E+01 -0.64703756489E+03  0.65066134294E+03  0.00000000000E+00 0. -1.
</event>
<event>
 8    1  0.6759491E-006  0.1078104E+04  0.7818608E-02  0.8705082E-01
         21   -1    0    0  503  502  0.00000000000E+00  0.00000000000E+00  0.22410159180E+04  0.22410159180E+04  0.00000000000E+00 0.  1.
         21   -1    0    0  501  503 -0.00000000000E+00 -0.00000000000E+00 -0.85946945153E+03  0.85946945153E+03  0.00000000000E+00 0.  1.
    9000010    2    1    2  501    0 -0.39509754600E+03  0.54658711839E+02 -0.28682671498E+03  0.11156065662E+04  0.10016081072E+04 0.  0.
   -9000010    2    1    2    0  502  0.39509754600E+03 -0.54658711839E+02  0.16683731815E+04  0.19848788034E+04  0.99859158108E+03 0.  0.
        -13    1    3    3    0    0 -0.65364399686E+03  0.23420490378E+03 -0.69036758105E+01  0.69437027837E+03  0.10566000000E+00 0.  1.
         13    1    4    4    0    0  0.12473047639E+03 -0.50217126095E+03  0.57888147693E+03  0.77642607025E+03  0.10566000000E+00 0. -1.
          4    1    3    3  501    0  0.25854645085E+03 -0.17954619194E+03 -0.27992303917E+03  0.42123628779E+03  0.00000000000E+00 0.  1.
         -4    1    4    4    0  502  0.27036706962E+03  0.44751254911E+03  0.10894917045E+04  0.12084527331E+04  0.00000000000E+00 0. -1.
</event>
<event>
 8    1  0.6759491E-006  0.1034687E+04  0.7818608E-02  0.8746011E-01
         21   -1    0    0  503  502  0.00000000000E+00  0.00000000000E+00  0.12127365430E+04  0.12127365430E+04  0.00000000000E+00 0. -1.
         21   -1    0    0  501  503 -0.00000000000E+00 -0.00000000000E+00 -0.91233432849E+03  0.91233432849E+03  0.00000000000E+00 0. -1.
    9000010    2    1    2  501    0 -0.34339269336E+02 -0.21267318524E+03 -0.76947775719E+02  0.10375441427E+04  0.10120117681E+04 0.  0.
   -9000010    2    1    2    0  502  0.34339269336E+02  0.21267318524E+03  0.37734999027E+03  0.10875267288E+04  0.99695150412E+03 0.  0.
        -13    1    3    3    0    0  0.37120617489E+03 -0.35225278108E+03 -0.25669186529E+03  0.57250918851E+03  0.10566000000E+00 0.  1.
         13    1    4    4    0    0  0.36941042151E+03  0.42397181545E+03  0.34089990253E+02  0.56336338044E+03  0.10566000000E+00 0. -1.
          4    1    3    3  501    0 -0.40554544423E+03  0.13957959584E+03  0.17974408957E+03  0.46503495422E+03  0.00000000000E+00 0.  1.
         -4    1    4    4    0  502 -0.33507115218E+03 -0.21129863021E+03  0.34326000002E+03  0.52416334836E+03  0.00000000000E+00 0. -1.
</event>
<event>
 8    1  0.6759491E-006  0.1038320E+04  0.7818608E-02  0.8740756E-01
         21   -1    0    0  501  502  0.00000000000E+00  0.00000000000E+00  0.48262203670E+03  0.48262203670E+03  0.00000000000E+00 0. -1.
         21   -1    0    0  502  503 -0.00000000000E+00 -0.00000000000E+00 -0.30222186180E+04  0.30222186180E+04  0.00000000000E+00 0. -1.
    9000010    2    1    2  501    0 -0.17622780354E+03 -0.23806679379E+03 -0.36471597817E+03  0.10948168305E+04  0.98887517445E+03 0.  0.
   -9000010    2    1    2    0  503  0.17622780354E+03  0.23806679379E+03 -0.21748806031E+04  0.24100238242E+04  0.99517694818E+03 0.  0.
        -13    1    3    3    0    0 -0.27963279947E+03  0.22964298328E+03 -0.48099373642E+03  0.60190147694E+03  0.10566000000E+00 0.  1.
         13    1    4    4    0    0  0.41398635600E+03  0.61298096255E+02 -0.20435280643E+04  0.20859408238E+04  0.10566000000E+00 0. -1.
          4    1    3    3  501    0  0.10340499593E+03 -0.46770977706E+03  0.11627775825E+03  0.49291535359E+03  0.00000000000E+00 0.  1.
         -4    1    4    4    0  503 -0.23775855246E+03  0.17676869753E+03 -0.13135253885E+03  0.32408300042E+03  0.00000000000E+00 0. -1.
</event>
<event>
 8    1  0.6759491E-006  0.1117118E+04  0.7818608E-02  0.8673158E-01
         21   -1    0    0  501  502  0.00000000000E+00  0.00000000000E+00  0.18272138857E+04  0.18272138857E+04  0.00000000000E+00 0. -1.
         21   -1    0    0  502  503 -0.00000000000E+00 -0.00000000000E+00 -0.68731220647E+03  0.68731220647E+03  0.00000000000E+00 0. -1.
    9000010    2    1    2  501    0 -0.82813545408E+02 -0.48966885621E+03  0.71194971181E+03  0.13246979822E+04  0.10006591227E+04 0.  0.
   -9000010    2    1    2    0  503  0.82813545408E+02  0.48966885621E+03  0.42795196741E+03  0.11898281100E+04  0.99293220957E+03 0.  0.
        -13    1    3    3    0    0 -0.29620235239E+03 -0.40114405898E+03 -0.75252076452E+02  0.50429681319E+03  0.10566000000E+00 0.  1.
         13    1    4    4    0    0  0.21711154800E+03 -0.12267285676E+03  0.50006896749E+03  0.55879785028E+03  0.10566000000E+00 0. -1.
          4    1    3    3  501    0  0.21338880699E+03 -0.88524797230E+02  0.78720178826E+03  0.82040116901E+03  0.00000000000E+00 0.  1.
         -4    1    4    4    0  503 -0.13429800260E+03  0.61234171296E+03 -0.72117000084E+02  0.63103025969E+03  0.00000000000E+00 0. -1.
</event>
<event>
 8    1  0.6759491E-006  0.1017694E+04  0.7818608E-02  0.8758456E-01
         21   -1    0    0  503  502  0.00000000000E+00  0.00000000000E+00  0.23821661656E+04  0.23821661656E+04  0.00000000000E+00 0. -1.
         21   -1    0    0  501  503 -0.00000000000E+00 -0.00000000000E+00 -0.44555140466E+03  0.44555140466E+03  0.00000000000E+00 0. -1.
    9000010    2    1    2  501    0 -0.12962002563E+03  0.14800294652E+03  0.74190902596E+03  0.12583156354E+04  0.99710732238E+03 0.  0.
   -9000010    2    1    2    0  502  0.12962002563E+03 -0.14800294652E+03  0.11947057350E+04  0.15694019348E+04  0.99849607741E+03 0.  0.
        -13    1    3    3    0    0  0.85345621920E+01 -0.41778535680E+03  0.20195429114E+03  0.46411527661E+03  0.10566000000E+00 0.  1.
         13    1    4    4    0    0 -0.41795460657E+03 -0.47836895067E+01  0.71153624304E+03  0.82522286272E+03  0.10566000000E+00 0. -1.
          4    1    3    3  501    0 -0.13815458783E+03  0.56578830331E+03  0.53995473482E+03  0.79420035882E+03  0.00000000000E+00 0.  1.
         -4    1    4    4    0  502  0.54757463220E+03 -0.14321925701E+03  0.48316949192E+03  0.74417907209E+03  0.00000000000E+00 0. -1.
</event>
<event>
 8    1  0.6759491E-006  0.1117529E+04  0.7818608E-02  0.8673863E-01
         21   -1    0    0  501  502  0.00000000000E+00  0.00000000000E+00  0.12513201321E+04  0.12513201321E+04  0.00000000000E+00 0. -1.
         21   -1    0    0  502  503 -0.00000000000E+00 -0.00000000000E+00 -0.14335130545E+04  0.14335130545E+04  0.00000000000E+00 0. -1.
    9000010    2    1    2  501    0  0.30602647652E+03 -0.39557918759E+03  0.65743913089E+03  0.12965715374E+04  0.99936802166E+03 0.  0.
   -9000010    2    1    2    0  503 -0.30602647652E+03  0.39557918759E+03 -0.83963205336E+03  0.13882616492E+04  0.98597835864E+03 0.  0.
        -13    1    3    3    0    0 -0.27071505224E+03 -0.10253154179E+02  0.52449427756E+03  0.59032704921E+03  0.10566000000E+00 0.  1.
         13    1    4    4    0    0  0.31427045994E+03 -0.79571333952E+02 -0.24283384642E+03  0.40505037626E+03  0.10566000000E+00 0. -1.
          4    1    3    3  501    0  0.57674152876E+03 -0.38532603341E+03  0.13294485333E+03  0.70624448816E+03  0.00000000000E+00 0.  1.
         -4    1    4    4    0  503 -0.62029693645E+03  0.47515052154E+03 -0.59679820694E+03  0.98321127298E+03  0.00000000000E+00 0. -1.
</event>
<event>
 8    1  0.6759491E-006  0.1068587E+04  0.7818608E-02  0.8714102E-01
         21   -1    0    0  503  502  0.00000000000E+00  0.00000000000E+00  0.19804783922E+04  0.19804783922E+04  0.00000000000E+00 0. -1.
         21   -1    0    0  501  503 -0.00000000000E+00 -0.00000000000E+00 -0.66783753415E+03  0.66783753415E+03  0.00000000000E+00 0. -1.
    9000010    2    1    2  501    0 -0.16602384740E+03 -0.32018696418E+03  0.15921815267E+03  0.10803838815E+04  0.10058803613E+04 0.  0.
   -9000010    2    1    2    0  502  0.16602384740E+03  0.32018696418E+03  0.11534227054E+04  0.15679320449E+04  0.99897114583E+03 0.  0.
        -13    1    3    3    0    0 -0.54216562958E+03 -0.41097748556E+03  0.75672272956E+02  0.68452346022E+03  0.10566000000E+00 0.  1.
         13    1    4    4    0    0  0.54877892654E+03  0.18481164980E+03  0.37466798058E+03  0.68970266271E+03  0.10566000000E+00 0. -1.
          4    1    3    3  501    0  0.37614178218E+03  0.90790521388E+02  0.83545879711E+02  0.39586042123E+03  0.00000000000E+00 0.  1.
         -4    1    4    4    0  502 -0.38275507914E+03  0.13537531438E+03  0.77875472477E+03  0.87822938217E+03  0.00000000000E+00 0. -1.
</event>
<event>
 8    1  0.6759491E-006  0.1144430E+04  0.7818608E-02  0.8649819E-01
         21   -1    0    0  503  502  0.00000000000E+00  0.00000000000E+00  0.24994633860E+04  0.24994633860E+04  0.00000000000E+00 0.  1.
         21   -1    0    0  501  503 -0.00000000000E+00 -0.00000000000E+00 -0.83918661199E+03  0.83918661199E+03  0.00000000000E+00 0.  1.
    9000010    2    1    2  501    0  0.19379851898E+03 -0.51524294660E+03 -0.19340934927E+03  0.11606580752E+04  0.10033378450E+04 0.  0.
   -9000010    2    1    2    0  502 -0.19379851898E+03  0.51524294660E+03  0.18536861233E+04  0.21779919227E+04  0.10022292212E+04 0.  0.
        -13    1    3    3    0    0  0.11273760743E+03  0.20400947471E+03 -0.34961285711E+03  0.42018899905E+03  0.10566000000E+00 0.  1.
         13    1    4    4    0    0 -0.45501244853E+03 -0.32696927355E+02  0.41588497029E+03  0.61730522196E+03  0.10566000000E+00 0. -1.
          4    1    3    3  501    0  0.81060911550E+02 -0.71925242131E+03  0.15620350784E+03  0.74046907620E+03  0.00000000000E+00 0.  1.
         -4    1    4    4    0  502  0.26121392956E+03  0.54793987396E+03  0.14378011530E+04  0.15606867008E+04  0.00000000000E+00 0. -1.
</event>
<event>
 8    1  0.6759491E-006  0.1035373E+04  0.7818608E-02  0.8744303E-01
         21   -1    0    0  501  502  0.00000000000E+00  0.00000000000E+00  0.58793558488E+03  0.58793558488E+03  0.00000000000E+00 0. -1.
         21   -1    0    0  502  503 -0.00000000000E+00 -0.00000000000E+00 -0.18473052845E+04  0.18473052845E+04  0.00000000000E+00 0. -1.
    9000010    2    1    2  501    0  0.21586459781E+03  0.15529619198E+03 -0.45020787019E+03  0.11290188106E+04  0.10006407529E+04 0.  0.
   -9000010    2    1    2    0  503 -0.21586459781E+03 -0.15529619198E+03 -0.80916182941E+03  0.13062220588E+04  0.99033265564E+03 0.  0.
        -13    1    3    3    0    0  0.43581033564E+03 -0.15542210252E+03  0.86797645854E+02  0.47076588777E+03  0.10566000000E+00 0.  1.
         13    1    4    4    0    0 -0.56200210411E+03 -0.31491055765E+03 -0.51323741898E+03  0.82366721663E+03  0.10566000000E+00 0. -1.
          4    1    3    3  501    0 -0.21994573783E+03  0.31071829450E+03 -0.53700551604E+03  0.65825292281E+03  0.00000000000E+00 0.  1.
         -4    1    4    4    0  503  0.34613750630E+03  0.15961436567E+03 -0.29592441043E+03  0.48255484215E+03  0.00000000000E+00 0. -1.
</event>
<event>
 8    1  0.6759491E-006  0.1017011E+04  0.7818608E-02  0.8761819E-01
         21   -1    0    0  503  502  0.00000000000E+00  0.00000000000E+00  0.14198490298E+04  0.14198490298E+04  0.00000000000E+00 0. -1.
         21   -1    0    0  501  503 -0.00000000000E+00 -0.00000000000E+00 -0.82577495904E+03  0.82577495904E+03  0.00000000000E+00 0. -1.
    9000010    2    1    2  501    0  0.96189681296E+02 -0.11906288676E+03 -0.10488064486E+03  0.10224044501E+04  0.10054265185E+04 0.  0.
   -9000010    2    1    2    0  502 -0.96189681296E+02  0.11906288676E+03  0.69895471561E+03  0.12232195388E+04  0.99211890403E+03 0.  0.
        -13    1    3    3    0    0 -0.32022416951E+03  0.23168905758E+03  0.14805156029E+03  0.42206944193E+03  0.10566000000E+00 0.  1.
         13    1    4    4    0    0  0.32367600291E+03 -0.20670978866E+02  0.71000198341E+03  0.78057432179E+03  0.10566000000E+00 0. -1.
          4    1    3    3  501    0  0.41641385081E+03 -0.35075194434E+03 -0.25293220515E+03  0.60033500815E+03  0.00000000000E+00 0.  1.
         -4    1    4    4    0  502 -0.41986568420E+03  0.13973386563E+03 -0.11047267800E+02  0.44264521697E+03  0.00000000000E+00 0. -1.
</event>
<event>
 8    1  0.6759491E-006  0.1060806E+04  0.7818608E-02  0.8725791E-01
         21   -1    0    0  501  502  0.00000000000E+00  0.00000000000E+00  0.48578039596E+03  0.48578039596E+03  0.00000000000E+00 0. -1.
         21   -1    0    0  502  503 -0.00000000000E+00 -0.00000000000E+00 -0.25284683574E+04  0.25284683574E+04  0.00000000000E+00 0. -1.
    9000010    2    1    2  501    0  0.12115875099E+03 -0.20492782597E+03 -0.15048491444E+04  0.18248875020E+04  0.10044742856E+04 0.  0.
   -9000010    2    1    2    0  503 -0.12115875099E+03  0.20492782597E+03 -0.53783881700E+03  0.11893612514E+04  0.10337479076E+04 0.  0.
        -13    1    3    3    0    0 -0.26965650547E+03 -0.47696433402E+03 -0.68970435508E+03  0.88085283416E+03  0.10566000000E+00 0.  1.
         13    1    4    4    0    0 -0.27420930594E+03 -0.16628939460E+02  0.24090175050E+03  0.36537779030E+03  0.10566000000E+00 0. -1.
          4    1    3    3  501    0  0.39081525645E+03  0.27203650805E+03 -0.81514478935E+03  0.94403466780E+03  0.00000000000E+00 0.  1.
         -4    1    4    4    0  503  0.15305055495E+03  0.22155676543E+03 -0.77874056750E+03  0.82398346109E+03  0.00000000000E+00 0. -1.
</event>
<event>
 8    1  0.6759491E-006  0.1019200E+04  0.7818608E-02  0.8758020E-01
         21   -1    0    0  501  502  0.00000000000E+00  0.00000000000E+00  0.19107764762E+04  0.19107764762E+04  0.00000000000E+00 0.  1.
         21   -1    0    0  502  503 -0.00000000000E+00 -0.00000000000E+00 -0.54656560705E+03  0.54656560705E+03  0.00000000000E+00 0.  1.
    9000010    2    1    2  501    0 -0.14167682441E+03 -0.48250405291E+01  0.55682411022E+03  0.11613882804E+04  0.10092938345E+04 0.  0.
   -9000010    2    1    2    0  503  0.14167682441E+03  0.48250405291E+01  0.80738675893E+03  0.12959538029E+04  0.10037565826E+04 0.  0.
        -13    1    3    3    0    0  0.22602945128E+03  0.38027705871E+03  0.42367195875E+03  0.61253399418E+03  0.10566000000E+00 0.  1.
         13    1    4    4    0    0  0.12664422453E+03 -0.28977367215E+03  0.92562591995E+03  0.97815688697E+03  0.10566000000E+00 0. -1.
          4    1    3    3  501    0 -0.36770627570E+03 -0.38510209924E+03  0.13315215147E+03  0.54885428619E+03  0.00000000000E+00 0.  1.
         -4    1    4    4    0  503  0.15032599888E+02  0.29459871268E+03 -0.11823916102E+03  0.31779691592E+03  0.00000000000E+00 0. -1.
</event>
<event>
 8    1  0.1456430E-005  0.1050576E+04  0.7818608E-02  0.8734896E-01
         21   -1    0    0  503  502  0.00000000000E+00  0.00000000000E+00  0.11000114901E+04  0.11000114901E+04  0.00000000000E+00 0.  1.
         21   -1    0    0  501  503 -0.00000000000E+00 -0.00000000000E+00 -0.13377479915E+04  0.13377479915E+04  0.00000000000E+00 0.  1.
    9000010    2    1    2  501    0 -0.13017642607E+03 -0.19221872715E+03 -0.75127230018E+03  0.12683879840E+04  0.99524070856E+03 0.  0.
   -9000010    2    1    2    0  502  0.13017642607E+03  0.19221872715E+03  0.51353579879E+03  0.11693714975E+04  0.10246056518E+04 0.  0.
        -13    1    3    3    0    0  0.15324791205E+03 -0.54651598302E+03 -0.39501168991E+03  0.69151926117E+03  0.10566000000E+00 0.  1.
         13    1    4    4    0    0 -0.19555183484E+02  0.18661012145E+03 -0.29360603071E+03  0.34843974381E+03  0.10566000000E+00 0. -1.
          4    1    3    3  501    0 -0.28342433812E+03  0.35429725587E+03 -0.35626061028E+03  0.57686872284E+03  0.00000000000E+00 0.  1.
         -4    1    4    4    0  502  0.14973160955E+03  0.56086056932E+01  0.80714182951E+03  0.82093175374E+03  0.00000000000E+00 0. -1.
</event>
<event>
 8    1  0.6759491E-006  0.1011624E+04  0.7818608E-02  0.8767344E-01
         21   -1    0    0  501  502  0.00000000000E+00  0.00000000000E+00  0.17016011639E+04  0.17016011639E+04  0.00000000000E+00 0.  1.
         21   -1    0    0  502  503 -0.00000000000E+00 -0.00000000000E+00 -0.59377759943E+03  0.59377759943E+03  0.00000000000E+00 0.  1.
    9000010    2    1    2  501    0 -0.15258249601E+03  0.42924607186E+02  0.49238034891E+03  0.11112528430E+04  0.98352454621E+03 0.  0.
   -9000010    2    1    2    0  503  0.15258249601E+03 -0.42924607186E+02  0.61544321558E+03  0.11841259204E+04  0.99912957306E+03 0.  0.
        -13    1    3    3    0    0 -0.14166354103E+03 -0.17796888734E+03  0.74297820216E+03  0.77701872807E+03  0.10566000000E+00 0.  1.
         13    1    4    4    0    0  0.40224881696E+03 -0.17594294118E+03 -0.68157699234E+02  0.44430340132E+03  0.10566000000E+00 0. -1.
          4    1    3    3  501    0 -0.10918954978E+02  0.22089349452E+03 -0.25059785325E+03  0.33423411489E+03  0.00000000000E+00 0.  1.
         -4    1    4    4    0  503 -0.24966632095E+03  0.13301833400E+03  0.68360091481E+03  0.73982251907E+03  0.00000000000E+00 0. -1.
</event>
<event>
 8    1  0.6759491E-006  0.1024837E+04  0.7818608E-02  0.8756523E-01
         21   -1    0    0  501  502  0.00000000000E+00  0.00000000000E+00  0.18925993748E+04  0.18925993748E+04  0.00000000000E+00 0. -1.
         21   -1    0    0  502  503 -0.00000000000E+00 -0.00000000000E+00 -0.57535133286E+03  0.57535133286E+03  0.00000000000E+00 0. -1.
    9000010    2    1    2  501    0 -0.21370041929E+03 -0.45131175771E+02  0.95576146831E+03  0.14013460355E+04  0.10012921825E+04 0.  0.
   -9000010    2    1    2    0  503  0.21370041929E+03  0.45131175771E+02  0.36148657367E+03  0.10666046722E+04  0.97942242753E+03 0.  0.
        -13    1    3    3    0    0 -0.14323477121E+03 -0.50647665001E+03  0.33193419084E+03  0.62226611261E+03  0.10566000000E+00 0.  1.
         13    1    4    4    0    0 -0.27947832883E+03 -0.34358816562E+02 -0.17660284268E+03  0.33238116639E+03  0.10566000000E+00 0. -1.
          4    1    3    3  501    0 -0.70465648083E+02  0.46134547424E+03  0.62382727747E+03  0.77907992290E+03  0.00000000000E+00 0.  1.
         -4    1    4    4    0  503  0.49317874812E+03  0.79489992333E+02  0.53808941635E+03  0.73422350580E+03  0.00000000000E+00 0. -1.
</event>
<event>
 8    1  0.6759491E-006  0.1046510E+04  0.7818608E-02  0.8764057E-01
         21   -1    0    0  503  502  0.00000000000E+00  0.00000000000E+00  0.11134794653E+04  0.11134794653E+04  0.00000000000E+00 0. -1.
         21   -1    0    0  501  503 -0.00000000000E+00 -0.00000000000E+00 -0.10417900045E+04  0.10417900045E+04  0.00000000000E+00 0. -1.
    9000010    2    1    2  501    0  0.15753084707E+03  0.26474559619E+03  0.48502875456E+03  0.11534450145E+04  0.10001381456E+04 0.  0.
   -9000010    2    1    2    0  502 -0.15753084707E+03 -0.26474559619E+03 -0.41333929377E+03  0.10018244554E+04  0.85900912050E+03 0.  0.
        -13    1    3    3    0    0 -0.10653196649E+03  0.22923906194E+03  0.74163428534E+03  0.78353113005E+03  0.10566000000E+00 0.  1.
         13    1    4    4    0    0 -0.35651150051E+03 -0.54629164482E+02 -0.56866006875E+03  0.67339370398E+03  0.10566000000E+00 0. -1.
          4    1    3    3  501    0  0.26406281356E+03  0.35506534254E+02 -0.25660553078E+03  0.36991388444E+03  0.00000000000E+00 0.  1.
         -4    1    4    4    0  502  0.19898065344E+03 -0.21011643171E+03  0.15532077497E+03  0.32843075138E+03  0.00000000000E+00 0. -1.
</event>
<event>
 8    1  0.6759491E-006  0.1033360E+04  0.7818608E-02  0.8745162E-01
         21   -1    0    0  503  502  0.00000000000E+00  0.00000000000E+00  0.96332581813E+03  0.96332581813E+03  0.00000000000E+00 0.  1.
         21   -1    0    0  501  503 -0.00000000000E+00 -0.00000000000E+00 -0.13474476771E+04  0.13474476771E+04  0.00000000000E+00 0.  1.
    9000010    2    1    2  501    0 -0.19902710745E+03  0.15447734705E+03 -0.68439485740E+03  0.12346709389E+04  0.99626350248E+03 0.  0.
   -9000010    2    1    2    0  502  0.19902710745E+03 -0.15447734705E+03  0.30027299839E+03  0.10761025563E+04  0.10021765303E+04 0.  0.
        -13    1    3    3    0    0  0.12429933614E+03  0.26422963188E+03 -0.81758544222E+03  0.86816679839E+03  0.10566000000E+00 0.  1.
         13    1    4    4    0    0 -0.13182741644E+03  0.18382734118E+02 -0.32313694867E+03  0.34947659635E+03  0.10566000000E+00 0. -1.
          4    1    3    3  501    0 -0.32332644359E+03 -0.10975228483E+03  0.13319058482E+03  0.36650414055E+03  0.00000000000E+00 0.  1.
         -4    1    4    4    0  502  0.33085452389E+03 -0.17286008117E+03  0.62340994705E+03  0.72662595998E+03  0.00000000000E+00 0. -1.
</event>
<event>
 8    1  0.6759491E-006  0.1063396E+04  0.7818608E-02  0.8721265E-01
         21   -1    0    0  503  502  0.00000000000E+00  0.00000000000E+00  0.20748898438E+04  0.20748898438E+04  0.00000000000E+00 0. -1.
         21   -1    0    0  501  503 -0.00000000000E+00 -0.00000000000E+00 -0.65635904588E+03  0.65635904588E+03  0.00000000000E+00 0. -1.
    9000010    2    1    2  501    0  0.24474060134E+03  0.15112453436E+03  0.13001212825E+04  0.16796206207E+04  0.10237546061E+04 0.  0.
   -9000010    2    1    2    0  502 -0.24474060134E+03 -0.15112453436E+03  0.11840951542E+03  0.10516282690E+04  0.10045718570E+04 0.  0.
        -13    1    3    3    0    0 -0.83830298282E+02 -0.20018523979E+03 -0.69581183895E+02  0.22791051194E+03  0.10566000000E+00 0.  1.
         13    1    4    4    0    0 -0.43595217642E+03 -0.42046346253E+02 -0.33247513441E+03  0.54987445978E+03  0.10566000000E+00 0. -1.
          4    1    3    3  501    0  0.32857089963E+03  0.35130977414E+03  0.13697024664E+04  0.14517101088E+04  0.00000000000E+00 0.  1.
         -4    1    4    4    0  502  0.19121157508E+03 -0.10907818810E+03  0.45088464983E+03  0.50175380917E+03  0.00000000000E+00 0. -1.
</event>
<event>
 8    1  0.6759491E-006  0.1021297E+04  0.7818608E-02  0.8754965E-01
         21   -1    0    0  503  502  0.00000000000E+00  0.00000000000E+00  0.17360636847E+04  0.17360636847E+04  0.00000000000E+00 0. -1.
         21   -1    0    0  501  503 -0.00000000000E+00 -0.00000000000E+00 -0.65731530200E+03  0.65731530200E+03  0.00000000000E+00 0. -1.
    9000010    2    1    2  501    0 -0.19138267077E+03  0.11436391790E+03  0.18761703113E+03  0.10383874426E+04  0.99666538926E+03 0.  0.
   -9000010    2    1    2    0  502  0.19138267077E+03 -0.11436391790E+03  0.89113135157E+03  0.13549915441E+04  0.99608261029E+03 0.  0.
        -13    1    3    3    0    0  0.30433921310E+03  0.16688695602E+03  0.37023707841E+03  0.50749297346E+03  0.10566000000E+00 0.  1.
         13    1    4    4    0    0 -0.57566412401E+02 -0.39893234538E+03  0.88986761845E+03  0.97689574549E+03  0.10566000000E+00 0. -1.
          4    1    3    3  501    0 -0.49572188387E+03 -0.52523038116E+02 -0.18262004727E+03  0.53089446912E+03  0.00000000000E+00 0.  1.
         -4    1    4    4    0  502  0.24894908317E+03  0.28456842748E+03  0.12637331175E+01  0.37809579864E+03  0.00000000000E+00 0. -1.
</event>
<event>
 8    1  0.6759491E-006  0.1039818E+04  0.7818608E-02  0.8738681E-01
         21   -1    0    0  501  502  0.00000000000E+00  0.00000000000E+00  0.91473367328E+03  0.91473367328E+03  0.00000000000E+00 0. -1.
         21   -1    0    0  502  503 -0.00000000000E+00 -0.00000000000E+00 -0.14145648077E+04  0.14145648077E+04  0.00000000000E+00 0. -1.
    9000010    2    1    2  501    0  0.59839345014E+01 -0.30981304126E+03 -0.72507681497E+03  0.12653637786E+04  0.98964093314E+03 0.  0.
   -9000010    2    1    2    0  503 -0.59839345014E+01  0.30981304126E+03  0.22524568052E+03  0.10639347024E+04  0.99257317435E+03 0.  0.
        -13    1    3    3    0    0  0.25098913003E+03 -0.50016588840E+03 -0.10132311385E+03  0.56870716883E+03  0.10566000000E+00 0.  1.
         13    1    4    4    0    0 -0.18547116818E+03 -0.31032849280E+03 -0.44491759848E+02  0.36425657925E+03  0.10566000000E+00 0. -1.
          4    1    3    3  501    0 -0.24500519553E+03  0.19035284714E+03 -0.62375370113E+03  0.69665660976E+03  0.00000000000E+00 0.  1.
         -4    1    4    4    0  503  0.17948723368E+03  0.62014153406E+03  0.26973744037E+03  0.69967812318E+03  0.00000000000E+00 0. -1.
</event>
<event>
 8    1  0.6759491E-006  0.1037239E+04  0.7818608E-02  0.8753906E-01
         21   -1    0    0  503  502  0.00000000000E+00  0.00000000000E+00  0.89559604577E+03  0.89559604577E+03  0.00000000000E+00 0.  1.
         21   -1    0    0  501  503 -0.00000000000E+00 -0.00000000000E+00 -0.17400466177E+04  0.17400466177E+04  0.00000000000E+00 0.  1.
    9000010    2    1    2  501    0 -0.16496969051E+03  0.19119648758E+03 -0.12073612371E+04  0.15917245100E+04  0.10060291563E+04 0.  0.
   -9000010    2    1    2    0  502  0.16496969051E+03 -0.19119648758E+03  0.36291066514E+03  0.10439181534E+04  0.94566900371E+03 0.  0.
        -13    1    3    3    0    0 -0.21625320539E+03  0.53314442511E+03 -0.10791708947E+04  0.12229547244E+04  0.10566000000E+00 0.  1.
         13    1    4    4    0    0  0.47735357217E+01  0.21763612657E+03 -0.22306228159E+03  0.31168102744E+03  0.10566000000E+00 0. -1.
          4    1    3    3  501    0  0.51283514886E+02 -0.34194793753E+03 -0.12819034236E+03  0.36876978558E+03  0.00000000000E+00 0.  1.
         -4    1    4    4    0  502  0.16019615479E+03 -0.40883261415E+03  0.58597294673E+03  0.73223712601E+03  0.00000000000E+00 0. -1.
</event>
<event>
 8    1  0.6759491E-006  0.1015953E+04  0.7818608E-02  0.8763759E-01
         21   -1    0    0  501  502  0.00000000000E+00  0.00000000000E+00  0.86657701539E+03  0.86657701539E+03  0.00000000000E+00 0. -1.
         21   -1    0    0  502  503 -0.00000000000E+00 -0.00000000000E+00 -0.11727334554E+04  0.11727334554E+04  0.00000000000E+00 0. -1.
    9000010    2    1    2  501    0  0.94467356436E+02  0.52440229054E+02 -0.19439947763E+03  0.10343842805E+04  0.10101908849E+04 0.  0.
   -9000010    2    1    2    0  503 -0.94467356436E+02 -0.52440229054E+02 -0.11175696240E+03  0.10049261903E+04  0.99283078628E+03 0.  0.
        -13    1    3    3    0    0  0.19877801568E+03 -0.42341976278E+03 -0.27198705910E+03  0.54108591417E+03  0.10566000000E+00 0.  1.
         13    1    4    4    0    0  0.43071799230E+03 -0.15333136037E+03 -0.10952917034E+03  0.47013311443E+03  0.10566000000E+00 0. -1.
          4    1    3    3  501    0 -0.10431065925E+03  0.47585999184E+03  0.77587581476E+02  0.49329836637E+03  0.00000000000E+00 0.  1.
         -4    1    4    4    0  503 -0.52518534873E+03  0.10089113132E+03 -0.22277920602E+01  0.53479307584E+03  0.00000000000E+00 0. -1.
</event>
<event>
 8    1  0.6759491E-006  0.1043918E+04  0.7818608E-02  0.8738771E-01
         21   -1    0    0  503  502  0.00000000000E+00  0.00000000000E+00  0.70134987244E+03  0.70134987244E+03  0.00000000000E+00 0. -1.
         21   -1    0    0  501  503 -0.00000000000E+00 -0.00000000000E+00 -0.15351525927E+04  0.15351525927E+04  0.00000000000E+00 0. -1.
    9000010    2    1    2  501    0  0.11157604307E+02 -0.28079779021E+03 -0.32195742035E+03  0.10738545251E+04  0.98515738313E+03 0.  0.
   -9000010    2    1    2    0  502 -0.11157604307E+02  0.28079779021E+03 -0.51184529993E+03  0.11626479400E+04  0.10053818828E+04 0.  0.
        -13    1    3    3    0    0  0.47099643933E+03 -0.17770587012E+03 -0.50419404611E+00  0.50340568880E+03  0.10566000000E+00 0.  1.
         13    1    4    4    0    0  0.28345530369E+03  0.35470973297E+03  0.11298525214E+03  0.46790125263E+03  0.10566000000E+00 0. -1.
          4    1    3    3  501    0 -0.45983883503E+03 -0.10309192010E+03 -0.32145322631E+03  0.57044883635E+03  0.00000000000E+00 0.  1.
         -4    1    4    4    0  502 -0.29461290799E+03 -0.73911942755E+02 -0.62483055207E+03  0.69474668739E+03  0.00000000000E+00 0. -1.
</event>
<event>
 8    1  0.6759491E-006  0.1074218E+04  0.7818608E-02  0.8714002E-01
         21   -1    0    0  503  502  0.00000000000E+00  0.00000000000E+00  0.12165953497E+04  0.12165953497E+04  0.00000000000E+00 0.  1.
         21   -1    0    0  501  503 -0.00000000000E+00 -0.00000000000E+00 -0.11256162298E+04  0.11256162298E+04  0.00000000000E+00 0.  1.
    9000010    2    1    2  501    0 -0.21241710488E+03 -0.19414693913E+03  0.54098279691E+03  0.11775453314E+04  0.10055528632E+04 0.  0.
   -9000010    2    1    2    0  502  0.21241710488E+03  0.19414693913E+03 -0.45000367701E+03  0.11646662481E+04  0.10349541534E+04 0.  0.
        -13    1    3    3    0    0  0.27059902368E+03  0.51278349268E+02 -0.13868219382E+03  0.30836028079E+03  0.10566000000E+00 0.  1.
         13    1    4    4    0    0 -0.20771697418E+03 -0.25699979349E+03  0.92849055587E+02  0.34324363578E+03  0.10566000000E+00 0. -1.
          4    1    3    3  501    0 -0.48301612856E+03 -0.24542528840E+03  0.67966499072E+03  0.86918505064E+03  0.00000000000E+00 0.  1.
         -4    1    4    4    0  502  0.42013407905E+03  0.45114673262E+03 -0.54285273260E+03  0.82142261232E+03  0.00000000000E+00 0. -1.
</event>
<event>
 8    1  0.6759491E-006  0.1005279E+04  0.7818608E-02  0.8770670E-01
         21   -1    0    0  503  502  0.00000000000E+00  0.00000000000E+00  0.10649886123E+04  0.10649886123E+04  0.00000000000E+00 0.  1.
         21   -1    0    0  501  503 -0.00000000000E+00 -0.00000000000E+00 -0.12175132541E+04  0.12175132541E+04  0.00000000000E+00 0.  1.
    9000010    2    1    2  501    0  0.12377184104E+03 -0.10657820380E+03 -0.61652152303E+03  0.11792726961E+04  0.99192082405E+03 0.  0.
   -9000010    2    1    2    0  502 -0.12377184104E+03  0.10657820380E+03  0.46399688122E+03  0.11032291703E+04  0.98749334894E+03 0.  0.
        -13    1    3    3    0    0  0.28409297525E+02 -0.47011013991E+03 -0.64917880686E+03  0.80202479156E+03  0.10566000000E+00 0.  1.
         13    1    4    4    0    0  0.29248426280E+03  0.12739966343E+03 -0.15682193858E+03  0.35548677868E+03  0.10566000000E+00 0. -1.
          4    1    3    3  501    0  0.95362543516E+02  0.36353193611E+03  0.32657283836E+02  0.37724790452E+03  0.00000000000E+00 0.  1.
         -4    1    4    4    0  502 -0.41625610384E+03 -0.20821459633E+02  0.62081881980E+03  0.74774239160E+03  0.00000000000E+00 0. -1.
</event>
<event>
 8    1  0.6759491E-006  0.1008372E+04  0.7818608E-02  0.8768954E-01
         21   -1    0    0  501  502  0.00000000000E+00  0.00000000000E+00  0.23838542618E+04  0.23838542618E+04  0.00000000000E+00 0.  1.
         21   -1    0    0  502  503 -0.00000000000E+00 -0.00000000000E+00 -0.43205629177E+03  0.43205629177E+03  0.00000000000E+00 0.  1.
    9000010    2    1    2  501    0 -0.14157074607E+03 -0.18117994959E+01  0.11887805976E+04  0.15588502045E+04  0.99838323904E+03 0.  0.
   -9000010    2    1    2    0  503  0.14157074607E+03  0.18117994959E+01  0.76301737245E+03  0.12570603491E+04  0.98891842530E+03 0.  0.
        -13    1    3    3    0    0 -0.28506918307E+03 -0.45214212289E+03  0.66915339523E+03  0.85642467032E+03  0.10566000000E+00 0.  1.
         13    1    4    4    0    0 -0.25297789952E+03 -0.21478140441E+03 -0.42258388922E+02  0.33453647324E+03  0.10566000000E+00 0. -1.
          4    1    3    3  501    0  0.14349843700E+03  0.45033032339E+03  0.51962720239E+03  0.70242553416E+03  0.00000000000E+00 0.  1.
         -4    1    4    4    0  503  0.39454864559E+03  0.21659320391E+03  0.80527576137E+03  0.92252387588E+03  0.00000000000E+00 0. -1.
</event>
<event>
 8    1  0.6759491E-006  0.1021893E+04  0.7818608E-02  0.8756664E-01
         21   -1    0    0  503  502  0.00000000000E+00  0.00000000000E+00  0.14232278514E+04  0.14232278514E+04  0.00000000000E+00 0. -1.
         21   -1    0    0  501  503 -0.00000000000E+00 -0.00000000000E+00 -0.77534973522E+03  0.77534973522E+03  0.00000000000E+00 0. -1.
    9000010    2    1    2  501    0  0.50934310987E+02  0.16820813099E+03  0.49094374669E+02  0.10230716492E+04  0.10066663113E+04 0.  0.
   -9000010    2    1    2    0  502 -0.50934310987E+02 -0.16820813099E+03  0.59878374155E+03  0.11755059375E+04  0.99618470202E+03 0.  0.
        -13    1    3    3    0    0  0.47452725820E+03  0.23001858065E+03 -0.15385138855E+03  0.54932224345E+03  0.10566000000E+00 0.  1.
         13    1    4    4    0    0  0.37963813514E+03 -0.37281606369E+03  0.27235758621E+03  0.59774208228E+03  0.10566000000E+00 0. -1.
          4    1    3    3  501    0 -0.42359294721E+03 -0.61810449661E+02  0.20294576322E+03  0.47374940573E+03  0.00000000000E+00 0.  1.
         -4    1    4    4    0  502 -0.43057244613E+03  0.20460793270E+03  0.32642615534E+03  0.57776385520E+03  0.00000000000E+00 0. -1.
</event>
<event>
 8    1  0.6759491E-006  0.1002560E+04  0.7818608E-02  0.8780874E-01
         21   -1    0    0  501  502  0.00000000000E+00  0.00000000000E+00  0.12531445726E+04  0.12531445726E+04  0.00000000000E+00 0.  1.
         21   -1    0    0  502  503 -0.00000000000E+00 -0.00000000000E+00 -0.91508947008E+03  0.91508947008E+03  0.00000000000E+00 0.  1.
    9000010    2    1    2  501    0  0.67834022075E+02  0.41696779062E+02  0.59315027637E+03  0.11337288917E+04  0.96289868298E+03 0.  0.
   -9000010    2    1    2    0  503 -0.67834022075E+02 -0.41696779062E+02 -0.25509517388E+03  0.10345051509E+04  0.99939345784E+03 0.  0.
        -13    1    3    3    0    0  0.20857044581E+03  0.47024301014E+03  0.33752548215E+03  0.61526708161E+03  0.10566000000E+00 0.  1.
         13    1    4    4    0    0 -0.10367863485E+03  0.18813415358E+03 -0.58935064037E+03  0.62727817397E+03  0.10566000000E+00 0. -1.
          4    1    3    3  501    0 -0.14073642374E+03 -0.42854623108E+03  0.25562479422E+03  0.51846181013E+03  0.00000000000E+00 0.  1.
         -4    1    4    4    0  503  0.35844612775E+02 -0.22983093264E+03  0.33425546649E+03  0.40722697694E+03  0.00000000000E+00 0. -1.
</event>
<event>
 8    1  0.6759491E-006  0.1044330E+04  0.7818608E-02  0.8739627E-01
         21   -1    0    0  501  502  0.00000000000E+00  0.00000000000E+00  0.16624472392E+04  0.16624472392E+04  0.00000000000E+00 0. -1.
         21   -1    0    0  502  503 -0.00000000000E+00 -0.00000000000E+00 -0.71768831359E+03  0.71768831359E+03  0.00000000000E+00 0. -1.
    9000010    2    1    2  501    0  0.26546875789E+03 -0.99111825111E+02  0.85749858599E+03  0.13321667710E+04  0.97932000158E+03 0.  0.
   -9000010    2    1    2    0  503 -0.26546875789E+03  0.99111825111E+02  0.87260339651E+02  0.10479687818E+04  0.10051504293E+04 0.  0.
        -13    1    3    3    0    0  0.49643329515E+03  0.63887329829E+02  0.82577550413E+02  0.50729347566E+03  0.10566000000E+00 0.  1.
         13    1    4    4    0    0 -0.59285702865E+03  0.21845012409E+03  0.22863989496E+03  0.67191973171E+03  0.10566000000E+00 0. -1.
          4    1    3    3  501    0 -0.23096453726E+03 -0.16299915494E+03  0.77492103558E+03  0.82487329534E+03  0.00000000000E+00 0.  1.
         -4    1    4    4    0  503  0.32738827076E+03 -0.11933829898E+03 -0.14137955531E+03  0.37604905012E+03  0.00000000000E+00 0. -1.
</event>
<event>
 8    1  0.6759491E-006  0.1019069E+04  0.7818608E-02  0.8758691E-01
         21   -1    0    0  503  502  0.00000000000E+00  0.00000000000E+00  0.18029032993E+04  0.18029032993E+04  0.00000000000E+00 0.  1.
         21   -1    0    0  501  503 -0.00000000000E+00 -0.00000000000E+00 -0.58296997115E+03  0.58296997115E+03  0.00000000000E+00 0.  1.
    9000010    2    1    2  501    0  0.75490285022E+02  0.16938443301E+03  0.44553117749E+03  0.11122050902E+04  0.10020540222E+04 0.  0.
   -9000010    2    1    2    0  502 -0.75490285022E+02 -0.16938443301E+03  0.77440215064E+03  0.12736681802E+04  0.99405335524E+03 0.  0.
        -13    1    3    3    0    0 -0.30370033386E+03  0.33988060287E+03 -0.57709033841E+02  0.45943776591E+03  0.10566000000E+00 0.  1.
         13    1    4    4    0    0 -0.25212528323E+03  0.35632265766E+03  0.21736078133E+03  0.48762558919E+03  0.10566000000E+00 0. -1.
          4    1    3    3  501    0  0.37919061888E+03 -0.17049616986E+03  0.50324021133E+03  0.65276732431E+03  0.00000000000E+00 0.  1.
         -4    1    4    4    0  502  0.17663499821E+03 -0.52570709067E+03  0.55704136930E+03  0.78604259101E+03  0.00000000000E+00 0. -1.
</event>
<event>
 8    1  0.6759491E-006  0.1040422E+04  0.7818608E-02  0.8742420E-01
         21   -1    0    0  503  502  0.00000000000E+00  0.00000000000E+00  0.88615983883E+03  0.88615983883E+03  0.00000000000E+00 0. -1.
         21   -1    0    0  501  503 -0.00000000000E+00 -0.00000000000E+00 -0.13994084066E+04  0.13994084066E+04  0.00000000000E+00 0. -1.
    9000010    2    1    2  501    0 -0.39164109189E+02  0.21574584070E+03 -0.68974726421E+03  0.12302819429E+04  0.99486796881E+03 0.  0.
   -9000010    2    1    2    0  502  0.39164109189E+02 -0.21574584070E+03  0.17649869644E+03  0.10552863025E+04  0.10170532411E+04 0.  0.
        -13    1    3    3    0    0  0.88888264579E+02  0.20605003000E+03  0.21837657814E+03  0.31312310596E+03  0.10566000000E+00 0.  1.
         13    1    4    4    0    0 -0.27424564551E+03  0.24108576255E+03 -0.16901764538E+03  0.40236798407E+03  0.10566000000E+00 0. -1.
          4    1    3    3  501    0 -0.12805237377E+03  0.96958107015E+01 -0.90812384235E+03  0.91715883696E+03  0.00000000000E+00 0.  1.
         -4    1    4    4    0  502  0.31340975470E+03 -0.45683160325E+03  0.34551634183E+03  0.65291831843E+03  0.00000000000E+00 0. -1.
</event>
<event>
 8    1  0.6759491E-006  0.1017457E+04  0.7818608E-02  0.8765459E-01
         21   -1    0    0  501  502  0.00000000000E+00  0.00000000000E+00  0.61333974143E+03  0.61333974143E+03  0.00000000000E+00 0. -1.
         21   -1    0    0  502  503 -0.00000000000E+00 -0.00000000000E+00 -0.16728821803E+04  0.16728821803E+04  0.00000000000E+00 0. -1.
    9000010    2    1    2  501    0 -0.93944582062E+02  0.53869706977E+01 -0.35645753740E+03  0.10494730325E+04  0.98258692541E+03 0.  0.
   -9000010    2    1    2    0  503  0.93944582062E+02 -0.53869706977E+01 -0.70308490142E+03  0.12367488892E+04  0.10130966550E+04 0.  0.
        -13    1    3    3    0    0  0.23386902474E+03  0.32284040349E+03 -0.43099703141E+03  0.58709377369E+03  0.10566000000E+00 0.  1.
         13    1    4    4    0    0 -0.66603228439E+02  0.48698918508E+03 -0.42008665523E+03  0.64658121337E+03  0.10566000000E+00 0. -1.
          4    1    3    3  501    0 -0.32781360680E+03 -0.31745343279E+03  0.74539494012E+02  0.46237925879E+03  0.00000000000E+00 0.  1.
         -4    1    4    4    0  503  0.16054781050E+03 -0.49237615578E+03 -0.28299824620E+03  0.59016767583E+03  0.00000000000E+00 0. -1.
</event>
<event>
 8    1  0.6759491E-006  0.1016530E+04  0.7818608E-02  0.8760173E-01
         21   -1    0    0  501  502  0.00000000000E+00  0.00000000000E+00  0.95470432435E+03  0.95470432435E+03  0.00000000000E+00 0.  1.
         21   -1    0    0  502  503 -0.00000000000E+00 -0.00000000000E+00 -0.16202792195E+04  0.16202792195E+04  0.00000000000E+00 0.  1.
    9000010    2    1    2  501    0 -0.43754816788E+02 -0.19865341641E+03  0.41163649765E+03  0.10967122459E+04  0.99596961814E+03 0.  0.
   -9000010    2    1    2    0  503  0.43754816788E+02  0.19865341641E+03 -0.10772113928E+04  0.14782712980E+04  0.99172777602E+03 0.  0.
        -13    1    3    3    0    0  0.34346042733E+03  0.24709154947E+03  0.13065767719E+03  0.44282133953E+03  0.10566000000E+00 0.  1.
         13    1    4    4    0    0  0.51223691206E+03  0.30240265130E+02 -0.58574751013E+03  0.77871771811E+03  0.10566000000E+00 0. -1.
          4    1    3    3  501    0 -0.38721524412E+03 -0.44574496588E+03  0.28097882046E+03  0.65389090637E+03  0.00000000000E+00 0.  1.
         -4    1    4    4    0  503 -0.46848209527E+03  0.16841315128E+03 -0.49146388270E+03  0.69955357987E+03  0.00000000000E+00 0. -1.
</event>
<event>
 8    1  0.6759491E-006  0.1149970E+04  0.7818608E-02  0.8648277E-01
         21   -1    0    0  503  502  0.00000000000E+00  0.00000000000E+00  0.14779185131E+04  0.14779185131E+04  0.00000000000E+00 0.  1.
         21   -1    0    0  501  503 -0.00000000000E+00 -0.00000000000E+00 -0.10240864987E+04  0.10240864987E+04  0.00000000000E+00 0.  1.
    9000010    2    1    2  501    0 -0.52144046628E+03  0.23208921102E+03 -0.23623874300E+03  0.11739840787E+04  0.99833076266E+03 0.  0.
   -9000010    2    1    2    0  502  0.52144046628E+03 -0.23208921102E+03  0.69007075740E+03  0.13280209330E+04  0.98065100145E+03 0.  0.
        -13    1    3    3    0    0 -0.11904791149E+03  0.58408018732E+03 -0.23115978222E+03  0.63934100958E+03  0.10566000000E+00 0.  1.
         13    1    4    4    0    0  0.65696858631E+03  0.18986138122E+03  0.49280659002E+03  0.84291957731E+03  0.10566000000E+00 0. -1.
          4    1    3    3  501    0 -0.40239255480E+03 -0.35199097630E+03 -0.50789607793E+01  0.53464306916E+03  0.00000000000E+00 0.  1.
         -4    1    4    4    0  502 -0.13552812003E+03 -0.42195059224E+03  0.19726416738E+03  0.48510135574E+03  0.00000000000E+00 0. -1.
</event>
<event>
 8    1  0.6759491E-006  0.1057184E+04  0.7818608E-02  0.8726411E-01
         21   -1    0    0  503  502  0.00000000000E+00  0.00000000000E+00  0.97714841117E+03  0.97714841117E+03  0.00000000000E+00 0. -1.
         21   -1    0    0  501  503 -0.00000000000E+00 -0.00000000000E+00 -0.13053898757E+04  0.13053898757E+04  0.00000000000E+00 0. -1.
    9000010    2    1    2  501    0 -0.16018390724E+02 -0.30840011648E+03  0.25845783411E+03  0.10883192957E+04  0.10110742885E+04 0.  0.
   -9000010    2    1    2    0  502  0.16018390724E+02  0.30840011648E+03 -0.58669929865E+03  0.11942189912E+04  0.99326517663E+03 0.  0.
        -13    1    3    3    0    0  0.45327862143E+03 -0.19716122989E+03 -0.77778439115E+02  0.50038340897E+03  0.10566000000E+00 0.  1.
         13    1    4    4    0    0  0.45467221041E-03  0.48509513899E+03 -0.78834176809E+03  0.92563494335E+03  0.10566000000E+00 0. -1.
          4    1    3    3  501    0 -0.46929701216E+03 -0.11123888659E+03  0.33623627322E+03  0.58793588676E+03  0.00000000000E+00 0.  1.
         -4    1    4    4    0  502  0.16017936051E+02 -0.17669502251E+03  0.20164246944E+03  0.26858404781E+03  0.00000000000E+00 0. -1.
</event>
<event>
 8    1  0.6759491E-006  0.1118807E+04  0.7818608E-02  0.8681258E-01
         21   -1    0    0  501  502  0.00000000000E+00  0.00000000000E+00  0.12266143615E+04  0.12266143615E+04  0.00000000000E+00 0. -1.
         21   -1    0    0  502  503 -0.00000000000E+00 -0.00000000000E+00 -0.13324949885E+04  0.13324949885E+04  0.00000000000E+00 0. -1.
    9000010    2    1    2  501    0 -0.32747539384E+03  0.16320951400E+03  0.61184242726E+03  0.12298781389E+04  0.10021834172E+04 0.  0.
   -9000010    2    1    2    0  503  0.32747539384E+03 -0.16320951400E+03 -0.71772305420E+03  0.13292312111E+04  0.10572850850E+04 0.  0.
        -13    1    3    3    0    0 -0.36918027952E+03 -0.25961250754E+03 -0.38594160981E+02  0.45297047727E+03  0.10566000000E+00 0.  1.
         13    1    4    4    0    0  0.13855853239E+03 -0.27300117851E+03 -0.95724911678E+03  0.10050144243E+04  0.10566000000E+00 0. -1.
          4    1    3    3  501    0  0.41704885677E+02  0.42282202154E+03  0.65043658824E+03  0.77690766163E+03  0.00000000000E+00 0.  1.
         -4    1    4    4    0  503  0.18891686145E+03  0.10979166451E+03  0.23952606259E+03  0.32421678672E+03  0.00000000000E+00 0. -1.
</event>
<event>
 8    1  0.6759491E-006  0.1041628E+04  0.7818608E-02  0.8743636E-01
         21   -1    0    0  501  502  0.00000000000E+00  0.00000000000E+00  0.92472522099E+03  0.92472522099E+03  0.00000000000E+00 0. -1.
         21   -1    0    0  502  503 -0.00000000000E+00 -0.00000000000E+00 -0.12954041891E+04  0.12954041891E+04  0.00000000000E+00 0. -1.
    9000010    2    1    2  501    0 -0.10053858840E+03 -0.14605759273E+03  0.20423320921E+03  0.10303758458E+04  0.99424461366E+03 0.  0.
   -9000010    2    1    2    0  503  0.10053858840E+03  0.14605759273E+03 -0.57491217728E+03  0.11897535642E+04  0.10264252062E+04 0.  0.
        -13    1    3    3    0    0  0.25713525365E+03  0.22038277121E+03 -0.18617861809E+03  0.38645775127E+03  0.10566000000E+00 0.  1.
         13    1    4    4    0    0 -0.21627710089E+03 -0.26095158549E+03 -0.58248972710E+03  0.67391825000E+03  0.10566000000E+00 0. -1.
          4    1    3    3  501    0 -0.35767384206E+03 -0.36644036394E+03  0.39041182730E+03  0.64391809457E+03  0.00000000000E+00 0.  1.
         -4    1    4    4    0  503  0.31681568929E+03  0.40700917823E+03  0.75775498204E+01  0.51583531423E+03  0.00000000000E+00 0. -1.
</event>
<event>
 8    1  0.6759491E-006  0.1023125E+04  0.7818608E-02  0.8755860E-01
         21   -1    0    0  503  502  0.00000000000E+00  0.00000000000E+00  0.57346801971E+03  0.57346801971E+03  0.00000000000E+00 0. -1.
         21   -1    0    0  501  503 -0.00000000000E+00 -0.00000000000E+00 -0.21338709872E+04  0.21338709872E+04  0.00000000000E+00 0. -1.
    9000010    2    1    2  501    0  0.10226992066E+03 -0.12883871057E+02 -0.13158399037E+04  0.16667992697E+04  0.10179194577E+04 0.  0.
   -9000010    2    1    2    0  502 -0.10226992066E+03  0.12883871057E+02 -0.24456306380E+03  0.10405397373E+04  0.10061246055E+04 0.  0.
        -13    1    3    3    0    0 -0.35924872069E+03 -0.16687786319E+03 -0.10275780626E+04  0.11012831381E+04  0.10566000000E+00 0.  1.
         13    1    4    4    0    0  0.31614290177E+03  0.16886400008E+03  0.19999311647E+03  0.41043713607E+03  0.10566000000E+00 0. -1.
          4    1    3    3  501    0  0.46151864135E+03  0.15399399213E+03 -0.28826184117E+03  0.56551613152E+03  0.00000000000E+00 0.  1.
         -4    1    4    4    0  502 -0.41841282243E+03 -0.15598012903E+03 -0.44455618027E+03  0.63010260120E+03  0.00000000000E+00 0. -1.
</event>
<event>
 8    1  0.6759491E-006  0.1028267E+04  0.7818608E-02  0.8748755E-01
         21   -1    0    0  503  502  0.00000000000E+00  0.00000000000E+00  0.11614300414E+04  0.11614300414E+04  0.00000000000E+00 0. -1.
         21   -1    0    0  501  503 -0.00000000000E+00 -0.00000000000E+00 -0.11147180268E+04  0.11147180268E+04  0.00000000000E+00 0. -1.
    9000010    2    1    2  501    0  0.74305194199E+02 -0.21835639438E+03 -0.46519298954E+03  0.11285993858E+04  0.10020635106E+04 0.  0.
   -9000010    2    1    2    0  502 -0.74305194199E+02  0.21835639438E+03  0.51190500415E+03  0.11475486824E+04  0.10008099062E+04 0.  0.
        -13    1    3    3    0    0  0.10651354782E+03 -0.75716328643E+02  0.31174055657E+03  0.33802408800E+03  0.10566000000E+00 0.  1.
         13    1    4    4    0    0  0.60495671988E+02  0.33909121016E+02 -0.29803918195E+03  0.30600150320E+03  0.10566000000E+00 0. -1.
          4    1    3    3  501    0 -0.32208353622E+02 -0.14264006574E+03 -0.77693354611E+03  0.79057529779E+03  0.00000000000E+00 0.  1.
         -4    1    4    4    0  502 -0.13480086619E+03  0.18444727337E+03  0.80994418610E+03  0.84154717917E+03  0.00000000000E+00 0. -1.
</event>
<event>
 8    1  0.6759491E-006  0.1019657E+04  0.7818608E-02  0.8763492E-01
         21   -1    0    0  501  502  0.00000000000E+00  0.00000000000E+00  0.13776245518E+04  0.13776245518E+04  0.00000000000E+00 0. -1.
         21   -1    0    0  502  503 -0.00000000000E+00 -0.00000000000E+00 -0.10530512803E+04  0.10530512803E+04  0.00000000000E+00 0. -1.
    9000010    2    1    2  501    0  0.66366009581E+02  0.12652039158E+03  0.83484023344E+03  0.13178232229E+04  0.10095979273E+04 0.  0.
   -9000010    2    1    2    0  503 -0.66366009581E+02 -0.12652039158E+03 -0.51026696193E+03  0.11128526093E+04  0.97859935662E+03 0.  0.
        -13    1    3    3    0    0  0.40935247507E+03 -0.34563610048E+02  0.10933057328E+02  0.41095454115E+03  0.10566000000E+00 0.  1.
         13    1    4    4    0    0  0.24231167710E+03 -0.83173782775E+02  0.20791640877E+03  0.32994252712E+03  0.10566000000E+00 0. -1.
          4    1    3    3  501    0 -0.34298646549E+03  0.16108400163E+03  0.82390717611E+03  0.90686868175E+03  0.00000000000E+00 0.  1.
         -4    1    4    4    0  503 -0.30867768668E+03 -0.43346608808E+02 -0.71818337071E+03  0.78291008214E+03  0.00000000000E+00 0. -1.
</event>
<event>
 8    1  0.6759491E-006  0.1163616E+04  0.7818608E-02  0.8638088E-01
         21   -1    0    0  503  502  0.00000000000E+00  0.00000000000E+00  0.20794864051E+04  0.20794864051E+04  0.00000000000E+00 0.  1.
         21   -1    0    0  501  503 -0.00000000000E+00 -0.00000000000E+00 -0.93624283188E+03  0.93624283188E+03  0.00000000000E+00 0.  1.
    9000010    2    1    2  501    0  0.46136450305E+03  0.34924126297E+03 -0.27214283074E+03  0.11950162947E+04  0.10095422526E+04 0.  0.
   -9000010    2    1    2    0  502 -0.46136450305E+03 -0.34924126297E+03  0.14153864040E+04  0.18207129424E+04  0.98835736522E+03 0.  0.
        -13    1    3    3    0    0 -0.76125297300E+02  0.57522918064E+03 -0.14943524452E+03  0.59917824945E+03  0.10566000000E+00 0.  1.
         13    1    4    4    0    0 -0.76275176654E+03 -0.33627250914E+03  0.11399652034E+04  0.14122287825E+04  0.10566000000E+00 0. -1.
          4    1    3    3  501    0  0.53748980035E+03 -0.22598791767E+03 -0.12270758622E+03  0.59583804522E+03  0.00000000000E+00 0.  1.
         -4    1    4    4    0  502  0.30138726349E+03 -0.12968753825E+02  0.27542120055E+03  0.40848415989E+03  0.00000000000E+00 0. -1.
</event>
<event>
 8    1  0.6759491E-006  0.1058373E+04  0.7818608E-02  0.8724420E-01
         21   -1    0    0  501  502  0.00000000000E+00  0.00000000000E+00  0.80168395790E+03  0.80168395790E+03  0.00000000000E+00 0.  1.
         21   -1    0    0  502  503 -0.00000000000E+00 -0.00000000000E+00 -0.19302296449E+04  0.19302296449E+04  0.00000000000E+00 0.  1.
    9000010    2    1    2  501    0 -0.32581763844E+03  0.18223209754E+03  0.16228319430E+03  0.10707426268E+04  0.99034754848E+03 0.  0.
   -9000010    2    1    2    0  503  0.32581763844E+03 -0.18223209754E+03 -0.12908288813E+04  0.16611709760E+04  0.97666992372E+03 0.  0.
        -13    1    3    3    0    0 -0.18083367809E+03  0.26674885524E+03  0.55606004775E+03  0.64269631924E+03  0.10566000000E+00 0.  1.
         13    1    4    4    0    0  0.16493593775E+03 -0.56844695906E+03 -0.95996183950E+03  0.11277688386E+04  0.10566000000E+00 0. -1.
          4    1    3    3  501    0 -0.14498396035E+03 -0.84516757696E+02 -0.39377685345E+03  0.42804630755E+03  0.00000000000E+00 0.  1.
         -4    1    4    4    0  503  0.16088170069E+03  0.38621486152E+03 -0.33086704182E+03  0.53340213745E+03  0.00000000000E+00 0. -1.
</event>
<event>
 8    1  0.6759491E-006  0.1059461E+04  0.7818608E-02  0.8720898E-01
         21   -1    0    0  503  502  0.00000000000E+00  0.00000000000E+00  0.12600340429E+04  0.12600340429E+04  0.00000000000E+00 0. -1.
         21   -1    0    0  501  503 -0.00000000000E+00 -0.00000000000E+00 -0.10486327520E+04  0.10486327520E+04  0.00000000000E+00 0. -1.
    9000010    2    1    2  501    0 -0.28589204411E+01  0.37491653258E+03  0.55494769118E+03  0.11960036993E+04  0.99090228024E+03 0.  0.
   -9000010    2    1    2    0  502  0.28589204411E+01 -0.37491653258E+03 -0.34354640030E+03  0.11126630956E+04  0.98965875697E+03 0.  0.
        -13    1    3    3    0    0  0.35486565633E+03 -0.91783684715E+02 -0.28487291577E+02  0.36764849485E+03  0.10566000000E+00 0.  1.
         13    1    4    4    0    0 -0.48536457567E+03 -0.17733952319E+03 -0.77272844320E+02  0.52249323578E+03  0.10566000000E+00 0. -1.
          4    1    3    3  501    0 -0.35772457677E+03  0.46670021730E+03  0.58343498275E+03  0.82835520446E+03  0.00000000000E+00 0.  1.
         -4    1    4    4    0  502  0.48822349611E+03 -0.19757700939E+03 -0.26627355598E+03  0.59016985979E+03  0.00000000000E+00 0. -1.
</event>
<event>
 8    1  0.6759491E-006  0.9819881E+03  0.7818608E-02  0.8791921E-01
         21   -1    0    0  503  502  0.00000000000E+00  0.00000000000E+00  0.15826515424E+04  0.15826515424E+04  0.00000000000E+00 0. -1.
         21   -1    0    0  501  503 -0.00000000000E+00 -0.00000000000E+00 -0.69850806953E+03  0.69850806953E+03  0.00000000000E+00 0. -1.
    9000010    2    1    2  501    0  0.85364584550E+01  0.14448412441E+03  0.32978937767E+02  0.98162825834E+03  0.97033906131E+03 0.  0.
   -9000010    2    1    2    0  502 -0.85364584550E+01 -0.14448412441E+03  0.85116453511E+03  0.12995313536E+04  0.97126316713E+03 0.  0.
        -13    1    3    3    0    0  0.45714525317E+03  0.17353176912E+03  0.15999013399E+03  0.51448217805E+03  0.10566000000E+00 0.  1.
         13    1    4    4    0    0  0.21877520335E+03 -0.39406174819E+03  0.80064834451E+02  0.45777466058E+03  0.10566000000E+00 0. -1.
          4    1    3    3  501    0 -0.44860879472E+03 -0.29047644717E+02 -0.12701119622E+03  0.46714608029E+03  0.00000000000E+00 0.  1.
         -4    1    4    4    0  502 -0.22731166180E+03  0.24957762378E+03  0.77109970066E+03  0.84175669302E+03  0.00000000000E+00 0. -1.
</event>
<event>
 8    1  0.6759491E-006  0.9981677E+03  0.7818608E-02  0.8778562E-01
         21   -1    0    0  501  502  0.00000000000E+00  0.00000000000E+00  0.15363969942E+04  0.15363969942E+04  0.00000000000E+00 0. -1.
         21   -1    0    0  502  503 -0.00000000000E+00 -0.00000000000E+00 -0.92479671059E+03  0.92479671059E+03  0.00000000000E+00 0. -1.
    9000010    2    1    2  501    0 -0.28818446473E+02  0.39404633214E+02 -0.37327830748E+03  0.10656807738E+04  0.99697321367E+03 0.  0.
   -9000010    2    1    2    0  503  0.28818446473E+02 -0.39404633214E+02  0.98487859112E+03  0.13955129310E+04  0.98746507456E+03 0.  0.
        -13    1    3    3    0    0 -0.34987463289E+03 -0.34619106980E+03 -0.13597463761E+03  0.51063649378E+03  0.10566000000E+00 0.  1.
         13    1    4    4    0    0  0.18854884395E+03 -0.45568983091E+03  0.73286480960E+03  0.88334292824E+03  0.10566000000E+00 0. -1.
          4    1    3    3  501    0  0.32105618641E+03  0.38559570301E+03 -0.23730366987E+03  0.55504427999E+03  0.00000000000E+00 0.  1.
         -4    1    4    4    0  503 -0.15973039748E+03  0.41628519770E+03  0.25201378152E+03  0.51217000280E+03  0.00000000000E+00 0. -1.
</event>
<event>
 8    1  0.6759491E-006  0.9827005E+03  0.7818608E-02  0.8796976E-01
         21   -1    0    0  503  502  0.00000000000E+00  0.00000000000E+00  0.21147657651E+04  0.21147657651E+04  0.00000000000E+00 0. -1.
         21   -1    0    0  501  503 -0.00000000000E+00 -0.00000000000E+00 -0.49502013724E+03  0.49502013724E+03  0.00000000000E+00 0. -1.
    9000010    2    1    2  501    0 -0.10142468686E+03  0.22527626328E+02  0.38726258523E+03  0.10334881393E+04  0.95253921863E+03 0.  0.
   -9000010    2    1    2    0  502  0.10142468686E+03 -0.22527626328E+02  0.12324830427E+04  0.15762977631E+04  0.97719277856E+03 0.  0.
        -13    1    3    3    0    0 -0.11146399688E+03  0.83529979228E+02 -0.30666301138E+03  0.33681403436E+03  0.10566000000E+00 0.  1.
         13    1    4    4    0    0  0.40367598058E+03  0.25772647145E+03  0.98566909588E+03  0.10958653244E+04  0.10566000000E+00 0. -1.
          4    1    3    3  501    0  0.10039310021E+02 -0.61002352900E+02  0.69392559662E+03  0.69667410490E+03  0.00000000000E+00 0.  1.
         -4    1    4    4    0  502 -0.30225129372E+03 -0.28025409778E+03  0.24681394677E+03  0.48043243874E+03  0.00000000000E+00 0. -1.
</event>
<event>
 8    1  0.6759491E-006  0.1066291E+04  0.7818608E-02  0.8716848E-01
         21   -1    0    0  503  502  0.00000000000E+00  0.00000000000E+00  0.12719581963E+04  0.12719581963E+04  0.00000000000E+00 0.  1.
         21   -1    0    0  501  503 -0.00000000000E+00 -0.00000000000E+00 -0.12377287540E+04  0.12377287540E+04  0.00000000000E+00 0. -1.
    9000010    2    1    2  501    0  0.34222239347E+03 -0.77166827472E+02 -0.65226131138E+03  0.12415209066E+04  0.99642283062E+03 0.  0.
   -9000010    2    1    2    0  502 -0.34222239347E+03  0.77166827472E+02  0.68649075369E+03  0.12681660437E+04  0.10069283359E+04 0.  0.
        -13    1    3    3    0    0  0.47358856803E+03 -0.45385448855E+03 -0.37340854720E+03  0.75478737591E+03  0.10566000000E+00 0.  1.
         13    1    4    4    0    0  0.25887518513E+03 -0.33785271013E+02 -0.93403133184E+02  0.27727596806E+03  0.10566000000E+00 0. -1.
          4    1    3    3  501    0 -0.13136617456E+03  0.37668766108E+03 -0.27885276418E+03  0.48673353071E+03  0.00000000000E+00 0.  1.
         -4    1    4    4    0  502 -0.60109757860E+03  0.11095209849E+03  0.77989388687E+03  0.99089007561E+03  0.00000000000E+00 0. -1.
</event>
<event>
 8    1  0.6759491E-006  0.1055619E+04  0.7818608E-02  0.8728841E-01
         21   -1    0    0  501  502  0.00000000000E+00  0.00000000000E+00  0.69205753679E+03  0.69205753679E+03  0.00000000000E+00 0. -1.
         21   -1    0    0  502  503 -0.00000000000E+00 -0.00000000000E+00 -0.17095231063E+04  0.17095231063E+04  0.00000000000E+00 0. -1.
    9000010    2    1    2  501    0 -0.18525800242E+03  0.21941071419E+03 -0.17962894727E+03  0.10707928492E+04  0.10158096171E+04 0.  0.
   -9000010    2    1    2    0  503  0.18525800242E+03 -0.21941071419E+03 -0.83783662224E+03  0.13307877939E+04  0.99325946149E+03 0.  0.
        -13    1    3    3    0    0 -0.37760873641E+03 -0.19320966410E+03 -0.38363482536E+03  0.57192134294E+03  0.10566000000E+00 0.  1.
         13    1    4    4    0    0 -0.73310339105E+02  0.37628788188E+03 -0.34195044532E+03  0.51370915321E+03  0.10566000000E+00 0. -1.
          4    1    3    3  501    0  0.19235073399E+03  0.41262037829E+03  0.20400587810E+03  0.49887150625E+03  0.00000000000E+00 0.  1.
         -4    1    4    4    0  503  0.25856834152E+03 -0.59569859607E+03 -0.49588617692E+03  0.81707864068E+03  0.00000000000E+00 0. -1.
</event>
<event>
 8    1  0.6759491E-006  0.9931788E+03  0.7818608E-02  0.8793878E-01
         21   -1    0    0  501  502  0.00000000000E+00  0.00000000000E+00  0.11810833529E+04  0.11810833529E+04  0.00000000000E+00 0.  1.
         21   -1    0    0  502  503 -0.00000000000E+00 -0.00000000000E+00 -0.11260693311E+04  0.11260693311E+04  0.00000000000E+00 0.  1.
    9000010    2    1    2  501    0  0.11625950427E+03  0.34743396172E+02  0.65674104295E+03  0.11906775263E+04  0.98573870688E+03 0.  0.
   -9000010    2    1    2    0  503 -0.11625950427E+03 -0.34743396172E+02 -0.60172702121E+03  0.11164751577E+04  0.93258672191E+03 0.  0.
        -13    1    3    3    0    0 -0.30471628634E+03 -0.30656232083E+03  0.40793614201E+03  0.59434365382E+03  0.10566000000E+00 0.  1.
         13    1    4    4    0    0  0.38151608186E+03 -0.48859354845E+02 -0.45817965247E+03  0.59822266956E+03  0.10566000000E+00 0. -1.
          4    1    3    3  501    0  0.42097579060E+03  0.34130571701E+03  0.24880490094E+03  0.59633387248E+03  0.00000000000E+00 0.  1.
         -4    1    4    4    0  503 -0.49777558612E+03  0.14115958673E+02 -0.14354736874E+03  0.51825248818E+03  0.00000000000E+00 0. -1.
</event>
<event>
 8    1  0.6759491E-006  0.1135716E+04  0.7818608E-02  0.8662487E-01
         21   -1    0    0  501  502  0.00000000000E+00  0.00000000000E+00  0.17402753572E+04  0.17402753572E+04  0.00000000000E+00 0.  1.
         21   -1    0    0  502  503 -0.00000000000E+00 -0.00000000000E+00 -0.83059941638E+03  0.83059941638E+03  0.00000000000E+00 0.  1.
    9000010    2    1    2  501    0 -0.13052893429E+03  0.49210973036E+03  0.92364071490E+03  0.14638863971E+04  0.10152051143E+04 0.  0.
   -9000010    2    1    2    0  503  0.13052893429E+03 -0.49210973036E+03 -0.13964774103E+02  0.11069883764E+04  0.98286238163E+03 0.  0.
        -13    1    3    3    0    0 -0.87892339857E+02  0.19242016177E+03 -0.20546911173E+03  0.29490362680E+03  0.10566000000E+00 0.  1.
         13    1    4    4    0    0 -0.42727990112E+03 -0.19983024819E+03 -0.60318562691E+02  0.47554030550E+03  0.10566000000E+00 0. -1.
          4    1    3    3  501    0 -0.42636594434E+02  0.29968956858E+03  0.11291098266E+04  0.11689827703E+04  0.00000000000E+00 0.  1.
         -4    1    4    4    0  503  0.55780883541E+03 -0.29227948217E+03  0.46353788588E+02  0.63144807092E+03  0.00000000000E+00 0. -1.
</event>
<event>
 8    1  0.6759491E-006  0.1022830E+04  0.7818608E-02  0.8755542E-01
         21   -1    0    0  501  502  0.00000000000E+00  0.00000000000E+00  0.16202870415E+04  0.16202870415E+04  0.00000000000E+00 0. -1.
         21   -1    0    0  502  503 -0.00000000000E+00 -0.00000000000E+00 -0.66781844265E+03  0.66781844265E+03  0.00000000000E+00 0. -1.
    9000010    2    1    2  501    0  0.41872866073E+02 -0.66682306270E+02  0.71224571911E+03  0.12463846105E+04  0.10197944725E+04 0.  0.
   -9000010    2    1    2    0  503 -0.41872866073E+02  0.66682306270E+02  0.24022287972E+03  0.10417208736E+04  0.10105817531E+04 0.  0.
        -13    1    3    3    0    0  0.32216074991E+03  0.37255408332E+03  0.42989332410E+03  0.65375253349E+03  0.10566000000E+00 0.  1.
         13    1    4    4    0    0 -0.46813937708E+03  0.22501922185E+03 -0.16231284505E+02  0.51966488465E+03  0.10566000000E+00 0. -1.
          4    1    3    3  501    0 -0.28028788384E+03 -0.43923638959E+03  0.28235239501E+03  0.59263207704E+03  0.00000000000E+00 0.  1.
         -4    1    4    4    0  503  0.42626651101E+03 -0.15833691558E+03  0.25645416423E+03  0.52205598894E+03  0.00000000000E+00 0. -1.
</event>
<event>
 8    1  0.6759491E-006  0.1040618E+04  0.7818608E-02  0.8760341E-01
         21   -1    0    0  501  502  0.00000000000E+00  0.00000000000E+00  0.15243392748E+04  0.15243392748E+04  0.00000000000E+00 0. -1.
         21   -1    0    0  502  503 -0.00000000000E+00 -0.00000000000E+00 -0.67745133939E+03  0.67745133939E+03  0.00000000000E+00 0. -1.
    9000010    2    1    2  501    0 -0.13465868522E+03  0.25036863048E+03  0.64305589275E+03  0.11413976947E+04  0.89913870101E+03 0.  0.
   -9000010    2    1    2    0  503  0.13465868522E+03 -0.25036863048E+03  0.20383204261E+03  0.10603929194E+04  0.10010335805E+04 0.  0.
        -13    1    3    3    0    0 -0.97556931327E+02 -0.18934749266E+03 -0.13123786721E+03  0.25018636410E+03  0.10566000000E+00 0.  1.
         13    1    4    4    0    0  0.29796061741E+03 -0.47698436288E+03  0.42433332600E+03  0.70452352316E+03  0.10566000000E+00 0. -1.
          4    1    3    3  501    0 -0.37101753897E+02  0.43971612315E+03  0.77429375996E+03  0.89121133061E+03  0.00000000000E+00 0.  1.
         -4    1    4    4    0  503 -0.16330193219E+03  0.22661573240E+03 -0.22050128339E+03  0.35586939628E+03  0.00000000000E+00 0. -1.
</event>
<event>
 8    1  0.6759491E-006  0.1039715E+04  0.7818608E-02  0.8744290E-01
         21   -1    0    0  501  502  0.00000000000E+00  0.00000000000E+00  0.13271428940E+04  0.13271428940E+04  0.00000000000E+00 0.  1.
         21   -1    0    0  502  503 -0.00000000000E+00 -0.00000000000E+00 -0.97407419831E+03  0.97407419831E+03  0.00000000000E+00 0.  1.
    9000010    2    1    2  501    0 -0.15048344905E+03  0.84169036320E+02  0.67380958348E+03  0.12389615733E+04  0.10253178679E+04 0.  0.
   -9000010    2    1    2    0  503  0.15048344905E+03 -0.84169036320E+02 -0.32074088779E+03  0.10622555190E+04  0.99788895944E+03 0.  0.
        -13    1    3    3    0    0 -0.27437667346E+03  0.43435957431E+03  0.69802562665E+03  0.86671251598E+03  0.10566000000E+00 0.  1.
         13    1    4    4    0    0  0.23851706290E+03 -0.63126712103E+01 -0.66074915145E+03  0.70250956678E+03  0.10566000000E+00 0. -1.
          4    1    3    3  501    0  0.12389322441E+03 -0.35019053799E+03 -0.24216043173E+02  0.37224905735E+03  0.00000000000E+00 0.  1.
         -4    1    4    4    0  503 -0.88033613857E+02 -0.77856365110E+02  0.34000826366E+03  0.35974595219E+03  0.00000000000E+00 0. -1.
</event>
<event>
 8    1  0.6759491E-006  0.1107651E+04  0.7818608E-02  0.8681826E-01
         21   -1    0    0  501  502  0.00000000000E+00  0.00000000000E+00  0.74239109948E+03  0.74239109948E+03  0.00000000000E+00 0.  1.
         21   -1    0    0  502  503 -0.00000000000E+00 -0.00000000000E+00 -0.18616644329E+04  0.18616644329E+04  0.00000000000E+00 0.  1.
    9000010    2    1    2  501    0 -0.44070256987E+03 -0.64797862814E+02 -0.10427082504E+03  0.11016837244E+04  0.10022061193E+04 0.  0.
   -9000010    2    1    2    0  503  0.44070256987E+03  0.64797862814E+02 -0.10150025083E+04  0.15023718079E+04  0.10141367951E+04 0.  0.
        -13    1    3    3    0    0  0.19328195048E+03  0.81556578816E+02  0.27705516171E+03  0.34751828977E+03  0.10566000000E+00 0.  1.
         13    1    4    4    0    0 -0.67225619167E+02  0.67414298441E+01  0.18556781595E+03  0.19748457213E+03  0.10566000000E+00 0. -1.
          4    1    3    3  501    0 -0.63398452035E+03 -0.14635444163E+03 -0.38132598675E+03  0.75416543463E+03  0.00000000000E+00 0.  1.
         -4    1    4    4    0  503  0.50792818904E+03  0.58056432970E+02 -0.12005703243E+04  0.13048872358E+04  0.00000000000E+00 0. -1.
</event>
<event>
 8    1  0.6759491E-006  0.9861578E+03  0.7818608E-02  0.8795675E-01
         21   -1    0    0  503  502  0.00000000000E+00  0.00000000000E+00  0.19555058454E+04  0.19555058454E+04  0.00000000000E+00 0. -1.
         21   -1    0    0  501  503 -0.00000000000E+00 -0.00000000000E+00 -0.58827163742E+03  0.58827163742E+03  0.00000000000E+00 0. -1.
    9000010    2    1    2  501    0  0.44940503200E+02 -0.55081722548E+02  0.13092777264E+03  0.96233484855E+03  0.95073268277E+03 0.  0.
   -9000010    2    1    2    0  502 -0.44940503200E+02  0.55081722548E+02  0.12363064354E+04  0.15814426343E+04  0.98359217082E+03 0.  0.
        -13    1    3    3    0    0  0.11950321576E+03 -0.44630540243E+03 -0.13750114018E+03  0.48205404835E+03  0.10566000000E+00 0.  1.
         13    1    4    4    0    0  0.18070070981E+03  0.44744971304E+03  0.88676902718E+03  0.10095659022E+04  0.10566000000E+00 0. -1.
          4    1    3    3  501    0 -0.74562712556E+02  0.39122367988E+03  0.26842891282E+03  0.48028080020E+03  0.00000000000E+00 0.  1.
         -4    1    4    4    0  502 -0.22564121302E+03 -0.39236799049E+03  0.34953740820E+03  0.57187673209E+03  0.00000000000E+00 0. -1.
</event>
<event>
 8    1  0.6759491E-006  0.1045957E+04  0.7818608E-02  0.8741138E-01
         21   -1    0    0  501  502  0.00000000000E+00  0.00000000000E+00  0.87772507975E+03  0.87772507975E+03  0.00000000000E+00 0. -1.
         21   -1    0    0  502  503 -0.00000000000E+00 -0.00000000000E+00 -0.13626039428E+04  0.13626039428E+04  0.00000000000E+00 0. -1.
    9000010    2    1    2  501    0  0.30241883108E+03 -0.10264005252E+03 -0.62322754051E+03  0.11852619319E+04  0.95626416335E+03 0.  0.
   -9000010    2    1    2    0  503 -0.30241883108E+03  0.10264005252E+03  0.13834867741E+03  0.10550670907E+04  0.99600907608E+03 0.  0.
        -13    1    3    3    0    0 -0.26720966886E+03  0.20759388218E+03 -0.10276082691E+03  0.35363261411E+03  0.10566000000E+00 0.  1.
         13    1    4    4    0    0 -0.94439353146E+01  0.13203886274E+03 -0.41099523172E+03  0.43178761081E+03  0.10566000000E+00 0. -1.
          4    1    3    3  501    0  0.56962849994E+03 -0.31023393470E+03 -0.52046671359E+03  0.83162931775E+03  0.00000000000E+00 0.  1.
         -4    1    4    4    0  503 -0.29297489577E+03 -0.29398810216E+02  0.54934390913E+03  0.62327947992E+03  0.00000000000E+00 0. -1.
</event>
<event>
 8    1  0.6759491E-006  0.1014216E+04  0.7818608E-02  0.8767825E-01
         21   -1    0    0  501  502  0.00000000000E+00  0.00000000000E+00  0.36144658935E+03  0.36144658935E+03  0.00000000000E+00 0.  1.
         21   -1    0    0  502  503 -0.00000000000E+00 -0.00000000000E+00 -0.28131108188E+04  0.28131108188E+04  0.00000000000E+00 0.  1.
    9000010    2    1    2  501    0 -0.10996470259E+03 -0.11193422893E+03 -0.14082761861E+04  0.17194651933E+04  0.97401089682E+03 0.  0.
   -9000010    2    1    2    0  503  0.10996470259E+03  0.11193422893E+03 -0.10433880434E+04  0.14550922149E+04  0.10020046095E+04 0.  0.
        -13    1    3    3    0    0  0.38229620537E+03  0.15298258711E+03 -0.75216688022E+03  0.85750165450E+03  0.10566000000E+00 0.  1.
         13    1    4    4    0    0 -0.16532699311E+03  0.97588162348E+02  0.14154289791E+03  0.23851806471E+03  0.10566000000E+00 0. -1.
          4    1    3    3  501    0 -0.49226090796E+03 -0.26491681603E+03 -0.65610930590E+03  0.86196353880E+03  0.00000000000E+00 0.  1.
         -4    1    4    4    0  503  0.27529169569E+03  0.14346066579E+02 -0.11849309413E+04  0.12165741502E+04  0.00000000000E+00 0. -1.
</event>
<event>
 8    1  0.6759491E-006  0.1135328E+04  0.7818608E-02  0.8661532E-01
         21   -1    0    0  501  502  0.00000000000E+00  0.00000000000E+00  0.15036860142E+04  0.15036860142E+04  0.00000000000E+00 0.  1.
         21   -1    0    0  502  503 -0.00000000000E+00 -0.00000000000E+00 -0.97413774712E+03  0.97413774712E+03  0.00000000000E+00 0.  1.
    9000010    2    1    2  501    0 -0.51597295226E+03  0.54570696847E+02  0.72186892731E+03  0.13263221161E+04  0.98429139942E+03 0.  0.
   -9000010    2    1    2    0  503  0.51597295226E+03 -0.54570696847E+02 -0.19232066028E+03  0.11515016452E+04  0.10098330328E+04 0.  0.
        -13    1    3    3    0    0 -0.60171926739E+03  0.40510669428E+03  0.61209355417E+03  0.94912382791E+03  0.10566000000E+00 0.  1.
         13    1    4    4    0    0 -0.28086328152E+03 -0.12881252815E+03 -0.16604809245E+03  0.35078316733E+03  0.10566000000E+00 0. -1.
          4    1    3    3  501    0  0.85746315128E+02 -0.35053599743E+03  0.10977537315E+03  0.37719828817E+03  0.00000000000E+00 0.  1.
         -4    1    4    4    0  503  0.79683623378E+03  0.74241831300E+02 -0.26272567826E+02  0.80071847787E+03  0.00000000000E+00 0. -1.
</event>
<event>
 8    1  0.6759491E-006  0.1058637E+04  0.7818608E-02  0.8726106E-01
         21   -1    0    0  501  502  0.00000000000E+00  0.00000000000E+00  0.11401314997E+04  0.11401314997E+04  0.00000000000E+00 0.  1.
         21   -1    0    0  502  503 -0.00000000000E+00 -0.00000000000E+00 -0.14074712884E+04  0.14074712884E+04  0.00000000000E+00 0.  1.
    9000010    2    1    2  501    0 -0.48639780661E+02 -0.31058686795E+03  0.58288904127E+03  0.11898095923E+04  0.98846203802E+03 0.  0.
   -9000010    2    1    2    0  503  0.48639780661E+02  0.31058686795E+03 -0.85022882999E+03  0.13577931959E+04  0.10108824208E+04 0.  0.
        -13    1    3    3    0    0  0.46600310507E+03 -0.15687269313E+03  0.35446457610E+03  0.60614609019E+03  0.10566000000E+00 0.  1.
         13    1    4    4    0    0 -0.34133704989E+03  0.15599740367E+03 -0.85984991430E+03  0.93818338179E+03  0.10566000000E+00 0. -1.
          4    1    3    3  501    0 -0.51464288573E+03 -0.15371417482E+03  0.22842446518E+03  0.58366350208E+03  0.00000000000E+00 0.  1.
         -4    1    4    4    0  503  0.38997683055E+03  0.15458946428E+03  0.96210843025E+01  0.41960981411E+03  0.00000000000E+00 0. -1.
</event>
<event>
 8    1  0.6759491E-006  0.1156638E+04  0.7818608E-02  0.8640144E-01
         21   -1    0    0  501  502  0.00000000000E+00  0.00000000000E+00  0.11567788315E+04  0.11567788315E+04  0.00000000000E+00 0. -1.
         21   -1    0    0  502  503 -0.00000000000E+00 -0.00000000000E+00 -0.13227723175E+04  0.13227723175E+04  0.00000000000E+00 0. -1.
    9000010    2    1    2  501    0 -0.34306118580E+03 -0.44599509170E+03  0.35782486021E+03  0.12107232430E+04  0.10105491288E+04 0.  0.
   -9000010    2    1    2    0  503  0.34306118580E+03  0.44599509170E+03 -0.52381834618E+03  0.12688279059E+04  0.10094235959E+04 0.  0.
        -13    1    3    3    0    0  0.11395776635E+03 -0.12567243540E+03  0.58429618501E+03  0.60842581841E+03  0.10566000000E+00 0.  1.
         13    1    4    4    0    0  0.38032649480E+03  0.62207811129E+03 -0.15182772905E+02  0.72928728698E+03  0.10566000000E+00 0. -1.
          4    1    3    3  501    0 -0.45701895215E+03 -0.32032265630E+03 -0.22647132480E+03  0.60229742463E+03  0.00000000000E+00 0.  1.
         -4    1    4    4    0  503 -0.37265309007E+02 -0.17608301959E+03 -0.50863557328E+03  0.53954061890E+03  0.00000000000E+00 0. -1.
</event>
<event>
 8    1  0.6759491E-006  0.1083536E+04  0.7818608E-02  0.8700286E-01
         21   -1    0    0  501  502  0.00000000000E+00  0.00000000000E+00  0.13244923934E+04  0.13244923934E+04  0.00000000000E+00 0. -1.
         21   -1    0    0  502  503 -0.00000000000E+00 -0.00000000000E+00 -0.92087346284E+03  0.92087346284E+03  0.00000000000E+00 0. -1.
    9000010    2    1    2  501    0 -0.20064403425E+03  0.42601366691E+03 -0.20555437749E+02  0.10837305185E+04  0.97586046022E+03 0.  0.
   -9000010    2    1    2    0  503  0.20064403425E+03 -0.42601366691E+03  0.42417436834E+03  0.11616353378E+04  0.97351275818E+03 0.  0.
        -13    1    3    3    0    0 -0.27224049746E+03  0.60694459642E+03 -0.31085345130E+03  0.73425234826E+03  0.10566000000E+00 0.  1.
         13    1    4    4    0    0 -0.39169193712E+03 -0.24462711753E+03  0.17228055310E+03  0.49289512107E+03  0.10566000000E+00 0. -1.
          4    1    3    3  501    0  0.71596463211E+02 -0.18093092951E+03  0.29029801355E+03  0.34947817023E+03  0.00000000000E+00 0.  1.
         -4    1    4    4    0  503  0.59233597138E+03 -0.18138654938E+03  0.25189381524E+03  0.66874021671E+03  0.00000000000E+00 0. -1.
</event>
<event>
 8    1  0.6759491E-006  0.1046837E+04  0.7818608E-02  0.8736239E-01
         21   -1    0    0  501  502  0.00000000000E+00  0.00000000000E+00  0.80414780735E+03  0.80414780735E+03  0.00000000000E+00 0.  1.
         21   -1    0    0  502  503 -0.00000000000E+00 -0.00000000000E+00 -0.16229971646E+04  0.16229971646E+04  0.00000000000E+00 0.  1.
    9000010    2    1    2  501    0 -0.24108334359E+03 -0.12561882690E+02  0.96694408520E+02  0.10512933198E+04  0.10186210562E+04 0.  0.
   -9000010    2    1    2    0  503  0.24108334359E+03  0.12561882690E+02 -0.91554376580E+03  0.13758516521E+04  0.99823263929E+03 0.  0.
        -13    1    3    3    0    0 -0.38054619034E+03 -0.44615713314E+03  0.10507002788E+03  0.59574433472E+03  0.10566000000E+00 0.  1.
         13    1    4    4    0    0  0.38199986880E+02 -0.48460978490E+03 -0.49517491460E+03  0.69390495734E+03  0.10566000000E+00 0. -1.
          4    1    3    3  501    0  0.13946284675E+03  0.43359525045E+03 -0.83756193547E+01  0.45554898511E+03  0.00000000000E+00 0.  1.
         -4    1    4    4    0  503  0.20288335671E+03  0.49717166759E+03 -0.42036885121E+03  0.68194669480E+03  0.00000000000E+00 0. -1.
</event>
<event>
 8    1  0.6759491E-006  0.1191437E+04  0.7818608E-02  0.8623973E-01
         21   -1    0    0  501  502  0.00000000000E+00  0.00000000000E+00  0.61377061518E+03  0.61377061518E+03  0.00000000000E+00 0. -1.
         21   -1    0    0  502  503 -0.00000000000E+00 -0.00000000000E+00 -0.25309756854E+04  0.25309756854E+04  0.00000000000E+00 0. -1.
    9000010    2    1    2  501    0  0.24432005495E+03 -0.49224874582E+03 -0.37438199232E+03  0.11954323612E+04  0.99342616082E+03 0.  0.
   -9000010    2    1    2    0  503 -0.24432005495E+03  0.49224874582E+03 -0.15428230779E+04  0.19493139394E+04  0.10571285010E+04 0.  0.
        -13    1    3    3    0    0 -0.38924044597E+03 -0.19334578329E+03 -0.15281398155E+03  0.46069821013E+03  0.10566000000E+00 0.  1.
         13    1    4    4    0    0 -0.43172884801E+03 -0.51642286398E+02 -0.12076058196E+04  0.12834985589E+04  0.10566000000E+00 0. -1.
          4    1    3    3  501    0  0.63356050092E+03 -0.29890296253E+03 -0.22156801077E+03  0.73473415106E+03  0.00000000000E+00 0.  1.
         -4    1    4    4    0  503  0.18740879306E+03  0.54389103222E+03 -0.33521725828E+03  0.66581538049E+03  0.00000000000E+00 0. -1.
</event>
