<event>
 8    1  0.1449514E-005  0.1162959E+04  0.7818608E-02  0.8634990E-01
         -1   -1    0    0    0  501 -0.00000000000E+00  0.00000000000E+00  0.78604405139E+03  0.78604405139E+03  0.00000000000E+00 0. -1.
          1   -1    0    0  502    0  0.00000000000E+00 -0.00000000000E+00 -0.17303077778E+04  0.17303077778E+04  0.00000000000E+00 0.  1.
    9000010    2    1    2  502    0 -0.44005456780E+03  0.33580356005E+03 -0.37280391902E+03  0.12048253812E+04  0.10030998872E+04 0.  0.
   -9000010    2    1    2    0  501  0.44005456780E+03 -0.33580356005E+03 -0.57145980740E+03  0.13115264480E+04  0.10426520314E+04 0.  0.
        -13    1    3    3    0    0 -0.40369456936E+03  0.53945828687E+03 -0.59667623606E+03  0.90000393913E+03  0.10566000000E+00 0.  1.
          4    1    3    3  502    0 -0.36359998438E+02 -0.20365472682E+03  0.22387231704E+03  0.30482144212E+03  0.00000000000E+00 0.  1.
         13    1    4    4    0    0  0.39739084457E+03  0.24598567205E+03  0.36720176003E+02  0.46880360141E+03  0.10566000000E+00 0. -1.
         -4    1    4    4    0  501  0.42663723227E+02 -0.58178923210E+03 -0.60817998341E+03  0.84272284654E+03  0.00000000000E+00 0. -1.
<mgrwt>
<rscale>  2 0.11629589E+04</rscale>
<asrwt>0</asrwt>
<pdfrwt beam="2">  1        1 0.26620119E+00 0.11629589E+04</pdfrwt>
<pdfrwt beam="1">  1       -1 0.12092986E+00 0.11629589E+04</pdfrwt>
<totfact> 0.39094072E+00</totfact>
</mgrwt>
</event>
<event>
 8    1  0.1449514E-005  0.1037530E+04  0.7818608E-02  0.8740107E-01
         -2   -1    0    0    0  501 -0.00000000000E+00  0.00000000000E+00  0.70189791066E+03  0.70189791066E+03  0.00000000000E+00 0. -1.
          2   -1    0    0  502    0  0.00000000000E+00 -0.00000000000E+00 -0.19966686263E+04  0.19966686263E+04  0.00000000000E+00 0.  1.
    9000010    2    1    2  502    0 -0.27306497678E+03 -0.47732523334E+02 -0.12953692302E+04  0.16573738228E+04  0.99602393077E+03 0.  0.
   -9000010    2    1    2    0  501  0.27306497678E+03  0.47732523334E+02  0.59851455431E+00  0.10411927142E+04  0.10036129904E+04 0.  0.
        -13    1    3    3    0    0 -0.49665785258E+03  0.19691548098E+03 -0.11983183214E+04  0.13120257390E+04  0.10566000000E+00 0.  1.
          4    1    3    3  502    0  0.22359287580E+03 -0.24464800432E+03 -0.97050908848E+02  0.34534808387E+03  0.00000000000E+00 0.  1.
         13    1    4    4    0    0 -0.15994048442E+03 -0.13881858868E+02 -0.41060696615E+03  0.44087612362E+03  0.10566000000E+00 0. -1.
         -4    1    4    4    0  501  0.43300546119E+03  0.61614382202E+02  0.41120548070E+03  0.60031659054E+03  0.00000000000E+00 0. -1.
<mgrwt>
<rscale>  2 0.10375295E+04</rscale>
<asrwt>0</asrwt>
<pdfrwt beam="2">  1        2 0.30717979E+00 0.10375295E+04</pdfrwt>
<pdfrwt beam="1">  1       -2 0.10798429E+00 0.10375295E+04</pdfrwt>
<totfact> 0.70906864E+00</totfact>
</mgrwt>
</event>
<event>
 8    1  0.1449514E-005  0.1430769E+04  0.7818608E-02  0.8450491E-01
         -2   -1    0    0    0  501 -0.00000000000E+00  0.00000000000E+00  0.89631733340E+03  0.89631733340E+03  0.00000000000E+00 0.  1.
          2   -1    0    0  502    0  0.00000000000E+00 -0.00000000000E+00 -0.22916066507E+04  0.22916066507E+04  0.00000000000E+00 0. -1.
    9000010    2    1    2  502    0 -0.10897328526E+04 -0.66897867961E+02 -0.75705970492E+03  0.15823343178E+04  0.85944719540E+03 0.  0.
   -9000010    2    1    2    0  501  0.10897328526E+04  0.66897867961E+02 -0.63822961234E+03  0.16055896663E+04  0.98923613143E+03 0.  0.
        -13    1    3    3    0    0 -0.52738261599E+03 -0.44810237738E+03 -0.25482711561E+03  0.73747205661E+03  0.10566000000E+00 0.  1.
          4    1    3    3  502    0 -0.56235023658E+03  0.38120450942E+03 -0.50223258931E+03  0.84486226117E+03  0.00000000000E+00 0.  1.
         13    1    4    4    0    0  0.93226083556E+03  0.45484401405E+03 -0.56286157741E+03  0.11801722371E+04  0.10566000000E+00 0. -1.
         -4    1    4    4    0  501  0.15747201701E+03 -0.38794614609E+03 -0.75368034933E+02  0.42541742923E+03  0.00000000000E+00 0. -1.
<mgrwt>
<rscale>  2 0.14307688E+04</rscale>
<asrwt>0</asrwt>
<pdfrwt beam="2">  1        2 0.35255487E+00 0.14307688E+04</pdfrwt>
<pdfrwt beam="1">  1       -2 0.13789497E+00 0.14307688E+04</pdfrwt>
<totfact> 0.24324107E+00</totfact>
</mgrwt>
</event>
<event>
 8    1  0.1449514E-005  0.1213779E+04  0.7818608E-02  0.8596258E-01
          1   -1    0    0  502    0  0.00000000000E+00  0.00000000000E+00  0.16219357082E+04  0.16219357082E+04  0.00000000000E+00 0. -1.
         -1   -1    0    0    0  501 -0.00000000000E+00 -0.00000000000E+00 -0.16753610191E+04  0.16753610191E+04  0.00000000000E+00 0.  1.
    9000010    2    1    2  502    0  0.64450994069E+03 -0.26426677162E+03 -0.11422602250E+04  0.16683612852E+04  0.99671508768E+03 0.  0.
   -9000010    2    1    2    0  501 -0.64450994069E+03  0.26426677162E+03  0.10888349141E+04  0.16289354421E+04  0.99128160178E+03 0.  0.
        -13    1    3    3    0    0  0.67632785471E+03 -0.56278601709E+03 -0.65836541993E+03  0.10989051394E+04  0.10566000000E+00 0.  1.
          4    1    3    3  502    0 -0.31817914020E+02  0.29851924548E+03 -0.48389480508E+03  0.56945614577E+03  0.00000000000E+00 0.  1.
         13    1    4    4    0    0 -0.11890446205E+03 -0.30525139703E+03  0.67518407133E+03  0.75046001081E+03  0.10566000000E+00 0. -1.
         -4    1    4    4    0  501 -0.52560547864E+03  0.56951816864E+03  0.41365084277E+03  0.87847543125E+03  0.00000000000E+00 0. -1.
<mgrwt>
<rscale>  2 0.12137793E+04</rscale>
<asrwt>0</asrwt>
<pdfrwt beam="1">  1        1 0.24952857E+00 0.12137793E+04</pdfrwt>
<pdfrwt beam="2">  1       -1 0.25774785E+00 0.12137793E+04</pdfrwt>
<totfact> 0.27236788E-01</totfact>
</mgrwt>
</event>
<event>
 8    1  0.1449514E-005  0.1400553E+04  0.7818608E-02  0.8469134E-01
          1   -1    0    0  502    0  0.00000000000E+00  0.00000000000E+00  0.15092252535E+04  0.15092252535E+04  0.00000000000E+00 0. -1.
         -1   -1    0    0    0  501 -0.00000000000E+00 -0.00000000000E+00 -0.13073365838E+04  0.13073365838E+04  0.00000000000E+00 0.  1.
    9000010    2    1    2  502    0 -0.93570151049E+03 -0.36181323740E+03  0.20679319049E+03  0.14028870057E+04  0.95858353406E+03 0.  0.
   -9000010    2    1    2    0  501  0.93570151049E+03  0.36181323740E+03 -0.49045208040E+01  0.14136748316E+04  0.99599515043E+03 0.  0.
        -13    1    3    3    0    0 -0.47847789030E+03 -0.13468480845E+03  0.58490066618E+03  0.76758705669E+03  0.10566000000E+00 0.  1.
          4    1    3    3  502    0 -0.45722362019E+03 -0.22712842895E+03 -0.37810747569E+03  0.63529994905E+03  0.00000000000E+00 0.  1.
         13    1    4    4    0    0  0.87645912100E+03  0.40758843688E+03  0.36728904980E+03  0.10340261998E+04  0.10566000000E+00 0. -1.
         -4    1    4    4    0  501  0.59242389482E+02 -0.45775199480E+02 -0.37219357061E+03  0.37964863176E+03  0.00000000000E+00 0. -1.
<mgrwt>
<rscale>  2 0.14005534E+04</rscale>
<asrwt>0</asrwt>
<pdfrwt beam="1">  1        1 0.23218850E+00 0.14005534E+04</pdfrwt>
<pdfrwt beam="2">  1       -1 0.20112871E+00 0.14005534E+04</pdfrwt>
<totfact> 0.11019607E+00</totfact>
</mgrwt>
</event>
<event>
 8    1  0.1449514E-005  0.1275012E+04  0.7818608E-02  0.8552121E-01
         -2   -1    0    0    0  501 -0.00000000000E+00  0.00000000000E+00  0.17371666267E+04  0.17371666267E+04  0.00000000000E+00 0. -1.
          2   -1    0    0  502    0  0.00000000000E+00 -0.00000000000E+00 -0.97247480258E+03  0.97247480258E+03  0.00000000000E+00 0.  1.
    9000010    2    1    2  502    0  0.80630322475E+03  0.33627282434E+03  0.62140511589E+03  0.13677093284E+04  0.84928215938E+03 0.  0.
   -9000010    2    1    2    0  501 -0.80630322475E+03 -0.33627282434E+03  0.14328670822E+03  0.13419321009E+04  0.10084871740E+04 0.  0.
        -13    1    3    3    0    0 -0.37869906393E+02 -0.14875616751E+03  0.30933221468E+03  0.34532442339E+03  0.10566000000E+00 0.  1.
          4    1    3    3  502    0  0.84417313114E+03  0.48502899186E+03  0.31207290121E+03  0.10223849050E+04  0.00000000000E+00 0.  1.
         13    1    4    4    0    0 -0.90945316543E+03 -0.19484437074E+03  0.41519014210E+03  0.10185540016E+04  0.10566000000E+00 0. -1.
         -4    1    4    4    0  501  0.10314994068E+03 -0.14142845361E+03 -0.27190343388E+03  0.32337809930E+03  0.00000000000E+00 0. -1.
<mgrwt>
<rscale>  2 0.12750118E+04</rscale>
<asrwt>0</asrwt>
<pdfrwt beam="2">  1        2 0.14961151E+00 0.12750118E+04</pdfrwt>
<pdfrwt beam="1">  1       -2 0.26725640E+00 0.12750118E+04</pdfrwt>
<totfact> 0.11531320E+00</totfact>
</mgrwt>
</event>
<event>
 8    1  0.1449514E-005  0.1288946E+04  0.7818608E-02  0.8542434E-01
          2   -1    0    0  502    0  0.00000000000E+00  0.00000000000E+00  0.27665996006E+04  0.27665996006E+04  0.00000000000E+00 0.  1.
         -2   -1    0    0    0  501 -0.00000000000E+00 -0.00000000000E+00 -0.64523434667E+03  0.64523434667E+03  0.00000000000E+00 0. -1.
    9000010    2    1    2  502    0  0.75004894559E+03 -0.15411247706E+03  0.59186692026E+03  0.13935123648E+04  0.10026196603E+04 0.  0.
   -9000010    2    1    2    0  501 -0.75004894559E+03  0.15411247706E+03  0.15294983337E+04  0.20183215825E+04  0.10714162502E+04 0.  0.
        -13    1    3    3    0    0  0.55407421727E+03 -0.23221489382E+03 -0.15250529794E+03  0.61982245218E+03  0.10566000000E+00 0.  1.
          4    1    3    3  502    0  0.19597472831E+03  0.78102416759E+02  0.74437221820E+03  0.77368991261E+03  0.00000000000E+00 0.  1.
         13    1    4    4    0    0 -0.53155473726E+03  0.11201403063E+03  0.16693470446E+04  0.17555105093E+04  0.10566000000E+00 0. -1.
         -4    1    4    4    0  501 -0.21849420833E+03  0.42098446431E+02 -0.13984871090E+03  0.26281107322E+03  0.00000000000E+00 0. -1.
<mgrwt>
<rscale>  2 0.12889463E+04</rscale>
<asrwt>0</asrwt>
<pdfrwt beam="1">  1        2 0.42563070E+00 0.12889463E+04</pdfrwt>
<pdfrwt beam="2">  1       -2 0.99266824E-01 0.12889463E+04</pdfrwt>
<totfact> 0.31449722E+00</totfact>
</mgrwt>
</event>
<event>
 8    1  0.1449514E-005  0.1852860E+04  0.7818608E-02  0.8231081E-01
          2   -1    0    0  502    0  0.00000000000E+00  0.00000000000E+00  0.43970125558E+04  0.43970125558E+04  0.00000000000E+00 0. -1.
         -2   -1    0    0    0  501 -0.00000000000E+00 -0.00000000000E+00 -0.78297168953E+03  0.78297168953E+03  0.00000000000E+00 0.  1.
    9000010    2    1    2  502    0 -0.14415584963E+04 -0.64232797812E+03  0.16618783995E+04  0.24823966730E+04  0.95382246636E+03 0.  0.
   -9000010    2    1    2    0  501  0.14415584963E+04  0.64232797812E+03  0.19521624668E+04  0.26975875724E+04  0.98760532820E+03 0.  0.
        -13    1    3    3    0    0 -0.13036557308E+04 -0.12614459784E+03  0.11795867256E+04  0.17626274644E+04  0.10566000000E+00 0.  1.
          4    1    3    3  502    0 -0.13790276554E+03 -0.51618338028E+03  0.48229167397E+03  0.71976920856E+03  0.00000000000E+00 0.  1.
         13    1    4    4    0    0  0.23960885981E+03  0.59570942489E+03  0.51241375119E+03  0.82149253690E+03  0.10566000000E+00 0. -1.
         -4    1    4    4    0  501  0.12019496365E+04  0.46618553224E+02  0.14397487156E+04  0.18760950355E+04  0.00000000000E+00 0. -1.
<mgrwt>
<rscale>  2 0.18528600E+04</rscale>
<asrwt>0</asrwt>
<pdfrwt beam="1">  1        2 0.67646346E+00 0.18528600E+04</pdfrwt>
<pdfrwt beam="2">  1       -2 0.12045719E+00 0.18528600E+04</pdfrwt>
<totfact> 0.10185557E-01</totfact>
</mgrwt>
</event>
<event>
 8    1  0.1449514E-005  0.1998269E+04  0.7818608E-02  0.8169097E-01
         -2   -1    0    0    0  501 -0.00000000000E+00  0.00000000000E+00  0.20278998466E+04  0.20278998466E+04  0.00000000000E+00 0. -1.
          2   -1    0    0  502    0  0.00000000000E+00 -0.00000000000E+00 -0.21503609962E+04  0.21503609962E+04  0.00000000000E+00 0.  1.
    9000010    2    1    2  502    0 -0.11877482354E+04 -0.12599708743E+04  0.54533155282E+03  0.20723170548E+04  0.99941933046E+03 0.  0.
   -9000010    2    1    2    0  501  0.11877482354E+04  0.12599708743E+04 -0.66779270239E+03  0.21059437880E+04  0.99537915895E+03 0.  0.
        -13    1    3    3    0    0 -0.71109958533E+03 -0.29826264774E+03  0.62983389744E+03  0.99564751636E+03  0.10566000000E+00 0.  1.
          4    1    3    3  502    0 -0.47664865009E+03 -0.96170822657E+03 -0.84502344620E+02  0.10766695384E+04  0.00000000000E+00 0.  1.
         13    1    4    4    0    0  0.12374346882E+04  0.77601936957E+03 -0.28799930612E+03  0.14887559508E+04  0.10566000000E+00 0. -1.
         -4    1    4    4    0  501 -0.49686452815E+02  0.48395150474E+03 -0.37979339627E+03  0.61718783720E+03  0.00000000000E+00 0. -1.
<mgrwt>
<rscale>  2 0.19982692E+04</rscale>
<asrwt>0</asrwt>
<pdfrwt beam="2">  1        2 0.33082477E+00 0.19982692E+04</pdfrwt>
<pdfrwt beam="1">  1       -2 0.31198459E+00 0.19982692E+04</pdfrwt>
<totfact> 0.11390806E-01</totfact>
</mgrwt>
</event>
<event>
 8    1  0.1449514E-005  0.1268204E+04  0.7818608E-02  0.8556900E-01
         -2   -1    0    0    0  501 -0.00000000000E+00  0.00000000000E+00  0.74760163269E+03  0.74760163269E+03  0.00000000000E+00 0.  1.
          2   -1    0    0  502    0  0.00000000000E+00 -0.00000000000E+00 -0.29233085391E+04  0.29233085391E+04  0.00000000000E+00 0. -1.
    9000010    2    1    2  502    0  0.48112254598E+03  0.61548538940E+03 -0.13948101276E+03  0.12676355068E+04  0.98850576957E+03 0.  0.
   -9000010    2    1    2    0  501 -0.48112254598E+03 -0.61548538940E+03 -0.20362258937E+04  0.24032746650E+04  0.10095603282E+04 0.  0.
        -13    1    3    3    0    0 -0.29552523706E+03  0.51939422125E+02 -0.45380575402E+02  0.30346709393E+03  0.10566000000E+00 0.  1.
          4    1    3    3  502    0  0.77664778305E+03  0.56354596728E+03 -0.94100437362E+02  0.96416841291E+03  0.00000000000E+00 0.  1.
         13    1    4    4    0    0 -0.27056121607E+03 -0.88242165501E+03 -0.16335858602E+04  0.18762926538E+04  0.10566000000E+00 0. -1.
         -4    1    4    4    0  501 -0.21056132991E+03  0.26693626560E+03 -0.40264003352E+03  0.52698201121E+03  0.00000000000E+00 0. -1.
<mgrwt>
<rscale>  2 0.12682040E+04</rscale>
<asrwt>0</asrwt>
<pdfrwt beam="2">  1        2 0.44973977E+00 0.12682040E+04</pdfrwt>
<pdfrwt beam="1">  1       -2 0.11501564E+00 0.12682040E+04</pdfrwt>
<totfact> 0.17600676E+00</totfact>
</mgrwt>
</event>
<event>
 8    1  0.1449514E-005  0.1362821E+04  0.7818608E-02  0.8493104E-01
          2   -1    0    0  502    0  0.00000000000E+00  0.00000000000E+00  0.16932517658E+04  0.16932517658E+04  0.00000000000E+00 0.  1.
         -2   -1    0    0    0  501 -0.00000000000E+00 -0.00000000000E+00 -0.11217192795E+04  0.11217192795E+04  0.00000000000E+00 0. -1.
    9000010    2    1    2  502    0 -0.84580967448E+03 -0.41096881555E+03  0.77076521995E+02  0.13686765276E+04  0.99148639629E+03 0.  0.
   -9000010    2    1    2    0  501  0.84580967448E+03  0.41096881555E+03  0.49445596436E+03  0.14462945177E+04  0.98132143485E+03 0.  0.
        -13    1    3    3    0    0 -0.40722306094E+03  0.56767767711E+01 -0.42050066293E+03  0.58539189083E+03  0.10566000000E+00 0.  1.
          4    1    3    3  502    0 -0.43858661354E+03 -0.41664559232E+03  0.49757718492E+03  0.78328463673E+03  0.00000000000E+00 0.  1.
         13    1    4    4    0    0  0.10330655451E+04  0.32707606435E+03  0.57397631755E+03  0.12262348864E+04  0.10566000000E+00 0. -1.
         -4    1    4    4    0  501 -0.18725587059E+03  0.83892751198E+02 -0.79520353192E+02  0.22005963134E+03  0.00000000000E+00 0. -1.
<mgrwt>
<rscale>  2 0.13628209E+04</rscale>
<asrwt>0</asrwt>
<pdfrwt beam="1">  1        2 0.26050027E+00 0.13628209E+04</pdfrwt>
<pdfrwt beam="2">  1       -2 0.17257220E+00 0.13628209E+04</pdfrwt>
<totfact> 0.25926831E+00</totfact>
</mgrwt>
</event>
<event>
 8    1  0.1449514E-005  0.1367678E+04  0.7818608E-02  0.8489974E-01
          2   -1    0    0  502    0  0.00000000000E+00  0.00000000000E+00  0.34283169579E+04  0.34283169579E+04  0.00000000000E+00 0. -1.
         -2   -1    0    0    0  501 -0.00000000000E+00 -0.00000000000E+00 -0.59226279727E+03  0.59226279727E+03  0.00000000000E+00 0.  1.
    9000010    2    1    2  502    0  0.91841411793E+03 -0.11753149740E+03  0.85360657392E+03  0.16119809363E+04  0.10062505707E+04 0.  0.
   -9000010    2    1    2    0  501 -0.91841411793E+03  0.11753149740E+03  0.19824475867E+04  0.24085988189E+04  0.10069516827E+04 0.  0.
        -13    1    3    3    0    0  0.10552072899E+04 -0.30163680785E+02  0.39774320461E+03  0.11280833038E+04  0.10566000000E+00 0.  1.
          4    1    3    3  502    0 -0.13679317197E+03 -0.87367816611E+02  0.45586336931E+03  0.48389763252E+03  0.00000000000E+00 0.  1.
         13    1    4    4    0    0 -0.86243388268E+03  0.83572549726E+02  0.21012825902E+04  0.22729199520E+04  0.10566000000E+00 0. -1.
         -4    1    4    4    0  501 -0.55980235247E+02  0.33958947669E+02 -0.11883500349E+03  0.13567886689E+03  0.00000000000E+00 0. -1.
<mgrwt>
<rscale>  2 0.13676783E+04</rscale>
<asrwt>0</asrwt>
<pdfrwt beam="1">  1        2 0.52743336E+00 0.13676783E+04</pdfrwt>
<pdfrwt beam="2">  1       -2 0.91117356E-01 0.13676783E+04</pdfrwt>
<totfact> 0.14387577E+00</totfact>
</mgrwt>
</event>
<event>
 8    1  0.1449514E-005  0.1267015E+04  0.7818608E-02  0.8557737E-01
         -2   -1    0    0    0  501 -0.00000000000E+00  0.00000000000E+00  0.10004648444E+04  0.10004648444E+04  0.00000000000E+00 0.  1.
          2   -1    0    0  502    0  0.00000000000E+00 -0.00000000000E+00 -0.18584166107E+04  0.18584166107E+04  0.00000000000E+00 0. -1.
    9000010    2    1    2  502    0 -0.46577572538E+03 -0.61998144817E+03 -0.95785478141E+03  0.15899675974E+04  0.10045830758E+04 0.  0.
   -9000010    2    1    2    0  501  0.46577572538E+03  0.61998144817E+03  0.99903015139E+02  0.12689138577E+04  0.99941870275E+03 0.  0.
        -13    1    3    3    0    0  0.31172480285E+03 -0.92421460970E+02 -0.19039750606E+03  0.37678282954E+03  0.10566000000E+00 0.  1.
          4    1    3    3  502    0 -0.77750052823E+03 -0.52755998720E+03 -0.76745727535E+03  0.12131847679E+04  0.00000000000E+00 0.  1.
         13    1    4    4    0    0  0.64013131450E+03  0.65825536167E+02  0.21146416785E+03  0.67736120827E+03  0.10566000000E+00 0. -1.
         -4    1    4    4    0  501 -0.17435558912E+03  0.55415591200E+03 -0.11156115271E+03  0.59155264944E+03  0.00000000000E+00 0. -1.
<mgrwt>
<rscale>  2 0.12670154E+04</rscale>
<asrwt>0</asrwt>
<pdfrwt beam="2">  1        2 0.28591024E+00 0.12670154E+04</pdfrwt>
<pdfrwt beam="1">  1       -2 0.15391767E+00 0.12670154E+04</pdfrwt>
<totfact> 0.30765922E+00</totfact>
</mgrwt>
</event>
<event>
 8    1  0.1449514E-005  0.1150359E+04  0.7818608E-02  0.8644911E-01
         -1   -1    0    0    0  501 -0.00000000000E+00  0.00000000000E+00  0.76393877102E+03  0.76393877102E+03  0.00000000000E+00 0.  1.
          1   -1    0    0  502    0  0.00000000000E+00 -0.00000000000E+00 -0.17459028007E+04  0.17459028007E+04  0.00000000000E+00 0. -1.
    9000010    2    1    2  502    0 -0.56728070669E+03 -0.13432875964E+03 -0.38014729460E+03  0.12119366423E+04  0.99218286794E+03 0.  0.
   -9000010    2    1    2    0  501  0.56728070669E+03  0.13432875964E+03 -0.60181673504E+03  0.12979049294E+04  0.99122258215E+03 0.  0.
        -13    1    3    3    0    0 -0.32281090438E+03  0.19707747270E+03  0.25415227282E+03  0.45567510265E+03  0.10566000000E+00 0.  1.
          4    1    3    3  502    0 -0.24446980231E+03 -0.33140623234E+03 -0.63429956742E+03  0.75626153962E+03  0.00000000000E+00 0.  1.
         13    1    4    4    0    0 -0.17782248777E+03 -0.30913289446E+01  0.14841802981E+03  0.23164264764E+03  0.10566000000E+00 0. -1.
         -4    1    4    4    0  501  0.74510319446E+03  0.13742008859E+03 -0.75023476485E+03  0.10662622818E+04  0.00000000000E+00 0. -1.
<mgrwt>
<rscale>  2 0.11503590E+04</rscale>
<asrwt>0</asrwt>
<pdfrwt beam="2">  1        1 0.26860043E+00 0.11503590E+04</pdfrwt>
<pdfrwt beam="1">  1       -1 0.11752904E+00 0.11503590E+04</pdfrwt>
<totfact> 0.40857914E+00</totfact>
</mgrwt>
</event>
<event>
 8    1  0.1449514E-005  0.1607176E+04  0.7818608E-02  0.8350356E-01
         -2   -1    0    0    0  501 -0.00000000000E+00  0.00000000000E+00  0.85410197811E+03  0.85410197811E+03  0.00000000000E+00 0.  1.
          2   -1    0    0  502    0  0.00000000000E+00 -0.00000000000E+00 -0.30949899046E+04  0.30949899046E+04  0.00000000000E+00 0. -1.
    9000010    2    1    2  502    0  0.11784105685E+04 -0.42833794822E+03 -0.14220180581E+04  0.21493735314E+04  0.10126926256E+04 0.  0.
   -9000010    2    1    2    0  501 -0.11784105685E+04  0.42833794822E+03 -0.81886986834E+03  0.17997183513E+04  0.99815500637E+03 0.  0.
        -13    1    3    3    0    0  0.53821995477E+03 -0.15989302007E+03  0.60689716313E+01  0.56150097165E+03  0.10566000000E+00 0.  1.
          4    1    3    3  502    0  0.64019061377E+03 -0.26844492815E+03 -0.14280870298E+04  0.15878725597E+04  0.00000000000E+00 0.  1.
         13    1    4    4    0    0 -0.12717625105E+04  0.59817415336E+03 -0.67986393056E+03  0.15612197719E+04  0.10566000000E+00 0. -1.
         -4    1    4    4    0  501  0.93351941954E+02 -0.16983620514E+03 -0.13900593777E+03  0.23849857941E+03  0.00000000000E+00 0. -1.
<mgrwt>
<rscale>  2 0.16071756E+04</rscale>
<asrwt>0</asrwt>
<pdfrwt beam="2">  1        2 0.47615229E+00 0.16071756E+04</pdfrwt>
<pdfrwt beam="1">  1       -2 0.13140031E+00 0.16071756E+04</pdfrwt>
<totfact> 0.92454950E-01</totfact>
</mgrwt>
</event>
<event>
 8    1  0.1449514E-005  0.1393749E+04  0.7818608E-02  0.8473399E-01
          2   -1    0    0  502    0  0.00000000000E+00  0.00000000000E+00  0.25310347647E+04  0.25310347647E+04  0.00000000000E+00 0. -1.
         -2   -1    0    0    0  501 -0.00000000000E+00 -0.00000000000E+00 -0.79555433861E+03  0.79555433861E+03  0.00000000000E+00 0.  1.
    9000010    2    1    2  502    0  0.39011478904E+02 -0.96400052808E+03  0.11798171346E+04  0.18256273615E+04  0.10050511820E+04 0.  0.
   -9000010    2    1    2    0  501 -0.39011478904E+02  0.96400052808E+03  0.55566329153E+03  0.15009617418E+04  0.10066307879E+04 0.  0.
        -13    1    3    3    0    0  0.34152380698E+03 -0.39155260853E+03  0.10409874571E+04  0.11634461110E+04  0.10566000000E+00 0.  1.
          4    1    3    3  502    0 -0.30251232808E+03 -0.57244791955E+03  0.13882967742E+03  0.66218125054E+03  0.00000000000E+00 0.  1.
         13    1    4    4    0    0 -0.38255513635E+02 -0.19141497414E+03 -0.42674765197E+02  0.19981071893E+03  0.10566000000E+00 0. -1.
         -4    1    4    4    0  501 -0.75596526888E+00  0.11554155022E+04  0.59833805672E+03  0.13011510229E+04  0.00000000000E+00 0. -1.
<mgrwt>
<rscale>  2 0.13937485E+04</rscale>
<asrwt>0</asrwt>
<pdfrwt beam="1">  1        2 0.38938996E+00 0.13937485E+04</pdfrwt>
<pdfrwt beam="2">  1       -2 0.12239298E+00 0.13937485E+04</pdfrwt>
<totfact> 0.25053038E+00</totfact>
</mgrwt>
</event>
<event>
 8    1  0.1449514E-005  0.2113999E+04  0.7818608E-02  0.8123492E-01
         -2   -1    0    0    0  501 -0.00000000000E+00  0.00000000000E+00  0.35066074390E+04  0.35066074390E+04  0.00000000000E+00 0. -1.
          2   -1    0    0  502    0  0.00000000000E+00 -0.00000000000E+00 -0.12944753246E+04  0.12944753246E+04  0.00000000000E+00 0.  1.
    9000010    2    1    2  502    0  0.15066567319E+04  0.10863574217E+04  0.14037871951E+04  0.25362526355E+04  0.10058687719E+04 0.  0.
   -9000010    2    1    2    0  501 -0.15066567319E+04 -0.10863574217E+04  0.80834491933E+03  0.22648301281E+04  0.10128410760E+04 0.  0.
        -13    1    3    3    0    0  0.15260433927E+04  0.69930078854E+03  0.91286745463E+03  0.19108001021E+04  0.10566000000E+00 0.  1.
          4    1    3    3  502    0 -0.19386660847E+02  0.38705663319E+03  0.49091974050E+03  0.62545253339E+03  0.00000000000E+00 0.  1.
         13    1    4    4    0    0 -0.14761325823E+04 -0.73909733469E+03  0.34752686402E+03  0.16870113227E+04  0.10566000000E+00 0. -1.
         -4    1    4    4    0  501 -0.30524149561E+02 -0.34726008703E+03  0.46081805531E+03  0.57781880538E+03  0.00000000000E+00 0. -1.
<mgrwt>
<rscale>  2 0.21139988E+04</rscale>
<asrwt>0</asrwt>
<pdfrwt beam="2">  1        2 0.19915005E+00 0.21139988E+04</pdfrwt>
<pdfrwt beam="1">  1       -2 0.53947806E+00 0.21139988E+04</pdfrwt>
<totfact> 0.79610511E-02</totfact>
</mgrwt>
</event>
<event>
 8    1  0.1449514E-005  0.1412582E+04  0.7818608E-02  0.8461655E-01
         -2   -1    0    0    0  501 -0.00000000000E+00  0.00000000000E+00  0.72892046266E+03  0.72892046266E+03  0.00000000000E+00 0.  1.
          2   -1    0    0  502    0  0.00000000000E+00 -0.00000000000E+00 -0.31699921292E+04  0.31699921292E+04  0.00000000000E+00 0. -1.
    9000010    2    1    2  502    0 -0.91703225709E+03 -0.42381295610E+03 -0.50199061148E+03  0.15010919698E+04  0.99031153964E+03 0.  0.
   -9000010    2    1    2    0  501  0.91703225709E+03  0.42381295610E+03 -0.19390810551E+04  0.23978206221E+04  0.98434892954E+03 0.  0.
        -13    1    3    3    0    0  0.20798739012E+03  0.61583629552E+01 -0.10422584962E+03  0.23272240712E+03  0.10566000000E+00 0.  1.
          4    1    3    3  502    0 -0.11250196472E+04 -0.42997131906E+03 -0.39776476186E+03  0.12683695627E+04  0.00000000000E+00 0.  1.
         13    1    4    4    0    0  0.10832404798E+04  0.21005481772E+03 -0.13089903349E+04  0.17120130466E+04  0.10566000000E+00 0. -1.
         -4    1    4    4    0  501 -0.16620822267E+03  0.21375813838E+03 -0.63009072015E+03  0.68580757551E+03  0.00000000000E+00 0. -1.
<mgrwt>
<rscale>  2 0.14125816E+04</rscale>
<asrwt>0</asrwt>
<pdfrwt beam="2">  1        2 0.48769110E+00 0.14125816E+04</pdfrwt>
<pdfrwt beam="1">  1       -2 0.11214161E+00 0.14125816E+04</pdfrwt>
<totfact> 0.12930177E+00</totfact>
</mgrwt>
</event>
<event>
 8    1  0.1449514E-005  0.1258283E+04  0.7818608E-02  0.8563920E-01
         -1   -1    0    0    0  501 -0.00000000000E+00  0.00000000000E+00  0.31611496754E+04  0.31611496754E+04  0.00000000000E+00 0. -1.
          1   -1    0    0  502    0  0.00000000000E+00 -0.00000000000E+00 -0.50742039045E+03  0.50742039045E+03  0.00000000000E+00 0.  1.
    9000010    2    1    2  502    0  0.61357335584E+03  0.47051461222E+03  0.15430020127E+04  0.19957541455E+04  0.10021592361E+04 0.  0.
   -9000010    2    1    2    0  501 -0.61357335584E+03 -0.47051461222E+03  0.11107272722E+04  0.16728159204E+04  0.98323027163E+03 0.  0.
        -13    1    3    3    0    0  0.42413852205E+03 -0.17735912649E+03  0.21815478575E+03  0.50886271955E+03  0.10566000000E+00 0.  1.
          4    1    3    3  502    0  0.18943483379E+03  0.64787373870E+03  0.13248472270E+04  0.14868914259E+04  0.00000000000E+00 0.  1.
         13    1    4    4    0    0 -0.79683979645E+03 -0.60119309148E+02  0.75876899314E+03  0.11019520809E+04  0.10566000000E+00 0. -1.
         -4    1    4    4    0  501  0.18326644061E+03 -0.41039530307E+03  0.35195827910E+03  0.57086383951E+03  0.00000000000E+00 0. -1.
<mgrwt>
<rscale>  2 0.12582834E+04</rscale>
<asrwt>0</asrwt>
<pdfrwt beam="2">  1        1 0.78064677E-01 0.12582834E+04</pdfrwt>
<pdfrwt beam="1">  1       -1 0.48633071E+00 0.12582834E+04</pdfrwt>
<totfact> 0.59543730E-01</totfact>
</mgrwt>
</event>
<event>
 8    1  0.1449514E-005  0.1105623E+04  0.7818608E-02  0.8681235E-01
          2   -1    0    0  502    0  0.00000000000E+00  0.00000000000E+00  0.23480783085E+04  0.23480783085E+04  0.00000000000E+00 0.  1.
         -2   -1    0    0    0  501 -0.00000000000E+00 -0.00000000000E+00 -0.57345903320E+03  0.57345903320E+03  0.00000000000E+00 0. -1.
    9000010    2    1    2  502    0  0.34849510193E+03  0.32700873015E+03  0.13318272760E+04  0.17318316169E+04  0.99854559762E+03 0.  0.
   -9000010    2    1    2    0  501 -0.34849510193E+03 -0.32700873015E+03  0.44279199933E+03  0.11897057248E+04  0.99546542449E+03 0.  0.
        -13    1    3    3    0    0 -0.26058360114E+03  0.19746301548E+03  0.94211283345E+03  0.99723219853E+03  0.10566000000E+00 0.  1.
          4    1    3    3  502    0  0.60907870307E+03  0.12954571467E+03  0.38971444252E+03  0.73459941834E+03  0.00000000000E+00 0.  1.
         13    1    4    4    0    0 -0.29668967178E+03  0.18327354093E+03 -0.17217641662E+03  0.38891989117E+03  0.10566000000E+00 0. -1.
         -4    1    4    4    0  501 -0.51805430148E+02 -0.51028227108E+03  0.61496841595E+03  0.80078583366E+03  0.00000000000E+00 0. -1.
<mgrwt>
<rscale>  2 0.11056229E+04</rscale>
<asrwt>0</asrwt>
<pdfrwt beam="1">  1        2 0.36124281E+00 0.11056229E+04</pdfrwt>
<pdfrwt beam="2">  1       -2 0.88224468E-01 0.11056229E+04</pdfrwt>
<totfact> 0.73157372E+00</totfact>
</mgrwt>
</event>
<event>
 8    1  0.1449514E-005  0.1242241E+04  0.7818608E-02  0.8575415E-01
          1   -1    0    0  502    0  0.00000000000E+00  0.00000000000E+00  0.68284339075E+03  0.68284339075E+03  0.00000000000E+00 0.  1.
         -1   -1    0    0    0  501 -0.00000000000E+00 -0.00000000000E+00 -0.32024033386E+04  0.32024033386E+04  0.00000000000E+00 0. -1.
    9000010    2    1    2  502    0 -0.67793433451E+03  0.33732328000E+03 -0.23035780516E+04  0.26106931752E+04  0.96740118787E+03 0.  0.
   -9000010    2    1    2    0  501  0.67793433451E+03 -0.33732328000E+03 -0.21598189628E+03  0.12745535541E+04  0.10022258357E+04 0.  0.
        -13    1    3    3    0    0 -0.42923745068E+03 -0.17124800178E+03 -0.17819260298E+04  0.18408777944E+04  0.10566000000E+00 0.  1.
          4    1    3    3  502    0 -0.24869688383E+03  0.50857128178E+03 -0.52165202177E+03  0.76981538079E+03  0.00000000000E+00 0.  1.
         13    1    4    4    0    0  0.62360966098E+03 -0.62766215330E+03 -0.34832477332E+03  0.95088324564E+03  0.10566000000E+00 0. -1.
         -4    1    4    4    0  501  0.54324673529E+02  0.29033887330E+03  0.13234287704E+03  0.32367030851E+03  0.00000000000E+00 0. -1.
<mgrwt>
<rscale>  2 0.12422406E+04</rscale>
<asrwt>0</asrwt>
<pdfrwt beam="1">  1        1 0.10505283E+00 0.12422406E+04</pdfrwt>
<pdfrwt beam="2">  1       -1 0.49267745E+00 0.12422406E+04</pdfrwt>
<totfact> 0.37574008E-01</totfact>
</mgrwt>
</event>
<event>
 8    1  0.1449514E-005  0.1551752E+04  0.7818608E-02  0.8380323E-01
          2   -1    0    0  502    0  0.00000000000E+00  0.00000000000E+00  0.22801254357E+04  0.22801254357E+04  0.00000000000E+00 0.  1.
         -2   -1    0    0    0  501 -0.00000000000E+00 -0.00000000000E+00 -0.10611758913E+04  0.10611758913E+04  0.00000000000E+00 0. -1.
    9000010    2    1    2  502    0 -0.61296580586E+03  0.97574004137E+03  0.50318162724E+03  0.16503629200E+04  0.10689762908E+04 0.  0.
   -9000010    2    1    2    0  501  0.61296580586E+03 -0.97574004137E+03  0.71576791716E+03  0.16909384070E+04  0.10095312167E+04 0.  0.
        -13    1    3    3    0    0 -0.43803037359E+03 -0.11172669144E+03  0.26313415161E+03  0.52306123416E+03  0.10566000000E+00 0.  1.
          4    1    3    3  502    0 -0.17493543227E+03  0.10874667328E+04  0.24004747562E+03  0.11273016859E+04  0.00000000000E+00 0.  1.
         13    1    4    4    0    0  0.56877629410E+03 -0.11230765508E+04  0.82245415116E+03  0.15037414185E+04  0.10566000000E+00 0. -1.
         -4    1    4    4    0  501  0.44189511756E+02  0.14733650947E+03 -0.10668623401E+03  0.18719698848E+03  0.00000000000E+00 0. -1.
<mgrwt>
<rscale>  2 0.15517523E+04</rscale>
<asrwt>0</asrwt>
<pdfrwt beam="1">  1        2 0.35078853E+00 0.15517523E+04</pdfrwt>
<pdfrwt beam="2">  1       -2 0.16325783E+00 0.15517523E+04</pdfrwt>
<totfact> 0.14536653E+00</totfact>
</mgrwt>
</event>
<event>
 8    1  0.1449514E-005  0.1146232E+04  0.7818608E-02  0.8648190E-01
          2   -1    0    0  502    0  0.00000000000E+00  0.00000000000E+00  0.15603343760E+04  0.15603343760E+04  0.00000000000E+00 0.  1.
         -2   -1    0    0    0  501 -0.00000000000E+00 -0.00000000000E+00 -0.90645158939E+03  0.90645158939E+03  0.00000000000E+00 0. -1.
    9000010    2    1    2  502    0 -0.38910212744E+03 -0.37786166179E+03 -0.50298123461E+01  0.11332708746E+04  0.99503651950E+03 0.  0.
   -9000010    2    1    2    0  501  0.38910212744E+03  0.37786166179E+03  0.65891259898E+03  0.13335150908E+04  0.10246544702E+04 0.  0.
        -13    1    3    3    0    0 -0.61615390890E+03  0.59389788418E+02 -0.11211275958E+03  0.62908033545E+03  0.10566000000E+00 0.  1.
          4    1    3    3  502    0  0.22705178146E+03 -0.43725145020E+03  0.10708294724E+03  0.50419053914E+03  0.00000000000E+00 0.  1.
         13    1    4    4    0    0  0.36018556325E+03  0.67737898044E+03  0.21413580467E+03  0.79651119083E+03  0.10566000000E+00 0. -1.
         -4    1    4    4    0  501  0.28916564188E+02 -0.29951731865E+03  0.44477679431E+03  0.53700390000E+03  0.00000000000E+00 0. -1.
<mgrwt>
<rscale>  2 0.11462315E+04</rscale>
<asrwt>0</asrwt>
<pdfrwt beam="1">  1        2 0.24005144E+00 0.11462315E+04</pdfrwt>
<pdfrwt beam="2">  1       -2 0.13945409E+00 0.11462315E+04</pdfrwt>
<totfact> 0.60889592E+00</totfact>
</mgrwt>
</event>
<event>
 8    1  0.1449514E-005  0.1177738E+04  0.7818608E-02  0.8623517E-01
          1   -1    0    0  502    0  0.00000000000E+00  0.00000000000E+00  0.15771958164E+04  0.15771958164E+04  0.00000000000E+00 0. -1.
         -1   -1    0    0    0  501 -0.00000000000E+00 -0.00000000000E+00 -0.12096212518E+04  0.12096212518E+04  0.00000000000E+00 0.  1.
    9000010    2    1    2  502    0 -0.54398404459E+03  0.26753227561E+03 -0.54515443571E+03  0.12895877796E+04  0.99917522144E+03 0.  0.
   -9000010    2    1    2    0  501  0.54398404459E+03 -0.26753227561E+03  0.91272900040E+03  0.14972292886E+04  0.10203573665E+04 0.  0.
        -13    1    3    3    0    0 -0.73642791521E+03  0.35083488005E+03 -0.13210409747E+03  0.82635506357E+03  0.10566000000E+00 0.  1.
          4    1    3    3  502    0  0.19244387061E+03 -0.83302604438E+02 -0.41305033823E+03  0.46323271598E+03  0.00000000000E+00 0.  1.
         13    1    4    4    0    0 -0.55025606074E+02 -0.47822714799E+03  0.14880121004E+03  0.50385596521E+03  0.10566000000E+00 0. -1.
         -4    1    4    4    0  501  0.59900965067E+03  0.21069487238E+03  0.76392779036E+03  0.99337332344E+03  0.00000000000E+00 0. -1.
<mgrwt>
<rscale>  2 0.11777383E+04</rscale>
<asrwt>0</asrwt>
<pdfrwt beam="1">  1        1 0.24264551E+00 0.11777383E+04</pdfrwt>
<pdfrwt beam="2">  1       -1 0.18609558E+00 0.11777383E+04</pdfrwt>
<totfact> 0.13719970E+00</totfact>
</mgrwt>
</event>
<event>
 8    1  0.1449514E-005  0.1381357E+04  0.7818608E-02  0.8481231E-01
          2   -1    0    0  502    0  0.00000000000E+00  0.00000000000E+00  0.86127481401E+03  0.86127481401E+03  0.00000000000E+00 0.  1.
         -2   -1    0    0    0  501 -0.00000000000E+00 -0.00000000000E+00 -0.22526802261E+04  0.22526802261E+04  0.00000000000E+00 0. -1.
    9000010    2    1    2  502    0 -0.90793430528E+03  0.27244219199E+03 -0.49254103152E+03  0.14603803370E+04  0.99576333049E+03 0.  0.
   -9000010    2    1    2    0  501  0.90793430528E+03 -0.27244219199E+03 -0.89886438061E+03  0.16535747031E+04  0.10137961695E+04 0.  0.
        -13    1    3    3    0    0 -0.10984010956E+04  0.36358872896E+03 -0.46693205315E+03  0.12476807621E+04  0.10566000000E+00 0.  1.
          4    1    3    3  502    0  0.19046679031E+03 -0.91146536966E+02 -0.25608978364E+02  0.21269957495E+03  0.00000000000E+00 0.  1.
         13    1    4    4    0    0  0.91803527151E+03 -0.29595329576E+02 -0.10278148566E+04  0.13784295535E+04  0.10566000000E+00 0. -1.
         -4    1    4    4    0  501 -0.10100966235E+02 -0.24284686242E+03  0.12895047601E+03  0.27514514963E+03  0.00000000000E+00 0. -1.
<mgrwt>
<rscale>  2 0.13813570E+04</rscale>
<asrwt>0</asrwt>
<pdfrwt beam="1">  1        2 0.13250382E+00 0.13813570E+04</pdfrwt>
<pdfrwt beam="2">  1       -2 0.34656619E+00 0.13813570E+04</pdfrwt>
<totfact> 0.38155110E-01</totfact>
</mgrwt>
</event>
<event>
 8    1  0.1449514E-005  0.1074171E+04  0.7818608E-02  0.8707862E-01
          1   -1    0    0  502    0  0.00000000000E+00  0.00000000000E+00  0.14163211583E+04  0.14163211583E+04  0.00000000000E+00 0. -1.
         -1   -1    0    0    0  501 -0.00000000000E+00 -0.00000000000E+00 -0.94240994815E+03  0.94240994815E+03  0.00000000000E+00 0.  1.
    9000010    2    1    2  502    0  0.28337296799E+03 -0.29712994713E+03  0.67275509057E+03  0.12751298784E+04  0.10023823375E+04 0.  0.
   -9000010    2    1    2    0  501 -0.28337296799E+03  0.29712994713E+03 -0.19884388041E+03  0.10836012280E+04  0.98288671177E+03 0.  0.
        -13    1    3    3    0    0 -0.87170227765E+01 -0.49838486269E+03  0.76089784890E+03  0.90963124697E+03  0.10566000000E+00 0.  1.
          4    1    3    3  502    0  0.29208999076E+03  0.20125491556E+03 -0.88142758322E+02  0.36549863144E+03  0.00000000000E+00 0.  1.
         13    1    4    4    0    0 -0.57024986066E+03  0.45565580007E+03 -0.19612960776E+03  0.75582666394E+03  0.10566000000E+00 0. -1.
         -4    1    4    4    0  501  0.28687689267E+03 -0.15852585294E+03 -0.27142726501E+01  0.32777456410E+03  0.00000000000E+00 0. -1.
<mgrwt>
<rscale>  2 0.10741706E+04</rscale>
<asrwt>0</asrwt>
<pdfrwt beam="1">  1        1 0.21789556E+00 0.10741706E+04</pdfrwt>
<pdfrwt beam="2">  1       -1 0.14498615E+00 0.10741706E+04</pdfrwt>
<totfact> 0.41654158E+00</totfact>
</mgrwt>
</event>
<event>
 8    1  0.1449514E-005  0.1216335E+04  0.7818608E-02  0.8594362E-01
         -1   -1    0    0    0  501 -0.00000000000E+00  0.00000000000E+00  0.75350666235E+03  0.75350666235E+03  0.00000000000E+00 0. -1.
          1   -1    0    0  502    0  0.00000000000E+00 -0.00000000000E+00 -0.24663961765E+04  0.24663961765E+04  0.00000000000E+00 0.  1.
    9000010    2    1    2  502    0 -0.65040772745E+03 -0.22654012871E+03 -0.15847770259E+04  0.19991873751E+04  0.10054259281E+04 0.  0.
   -9000010    2    1    2    0  501  0.65040772745E+03  0.22654012871E+03 -0.12811248825E+03  0.12207154638E+04  0.99969134838E+03 0.  0.
        -13    1    3    3    0    0 -0.72179925715E+00  0.28977421238E+03 -0.82365307973E+03  0.87314032209E+03  0.10566000000E+00 0.  1.
          4    1    3    3  502    0 -0.64968592819E+03 -0.51631434108E+03 -0.76112394619E+03  0.11260470530E+04  0.00000000000E+00 0.  1.
         13    1    4    4    0    0  0.55648114118E+03  0.87289519786E+02 -0.53726692316E+03  0.77842564104E+03  0.10566000000E+00 0. -1.
         -4    1    4    4    0  501  0.93926586266E+02  0.13925060892E+03  0.40915443490E+03  0.44228982273E+03  0.00000000000E+00 0. -1.
<mgrwt>
<rscale>  2 0.12163353E+04</rscale>
<asrwt>0</asrwt>
<pdfrwt beam="2">  1        1 0.37944556E+00 0.12163353E+04</pdfrwt>
<pdfrwt beam="1">  1       -1 0.11592410E+00 0.12163353E+04</pdfrwt>
<totfact> 0.11155751E+00</totfact>
</mgrwt>
</event>
<event>
 8    1  0.1449514E-005  0.1287323E+04  0.7818608E-02  0.8543556E-01
          2   -1    0    0  502    0  0.00000000000E+00  0.00000000000E+00  0.20055237931E+04  0.20055237931E+04  0.00000000000E+00 0.  1.
         -2   -1    0    0    0  501 -0.00000000000E+00 -0.00000000000E+00 -0.92566569286E+03  0.92566569286E+03  0.00000000000E+00 0. -1.
    9000010    2    1    2  502    0 -0.21845188473E+03 -0.78619672597E+03  0.58272578065E+02  0.12845358595E+04  0.99035860328E+03 0.  0.
   -9000010    2    1    2    0  501  0.21845188473E+03  0.78619672597E+03  0.10215855222E+04  0.16466536265E+04  0.10010018325E+04 0.  0.
        -13    1    3    3    0    0 -0.34832846218E+02 -0.61711982364E+03  0.48803529586E+03  0.78754597648E+03  0.10566000000E+00 0.  1.
          4    1    3    3  502    0 -0.18361903851E+03 -0.16907690233E+03 -0.42976271779E+03  0.49698988301E+03  0.00000000000E+00 0.  1.
         13    1    4    4    0    0 -0.30247848119E+03  0.18096810294E+03  0.70393229884E+03  0.78725051818E+03  0.10566000000E+00 0. -1.
         -4    1    4    4    0  501  0.52093036592E+03  0.60522862302E+03  0.31765322335E+03  0.85940310831E+03  0.00000000000E+00 0. -1.
<mgrwt>
<rscale>  2 0.12873228E+04</rscale>
<asrwt>0</asrwt>
<pdfrwt beam="1">  1        2 0.30854212E+00 0.12873228E+04</pdfrwt>
<pdfrwt beam="2">  1       -2 0.14241011E+00 0.12873228E+04</pdfrwt>
<totfact> 0.32283763E+00</totfact>
</mgrwt>
</event>
<event>
 8    1  0.1449514E-005  0.1118349E+04  0.7818608E-02  0.8670722E-01
          2   -1    0    0  502    0  0.00000000000E+00  0.00000000000E+00  0.15615424317E+04  0.15615424317E+04  0.00000000000E+00 0. -1.
         -2   -1    0    0    0  501 -0.00000000000E+00 -0.00000000000E+00 -0.83483480171E+03  0.83483480171E+03  0.00000000000E+00 0.  1.
    9000010    2    1    2  502    0  0.47832335949E+03 -0.15731312581E+03  0.59921636731E+03  0.12548605072E+04  0.98085370051E+03 0.  0.
   -9000010    2    1    2    0  501 -0.47832335949E+03  0.15731312581E+03  0.12749126266E+03  0.11415167262E+04  0.10164968069E+04 0.  0.
        -13    1    3    3    0    0  0.21375530797E+03  0.36808327189E+03  0.15172995554E+02  0.42591883932E+03  0.10566000000E+00 0.  1.
          4    1    3    3  502    0  0.26456805152E+03 -0.52539639770E+03  0.58404337176E+03  0.82894166785E+03  0.00000000000E+00 0.  1.
         13    1    4    4    0    0 -0.71111412928E+03 -0.10076025677E+03 -0.10143233177E+03  0.72534437566E+03  0.10566000000E+00 0. -1.
         -4    1    4    4    0  501  0.23279076979E+03  0.25807338258E+03  0.22892359443E+03  0.41617235057E+03  0.00000000000E+00 0. -1.
<mgrwt>
<rscale>  2 0.11183488E+04</rscale>
<asrwt>0</asrwt>
<pdfrwt beam="1">  1        2 0.24023730E+00 0.11183488E+04</pdfrwt>
<pdfrwt beam="2">  1       -2 0.12843612E+00 0.11183488E+04</pdfrwt>
<totfact> 0.76958748E+00</totfact>
</mgrwt>
</event>
<event>
 8    1  0.1449514E-005  0.1172477E+04  0.7818608E-02  0.8627581E-01
         -1   -1    0    0    0  501 -0.00000000000E+00  0.00000000000E+00  0.67061130349E+03  0.67061130349E+03  0.00000000000E+00 0.  1.
          1   -1    0    0  502    0  0.00000000000E+00 -0.00000000000E+00 -0.21099823007E+04  0.21099823007E+04  0.00000000000E+00 0. -1.
    9000010    2    1    2  502    0  0.38097239069E+03  0.53496601992E+03 -0.98155707561E+03  0.15886941794E+04  0.10626223686E+04 0.  0.
   -9000010    2    1    2    0  501 -0.38097239069E+03 -0.53496601992E+03 -0.45781392156E+03  0.11918994247E+04  0.88300738781E+03 0.  0.
        -13    1    3    3    0    0  0.43158665250E+03  0.64033655515E+03 -0.19897064148E+03  0.79742540078E+03  0.10566000000E+00 0.  1.
          4    1    3    3  502    0 -0.50614261809E+02 -0.10537053523E+03 -0.78258643413E+03  0.79126877866E+03  0.00000000000E+00 0.  1.
         13    1    4    4    0    0  0.16719970044E+03  0.11639865254E+03 -0.23673951090E+03  0.31232994305E+03  0.10566000000E+00 0. -1.
         -4    1    4    4    0  501 -0.54817209113E+03 -0.65136467246E+03 -0.22107441066E+03  0.87956948166E+03  0.00000000000E+00 0. -1.
<mgrwt>
<rscale>  2 0.11724771E+04</rscale>
<asrwt>0</asrwt>
<pdfrwt beam="2">  1        1 0.32461266E+00 0.11724771E+04</pdfrwt>
<pdfrwt beam="1">  1       -1 0.10317097E+00 0.11724771E+04</pdfrwt>
<totfact> 0.29166421E+00</totfact>
</mgrwt>
</event>
<event>
 8    1  0.1449514E-005  0.1470083E+04  0.7818608E-02  0.8426928E-01
          1   -1    0    0  502    0  0.00000000000E+00  0.00000000000E+00  0.24190299513E+04  0.24190299513E+04  0.00000000000E+00 0.  1.
         -1   -1    0    0    0  501 -0.00000000000E+00 -0.00000000000E+00 -0.97337037150E+03  0.97337037150E+03  0.00000000000E+00 0. -1.
    9000010    2    1    2  502    0 -0.10847910560E+04  0.25920994371E+02  0.12096082226E+04  0.19047395220E+04  0.99369867728E+03 0.  0.
   -9000010    2    1    2    0  501  0.10847910560E+04 -0.25920994371E+02  0.23605135726E+03  0.14876608009E+04  0.98993478671E+03 0.  0.
        -13    1    3    3    0    0 -0.10332304394E+04 -0.32460705410E+03  0.72050154790E+03  0.13007910563E+04  0.10566000000E+00 0.  1.
          4    1    3    3  502    0 -0.51560616615E+02  0.35052804847E+03  0.48910667465E+03  0.60394846563E+03  0.00000000000E+00 0.  1.
         13    1    4    4    0    0  0.64208878226E+03  0.37705427512E+03  0.42817615030E+03  0.85894281389E+03  0.10566000000E+00 0. -1.
         -4    1    4    4    0  501  0.44270227378E+03 -0.40297526949E+03 -0.19212479305E+03  0.62871798696E+03  0.00000000000E+00 0. -1.
<mgrwt>
<rscale>  2 0.14700831E+04</rscale>
<asrwt>0</asrwt>
<pdfrwt beam="1">  1        1 0.37215845E+00 0.14700831E+04</pdfrwt>
<pdfrwt beam="2">  1       -1 0.14974929E+00 0.14700831E+04</pdfrwt>
<totfact> 0.59836193E-01</totfact>
</mgrwt>
</event>
<event>
 8    1  0.1449514E-005  0.1851913E+04  0.7818608E-02  0.8231503E-01
          2   -1    0    0  502    0  0.00000000000E+00  0.00000000000E+00  0.25385696599E+04  0.25385696599E+04  0.00000000000E+00 0.  1.
         -2   -1    0    0    0  501 -0.00000000000E+00 -0.00000000000E+00 -0.14051509599E+04  0.14051509599E+04  0.00000000000E+00 0. -1.
    9000010    2    1    2  502    0 -0.49274145676E+03 -0.14739034446E+04  0.95421120926E+03  0.20844153147E+04  0.10094962433E+04 0.  0.
   -9000010    2    1    2    0  501  0.49274145676E+03  0.14739034446E+04  0.17920749073E+03  0.18593053051E+04  0.10048459513E+04 0.  0.
        -13    1    3    3    0    0 -0.27691742580E+03 -0.67088258643E+03  0.10182443648E+04  0.12504352454E+04  0.10566000000E+00 0.  1.
          4    1    3    3  502    0 -0.21582403095E+03 -0.80302085815E+03 -0.64033155508E+02  0.83398006928E+03  0.00000000000E+00 0.  1.
         13    1    4    4    0    0  0.52680723982E+03  0.19862614778E+03 -0.41853998125E+02  0.56456176175E+03  0.10566000000E+00 0. -1.
         -4    1    4    4    0  501 -0.34065783061E+02  0.12752772968E+04  0.22106148885E+03  0.12947435434E+04  0.00000000000E+00 0. -1.
<mgrwt>
<rscale>  2 0.18519129E+04</rscale>
<asrwt>0</asrwt>
<pdfrwt beam="1">  1        2 0.39054918E+00 0.18519129E+04</pdfrwt>
<pdfrwt beam="2">  1       -2 0.21617707E+00 0.18519129E+04</pdfrwt>
<totfact> 0.36606025E-01</totfact>
</mgrwt>
</event>
<event>
 8    1  0.1449514E-005  0.1076661E+04  0.7818608E-02  0.8705719E-01
          2   -1    0    0  502    0  0.00000000000E+00  0.00000000000E+00  0.12694587153E+04  0.12694587153E+04  0.00000000000E+00 0.  1.
         -2   -1    0    0    0  501 -0.00000000000E+00 -0.00000000000E+00 -0.10086807331E+04  0.10086807331E+04  0.00000000000E+00 0. -1.
    9000010    2    1    2  502    0 -0.27664433099E+03  0.35205467673E+03 -0.21670935764E+03  0.11215847919E+04  0.10052437110E+04 0.  0.
   -9000010    2    1    2    0  501  0.27664433099E+03 -0.35205467673E+03  0.47748733984E+03  0.11565546566E+04  0.95349354098E+03 0.  0.
        -13    1    3    3    0    0 -0.35816095281E+03  0.61996284006E+03 -0.36614336220E+03  0.80417296897E+03  0.10566000000E+00 0.  1.
          4    1    3    3  502    0  0.81516621827E+02 -0.26790816332E+03  0.14943400456E+03  0.31741182292E+03  0.00000000000E+00 0.  1.
         13    1    4    4    0    0  0.61504987774E+03 -0.24844242872E+03  0.45001954536E+03  0.80157819012E+03  0.10566000000E+00 0. -1.
         -4    1    4    4    0  501 -0.33840554676E+03 -0.10361224801E+03  0.27467794483E+02  0.35497646647E+03  0.00000000000E+00 0. -1.
<mgrwt>
<rscale>  2 0.10766613E+04</rscale>
<asrwt>0</asrwt>
<pdfrwt beam="1">  1        2 0.19530134E+00 0.10766613E+04</pdfrwt>
<pdfrwt beam="2">  1       -2 0.15518165E+00 0.10766613E+04</pdfrwt>
<totfact> 0.64375517E+00</totfact>
</mgrwt>
</event>
<event>
 8    1  0.1449514E-005  0.1173036E+04  0.7818608E-02  0.8627148E-01
         -2   -1    0    0    0  501 -0.00000000000E+00  0.00000000000E+00  0.14139773685E+04  0.14139773685E+04  0.00000000000E+00 0.  1.
          2   -1    0    0  502    0  0.00000000000E+00 -0.00000000000E+00 -0.17924431287E+04  0.17924431287E+04  0.00000000000E+00 0. -1.
    9000010    2    1    2  502    0  0.62137258265E+03  0.13358666647E+02 -0.12746219988E+04  0.17461413916E+04  0.10188553279E+04 0.  0.
   -9000010    2    1    2    0  501 -0.62137258265E+03 -0.13358666647E+02  0.89615623854E+03  0.14602791056E+04  0.97110077840E+03 0.  0.
        -13    1    3    3    0    0  0.64663825584E+03 -0.24612371718E+03 -0.33067510132E+03  0.76685327923E+03  0.10566000000E+00 0.  1.
          4    1    3    3  502    0 -0.25265673193E+02  0.25948238383E+03 -0.94394689750E+03  0.97928811239E+03  0.00000000000E+00 0.  1.
         13    1    4    4    0    0 -0.13056819376E+02 -0.18158205894E+03 -0.15173603539E+03  0.23699443087E+03  0.10566000000E+00 0. -1.
         -4    1    4    4    0  501 -0.60831576327E+03  0.16822339230E+03  0.10478922739E+04  0.12232846747E+04  0.00000000000E+00 0. -1.
<mgrwt>
<rscale>  2 0.11730361E+04</rscale>
<asrwt>0</asrwt>
<pdfrwt beam="2">  1        2 0.27576048E+00 0.11730361E+04</pdfrwt>
<pdfrwt beam="1">  1       -2 0.21753498E+00 0.11730361E+04</pdfrwt>
<totfact> 0.99202524E-01</totfact>
</mgrwt>
</event>
<event>
 8    1  0.1449514E-005  0.1130257E+04  0.7818608E-02  0.8661016E-01
          2   -1    0    0  502    0  0.00000000000E+00  0.00000000000E+00  0.18577836713E+04  0.18577836713E+04  0.00000000000E+00 0. -1.
         -2   -1    0    0    0  501 -0.00000000000E+00 -0.00000000000E+00 -0.83246667981E+03  0.83246667981E+03  0.00000000000E+00 0.  1.
    9000010    2    1    2  502    0  0.27196967654E+03 -0.51703322506E+03 -0.38690198386E+02  0.11551849184E+04  0.99582348012E+03 0.  0.
   -9000010    2    1    2    0  501 -0.27196967654E+03  0.51703322506E+03  0.10640071898E+04  0.15350654326E+04  0.93969341898E+03 0.  0.
        -13    1    3    3    0    0 -0.26560370945E+03 -0.46332893857E+03  0.19230079885E+03  0.56762544357E+03  0.10566000000E+00 0.  1.
          4    1    3    3  502    0  0.53757338598E+03 -0.53704286496E+02 -0.23099099724E+03  0.58755947487E+03  0.00000000000E+00 0.  1.
         13    1    4    4    0    0  0.27709862768E+03  0.46444969549E+03  0.40486495879E+03  0.67558331472E+03  0.10566000000E+00 0. -1.
         -4    1    4    4    0  501 -0.54906830421E+03  0.52583529571E+02  0.65914223104E+03  0.85948211792E+03  0.00000000000E+00 0. -1.
<mgrwt>
<rscale>  2 0.11302569E+04</rscale>
<asrwt>0</asrwt>
<pdfrwt beam="1">  1        2 0.28581287E+00 0.11302569E+04</pdfrwt>
<pdfrwt beam="2">  1       -2 0.12807180E+00 0.11302569E+04</pdfrwt>
<totfact> 0.53483493E+00</totfact>
</mgrwt>
</event>
<event>
 8    1  0.1449514E-005  0.1684037E+04  0.7818608E-02  0.8310804E-01
         -2   -1    0    0    0  501 -0.00000000000E+00  0.00000000000E+00  0.21321409221E+04  0.21321409221E+04  0.00000000000E+00 0. -1.
          2   -1    0    0  502    0  0.00000000000E+00 -0.00000000000E+00 -0.13301292052E+04  0.13301292052E+04  0.00000000000E+00 0.  1.
    9000010    2    1    2  502    0 -0.13500802350E+04 -0.20619755466E+03  0.40050494956E+03  0.17370746891E+04  0.99588663435E+03 0.  0.
   -9000010    2    1    2    0  501  0.13500802350E+04  0.20619755466E+03  0.40150676734E+03  0.17251954382E+04  0.97460635304E+03 0.  0.
        -13    1    3    3    0    0  0.15839621580E+03 -0.72276431295E+02  0.17505455400E+02  0.17498484458E+03  0.10566000000E+00 0.  1.
          4    1    3    3  502    0 -0.15084764508E+04 -0.13392112336E+03  0.38299949416E+03  0.15620898445E+04  0.00000000000E+00 0.  1.
         13    1    4    4    0    0  0.97827168739E+03  0.53756306325E+03  0.53318889233E+02  0.11175117254E+04  0.10566000000E+00 0. -1.
         -4    1    4    4    0  501  0.37180854758E+03 -0.33136550859E+03  0.34818787811E+03  0.60768371279E+03  0.00000000000E+00 0. -1.
<mgrwt>
<rscale>  2 0.16840369E+04</rscale>
<asrwt>0</asrwt>
<pdfrwt beam="2">  1        2 0.20463526E+00 0.16840369E+04</pdfrwt>
<pdfrwt beam="1">  1       -2 0.32802168E+00 0.16840369E+04</pdfrwt>
<totfact> 0.26247586E-01</totfact>
</mgrwt>
</event>
<event>
 8    1  0.1449514E-005  0.1312806E+04  0.7818608E-02  0.8526137E-01
         -2   -1    0    0    0  501 -0.00000000000E+00  0.00000000000E+00  0.96848423285E+03  0.96848423285E+03  0.00000000000E+00 0. -1.
          2   -1    0    0  502    0  0.00000000000E+00 -0.00000000000E+00 -0.25533375882E+04  0.25533375882E+04  0.00000000000E+00 0.  1.
    9000010    2    1    2  502    0 -0.29040592311E+03 -0.69258105091E+03 -0.17336775938E+04  0.21399468535E+04  0.10048534342E+04 0.  0.
   -9000010    2    1    2    0  501  0.29040592311E+03  0.69258105091E+03  0.14882423848E+03  0.13818749675E+04  0.11504023903E+04 0.  0.
        -13    1    3    3    0    0 -0.48844217902E+03 -0.87219966818E+02 -0.12352543370E+04  0.13311785655E+04  0.10566000000E+00 0.  1.
          4    1    3    3  502    0  0.19803625591E+03 -0.60536108410E+03 -0.49842325678E+03  0.80876828801E+03  0.00000000000E+00 0.  1.
         13    1    4    4    0    0 -0.27640675770E+03  0.68430901316E+03  0.29765862924E+03  0.79578903732E+03  0.10566000000E+00 0. -1.
         -4    1    4    4    0  501  0.56681268081E+03  0.82720377509E+01 -0.14883439076E+03  0.58608593023E+03  0.00000000000E+00 0. -1.
<mgrwt>
<rscale>  2 0.13128060E+04</rscale>
<asrwt>0</asrwt>
<pdfrwt beam="2">  1        2 0.39282116E+00 0.13128060E+04</pdfrwt>
<pdfrwt beam="1">  1       -2 0.14899758E+00 0.13128060E+04</pdfrwt>
<totfact> 0.14014007E+00</totfact>
</mgrwt>
</event>
<event>
 8    1  0.1449514E-005  0.1500873E+04  0.7818608E-02  0.8408997E-01
          2   -1    0    0  502    0  0.00000000000E+00  0.00000000000E+00  0.27817101755E+04  0.27817101755E+04  0.00000000000E+00 0. -1.
         -2   -1    0    0    0  501 -0.00000000000E+00 -0.00000000000E+00 -0.81943473694E+03  0.81943473694E+03  0.00000000000E+00 0.  1.
    9000010    2    1    2  502    0  0.10267483497E+04 -0.44454264656E+03  0.78409536950E+03  0.16908874815E+04  0.99622516955E+03 0.  0.
   -9000010    2    1    2    0  501 -0.10267483497E+04  0.44454264656E+03  0.11781800690E+04  0.19102574309E+04  0.10045620135E+04 0.  0.
        -13    1    3    3    0    0  0.12216986034E+04 -0.45253811346E+03  0.69031158361E+03  0.14744043934E+04  0.10566000000E+00 0.  1.
          4    1    3    3  502    0 -0.19495025374E+03  0.79954668953E+01  0.93783785891E+02  0.21648308807E+03  0.00000000000E+00 0.  1.
         13    1    4    4    0    0 -0.61459079857E+03  0.83047916443E+02  0.12115086999E+04  0.13610187901E+04  0.10566000000E+00 0. -1.
         -4    1    4    4    0  501 -0.41215755112E+03  0.36149473012E+03 -0.33328630855E+02  0.54923864074E+03  0.00000000000E+00 0. -1.
<mgrwt>
<rscale>  2 0.15008730E+04</rscale>
<asrwt>0</asrwt>
<pdfrwt beam="1">  1        2 0.42795541E+00 0.15008730E+04</pdfrwt>
<pdfrwt beam="2">  1       -2 0.12606688E+00 0.15008730E+04</pdfrwt>
<totfact> 0.16358174E+00</totfact>
</mgrwt>
</event>
<event>
 8    1  0.1449514E-005  0.1557791E+04  0.7818608E-02  0.8376995E-01
          2   -1    0    0  502    0  0.00000000000E+00  0.00000000000E+00  0.37373134861E+04  0.37373134861E+04  0.00000000000E+00 0. -1.
         -2   -1    0    0    0  501 -0.00000000000E+00 -0.00000000000E+00 -0.77745293268E+03  0.77745293268E+03  0.00000000000E+00 0.  1.
    9000010    2    1    2  502    0  0.11650077331E+04 -0.22948141766E+03  0.24002486942E+04  0.28641475864E+04  0.10159935354E+04 0.  0.
   -9000010    2    1    2    0  501 -0.11650077331E+04  0.22948141766E+03  0.55961185930E+03  0.16506188324E+04  0.10007359080E+04 0.  0.
        -13    1    3    3    0    0  0.13506143462E+04 -0.14536201763E+03  0.20610729565E+04  0.24684632814E+04  0.10566000000E+00 0.  1.
          4    1    3    3  502    0 -0.18560661308E+03 -0.84119400027E+02  0.33917573762E+03  0.39568430506E+03  0.00000000000E+00 0.  1.
         13    1    4    4    0    0 -0.91492695377E+03  0.58235735988E+03  0.55452083184E+03  0.12180824231E+04  0.10566000000E+00 0. -1.
         -4    1    4    4    0  501 -0.25008077932E+03 -0.35287594223E+03  0.50910274652E+01  0.43253640928E+03  0.00000000000E+00 0. -1.
<mgrwt>
<rscale>  2 0.15577913E+04</rscale>
<asrwt>0</asrwt>
<pdfrwt beam="1">  1        2 0.57497129E+00 0.15577913E+04</pdfrwt>
<pdfrwt beam="2">  1       -2 0.11960815E+00 0.15577913E+04</pdfrwt>
<totfact> 0.41291901E-01</totfact>
</mgrwt>
</event>
<event>
 8    1  0.1449514E-005  0.1046979E+04  0.7818608E-02  0.8731660E-01
         -1   -1    0    0    0  501 -0.00000000000E+00  0.00000000000E+00  0.50164076627E+03  0.50164076627E+03  0.00000000000E+00 0.  1.
          1   -1    0    0  502    0  0.00000000000E+00 -0.00000000000E+00 -0.23434550459E+04  0.23434550459E+04  0.00000000000E+00 0. -1.
    9000010    2    1    2  502    0 -0.31036730343E+03 -0.19898036251E+03 -0.12903681748E+04  0.16614931547E+04  0.97958584559E+03 0.  0.
   -9000010    2    1    2    0  501  0.31036730343E+03  0.19898036251E+03 -0.55144610485E+03  0.11836026575E+04  0.98025578118E+03 0.  0.
        -13    1    3    3    0    0 -0.23547229269E+03 -0.42561459423E+03 -0.13330485841E+04  0.14190185066E+04  0.10566000000E+00 0.  1.
          4    1    3    3  502    0 -0.74895010739E+02  0.22663423172E+03  0.42680409294E+02  0.24247464807E+03  0.00000000000E+00 0.  1.
         13    1    4    4    0    0 -0.30467416353E+03  0.28546041306E+03 -0.29720649794E+03  0.51248971397E+03  0.10566000000E+00 0. -1.
         -4    1    4    4    0  501  0.61504146696E+03 -0.86480050555E+02 -0.25423960691E+03  0.67111294351E+03  0.00000000000E+00 0. -1.
<mgrwt>
<rscale>  2 0.10469794E+04</rscale>
<asrwt>0</asrwt>
<pdfrwt beam="2">  1        1 0.36053155E+00 0.10469794E+04</pdfrwt>
<pdfrwt beam="1">  1       -1 0.77175502E-01 0.10469794E+04</pdfrwt>
<totfact> 0.34735162E+00</totfact>
</mgrwt>
</event>
<event>
 8    1  0.1449514E-005  0.1209747E+04  0.7818608E-02  0.8599259E-01
         -2   -1    0    0    0  501 -0.00000000000E+00  0.00000000000E+00  0.89566287309E+03  0.89566287309E+03  0.00000000000E+00 0. -1.
          2   -1    0    0  502    0  0.00000000000E+00 -0.00000000000E+00 -0.16371587347E+04  0.16371587347E+04  0.00000000000E+00 0.  1.
    9000010    2    1    2  502    0 -0.51830719959E+03 -0.42795708042E+03 -0.31996855626E+03  0.12630027917E+04  0.10202972895E+04 0.  0.
   -9000010    2    1    2    0  501  0.51830719959E+03  0.42795708042E+03 -0.42152730531E+03  0.12698188160E+04  0.99144588385E+03 0.  0.
        -13    1    3    3    0    0  0.97048564011E+02  0.44212291542E+02  0.26882364036E+03  0.28920461836E+03  0.10566000000E+00 0.  1.
          4    1    3    3  502    0 -0.61535576360E+03 -0.47216937196E+03 -0.58879219662E+03  0.97379817335E+03  0.00000000000E+00 0.  1.
         13    1    4    4    0    0  0.14769901665E+03  0.66142008014E+03 -0.47637267826E+03  0.82838545477E+03  0.10566000000E+00 0. -1.
         -4    1    4    4    0  501  0.37060818294E+03 -0.23346299972E+03  0.54845372948E+02  0.44143336126E+03  0.00000000000E+00 0. -1.
<mgrwt>
<rscale>  2 0.12097469E+04</rscale>
<asrwt>0</asrwt>
<pdfrwt beam="2">  1        2 0.25187058E+00 0.12097469E+04</pdfrwt>
<pdfrwt beam="1">  1       -2 0.13779429E+00 0.12097469E+04</pdfrwt>
<totfact> 0.56865366E+00</totfact>
</mgrwt>
</event>
<event>
 8    1  0.1449514E-005  0.1271218E+04  0.7818608E-02  0.8554780E-01
          2   -1    0    0  502    0  0.00000000000E+00  0.00000000000E+00  0.26838033743E+04  0.26838033743E+04  0.00000000000E+00 0. -1.
         -2   -1    0    0    0  501 -0.00000000000E+00 -0.00000000000E+00 -0.61480186716E+03  0.61480186716E+03  0.00000000000E+00 0.  1.
    9000010    2    1    2  502    0  0.72012557646E+03 -0.32179746545E+03  0.79820281501E+03  0.15015691206E+04  0.99772122127E+03 0.  0.
   -9000010    2    1    2    0  501 -0.72012557646E+03  0.32179746545E+03  0.12707986921E+04  0.17970361209E+04  0.99613003630E+03 0.  0.
        -13    1    3    3    0    0  0.26678283167E+03 -0.60857731862E+03  0.19108836993E+03  0.69141464281E+03  0.10566000000E+00 0.  1.
          4    1    3    3  502    0  0.45334274479E+03  0.28677985317E+03  0.60711444508E+03  0.81015447777E+03  0.00000000000E+00 0.  1.
         13    1    4    4    0    0 -0.15186223467E+03  0.20335763320E+03  0.11830472599E+04  0.12099658241E+04  0.10566000000E+00 0. -1.
         -4    1    4    4    0  501 -0.56826334179E+03  0.11843983224E+03  0.87751432277E+02  0.58707029677E+03  0.00000000000E+00 0. -1.
<mgrwt>
<rscale>  2 0.12712179E+04</rscale>
<asrwt>0</asrwt>
<pdfrwt beam="1">  1        2 0.41289282E+00 0.12712179E+04</pdfrwt>
<pdfrwt beam="2">  1       -2 0.94584904E-01 0.12712179E+04</pdfrwt>
<totfact> 0.39508050E+00</totfact>
</mgrwt>
</event>
<event>
 8    1  0.1449514E-005  0.1228666E+04  0.7818608E-02  0.8585283E-01
          1   -1    0    0  502    0  0.00000000000E+00  0.00000000000E+00  0.16391628261E+04  0.16391628261E+04  0.00000000000E+00 0. -1.
         -1   -1    0    0    0  501 -0.00000000000E+00 -0.00000000000E+00 -0.98018539923E+03  0.98018539923E+03  0.00000000000E+00 0.  1.
    9000010    2    1    2  502    0  0.62775437178E+03 -0.33664760618E+03  0.65090708852E+03  0.13887522254E+04  0.99877201790E+03 0.  0.
   -9000010    2    1    2    0  501 -0.62775437178E+03  0.33664760618E+03  0.80703383776E+01  0.12305959999E+04  0.10034411904E+04 0.  0.
        -13    1    3    3    0    0 -0.12957958124E+03 -0.41246574336E+03  0.85778729088E+02  0.44076848668E+03  0.10566000000E+00 0.  1.
          4    1    3    3  502    0  0.75733395302E+03  0.75818137180E+02  0.56512835944E+03  0.94798373876E+03  0.00000000000E+00 0.  1.
         13    1    4    4    0    0 -0.40547021664E+03  0.69683708010E+03 -0.19360738688E+02  0.80645078098E+03  0.10566000000E+00 0. -1.
         -4    1    4    4    0  501 -0.22228415514E+03 -0.36018947392E+03  0.27431077066E+02  0.42414521892E+03  0.00000000000E+00 0. -1.
<mgrwt>
<rscale>  2 0.12286659E+04</rscale>
<asrwt>0</asrwt>
<pdfrwt beam="1">  1        1 0.25217890E+00 0.12286659E+04</pdfrwt>
<pdfrwt beam="2">  1       -1 0.15079775E+00 0.12286659E+04</pdfrwt>
<totfact> 0.24841517E+00</totfact>
</mgrwt>
</event>
<event>
 8    1  0.1449514E-005  0.1093430E+04  0.7818608E-02  0.8691446E-01
         -4   -1    0    0    0  501 -0.00000000000E+00  0.00000000000E+00  0.22082636364E+04  0.22082636364E+04  0.00000000000E+00 0. -1.
          4   -1    0    0  502    0  0.00000000000E+00 -0.00000000000E+00 -0.74684661421E+03  0.74684661421E+03  0.00000000000E+00 0.  1.
    9000010    2    1    2  502    0 -0.62015380784E+03 -0.53687816934E+02 -0.41423986523E+01  0.11669229273E+04  0.98702524377E+03 0.  0.
   -9000010    2    1    2    0  501  0.62015380784E+03  0.53687816934E+02  0.14655594208E+04  0.17881873233E+04  0.81380363725E+03 0.  0.
        -13    1    3    3    0    0 -0.52973063066E+03  0.17641612950E+03 -0.40930055209E+03  0.69228906168E+03  0.10566000000E+00 0.  1.
          4    1    3    3  502    0 -0.90423177171E+02 -0.23010394644E+03  0.40515815344E+03  0.47463386567E+03  0.00000000000E+00 0.  1.
         13    1    4    4    0    0  0.79650561815E+02  0.65804397945E+02  0.11650918305E+04  0.11696638044E+04  0.10566000000E+00 0. -1.
         -4    1    4    4    0  501  0.54050324602E+03 -0.12116581011E+02  0.30046759037E+03  0.61852351884E+03  0.00000000000E+00 0. -1.
<mgrwt>
<rscale>  2 0.10934304E+04</rscale>
<asrwt>0</asrwt>
<pdfrwt beam="2">  1        4 0.11489948E+00 0.10934304E+04</pdfrwt>
<pdfrwt beam="1">  1       -4 0.33973286E+00 0.10934304E+04</pdfrwt>
<totfact> 0.17986703E-01</totfact>
</mgrwt>
</event>
<event>
 8    1  0.1449514E-005  0.1214044E+04  0.7818608E-02  0.8596061E-01
          1   -1    0    0  502    0  0.00000000000E+00  0.00000000000E+00  0.17485501952E+04  0.17485501952E+04  0.00000000000E+00 0.  1.
         -1   -1    0    0    0  501 -0.00000000000E+00 -0.00000000000E+00 -0.85658358470E+03  0.85658358470E+03  0.00000000000E+00 0. -1.
    9000010    2    1    2  502    0  0.70650664408E+03 -0.18997182272E+02  0.28249242012E+03  0.12490340753E+04  0.99033914537E+03 0.  0.
   -9000010    2    1    2    0  501 -0.70650664408E+03  0.18997182272E+02  0.60947419042E+03  0.13560997046E+04  0.98388774208E+03 0.  0.
        -13    1    3    3    0    0 -0.20798080327E+02  0.33605990574E+02  0.48943948625E+03  0.49103252908E+03  0.10566000000E+00 0.  1.
          4    1    3    3  502    0  0.72730472441E+03 -0.52603172845E+02 -0.20694706613E+03  0.75800154625E+03  0.00000000000E+00 0.  1.
         13    1    4    4    0    0 -0.26987911553E+03  0.49411400582E+03  0.23545166999E+03  0.61026296612E+03  0.10566000000E+00 0. -1.
         -4    1    4    4    0  501 -0.43662752855E+03 -0.47511682355E+03  0.37402252043E+03  0.74583673850E+03  0.00000000000E+00 0. -1.
<mgrwt>
<rscale>  2 0.12140437E+04</rscale>
<asrwt>0</asrwt>
<pdfrwt beam="1">  1        1 0.26900772E+00 0.12140437E+04</pdfrwt>
<pdfrwt beam="2">  1       -1 0.13178209E+00 0.12140437E+04</pdfrwt>
<totfact> 0.30186189E+00</totfact>
</mgrwt>
</event>
<event>
 8    1  0.1449514E-005  0.1193413E+04  0.7818608E-02  0.8611539E-01
         -2   -1    0    0    0  501 -0.00000000000E+00  0.00000000000E+00  0.13584177737E+04  0.13584177737E+04  0.00000000000E+00 0. -1.
          2   -1    0    0  502    0  0.00000000000E+00 -0.00000000000E+00 -0.11175936842E+04  0.11175936842E+04  0.00000000000E+00 0.  1.
    9000010    2    1    2  502    0  0.62698182347E+03  0.55685550551E+02  0.42926860406E+03  0.12803314421E+04  0.10289654900E+04 0.  0.
   -9000010    2    1    2    0  501 -0.62698182347E+03 -0.55685550551E+02 -0.18844451462E+03  0.11956800159E+04  0.99896560391E+03 0.  0.
        -13    1    3    3    0    0 -0.59675260829E+02  0.39224609175E+03  0.31613230372E+03  0.50730442327E+03  0.10566000000E+00 0.  1.
          4    1    3    3  502    0  0.68665708430E+03 -0.33656054120E+03  0.11313630034E+03  0.77302701878E+03  0.00000000000E+00 0.  1.
         13    1    4    4    0    0 -0.45715762741E+03 -0.41749090575E+03  0.18760153163E+03  0.64690501507E+03  0.10566000000E+00 0. -1.
         -4    1    4    4    0  501 -0.16982419605E+03  0.36180535520E+03 -0.37604604625E+03  0.54877500081E+03  0.00000000000E+00 0. -1.
<mgrwt>
<rscale>  2 0.11934125E+04</rscale>
<asrwt>0</asrwt>
<pdfrwt beam="2">  1        2 0.17193749E+00 0.11934125E+04</pdfrwt>
<pdfrwt beam="1">  1       -2 0.20898735E+00 0.11934125E+04</pdfrwt>
<totfact> 0.27520906E+00</totfact>
</mgrwt>
</event>
<event>
 8    1  0.1449514E-005  0.1176628E+04  0.7818608E-02  0.8624373E-01
          1   -1    0    0  502    0  0.00000000000E+00  0.00000000000E+00  0.18233979863E+04  0.18233979863E+04  0.00000000000E+00 0. -1.
         -1   -1    0    0    0  501 -0.00000000000E+00 -0.00000000000E+00 -0.76054269228E+03  0.76054269228E+03  0.00000000000E+00 0.  1.
    9000010    2    1    2  502    0  0.61365702801E+03 -0.57098191334E+01  0.48100038692E+03  0.12755400797E+04  0.10094719276E+04 0.  0.
   -9000010    2    1    2    0  501 -0.61365702801E+03  0.57098191334E+01  0.58185490709E+03  0.13084005989E+04  0.99837339920E+03 0.  0.
        -13    1    3    3    0    0  0.35475078566E+03 -0.11873462230E+03  0.77946033765E+03  0.86458340233E+03  0.10566000000E+00 0.  1.
          4    1    3    3  502    0  0.25890624236E+03  0.11302480316E+03 -0.29845995073E+03  0.41095667734E+03  0.00000000000E+00 0.  1.
         13    1    4    4    0    0 -0.60558621708E+03  0.88219648173E+02 -0.10123780350E+03  0.62029547529E+03  0.10566000000E+00 0. -1.
         -4    1    4    4    0  501 -0.80708109328E+01 -0.82509829039E+02  0.68309271059E+03  0.68810512361E+03  0.00000000000E+00 0. -1.
<mgrwt>
<rscale>  2 0.11766283E+04</rscale>
<asrwt>0</asrwt>
<pdfrwt beam="1">  1        1 0.28052276E+00 0.11766283E+04</pdfrwt>
<pdfrwt beam="2">  1       -1 0.11700657E+00 0.11766283E+04</pdfrwt>
<totfact> 0.36031036E+00</totfact>
</mgrwt>
</event>
<event>
 8    1  0.1449514E-005  0.1367259E+04  0.7818608E-02  0.8490244E-01
         -1   -1    0    0    0  501 -0.00000000000E+00  0.00000000000E+00  0.94498305287E+03  0.94498305287E+03  0.00000000000E+00 0.  1.
          1   -1    0    0  502    0  0.00000000000E+00 -0.00000000000E+00 -0.19923548259E+04  0.19923548259E+04  0.00000000000E+00 0. -1.
    9000010    2    1    2  502    0 -0.86015165379E+03  0.46735816415E+03 -0.62744380891E+03  0.14721481008E+04  0.90291183197E+03 0.  0.
   -9000010    2    1    2    0  501  0.86015165379E+03 -0.46735816415E+03 -0.41992796413E+03  0.14651897780E+04  0.10060601718E+04 0.  0.
        -13    1    3    3    0    0 -0.37221953263E+03 -0.24241354101E+03 -0.79330787907E+02  0.45122620758E+03  0.10566000000E+00 0.  1.
          4    1    3    3  502    0 -0.48793212116E+03  0.70977170516E+03 -0.54811302101E+03  0.10209218932E+04  0.00000000000E+00 0.  1.
         13    1    4    4    0    0  0.20453235506E+03  0.14786385108E+03  0.24127649304E+03  0.34915835947E+03  0.10566000000E+00 0. -1.
         -4    1    4    4    0  501  0.65561929873E+03 -0.61522201523E+03 -0.66120445717E+03  0.11160314185E+04  0.00000000000E+00 0. -1.
<mgrwt>
<rscale>  2 0.13672590E+04</rscale>
<asrwt>0</asrwt>
<pdfrwt beam="2">  1        1 0.30651612E+00 0.13672590E+04</pdfrwt>
<pdfrwt beam="1">  1       -1 0.14538201E+00 0.13672590E+04</pdfrwt>
<totfact> 0.14764023E+00</totfact>
</mgrwt>
</event>
<event>
 8    1  0.1449514E-005  0.1350166E+04  0.7818608E-02  0.8501323E-01
         -4   -1    0    0    0  501 -0.00000000000E+00  0.00000000000E+00  0.12005087609E+04  0.12005087609E+04  0.00000000000E+00 0.  1.
          4   -1    0    0  502    0  0.00000000000E+00 -0.00000000000E+00 -0.16163963636E+04  0.16163963636E+04  0.00000000000E+00 0. -1.
    9000010    2    1    2  502    0 -0.87826216293E+03 -0.20559267957E+03  0.13866636895E+03  0.13575713529E+04  0.10050665847E+04 0.  0.
   -9000010    2    1    2    0  501  0.87826216293E+03  0.20559267957E+03 -0.55455397166E+03  0.14593337716E+04  0.10042470676E+04 0.  0.
        -13    1    3    3    0    0 -0.70780232865E+03 -0.21847085543E+03  0.54308555440E+03  0.91850725728E+03  0.10566000000E+00 0.  1.
          4    1    3    3  502    0 -0.17045983428E+03  0.12878175868E+02 -0.40441918545E+03  0.43906409564E+03  0.00000000000E+00 0.  1.
         13    1    4    4    0    0  0.33198250283E+03  0.38335965931E+03  0.16982695296E+03  0.53480670871E+03  0.10566000000E+00 0. -1.
         -4    1    4    4    0  501  0.54627966010E+03 -0.17776697974E+03 -0.72438092462E+03  0.92452706293E+03  0.00000000000E+00 0. -1.
<mgrwt>
<rscale>  2 0.13501660E+04</rscale>
<asrwt>0</asrwt>
<pdfrwt beam="2">  1        4 0.24867636E+00 0.13501660E+04</pdfrwt>
<pdfrwt beam="1">  1       -4 0.18469366E+00 0.13501660E+04</pdfrwt>
<totfact> 0.15049035E-01</totfact>
</mgrwt>
</event>
<event>
 8    1  0.1449514E-005  0.2257972E+04  0.7818608E-02  0.8070772E-01
         -1   -1    0    0    0  501 -0.00000000000E+00  0.00000000000E+00  0.33159005696E+04  0.33159005696E+04  0.00000000000E+00 0. -1.
          1   -1    0    0  502    0  0.00000000000E+00 -0.00000000000E+00 -0.19740436570E+04  0.19740436570E+04  0.00000000000E+00 0.  1.
    9000010    2    1    2  502    0 -0.19765436371E+04 -0.21476154824E+03  0.19211466171E+04  0.29878566675E+04  0.11329765527E+04 0.  0.
   -9000010    2    1    2    0  501  0.19765436371E+04  0.21476154824E+03 -0.57928970449E+03  0.23020875592E+04  0.10055761017E+04 0.  0.
        -13    1    3    3    0    0 -0.10469373141E+04  0.40093859010E+03  0.12804495515E+04  0.17018756000E+04  0.10566000000E+00 0.  1.
          4    1    3    3  502    0 -0.92960632298E+03 -0.61570013834E+03  0.64069706558E+03  0.12859810675E+04  0.00000000000E+00 0.  1.
         13    1    4    4    0    0  0.12016842866E+04  0.36237512529E+03 -0.79324747278E+03  0.14847903624E+04  0.10566000000E+00 0. -1.
         -4    1    4    4    0  501  0.77485935057E+03 -0.14761357705E+03  0.21395776830E+03  0.81729719681E+03  0.00000000000E+00 0. -1.
<mgrwt>
<rscale>  2 0.22579719E+04</rscale>
<asrwt>0</asrwt>
<pdfrwt beam="2">  1        1 0.30369903E+00 0.22579719E+04</pdfrwt>
<pdfrwt beam="1">  1       -1 0.51013855E+00 0.22579719E+04</pdfrwt>
<totfact> 0.28342688E-02</totfact>
</mgrwt>
</event>
<event>
 8    1  0.1449514E-005  0.1138840E+04  0.7818608E-02  0.8654098E-01
         -2   -1    0    0    0  501 -0.00000000000E+00  0.00000000000E+00  0.45556406531E+03  0.45556406531E+03  0.00000000000E+00 0.  1.
          2   -1    0    0  502    0  0.00000000000E+00 -0.00000000000E+00 -0.28996143121E+04  0.28996143121E+04  0.00000000000E+00 0. -1.
    9000010    2    1    2  502    0  0.56966452040E+03  0.17628644384E+03 -0.14134376675E+04  0.17972784798E+04  0.93638096842E+03 0.  0.
   -9000010    2    1    2    0  501 -0.56966452040E+03 -0.17628644384E+03 -0.10306125793E+04  0.15578998976E+04  0.10046368629E+04 0.  0.
        -13    1    3    3    0    0  0.15622927563E+03  0.39466830223E+03 -0.12191902866E+04  0.12909669328E+04  0.10566000000E+00 0.  1.
          4    1    3    3  502    0  0.41343524478E+03 -0.21838185839E+03 -0.19424738089E+03  0.50631154705E+03  0.00000000000E+00 0.  1.
         13    1    4    4    0    0 -0.36962404298E+02 -0.17299960021E+03  0.16941741076E+03  0.24494356745E+03  0.10566000000E+00 0. -1.
         -4    1    4    4    0  501 -0.53270211610E+03 -0.32868436311E+01 -0.12000299900E+04  0.13129563301E+04  0.00000000000E+00 0. -1.
<mgrwt>
<rscale>  2 0.11388399E+04</rscale>
<asrwt>0</asrwt>
<pdfrwt beam="2">  1        2 0.44609453E+00 0.11388399E+04</pdfrwt>
<pdfrwt beam="1">  1       -2 0.70086776E-01 0.11388399E+04</pdfrwt>
<totfact> 0.58048580E+00</totfact>
</mgrwt>
</event>
<event>
 8    1  0.1449514E-005  0.1237779E+04  0.7818608E-02  0.8578644E-01
         -4   -1    0    0    0  501 -0.00000000000E+00  0.00000000000E+00  0.55466507924E+03  0.55466507924E+03  0.00000000000E+00 0. -1.
          4   -1    0    0  502    0  0.00000000000E+00 -0.00000000000E+00 -0.28943835854E+04  0.28943835854E+04  0.00000000000E+00 0.  1.
    9000010    2    1    2  502    0 -0.65323437160E+02 -0.72182775665E+03 -0.15357473573E+04  0.19706431966E+04  0.99980608183E+03 0.  0.
   -9000010    2    1    2    0  501  0.65323437160E+02  0.72182775665E+03 -0.80397114888E+03  0.14784054680E+04  0.10069809621E+04 0.  0.
        -13    1    3    3    0    0  0.32937067211E+03 -0.27311420913E+03 -0.13649320572E+03  0.44911782112E+03  0.10566000000E+00 0.  1.
          4    1    3    3  502    0 -0.39469410927E+03 -0.44871354752E+03 -0.13992541515E+04  0.15215253755E+04  0.00000000000E+00 0.  1.
         13    1    4    4    0    0 -0.42533959816E+03  0.55192411532E+03 -0.60345354228E+03  0.92178641327E+03  0.10566000000E+00 0. -1.
         -4    1    4    4    0  501  0.49066303532E+03  0.16990364132E+03 -0.20051760660E+03  0.55661905476E+03  0.00000000000E+00 0. -1.
<mgrwt>
<rscale>  2 0.12377791E+04</rscale>
<asrwt>0</asrwt>
<pdfrwt beam="2">  1        4 0.44528978E+00 0.12377791E+04</pdfrwt>
<pdfrwt beam="1">  1       -4 0.85333090E-01 0.12377791E+04</pdfrwt>
<totfact> 0.12174764E-01</totfact>
</mgrwt>
</event>
<event>
 8    1  0.1449514E-005  0.1254199E+04  0.7818608E-02  0.8566830E-01
         -2   -1    0    0    0  501 -0.00000000000E+00  0.00000000000E+00  0.49060059554E+03  0.49060059554E+03  0.00000000000E+00 0.  1.
          2   -1    0    0  502    0  0.00000000000E+00 -0.00000000000E+00 -0.33692474074E+04  0.33692474074E+04  0.00000000000E+00 0. -1.
    9000010    2    1    2  502    0 -0.23702649140E+03 -0.72991332515E+03 -0.18452360011E+04  0.22220776119E+04  0.97148236920E+03 0.  0.
   -9000010    2    1    2    0  501  0.23702649140E+03  0.72991332515E+03 -0.10334108108E+04  0.16377703911E+04  0.10126198350E+04 0.  0.
        -13    1    3    3    0    0  0.11900157930E+03 -0.41697769380E+03 -0.14534675433E+03  0.45733736252E+03  0.10566000000E+00 0.  1.
          4    1    3    3  502    0 -0.35602807070E+03 -0.31293563135E+03 -0.16998892467E+04  0.17647402494E+04  0.00000000000E+00 0.  1.
         13    1    4    4    0    0 -0.80544204413E+02  0.34241137873E+03 -0.10788109763E+04  0.11347096787E+04  0.10566000000E+00 0. -1.
         -4    1    4    4    0  501  0.31757069581E+03  0.38750194642E+03  0.45400165517E+02  0.50306071239E+03  0.00000000000E+00 0. -1.
<mgrwt>
<rscale>  2 0.12541986E+04</rscale>
<asrwt>0</asrwt>
<pdfrwt beam="2">  1        2 0.51834577E+00 0.12541986E+04</pdfrwt>
<pdfrwt beam="1">  1       -2 0.75477012E-01 0.12541986E+04</pdfrwt>
<totfact> 0.24435835E+00</totfact>
</mgrwt>
</event>
<event>
 8    1  0.1449514E-005  0.2096134E+04  0.7818608E-02  0.8130335E-01
         -4   -1    0    0    0  501 -0.00000000000E+00  0.00000000000E+00  0.17348397201E+04  0.17348397201E+04  0.00000000000E+00 0. -1.
          4   -1    0    0  502    0  0.00000000000E+00 -0.00000000000E+00 -0.26358046689E+04  0.26358046689E+04  0.00000000000E+00 0.  1.
    9000010    2    1    2  502    0  0.18266594788E+04  0.24199638004E+03 -0.88288158059E+03  0.22750276311E+04  0.10005117378E+04 0.  0.
   -9000010    2    1    2    0  501 -0.18266594788E+04 -0.24199638004E+03 -0.18083368211E+02  0.20956167580E+04  0.99801577582E+03 0.  0.
        -13    1    3    3    0    0  0.38251839550E+03 -0.37039209509E+02  0.21431127597E+03  0.44002449944E+03  0.10566000000E+00 0.  1.
          4    1    3    3  502    0  0.14441410833E+04  0.27903558955E+03 -0.10971928566E+04  0.18350031316E+04  0.00000000000E+00 0.  1.
         13    1    4    4    0    0 -0.13126847271E+04 -0.47901619651E+03  0.32380225461E+03  0.14343798732E+04  0.10566000000E+00 0. -1.
         -4    1    4    4    0  501 -0.51397475162E+03  0.23701981646E+03 -0.34188562282E+03  0.66123688478E+03  0.00000000000E+00 0. -1.
<mgrwt>
<rscale>  2 0.20961336E+04</rscale>
<asrwt>0</asrwt>
<pdfrwt beam="2">  1        4 0.40550841E+00 0.20961336E+04</pdfrwt>
<pdfrwt beam="1">  1       -4 0.26689842E+00 0.20961336E+04</pdfrwt>
<totfact> 0.28156479E-02</totfact>
</mgrwt>
</event>
<event>
 8    1  0.1449514E-005  0.2223176E+04  0.7818608E-02  0.8083135E-01
          4   -1    0    0  502    0  0.00000000000E+00  0.00000000000E+00  0.27400003404E+04  0.27400003404E+04  0.00000000000E+00 0.  1.
         -4   -1    0    0    0  501 -0.00000000000E+00 -0.00000000000E+00 -0.18549766448E+04  0.18549766448E+04  0.00000000000E+00 0. -1.
    9000010    2    1    2  502    0  0.55656913124E+02 -0.19906771614E+04  0.82342000703E+03  0.23680635351E+04  0.98173883752E+03 0.  0.
   -9000010    2    1    2    0  501 -0.55656913124E+02  0.19906771614E+04  0.61603688557E+02  0.22269134501E+04  0.99471365055E+03 0.  0.
        -13    1    3    3    0    0  0.11159922820E+03 -0.18627114321E+04  0.38156545067E+03  0.19046628235E+04  0.10566000000E+00 0.  1.
          4    1    3    3  502    0 -0.55942315077E+02 -0.12796572936E+03  0.44185455636E+03  0.46340071157E+03  0.00000000000E+00 0.  1.
         13    1    4    4    0    0 -0.19224791364E+03  0.85177207791E+03  0.49139687288E+03  0.10019709731E+04  0.10566000000E+00 0. -1.
         -4    1    4    4    0  501  0.13659100051E+03  0.11389050835E+04 -0.42979318432E+03  0.12249424770E+04  0.00000000000E+00 0. -1.
<mgrwt>
<rscale>  2 0.22231756E+04</rscale>
<asrwt>0</asrwt>
<pdfrwt beam="1">  1        4 0.42153851E+00 0.22231756E+04</pdfrwt>
<pdfrwt beam="2">  1       -4 0.28538102E+00 0.22231756E+04</pdfrwt>
<totfact> 0.21379022E-02</totfact>
</mgrwt>
</event>
<event>
 8    1  0.1449514E-005  0.1206117E+04  0.7818608E-02  0.8601970E-01
          2   -1    0    0  502    0  0.00000000000E+00  0.00000000000E+00  0.12965047266E+04  0.12965047266E+04  0.00000000000E+00 0. -1.
         -2   -1    0    0    0  501 -0.00000000000E+00 -0.00000000000E+00 -0.11220962056E+04  0.11220962056E+04  0.00000000000E+00 0.  1.
    9000010    2    1    2  502    0 -0.47373388974E+03 -0.49487982027E+03  0.95649334687E+02  0.12141508892E+04  0.99783954208E+03 0.  0.
   -9000010    2    1    2    0  501  0.47373388974E+03  0.49487982027E+03  0.78759186321E+02  0.12044500429E+04  0.98750547425E+03 0.  0.
        -13    1    3    3    0    0 -0.17564148758E+03 -0.56264804186E+03  0.45335906265E+03  0.74361092113E+03  0.10566000000E+00 0.  1.
          4    1    3    3  502    0 -0.29809240216E+03  0.67768221595E+02 -0.35770972796E+03  0.47053996808E+03  0.00000000000E+00 0.  1.
         13    1    4    4    0    0  0.42519003030E+03  0.69004902492E+03 -0.22406312308E+03  0.84092717459E+03  0.10566000000E+00 0. -1.
         -4    1    4    4    0  501  0.48543859434E+02 -0.19516920465E+03  0.30282230940E+03  0.36352286834E+03  0.00000000000E+00 0. -1.
<mgrwt>
<rscale>  2 0.12061174E+04</rscale>
<asrwt>0</asrwt>
<pdfrwt beam="1">  1        2 0.19946226E+00 0.12061174E+04</pdfrwt>
<pdfrwt beam="2">  1       -2 0.17263019E+00 0.12061174E+04</pdfrwt>
<totfact> 0.43509885E+00</totfact>
</mgrwt>
</event>
<event>
 8    1  0.1449514E-005  0.1053180E+04  0.7818608E-02  0.8726167E-01
         -4   -1    0    0    0  501 -0.00000000000E+00  0.00000000000E+00  0.64361848743E+03  0.64361848743E+03  0.00000000000E+00 0. -1.
          4   -1    0    0  502    0  0.00000000000E+00 -0.00000000000E+00 -0.20277165953E+04  0.20277165953E+04  0.00000000000E+00 0.  1.
    9000010    2    1    2  502    0 -0.50506521507E+03 -0.27399900628E+03 -0.18762343090E+03  0.10916839783E+04  0.90906822059E+03 0.  0.
   -9000010    2    1    2    0  501  0.50506521507E+03  0.27399900628E+03 -0.11964746770E+04  0.15796511045E+04  0.85649263410E+03 0.  0.
        -13    1    3    3    0    0 -0.34272270939E+03  0.31004811877E+03 -0.14335673518E+03  0.48388000183E+03  0.10566000000E+00 0.  1.
          4    1    3    3  502    0 -0.16234250568E+03 -0.58404712505E+03 -0.44266695715E+02  0.60780397644E+03  0.00000000000E+00 0.  1.
         13    1    4    4    0    0  0.60203489897E+03  0.28684957005E+03 -0.40094359407E+03  0.77812882751E+03  0.10566000000E+00 0. -1.
         -4    1    4    4    0  501 -0.96969683899E+02 -0.12850563766E+02 -0.79553108290E+03  0.80152227695E+03  0.00000000000E+00 0. -1.
<mgrwt>
<rscale>  2 0.10531800E+04</rscale>
<asrwt>0</asrwt>
<pdfrwt beam="2">  1        4 0.31195639E+00 0.10531800E+04</pdfrwt>
<pdfrwt beam="1">  1       -4 0.99018231E-01 0.10531800E+04</pdfrwt>
<totfact> 0.28383160E-01</totfact>
</mgrwt>
</event>
<event>
 8    1  0.1449514E-005  0.1515308E+04  0.7818608E-02  0.8400744E-01
         -4   -1    0    0    0  501 -0.00000000000E+00  0.00000000000E+00  0.20851320359E+04  0.20851320359E+04  0.00000000000E+00 0.  1.
          4   -1    0    0  502    0  0.00000000000E+00 -0.00000000000E+00 -0.11043756690E+04  0.11043756690E+04  0.00000000000E+00 0. -1.
    9000010    2    1    2  502    0 -0.40553329321E+03 -0.10698215845E+04  0.57567930931E+03  0.16205355600E+04  0.99285112660E+03 0.  0.
   -9000010    2    1    2    0  501  0.40553329321E+03  0.10698215845E+04  0.40507705756E+03  0.15689721449E+04  0.99428903956E+03 0.  0.
        -13    1    3    3    0    0 -0.72554673233E+03 -0.74813527420E+03  0.28064106411E+03  0.10792978585E+04  0.10566000000E+00 0.  1.
          4    1    3    3  502    0  0.32001343911E+03 -0.32168631031E+03  0.29503824521E+03  0.54123770156E+03  0.00000000000E+00 0.  1.
         13    1    4    4    0    0  0.67835797837E+02  0.11016570881E+04  0.50724972318E+03  0.12147231487E+04  0.10566000000E+00 0. -1.
         -4    1    4    4    0  501  0.33769749538E+03 -0.31835503566E+02 -0.10217266562E+03  0.35424899615E+03  0.00000000000E+00 0. -1.
<mgrwt>
<rscale>  2 0.15153076E+04</rscale>
<asrwt>0</asrwt>
<pdfrwt beam="2">  1        4 0.16990395E+00 0.15153076E+04</pdfrwt>
<pdfrwt beam="1">  1       -4 0.32078954E+00 0.15153076E+04</pdfrwt>
<totfact> 0.10876759E-01</totfact>
</mgrwt>
</event>
<event>
 8    1  0.1449514E-005  0.1091861E+04  0.7818608E-02  0.8692771E-01
         -1   -1    0    0    0  501 -0.00000000000E+00  0.00000000000E+00  0.74797241594E+03  0.74797241594E+03  0.00000000000E+00 0. -1.
          1   -1    0    0  502    0  0.00000000000E+00 -0.00000000000E+00 -0.16685438465E+04  0.16685438465E+04  0.00000000000E+00 0.  1.
    9000010    2    1    2  502    0  0.13045073875E+03  0.38209005316E+03 -0.71833280707E+03  0.13121825120E+04  0.10211810413E+04 0.  0.
   -9000010    2    1    2    0  501 -0.13045073875E+03 -0.38209005316E+03 -0.20223862351E+03  0.11043337505E+04  0.10077908353E+04 0.  0.
        -13    1    3    3    0    0  0.42596058915E+03 -0.12292721246E+03 -0.87742777209E+02  0.45194283841E+03  0.10566000000E+00 0.  1.
          4    1    3    3  502    0 -0.29550985040E+03  0.50501726562E+03 -0.63059002986E+03  0.86023967359E+03  0.00000000000E+00 0.  1.
         13    1    4    4    0    0  0.88885803788E+02 -0.62860847004E+03 -0.36932419712E+03  0.73447237420E+03  0.10566000000E+00 0. -1.
         -4    1    4    4    0  501 -0.21933654253E+03  0.24651841688E+03  0.16708557360E+03  0.36986137627E+03  0.00000000000E+00 0. -1.
<mgrwt>
<rscale>  2 0.10918605E+04</rscale>
<asrwt>0</asrwt>
<pdfrwt beam="2">  1        1 0.25669905E+00 0.10918605E+04</pdfrwt>
<pdfrwt beam="1">  1       -1 0.11507268E+00 0.10918605E+04</pdfrwt>
<totfact> 0.49458876E+00</totfact>
</mgrwt>
</event>
<event>
 8    1  0.1449514E-005  0.1278673E+04  0.7818608E-02  0.8549563E-01
          1   -1    0    0  502    0  0.00000000000E+00  0.00000000000E+00  0.21097671150E+04  0.21097671150E+04  0.00000000000E+00 0.  1.
         -1   -1    0    0    0  501 -0.00000000000E+00 -0.00000000000E+00 -0.78531436569E+03  0.78531436569E+03  0.00000000000E+00 0. -1.
    9000010    2    1    2  502    0 -0.65757396316E+03 -0.50651366467E+03  0.51473603484E+03  0.14063455067E+04  0.10118769140E+04 0.  0.
   -9000010    2    1    2    0  501  0.65757396316E+03  0.50651366467E+03  0.80971671447E+03  0.14887359740E+04  0.93366698188E+03 0.  0.
        -13    1    3    3    0    0 -0.67083192050E+03 -0.28159300909E+02 -0.41360864543E+02  0.67269543188E+03  0.10566000000E+00 0.  1.
          4    1    3    3  502    0  0.13257957339E+02 -0.47835436376E+03  0.55609689938E+03  0.73365007481E+03  0.00000000000E+00 0.  1.
         13    1    4    4    0    0  0.68400109388E+02  0.11438067172E+03  0.76831415376E+03  0.77978725500E+03  0.10566000000E+00 0. -1.
         -4    1    4    4    0  501  0.58917385378E+03  0.39213299295E+03  0.41402560710E+02  0.70894871900E+03  0.00000000000E+00 0. -1.
<mgrwt>
<rscale>  2 0.12786731E+04</rscale>
<asrwt>0</asrwt>
<pdfrwt beam="1">  1        1 0.32457955E+00 0.12786731E+04</pdfrwt>
<pdfrwt beam="2">  1       -1 0.12081760E+00 0.12786731E+04</pdfrwt>
<totfact> 0.19923057E+00</totfact>
</mgrwt>
</event>
<event>
 8    1  0.1449514E-005  0.1111992E+04  0.7818608E-02  0.8675955E-01
         -2   -1    0    0    0  501 -0.00000000000E+00  0.00000000000E+00  0.74082179888E+03  0.74082179888E+03  0.00000000000E+00 0. -1.
          2   -1    0    0  502    0  0.00000000000E+00 -0.00000000000E+00 -0.17177538307E+04  0.17177538307E+04  0.00000000000E+00 0.  1.
    9000010    2    1    2  502    0  0.37187678324E+03  0.37297118466E+03 -0.69674377159E+03  0.13152048360E+04  0.98331685167E+03 0.  0.
   -9000010    2    1    2    0  501 -0.37187678324E+03 -0.37297118466E+03 -0.28018826022E+03  0.11433707936E+04  0.97539297929E+03 0.  0.
        -13    1    3    3    0    0 -0.25204966609E+03  0.27313667595E+01  0.67996884643E+02  0.26107485905E+03  0.10566000000E+00 0.  1.
          4    1    3    3  502    0  0.62392644933E+03  0.37023981790E+03 -0.76474065623E+03  0.10541299769E+04  0.00000000000E+00 0.  1.
         13    1    4    4    0    0  0.25660264310E+03 -0.36872369021E+03  0.13977903213E+02  0.44944128550E+03  0.10566000000E+00 0. -1.
         -4    1    4    4    0  501 -0.62847942634E+03 -0.42474944490E+01 -0.29416616344E+03  0.69392950813E+03  0.00000000000E+00 0. -1.
<mgrwt>
<rscale>  2 0.11119925E+04</rscale>
<asrwt>0</asrwt>
<pdfrwt beam="2">  1        2 0.26426982E+00 0.11119925E+04</pdfrwt>
<pdfrwt beam="1">  1       -2 0.11397258E+00 0.11119925E+04</pdfrwt>
<totfact> 0.86921058E+00</totfact>
</mgrwt>
</event>
<event>
 8    1  0.1449514E-005  0.1080799E+04  0.7818608E-02  0.8702172E-01
         -2   -1    0    0    0  501 -0.00000000000E+00  0.00000000000E+00  0.12051268025E+04  0.12051268025E+04  0.00000000000E+00 0.  1.
          2   -1    0    0  502    0  0.00000000000E+00 -0.00000000000E+00 -0.96933735370E+03  0.96933735370E+03  0.00000000000E+00 0. -1.
    9000010    2    1    2  502    0  0.11702758917E+03  0.39632024429E+03  0.11819389673E+03  0.10804918891E+04  0.99132624925E+03 0.  0.
   -9000010    2    1    2    0  501 -0.11702758917E+03 -0.39632024429E+03  0.11759555203E+03  0.10939722671E+04  0.10060722711E+04 0.  0.
        -13    1    3    3    0    0 -0.25369746545E+03  0.36734588019E+03 -0.28684294665E+03  0.53064516098E+03  0.10566000000E+00 0.  1.
          4    1    3    3  502    0  0.37072505461E+03  0.28974364100E+02  0.40503684338E+03  0.54984672809E+03  0.00000000000E+00 0.  1.
         13    1    4    4    0    0  0.34002910837E+02 -0.18635036296E+03 -0.44014568201E+03  0.47917730359E+03  0.10566000000E+00 0. -1.
         -4    1    4    4    0  501 -0.15103050000E+03 -0.20996988133E+03  0.55774123404E+03  0.61479496350E+03  0.00000000000E+00 0. -1.
<mgrwt>
<rscale>  2 0.10807992E+04</rscale>
<asrwt>0</asrwt>
<pdfrwt beam="2">  1        2 0.14912882E+00 0.10807992E+04</pdfrwt>
<pdfrwt beam="1">  1       -2 0.18540412E+00 0.10807992E+04</pdfrwt>
<totfact> 0.53509035E+00</totfact>
</mgrwt>
</event>
<event>
 8    1  0.1449514E-005  0.1706375E+04  0.7818608E-02  0.8299716E-01
         -4   -1    0    0    0  501 -0.00000000000E+00  0.00000000000E+00  0.20194709378E+04  0.20194709378E+04  0.00000000000E+00 0. -1.
          4   -1    0    0  502    0  0.00000000000E+00 -0.00000000000E+00 -0.14989178749E+04  0.14989178749E+04  0.00000000000E+00 0.  1.
    9000010    2    1    2  502    0  0.11590574726E+04  0.79915071948E+03  0.60578619758E+03  0.18280258156E+04  0.99631589776E+03 0.  0.
   -9000010    2    1    2    0  501 -0.11590574726E+04 -0.79915071948E+03 -0.85233134729E+02  0.16903629971E+04  0.93166854485E+03 0.  0.
        -13    1    3    3    0    0  0.81118793366E+02  0.62478604949E+03  0.27163056809E+03  0.68609113313E+03  0.10566000000E+00 0.  1.
          4    1    3    3  502    0  0.10779386792E+04  0.17436466999E+03  0.33415562949E+03  0.11419346825E+04  0.00000000000E+00 0.  1.
         13    1    4    4    0    0 -0.97373521252E+03 -0.60200867795E+03  0.33298811222E+03  0.11922482151E+04  0.10566000000E+00 0. -1.
         -4    1    4    4    0  501 -0.18532226008E+03 -0.19714204153E+03 -0.41822124695E+03  0.49811478197E+03  0.00000000000E+00 0. -1.
<mgrwt>
<rscale>  2 0.17063748E+04</rscale>
<asrwt>0</asrwt>
<pdfrwt beam="2">  1        4 0.23060275E+00 0.17063748E+04</pdfrwt>
<pdfrwt beam="1">  1       -4 0.31068784E+00 0.17063748E+04</pdfrwt>
<totfact> 0.76046938E-02</totfact>
</mgrwt>
</event>
<event>
 8    1  0.1449514E-005  0.1277318E+04  0.7818608E-02  0.8550508E-01
          2   -1    0    0  502    0  0.00000000000E+00  0.00000000000E+00  0.26379559626E+04  0.26379559626E+04  0.00000000000E+00 0. -1.
         -2   -1    0    0    0  501 -0.00000000000E+00 -0.00000000000E+00 -0.62634554405E+03  0.62634554405E+03  0.00000000000E+00 0.  1.
    9000010    2    1    2  502    0 -0.51071521521E+03 -0.60057429325E+03  0.11934209579E+04  0.17527806497E+04  0.10131470329E+04 0.  0.
   -9000010    2    1    2    0  501  0.51071521521E+03  0.60057429325E+03  0.81818946063E+03  0.15115208570E+04  0.99686598640E+03 0.  0.
        -13    1    3    3    0    0 -0.35729055255E+03 -0.56013408624E+03  0.13656016650E+04  0.15186423714E+04  0.10566000000E+00 0.  1.
          4    1    3    3  502    0 -0.15342466266E+03 -0.40440207003E+02 -0.17218070710E+03  0.23413827827E+03  0.00000000000E+00 0.  1.
         13    1    4    4    0    0  0.10707382078E+03 -0.57320775190E+02 -0.19991175033E+03  0.23391279026E+03  0.10566000000E+00 0. -1.
         -4    1    4    4    0  501  0.40364139443E+03  0.65789506844E+03  0.10181012110E+04  0.12776080667E+04  0.00000000000E+00 0. -1.
<mgrwt>
<rscale>  2 0.12773182E+04</rscale>
<asrwt>0</asrwt>
<pdfrwt beam="1">  1        2 0.40583937E+00 0.12773182E+04</pdfrwt>
<pdfrwt beam="2">  1       -2 0.96360854E-01 0.12773182E+04</pdfrwt>
<totfact> 0.40164602E+00</totfact>
</mgrwt>
</event>
<event>
 8    1  0.1449514E-005  0.1163425E+04  0.7818608E-02  0.8634625E-01
          1   -1    0    0  502    0  0.00000000000E+00  0.00000000000E+00  0.24532937283E+04  0.24532937283E+04  0.00000000000E+00 0. -1.
         -1   -1    0    0    0  501 -0.00000000000E+00 -0.00000000000E+00 -0.74519502435E+03  0.74519502435E+03  0.00000000000E+00 0.  1.
    9000010    2    1    2  502    0  0.30207549108E+03 -0.51392112599E+03  0.16687292417E+04  0.20340774472E+04  0.99872381217E+03 0.  0.
   -9000010    2    1    2    0  501 -0.30207549108E+03  0.51392112599E+03  0.39369462223E+02  0.11644113054E+04  0.99946946308E+03 0.  0.
        -13    1    3    3    0    0 -0.16631580373E+03 -0.46594887645E+03  0.14154773063E+04  0.14994483379E+04  0.10566000000E+00 0.  1.
          4    1    3    3  502    0  0.46839129481E+03 -0.47972249534E+02  0.25325193541E+03  0.53462910935E+03  0.00000000000E+00 0.  1.
         13    1    4    4    0    0  0.27513238312E+03  0.51297284916E+03  0.70564865338E+02  0.58636028481E+03  0.10566000000E+00 0. -1.
         -4    1    4    4    0  501 -0.57720787420E+03  0.94827682667E+00 -0.31195403115E+02  0.57805102063E+03  0.00000000000E+00 0. -1.
<mgrwt>
<rscale>  2 0.11634254E+04</rscale>
<asrwt>0</asrwt>
<pdfrwt beam="1">  1        1 0.37742980E+00 0.11634254E+04</pdfrwt>
<pdfrwt beam="2">  1       -1 0.11464539E+00 0.11634254E+04</pdfrwt>
<totfact> 0.11857453E+00</totfact>
</mgrwt>
</event>
<event>
 8    1  0.1449514E-005  0.1229503E+04  0.7818608E-02  0.8584671E-01
         -1   -1    0    0    0  501 -0.00000000000E+00  0.00000000000E+00  0.13659730606E+04  0.13659730606E+04  0.00000000000E+00 0.  1.
          1   -1    0    0  502    0  0.00000000000E+00 -0.00000000000E+00 -0.11658982026E+04  0.11658982026E+04  0.00000000000E+00 0. -1.
    9000010    2    1    2  502    0 -0.67320532760E+03  0.57245058196E+01 -0.18508293106E+03  0.12459624263E+04  0.10319537263E+04 0.  0.
   -9000010    2    1    2    0  501  0.67320532760E+03 -0.57245058196E+01  0.38515778900E+03  0.12859088370E+04  0.10256592180E+04 0.  0.
        -13    1    3    3    0    0 -0.45960451609E+03  0.22350830364E+03 -0.56294874485E+03  0.76033122618E+03  0.10566000000E+00 0.  1.
          4    1    3    3  502    0 -0.21360081150E+03 -0.21778379782E+03  0.37786581379E+03  0.48563120009E+03  0.00000000000E+00 0.  1.
         13    1    4    4    0    0  0.89133967598E+02 -0.46508052641E+03  0.69672466587E+02  0.47864289819E+03  0.10566000000E+00 0. -1.
         -4    1    4    4    0  501  0.58407136000E+03  0.45935602059E+03  0.31548532241E+03  0.80726593876E+03  0.00000000000E+00 0. -1.
<mgrwt>
<rscale>  2 0.12295027E+04</rscale>
<asrwt>0</asrwt>
<pdfrwt beam="2">  1        1 0.17936895E+00 0.12295027E+04</pdfrwt>
<pdfrwt beam="1">  1       -1 0.21014970E+00 0.12295027E+04</pdfrwt>
<totfact> 0.16947395E+00</totfact>
</mgrwt>
</event>
<event>
 8    1  0.1449514E-005  0.1207844E+04  0.7818608E-02  0.8600679E-01
          2   -1    0    0  502    0  0.00000000000E+00  0.00000000000E+00  0.18032927340E+04  0.18032927340E+04  0.00000000000E+00 0. -1.
         -2   -1    0    0    0  501 -0.00000000000E+00 -0.00000000000E+00 -0.90158879762E+03  0.90158879762E+03  0.00000000000E+00 0.  1.
    9000010    2    1    2  502    0 -0.66568483884E+03  0.21246943187E+03  0.15293572479E+02  0.12012498403E+04  0.97697887460E+03 0.  0.
   -9000010    2    1    2    0  501  0.66568483884E+03 -0.21246943187E+03  0.88641036391E+03  0.15036316913E+04  0.99343110768E+03 0.  0.
        -13    1    3    3    0    0  0.18428413297E+03 -0.16403663736E+03 -0.96519485255E+02  0.26492391787E+03  0.10566000000E+00 0.  1.
          4    1    3    3  502    0 -0.84996897181E+03  0.37650606923E+03  0.11181305773E+03  0.93632592247E+03  0.00000000000E+00 0.  1.
         13    1    4    4    0    0 -0.23789340855E+03 -0.49000483352E+01  0.37693473521E+03  0.44575451773E+03  0.10566000000E+00 0. -1.
         -4    1    4    4    0  501  0.90357824739E+03 -0.20756938353E+03  0.50947562870E+03  0.10578771736E+04  0.00000000000E+00 0. -1.
<mgrwt>
<rscale>  2 0.12078436E+04</rscale>
<asrwt>0</asrwt>
<pdfrwt beam="1">  1        2 0.27742965E+00 0.12078436E+04</pdfrwt>
<pdfrwt beam="2">  1       -2 0.13870597E+00 0.12078436E+04</pdfrwt>
<totfact> 0.45307447E+00</totfact>
</mgrwt>
</event>
<event>
 8    1  0.1449514E-005  0.1223022E+04  0.7818608E-02  0.8589425E-01
         -1   -1    0    0    0  501 -0.00000000000E+00  0.00000000000E+00  0.19724118215E+04  0.19724118215E+04  0.00000000000E+00 0.  1.
          1   -1    0    0  502    0  0.00000000000E+00 -0.00000000000E+00 -0.76035103033E+03  0.76035103033E+03  0.00000000000E+00 0. -1.
    9000010    2    1    2  502    0 -0.57565953540E+03  0.38456465313E+03  0.53510835216E+03  0.13332919612E+04  0.10060082664E+04 0.  0.
   -9000010    2    1    2    0  501  0.57565953540E+03 -0.38456465313E+03  0.67695243903E+03  0.13994708907E+04  0.10104356961E+04 0.  0.
        -13    1    3    3    0    0 -0.75484481538E+03  0.37940867917E+03  0.69432067312E+03  0.10935368533E+04  0.10566000000E+00 0.  1.
          4    1    3    3  502    0  0.17918527998E+03  0.51559739643E+01 -0.15921232096E+03  0.23975510792E+03  0.00000000000E+00 0.  1.
         13    1    4    4    0    0 -0.12441104056E+03 -0.23455348400E+03  0.62802075823E+03  0.68183834433E+03  0.10566000000E+00 0. -1.
         -4    1    4    4    0  501  0.70007057596E+03 -0.15001116913E+03  0.48931680802E+02  0.71763254635E+03  0.00000000000E+00 0. -1.
<mgrwt>
<rscale>  2 0.12230224E+04</rscale>
<asrwt>0</asrwt>
<pdfrwt beam="2">  1        1 0.11697708E+00 0.12230224E+04</pdfrwt>
<pdfrwt beam="1">  1       -1 0.30344797E+00 0.12230224E+04</pdfrwt>
<totfact> 0.48603297E-01</totfact>
</mgrwt>
</event>
<event>
 8    1  0.1449514E-005  0.1177515E+04  0.7818608E-02  0.8623689E-01
          4   -1    0    0  502    0  0.00000000000E+00  0.00000000000E+00  0.45890749395E+03  0.45890749395E+03  0.00000000000E+00 0.  1.
         -4   -1    0    0    0  501 -0.00000000000E+00 -0.00000000000E+00 -0.30352558892E+04  0.30352558892E+04  0.00000000000E+00 0. -1.
    9000010    2    1    2  502    0 -0.58385968754E+03 -0.19754563944E+03 -0.11691865103E+04  0.16587687524E+04  0.10022974925E+04 0.  0.
   -9000010    2    1    2    0  501  0.58385968754E+03  0.19754563944E+03 -0.14071618849E+04  0.18353946307E+04  0.10043169151E+04 0.  0.
        -13    1    3    3    0    0 -0.56501781991E+03 -0.31344175016E+03 -0.13188015856E+04  0.14685804373E+04  0.10566000000E+00 0.  1.
          4    1    3    3  502    0 -0.18841867633E+02  0.11589611072E+03  0.14961507523E+03  0.19018831508E+03  0.00000000000E+00 0.  1.
         13    1    4    4    0    0  0.37030701526E+03  0.60407045497E+03 -0.73089138504E+03  0.10179541385E+04  0.10566000000E+00 0. -1.
         -4    1    4    4    0  501  0.21355267228E+03 -0.40652481553E+03 -0.67627049982E+03  0.81744049227E+03  0.00000000000E+00 0. -1.
<mgrwt>
<rscale>  2 0.11775149E+04</rscale>
<asrwt>0</asrwt>
<pdfrwt beam="1">  1        4 0.70601152E-01 0.11775149E+04</pdfrwt>
<pdfrwt beam="2">  1       -4 0.46696245E+00 0.11775149E+04</pdfrwt>
<totfact> 0.14232337E-01</totfact>
</mgrwt>
</event>
<event>
 8    1  0.1449514E-005  0.1028133E+04  0.7818608E-02  0.8748598E-01
          1   -1    0    0  502    0  0.00000000000E+00  0.00000000000E+00  0.82969886757E+03  0.82969886757E+03  0.00000000000E+00 0.  1.
         -1   -1    0    0    0  501 -0.00000000000E+00 -0.00000000000E+00 -0.13654892960E+04  0.13654892960E+04  0.00000000000E+00 0. -1.
    9000010    2    1    2  502    0 -0.13294254896E+03  0.21078902682E+03 -0.55169464999E+03  0.11658410379E+04  0.99634963931E+03 0.  0.
   -9000010    2    1    2    0  501  0.13294254896E+03 -0.21078902682E+03  0.15904221531E+02  0.10293471257E+04  0.99859742924E+03 0.  0.
        -13    1    3    3    0    0 -0.37268334229E+03  0.51054603030E+03 -0.42477085423E+03  0.76156445062E+03  0.10566000000E+00 0.  1.
          4    1    3    3  502    0  0.23974079333E+03 -0.29975700348E+03 -0.12692379576E+03  0.40427658732E+03  0.00000000000E+00 0.  1.
         13    1    4    4    0    0 -0.27962493497E+03  0.22016541819E+03  0.19581345459E+03  0.40620910353E+03  0.10566000000E+00 0. -1.
         -4    1    4    4    0  501  0.41256748393E+03 -0.43095444501E+03 -0.17990923306E+03  0.62313802212E+03  0.00000000000E+00 0. -1.
<mgrwt>
<rscale>  2 0.10281333E+04</rscale>
<asrwt>0</asrwt>
<pdfrwt beam="1">  1        1 0.12764598E+00 0.10281333E+04</pdfrwt>
<pdfrwt beam="2">  1       -1 0.21007528E+00 0.10281333E+04</pdfrwt>
<totfact> 0.32889092E+00</totfact>
</mgrwt>
</event>
<event>
 8    1  0.1449514E-005  0.1132876E+04  0.7818608E-02  0.8658898E-01
         -1   -1    0    0    0  501 -0.00000000000E+00  0.00000000000E+00  0.10847520185E+04  0.10847520185E+04  0.00000000000E+00 0. -1.
          1   -1    0    0  502    0  0.00000000000E+00 -0.00000000000E+00 -0.11840931126E+04  0.11840931126E+04  0.00000000000E+00 0.  1.
    9000010    2    1    2  502    0 -0.16612252755E+03 -0.43037070120E+03 -0.78862647816E+02  0.11232155131E+04  0.10210671560E+04 0.  0.
   -9000010    2    1    2    0  501  0.16612252755E+03  0.43037070120E+03 -0.20478446353E+02  0.11456296180E+04  0.10484427596E+04 0.  0.
        -13    1    3    3    0    0  0.22513537219E+03 -0.41665720751E+03 -0.39760778157E+03  0.61836973043E+03  0.10566000000E+00 0.  1.
          4    1    3    3  502    0 -0.39125789974E+03 -0.13713493688E+02  0.31874513375E+03  0.50484578270E+03  0.00000000000E+00 0.  1.
         13    1    4    4    0    0  0.27113534248E+03 -0.29788332666E+03  0.52608307527E+02  0.40622222419E+03  0.10566000000E+00 0. -1.
         -4    1    4    4    0  501 -0.10501281493E+03  0.72825402786E+03 -0.73086753879E+02  0.73940739379E+03  0.00000000000E+00 0. -1.
<mgrwt>
<rscale>  2 0.11328761E+04</rscale>
<asrwt>0</asrwt>
<pdfrwt beam="2">  1        1 0.18216817E+00 0.11328761E+04</pdfrwt>
<pdfrwt beam="1">  1       -1 0.16688493E+00 0.11328761E+04</pdfrwt>
<totfact> 0.40064180E+00</totfact>
</mgrwt>
</event>
<event>
 8    1  0.1449514E-005  0.1038330E+04  0.7818608E-02  0.8739388E-01
         -2   -1    0    0    0  501 -0.00000000000E+00  0.00000000000E+00  0.29920658122E+03  0.29920658122E+03  0.00000000000E+00 0. -1.
          2   -1    0    0  502    0  0.00000000000E+00 -0.00000000000E+00 -0.36532284873E+04  0.36532284873E+04  0.00000000000E+00 0.  1.
    9000010    2    1    2  502    0  0.37139698404E+03  0.27477343909E+01 -0.14281209066E+04  0.17587600829E+04  0.95695581688E+03 0.  0.
   -9000010    2    1    2    0  501 -0.37139698404E+03 -0.27477343909E+01 -0.19259009995E+04  0.21936749857E+04  0.98243168365E+03 0.  0.
        -13    1    3    3    0    0 -0.19158240222E+03  0.81022835905E+02  0.14186893758E+02  0.20849411478E+03  0.10566000000E+00 0.  1.
          4    1    3    3  502    0  0.56297938626E+03 -0.78275101514E+02 -0.14423078004E+04  0.15502659681E+04  0.00000000000E+00 0.  1.
         13    1    4    4    0    0  0.32887673435E+02  0.28300694905E+03 -0.10016578344E+03  0.30200617148E+03  0.10566000000E+00 0. -1.
         -4    1    4    4    0  501 -0.40428465748E+03 -0.28575468344E+03 -0.18257352161E+04  0.18916688142E+04  0.00000000000E+00 0. -1.
<mgrwt>
<rscale>  2 0.10383297E+04</rscale>
<asrwt>0</asrwt>
<pdfrwt beam="2">  1        2 0.56203511E+00 0.10383297E+04</pdfrwt>
<pdfrwt beam="1">  1       -2 0.46031785E-01 0.10383297E+04</pdfrwt>
<totfact> 0.41885713E+00</totfact>
</mgrwt>
</event>
<event>
 8    1  0.1449514E-005  0.1479041E+04  0.7818608E-02  0.8421664E-01
          2   -1    0    0  502    0  0.00000000000E+00  0.00000000000E+00  0.18638583084E+04  0.18638583084E+04  0.00000000000E+00 0.  1.
         -2   -1    0    0    0  501 -0.00000000000E+00 -0.00000000000E+00 -0.12406703178E+04  0.12406703178E+04  0.00000000000E+00 0. -1.
    9000010    2    1    2  502    0  0.26344829805E+03 -0.10184242226E+04 -0.49297864544E+02  0.14789630802E+04  0.10384163954E+04 0.  0.
   -9000010    2    1    2    0  501 -0.26344829805E+03  0.10184242226E+04  0.67248585506E+03  0.16255655460E+04  0.10409770487E+04 0.  0.
        -13    1    3    3    0    0 -0.25587105524E+03  0.72897916675E+02  0.30230196208E+02  0.26776478314E+03  0.10566000000E+00 0.  1.
          4    1    3    3  502    0  0.51931935329E+03 -0.10913221393E+04 -0.79528060752E+02  0.12111982971E+04  0.00000000000E+00 0.  1.
         13    1    4    4    0    0 -0.21222972779E+03  0.40891841231E+03 -0.24583028006E+03  0.52219561760E+03  0.10566000000E+00 0. -1.
         -4    1    4    4    0  501 -0.51218570260E+02  0.60950581034E+03  0.91831613513E+03  0.11033699284E+04  0.00000000000E+00 0. -1.
<mgrwt>
<rscale>  2 0.14790410E+04</rscale>
<asrwt>0</asrwt>
<pdfrwt beam="1">  1        2 0.28674743E+00 0.14790410E+04</pdfrwt>
<pdfrwt beam="2">  1       -2 0.19087236E+00 0.14790410E+04</pdfrwt>
<totfact> 0.14542883E+00</totfact>
</mgrwt>
</event>
<event>
 8    1  0.1449514E-005  0.1154698E+04  0.7818608E-02  0.8641480E-01
         -1   -1    0    0    0  501 -0.00000000000E+00  0.00000000000E+00  0.66679629682E+03  0.66679629682E+03  0.00000000000E+00 0. -1.
          1   -1    0    0  502    0  0.00000000000E+00 -0.00000000000E+00 -0.25671984576E+04  0.25671984576E+04  0.00000000000E+00 0.  1.
    9000010    2    1    2  502    0 -0.32779255913E+03 -0.46032919650E+03 -0.18595642331E+03  0.11634839923E+04  0.99988213205E+03 0.  0.
   -9000010    2    1    2    0  501  0.32779255913E+03  0.46032919650E+03 -0.17144457375E+04  0.20705107621E+04  0.10140708547E+04 0.  0.
        -13    1    3    3    0    0 -0.10624853544E+03  0.31631773583E+03  0.44508071653E+01  0.33371467174E+03  0.10566000000E+00 0.  1.
          4    1    3    3  502    0 -0.22154402369E+03 -0.77664693233E+03 -0.19040723047E+03  0.82976932056E+03  0.00000000000E+00 0.  1.
         13    1    4    4    0    0  0.24721900600E+03  0.37786979965E+03 -0.18431866552E+04  0.18976933049E+04  0.10566000000E+00 0. -1.
         -4    1    4    4    0  501  0.80573553133E+02  0.82459396847E+02  0.12874091777E+03  0.17281745717E+03  0.00000000000E+00 0. -1.
<mgrwt>
<rscale>  2 0.11546975E+04</rscale>
<asrwt>0</asrwt>
<pdfrwt beam="2">  1        1 0.39495361E+00 0.11546975E+04</pdfrwt>
<pdfrwt beam="1">  1       -1 0.10258405E+00 0.11546975E+04</pdfrwt>
<totfact> 0.12090420E+00</totfact>
</mgrwt>
</event>
<event>
 8    1  0.1449514E-005  0.1123277E+04  0.7818608E-02  0.8666690E-01
          1   -1    0    0  502    0  0.00000000000E+00  0.00000000000E+00  0.19403701540E+04  0.19403701540E+04  0.00000000000E+00 0.  1.
         -1   -1    0    0    0  501 -0.00000000000E+00 -0.00000000000E+00 -0.75162578777E+03  0.75162578777E+03  0.00000000000E+00 0. -1.
    9000010    2    1    2  502    0  0.30808075586E+03 -0.23083457783E+03  0.10656826691E+04  0.15172935786E+04  0.10091094578E+04 0.  0.
   -9000010    2    1    2    0  501 -0.30808075586E+03  0.23083457783E+03  0.12306169710E+03  0.11747023632E+04  0.11029882621E+04 0.  0.
        -13    1    3    3    0    0 -0.36168717799E+03 -0.16131278899E+03  0.50008054144E+03  0.63790280585E+03  0.10566000000E+00 0.  1.
          4    1    3    3  502    0  0.66976793385E+03 -0.69521788842E+02  0.56560212765E+03  0.87939077271E+03  0.00000000000E+00 0.  1.
         13    1    4    4    0    0 -0.66345279745E+03  0.12367158700E+03  0.32836979273E+03  0.75052715329E+03  0.10566000000E+00 0. -1.
         -4    1    4    4    0  501  0.35537204160E+03  0.10716299083E+03 -0.20530809563E+03  0.42417520989E+03  0.00000000000E+00 0. -1.
<mgrwt>
<rscale>  2 0.11232773E+04</rscale>
<asrwt>0</asrwt>
<pdfrwt beam="1">  1        1 0.29851848E+00 0.11232773E+04</pdfrwt>
<pdfrwt beam="2">  1       -1 0.11563474E+00 0.11232773E+04</pdfrwt>
<totfact> 0.30479179E+00</totfact>
</mgrwt>
</event>
<event>
 8    1  0.1449514E-005  0.1281127E+04  0.7818608E-02  0.8547854E-01
          1   -1    0    0  502    0  0.00000000000E+00  0.00000000000E+00  0.41502834744E+04  0.41502834744E+04  0.00000000000E+00 0. -1.
         -1   -1    0    0    0  501 -0.00000000000E+00 -0.00000000000E+00 -0.39638325837E+03  0.39638325837E+03  0.00000000000E+00 0.  1.
    9000010    2    1    2  502    0 -0.78706748838E+03 -0.17198937426E+02  0.19810289734E+04  0.23572442373E+04  0.10061578235E+04 0.  0.
   -9000010    2    1    2    0  501  0.78706748838E+03  0.17198937426E+02  0.17728712426E+04  0.21894224955E+04  0.10152474508E+04 0.  0.
        -13    1    3    3    0    0 -0.10245688217E+04  0.52618503309E+02  0.15174755213E+04  0.18317319526E+04  0.10566000000E+00 0.  1.
          4    1    3    3  502    0  0.23750133331E+03 -0.69817440735E+02  0.46355345213E+03  0.52551228467E+03  0.00000000000E+00 0.  1.
         13    1    4    4    0    0 -0.18960833335E+03 -0.12078794293E+02  0.31419380498E+02  0.19257311853E+03  0.10566000000E+00 0. -1.
         -4    1    4    4    0  501  0.97667582172E+03  0.29277731719E+02  0.17414518621E+04  0.19968493770E+04  0.00000000000E+00 0. -1.
<mgrwt>
<rscale>  2 0.12811268E+04</rscale>
<asrwt>0</asrwt>
<pdfrwt beam="1">  1        1 0.63850512E+00 0.12811268E+04</pdfrwt>
<pdfrwt beam="2">  1       -1 0.60982043E-01 0.12811268E+04</pdfrwt>
<totfact> 0.13420790E-01</totfact>
</mgrwt>
</event>
<event>
 8    1  0.1449514E-005  0.1370789E+04  0.7818608E-02  0.8487977E-01
          4   -1    0    0  502    0  0.00000000000E+00  0.00000000000E+00  0.14660921730E+04  0.14660921730E+04  0.00000000000E+00 0. -1.
         -4   -1    0    0    0  501 -0.00000000000E+00 -0.00000000000E+00 -0.18419131118E+04  0.18419131118E+04  0.00000000000E+00 0.  1.
    9000010    2    1    2  502    0  0.93406019263E+03  0.25960287583E+02 -0.11006846707E+04  0.17630344551E+04  0.10117516324E+04 0.  0.
   -9000010    2    1    2    0  501 -0.93406019263E+03 -0.25960287583E+02  0.72486373183E+03  0.15449708297E+04  0.99416550675E+03 0.  0.
        -13    1    3    3    0    0  0.33671416212E+03  0.49547845896E+03 -0.34437087687E+03  0.69098961082E+03  0.10566000000E+00 0.  1.
          4    1    3    3  502    0  0.59734603051E+03 -0.46951817137E+03 -0.75631379381E+03  0.10720448443E+04  0.00000000000E+00 0.  1.
         13    1    4    4    0    0 -0.63655214388E+03  0.15943511095E+03  0.93045792091E+03  0.11385825136E+04  0.10566000000E+00 0. -1.
         -4    1    4    4    0  501 -0.29750804875E+03 -0.18539539853E+03 -0.20559418908E+03  0.40638831609E+03  0.00000000000E+00 0. -1.
<mgrwt>
<rscale>  2 0.13707891E+04</rscale>
<asrwt>0</asrwt>
<pdfrwt beam="1">  1        4 0.22555264E+00 0.13707891E+04</pdfrwt>
<pdfrwt beam="2">  1       -4 0.28337125E+00 0.13707891E+04</pdfrwt>
<totfact> 0.95146018E-02</totfact>
</mgrwt>
</event>
<event>
 8    1  0.1449514E-005  0.1383210E+04  0.7818608E-02  0.8480054E-01
          1   -1    0    0  502    0  0.00000000000E+00  0.00000000000E+00  0.17151578126E+04  0.17151578126E+04  0.00000000000E+00 0. -1.
         -1   -1    0    0    0  501 -0.00000000000E+00 -0.00000000000E+00 -0.16744460062E+04  0.16744460062E+04  0.00000000000E+00 0.  1.
    9000010    2    1    2  502    0 -0.74571039091E+03  0.60806367435E+03  0.99944189132E+03  0.17008969641E+04  0.98404317452E+03 0.  0.
   -9000010    2    1    2    0  501  0.74571039091E+03 -0.60806367435E+03 -0.95873008493E+03  0.16887068547E+04  0.10033653603E+04 0.  0.
        -13    1    3    3    0    0 -0.70308086315E+03  0.46857367790E+03  0.11909174311E+04  0.14601946208E+04  0.10566000000E+00 0.  1.
          4    1    3    3  502    0 -0.42629527757E+02  0.13948999644E+03 -0.19147553979E+03  0.24070234333E+03  0.00000000000E+00 0.  1.
         13    1    4    4    0    0  0.94389248933E+03 -0.65966353394E+03 -0.66234782141E+03  0.13284553651E+04  0.10566000000E+00 0. -1.
         -4    1    4    4    0  501 -0.19818209842E+03  0.51599859589E+02 -0.29638226352E+03  0.36025148962E+03  0.00000000000E+00 0. -1.
<mgrwt>
<rscale>  2 0.13832102E+04</rscale>
<asrwt>0</asrwt>
<pdfrwt beam="1">  1        1 0.26387043E+00 0.13832102E+04</pdfrwt>
<pdfrwt beam="2">  1       -1 0.25760708E+00 0.13832102E+04</pdfrwt>
<totfact> 0.22741790E-01</totfact>
</mgrwt>
</event>
<event>
 8    1  0.1449514E-005  0.1512539E+04  0.7818608E-02  0.8402319E-01
         -4   -1    0    0    0  501 -0.00000000000E+00  0.00000000000E+00  0.69145195879E+03  0.69145195879E+03  0.00000000000E+00 0.  1.
          4   -1    0    0  502    0  0.00000000000E+00 -0.00000000000E+00 -0.33431009269E+04  0.33431009269E+04  0.00000000000E+00 0. -1.
    9000010    2    1    2  502    0 -0.10753880348E+04 -0.36222771738E+03 -0.15219684940E+04  0.21390645174E+04  0.98566757485E+03 0.  0.
   -9000010    2    1    2    0  501  0.10753880348E+04  0.36222771738E+03 -0.11296804741E+04  0.18954883683E+04  0.10144110784E+04 0.  0.
        -13    1    3    3    0    0 -0.59411272689E+03  0.29047063978E+03 -0.90110442772E+03  0.11177353558E+04  0.10566000000E+00 0.  1.
          4    1    3    3  502    0 -0.48127530796E+03 -0.65269835716E+03 -0.62086406629E+03  0.10213291616E+04  0.00000000000E+00 0.  1.
         13    1    4    4    0    0  0.84258652801E+03 -0.33868201253E+02 -0.11610567584E+04  0.14349745362E+04  0.10566000000E+00 0. -1.
         -4    1    4    4    0  501  0.23280150683E+03  0.39609591863E+03  0.31376284252E+02  0.46051383210E+03  0.00000000000E+00 0. -1.
<mgrwt>
<rscale>  2 0.15125386E+04</rscale>
<asrwt>0</asrwt>
<pdfrwt beam="2">  1        4 0.51432322E+00 0.15125386E+04</pdfrwt>
<pdfrwt beam="1">  1       -4 0.10637723E+00 0.15125386E+04</pdfrwt>
<totfact> 0.36630803E-02</totfact>
</mgrwt>
</event>
<event>
 8    1  0.1449514E-005  0.1122583E+04  0.7818608E-02  0.8667257E-01
         -2   -1    0    0    0  501 -0.00000000000E+00  0.00000000000E+00  0.85969576154E+03  0.85969576154E+03  0.00000000000E+00 0.  1.
          2   -1    0    0  502    0  0.00000000000E+00 -0.00000000000E+00 -0.14676314048E+04  0.14676314048E+04  0.00000000000E+00 0. -1.
    9000010    2    1    2  502    0 -0.31746097264E+01 -0.53244814589E+03 -0.30677658520E+03  0.12014134010E+04  0.10323619427E+04 0.  0.
   -9000010    2    1    2    0  501  0.31746097264E+01  0.53244814589E+03 -0.30115905805E+03  0.11259137653E+04  0.94523749529E+03 0.  0.
        -13    1    3    3    0    0 -0.46331397200E+03 -0.90264450266E+01 -0.95147157164E+02  0.47306902883E+03  0.10566000000E+00 0.  1.
          4    1    3    3  502    0  0.46013936227E+03 -0.52342170086E+03 -0.21162942803E+03  0.72834437216E+03  0.00000000000E+00 0.  1.
         13    1    4    4    0    0  0.24208154441E+03  0.68969086344E+03 -0.38730266294E+03  0.82721238212E+03  0.10566000000E+00 0. -1.
         -4    1    4    4    0  501 -0.23890693469E+03 -0.15724271755E+03  0.86143604892E+02  0.29870138320E+03  0.00000000000E+00 0. -1.
<mgrwt>
<rscale>  2 0.11225829E+04</rscale>
<asrwt>0</asrwt>
<pdfrwt beam="2">  1        2 0.22578945E+00 0.11225829E+04</pdfrwt>
<pdfrwt beam="1">  1       -2 0.13226089E+00 0.11225829E+04</pdfrwt>
<totfact> 0.79783922E+00</totfact>
</mgrwt>
</event>
<event>
 8    1  0.1449514E-005  0.1189865E+04  0.7818608E-02  0.8614234E-01
         -2   -1    0    0    0  501 -0.00000000000E+00  0.00000000000E+00  0.73655887261E+03  0.73655887261E+03  0.00000000000E+00 0.  1.
          2   -1    0    0  502    0  0.00000000000E+00 -0.00000000000E+00 -0.19924599319E+04  0.19924599319E+04  0.00000000000E+00 0. -1.
    9000010    2    1    2  502    0  0.55478306478E+03 -0.39409775956E+03 -0.41446680921E+03  0.13216539846E+04  0.10544615811E+04 0.  0.
   -9000010    2    1    2    0  501 -0.55478306478E+03  0.39409775956E+03 -0.84143425013E+03  0.14073648200E+04  0.89975932678E+03 0.  0.
        -13    1    3    3    0    0  0.54254198627E+03  0.89349540691E+02  0.15815443767E+03  0.57214332523E+03  0.10566000000E+00 0.  1.
          4    1    3    3  502    0  0.12241078508E+02 -0.48344730025E+03 -0.57262124688E+03  0.74951065936E+03  0.00000000000E+00 0.  1.
         13    1    4    4    0    0 -0.16997297767E+03 -0.22566089653E+03 -0.55665748994E+03  0.62424452391E+03  0.10566000000E+00 0. -1.
         -4    1    4    4    0  501 -0.38481008710E+03  0.61975865610E+03 -0.28477676019E+03  0.78312029605E+03  0.00000000000E+00 0. -1.
<mgrwt>
<rscale>  2 0.11898649E+04</rscale>
<asrwt>0</asrwt>
<pdfrwt beam="2">  1        2 0.30653229E+00 0.11898649E+04</pdfrwt>
<pdfrwt beam="1">  1       -2 0.11331675E+00 0.11898649E+04</pdfrwt>
<totfact> 0.62036367E+00</totfact>
</mgrwt>
</event>
<event>
 8    1  0.1449514E-005  0.1091323E+04  0.7818608E-02  0.8693225E-01
         -2   -1    0    0    0  501 -0.00000000000E+00  0.00000000000E+00  0.11844369316E+04  0.11844369316E+04  0.00000000000E+00 0.  1.
          2   -1    0    0  502    0  0.00000000000E+00 -0.00000000000E+00 -0.15850272126E+04  0.15850272126E+04  0.00000000000E+00 0. -1.
    9000010    2    1    2  502    0 -0.40306313153E+03  0.11192188135E+03  0.63818272779E+03  0.12546791374E+04  0.99596995355E+03 0.  0.
   -9000010    2    1    2    0  501  0.40306313153E+03 -0.11192188135E+03 -0.10387730088E+04  0.15147850067E+04  0.10200675748E+04 0.  0.
        -13    1    3    3    0    0 -0.53511376472E+03  0.45673654529E+03  0.34704686308E+03  0.78447214694E+03  0.10566000000E+00 0.  1.
          4    1    3    3  502    0  0.13205063319E+03 -0.34481466394E+03  0.29113586471E+03  0.47020699050E+03  0.00000000000E+00 0.  1.
         13    1    4    4    0    0 -0.32292884945E+02 -0.50186351281E+03 -0.60628065837E+03  0.78770937774E+03  0.10566000000E+00 0. -1.
         -4    1    4    4    0  501  0.43535601648E+03  0.38994163146E+03 -0.43249235047E+03  0.72707562897E+03  0.00000000000E+00 0. -1.
<mgrwt>
<rscale>  2 0.10913229E+04</rscale>
<asrwt>0</asrwt>
<pdfrwt beam="2">  1        2 0.24385034E+00 0.10913229E+04</pdfrwt>
<pdfrwt beam="1">  1       -2 0.18222107E+00 0.10913229E+04</pdfrwt>
<totfact> 0.25439379E+00</totfact>
</mgrwt>
</event>
<event>
 8    1  0.1449514E-005  0.1189035E+04  0.7818608E-02  0.8614865E-01
         -1   -1    0    0    0  501 -0.00000000000E+00  0.00000000000E+00  0.11110599497E+04  0.11110599497E+04  0.00000000000E+00 0.  1.
          1   -1    0    0  502    0  0.00000000000E+00 -0.00000000000E+00 -0.13021239186E+04  0.13021239186E+04  0.00000000000E+00 0. -1.
    9000010    2    1    2  502    0  0.45377018299E+03 -0.37584436517E+03 -0.27344440162E+03  0.11943168356E+04  0.10022247738E+04 0.  0.
   -9000010    2    1    2    0  501 -0.45377018299E+03  0.37584436517E+03  0.82380432713E+02  0.12188670326E+04  0.10638063460E+04 0.  0.
        -13    1    3    3    0    0 -0.29425063409E+03 -0.14778544140E+03 -0.24741172830E+03  0.41186957500E+03  0.10566000000E+00 0.  1.
          4    1    3    3  502    0  0.74802081708E+03 -0.22805892378E+03 -0.26032673319E+02  0.78244726057E+03  0.00000000000E+00 0.  1.
         13    1    4    4    0    0  0.15099443443E+03 -0.27750401032E+03  0.90204628792E+02  0.32854935883E+03  0.10566000000E+00 0. -1.
         -4    1    4    4    0  501 -0.60476461742E+03  0.65334837549E+03 -0.78241960788E+01  0.89031767380E+03  0.00000000000E+00 0. -1.
<mgrwt>
<rscale>  2 0.11890354E+04</rscale>
<asrwt>0</asrwt>
<pdfrwt beam="2">  1        1 0.20032676E+00 0.11890354E+04</pdfrwt>
<pdfrwt beam="1">  1       -1 0.17093230E+00 0.11890354E+04</pdfrwt>
<totfact> 0.29807216E+00</totfact>
</mgrwt>
</event>
<event>
 8    1  0.1449514E-005  0.1274958E+04  0.7818608E-02  0.8552158E-01
         -2   -1    0    0    0  501 -0.00000000000E+00  0.00000000000E+00  0.61470780074E+03  0.61470780074E+03  0.00000000000E+00 0. -1.
          2   -1    0    0  502    0  0.00000000000E+00 -0.00000000000E+00 -0.27762182040E+04  0.27762182040E+04  0.00000000000E+00 0.  1.
    9000010    2    1    2  502    0 -0.46238884651E+03 -0.65433009239E+03 -0.71675718675E+03  0.14684412772E+04  0.10003137530E+04 0.  0.
   -9000010    2    1    2    0  501  0.46238884651E+03  0.65433009239E+03 -0.14447532165E+04  0.19224847276E+04  0.98320107605E+03 0.  0.
        -13    1    3    3    0    0  0.36520643329E+02  0.21744434628E+03  0.21992815475E+02  0.22158406129E+03  0.10566000000E+00 0.  1.
          4    1    3    3  502    0 -0.49890948984E+03 -0.87177443868E+03 -0.73875000222E+03  0.12468572159E+04  0.00000000000E+00 0.  1.
         13    1    4    4    0    0  0.64265380205E+03  0.78480862003E+03 -0.13283146873E+04  0.16713313253E+04  0.10566000000E+00 0. -1.
         -4    1    4    4    0  501 -0.18026495554E+03 -0.13047852764E+03 -0.11643852919E+03  0.25115340223E+03  0.00000000000E+00 0. -1.
<mgrwt>
<rscale>  2 0.12749583E+04</rscale>
<asrwt>0</asrwt>
<pdfrwt beam="2">  1        2 0.42711049E+00 0.12749583E+04</pdfrwt>
<pdfrwt beam="1">  1       -2 0.94570432E-01 0.12749583E+04</pdfrwt>
<totfact> 0.34885192E+00</totfact>
</mgrwt>
</event>
<event>
 8    1  0.1449514E-005  0.1096193E+04  0.7818608E-02  0.8689120E-01
         -2   -1    0    0    0  501 -0.00000000000E+00  0.00000000000E+00  0.85579734372E+03  0.85579734372E+03  0.00000000000E+00 0.  1.
          2   -1    0    0  502    0  0.00000000000E+00 -0.00000000000E+00 -0.17968854662E+04  0.17968854662E+04  0.00000000000E+00 0. -1.
    9000010    2    1    2  502    0  0.41829352288E+03  0.33178112652E+02  0.15420420904E+03  0.10926678442E+04  0.99703250763E+03 0.  0.
   -9000010    2    1    2    0  501 -0.41829352288E+03 -0.33178112652E+02 -0.10952923315E+04  0.15600149657E+04  0.10285480753E+04 0.  0.
        -13    1    3    3    0    0  0.67426172017E+03 -0.23043261974E+03  0.72270284431E+02  0.71620602112E+03  0.10566000000E+00 0.  1.
          4    1    3    3  502    0 -0.25596819728E+03  0.26361073239E+03  0.81933924606E+02  0.37646182310E+03  0.00000000000E+00 0.  1.
         13    1    4    4    0    0  0.11304263330E+03  0.39386992858E+03 -0.27522703606E+03  0.49362140364E+03  0.10566000000E+00 0. -1.
         -4    1    4    4    0  501 -0.53133615618E+03 -0.42704804124E+03 -0.82006529542E+03  0.10663935620E+04  0.00000000000E+00 0. -1.
<mgrwt>
<rscale>  2 0.10961929E+04</rscale>
<asrwt>0</asrwt>
<pdfrwt beam="2">  1        2 0.27644391E+00 0.10961929E+04</pdfrwt>
<pdfrwt beam="1">  1       -2 0.13166113E+00 0.10961929E+04</pdfrwt>
<totfact> 0.53643165E+00</totfact>
</mgrwt>
</event>
<event>
 8    1  0.1449514E-005  0.1360665E+04  0.7818608E-02  0.8494498E-01
         -2   -1    0    0    0  501 -0.00000000000E+00  0.00000000000E+00  0.25915930731E+04  0.25915930731E+04  0.00000000000E+00 0. -1.
          2   -1    0    0  502    0  0.00000000000E+00 -0.00000000000E+00 -0.11295656184E+04  0.11295656184E+04  0.00000000000E+00 0.  1.
    9000010    2    1    2  502    0  0.61790370547E+03  0.61837166514E+03  0.18680095590E+04  0.23278895789E+04  0.10795469761E+04 0.  0.
   -9000010    2    1    2    0  501 -0.61790370547E+03 -0.61837166514E+03 -0.40598210433E+03  0.13932691125E+04  0.10060759641E+04 0.  0.
        -13    1    3    3    0    0  0.53831217836E+03  0.13063183680E+03  0.17274592662E+04  0.18141003846E+04  0.10566000000E+00 0.  1.
          4    1    3    3  502    0  0.79591527109E+02  0.48773982834E+03  0.14055029283E+03  0.51378919427E+03  0.00000000000E+00 0.  1.
         13    1    4    4    0    0  0.24271004007E+03 -0.13026346792E+03 -0.28523843213E+03  0.39653210331E+03  0.10566000000E+00 0. -1.
         -4    1    4    4    0  501 -0.86061374554E+03 -0.48810819722E+03 -0.12074367219E+03  0.99673700923E+03  0.00000000000E+00 0. -1.
<mgrwt>
<rscale>  2 0.13606650E+04</rscale>
<asrwt>0</asrwt>
<pdfrwt beam="2">  1        2 0.17377933E+00 0.13606650E+04</pdfrwt>
<pdfrwt beam="1">  1       -2 0.39870663E+00 0.13606650E+04</pdfrwt>
<totfact> 0.11597455E-01</totfact>
</mgrwt>
</event>
<event>
 8    1  0.1449514E-005  0.1309918E+04  0.7818608E-02  0.8528090E-01
          2   -1    0    0  502    0  0.00000000000E+00  0.00000000000E+00  0.10141917977E+04  0.10141917977E+04  0.00000000000E+00 0.  1.
         -2   -1    0    0    0  501 -0.00000000000E+00 -0.00000000000E+00 -0.17920877865E+04  0.17920877865E+04  0.00000000000E+00 0. -1.
    9000010    2    1    2  502    0  0.83267603229E+03 -0.16375728613E+03 -0.72089840182E+03  0.14956449580E+04  0.99854569813E+03 0.  0.
   -9000010    2    1    2    0  501 -0.83267603229E+03  0.16375728613E+03 -0.56997586987E+02  0.13106346261E+04  0.99717028372E+03 0.  0.
        -13    1    3    3    0    0  0.30455583199E+03  0.86195915800E+02 -0.84148752850E+03  0.89904686334E+03  0.10566000000E+00 0.  1.
          4    1    3    3  502    0  0.52812020030E+03 -0.24995320193E+03  0.12058912669E+03  0.59659809469E+03  0.00000000000E+00 0.  1.
         13    1    4    4    0    0 -0.97053738939E+03  0.37153376431E+03  0.47418831818E+02  0.10403022248E+04  0.10566000000E+00 0. -1.
         -4    1    4    4    0  501  0.13786135710E+03 -0.20777647818E+03 -0.10441641881E+03  0.27033240128E+03  0.00000000000E+00 0. -1.
<mgrwt>
<rscale>  2 0.13099184E+04</rscale>
<asrwt>0</asrwt>
<pdfrwt beam="1">  1        2 0.15602951E+00 0.13099184E+04</pdfrwt>
<pdfrwt beam="2">  1       -2 0.27570581E+00 0.13099184E+04</pdfrwt>
<totfact> 0.93452610E-01</totfact>
</mgrwt>
</event>
<event>
 8    1  0.1449514E-005  0.1080624E+04  0.7818608E-02  0.8702322E-01
         -2   -1    0    0    0  501 -0.00000000000E+00  0.00000000000E+00  0.50576839975E+03  0.50576839975E+03  0.00000000000E+00 0.  1.
          2   -1    0    0  502    0  0.00000000000E+00 -0.00000000000E+00 -0.23105701150E+04  0.23105701150E+04  0.00000000000E+00 0. -1.
    9000010    2    1    2  502    0 -0.44049985045E+03  0.10663337704E+02 -0.92378463521E+03  0.14108153211E+04  0.97101389943E+03 0.  0.
   -9000010    2    1    2    0  501  0.44049985045E+03 -0.10663337704E+02 -0.88101708004E+03  0.14055231937E+04  0.10025719564E+04 0.  0.
        -13    1    3    3    0    0 -0.64123442162E+03  0.66878914583E+01 -0.10066983835E+04  0.11935945534E+04  0.10566000000E+00 0.  1.
          4    1    3    3  502    0  0.20073457117E+03  0.39754462453E+01  0.82913748329E+02  0.21722076765E+03  0.00000000000E+00 0.  1.
         13    1    4    4    0    0  0.56271647365E+03  0.31190695550E+03 -0.25759143025E+03  0.69302895662E+03  0.10566000000E+00 0. -1.
         -4    1    4    4    0  501 -0.12221662321E+03 -0.32257029320E+03 -0.62342564980E+03  0.71249423708E+03  0.00000000000E+00 0. -1.
<mgrwt>
<rscale>  2 0.10806239E+04</rscale>
<asrwt>0</asrwt>
<pdfrwt beam="2">  1        2 0.35547233E+00 0.10806239E+04</pdfrwt>
<pdfrwt beam="1">  1       -2 0.77810521E-01 0.10806239E+04</pdfrwt>
<totfact> 0.10165042E+01</totfact>
</mgrwt>
</event>
<event>
 8    1  0.1449514E-005  0.1185337E+04  0.7818608E-02  0.8617686E-01
         -2   -1    0    0    0  501 -0.00000000000E+00  0.00000000000E+00  0.43406358201E+03  0.43406358201E+03  0.00000000000E+00 0. -1.
          2   -1    0    0  502    0  0.00000000000E+00 -0.00000000000E+00 -0.37809343377E+04  0.37809343377E+04  0.00000000000E+00 0.  1.
    9000010    2    1    2  502    0 -0.11494464054E+03 -0.62535834307E+03 -0.86907695536E+03  0.14664962404E+04  0.99550547011E+03 0.  0.
   -9000010    2    1    2    0  501  0.11494464054E+03  0.62535834307E+03 -0.24777938003E+04  0.27485016793E+04  0.10052432724E+04 0.  0.
        -13    1    3    3    0    0 -0.50620681746E+03 -0.55521647631E+03 -0.72385134282E+03  0.10432983539E+04  0.10566000000E+00 0.  1.
          4    1    3    3  502    0  0.39126217692E+03 -0.70141866761E+02 -0.14522561255E+03  0.42319788646E+03  0.00000000000E+00 0.  1.
         13    1    4    4    0    0  0.55805763877E+03  0.30756104377E+03 -0.11860378934E+04  0.13463684561E+04  0.10566000000E+00 0. -1.
         -4    1    4    4    0  501 -0.44311299823E+03  0.31779729930E+03 -0.12917559069E+04  0.14021332232E+04  0.00000000000E+00 0. -1.
<mgrwt>
<rscale>  2 0.11853371E+04</rscale>
<asrwt>0</asrwt>
<pdfrwt beam="2">  1        2 0.58168223E+00 0.11853371E+04</pdfrwt>
<pdfrwt beam="1">  1       -2 0.66779009E-01 0.11853371E+04</pdfrwt>
<totfact> 0.15406954E+00</totfact>
</mgrwt>
</event>
<event>
 8    1  0.1449514E-005  0.1142748E+04  0.7818608E-02  0.8650968E-01
          1   -1    0    0  502    0  0.00000000000E+00  0.00000000000E+00  0.35602688584E+04  0.35602688584E+04  0.00000000000E+00 0. -1.
         -1   -1    0    0    0  501 -0.00000000000E+00 -0.00000000000E+00 -0.39144717599E+03  0.39144717599E+03  0.00000000000E+00 0.  1.
    9000010    2    1    2  502    0  0.50671885585E+03 -0.21066733098E+03  0.10920113819E+04  0.15825538980E+04  0.10054070114E+04 0.  0.
   -9000010    2    1    2    0  501 -0.50671885585E+03  0.21066733098E+03  0.20768103005E+04  0.23691621364E+04  0.99932151045E+03 0.  0.
        -13    1    3    3    0    0  0.49943937380E+02 -0.28944715049E+03 -0.94633828172E+02  0.30859297206E+03  0.10566000000E+00 0.  1.
          4    1    3    3  502    0  0.45677491847E+03  0.78779819516E+02  0.11866452101E+04  0.12739609259E+04  0.00000000000E+00 0.  1.
         13    1    4    4    0    0  0.17166270730E+03  0.38154187270E+03  0.10123587271E+04  0.10954051713E+04  0.10566000000E+00 0. -1.
         -4    1    4    4    0  501 -0.67838156315E+03 -0.17087454173E+03  0.10644515734E+04  0.12737569652E+04  0.00000000000E+00 0. -1.
<mgrwt>
<rscale>  2 0.11427484E+04</rscale>
<asrwt>0</asrwt>
<pdfrwt beam="1">  1        1 0.54773365E+00 0.11427484E+04</pdfrwt>
<pdfrwt beam="2">  1       -1 0.60222645E-01 0.11427484E+04</pdfrwt>
<totfact> 0.28943685E-01</totfact>
</mgrwt>
</event>
<event>
 8    1  0.1449514E-005  0.1261702E+04  0.7818608E-02  0.8561493E-01
          2   -1    0    0  502    0  0.00000000000E+00  0.00000000000E+00  0.28111991505E+04  0.28111991505E+04  0.00000000000E+00 0. -1.
         -2   -1    0    0    0  501 -0.00000000000E+00 -0.00000000000E+00 -0.56641073574E+03  0.56641073574E+03  0.00000000000E+00 0.  1.
    9000010    2    1    2  502    0  0.63635778047E+03 -0.43452820243E+03  0.10920741299E+04  0.16649966756E+04  0.99288571396E+03 0.  0.
   -9000010    2    1    2    0  501 -0.63635778047E+03  0.43452820243E+03  0.11527142849E+04  0.17126132107E+04  0.10052501198E+04 0.  0.
        -13    1    3    3    0    0  0.27347514117E+03  0.23238811267E+03  0.30937212398E+02  0.36020828700E+03  0.10566000000E+00 0.  1.
          4    1    3    3  502    0  0.36288263930E+03 -0.66691631511E+03  0.10611369175E+04  0.13047883886E+04  0.00000000000E+00 0.  1.
         13    1    4    4    0    0  0.13491051382E+02  0.57933951215E+03  0.38165431901E+03  0.69388493944E+03  0.10566000000E+00 0. -1.
         -4    1    4    4    0  501 -0.64984883185E+03 -0.14481130972E+03  0.77105996589E+03  0.10187282713E+04  0.00000000000E+00 0. -1.
<mgrwt>
<rscale>  2 0.12617024E+04</rscale>
<asrwt>0</asrwt>
<pdfrwt beam="1">  1        2 0.43249217E+00 0.12617024E+04</pdfrwt>
<pdfrwt beam="2">  1       -2 0.87140115E-01 0.12617024E+04</pdfrwt>
<totfact> 0.40272695E+00</totfact>
</mgrwt>
</event>
<event>
 8    1  0.1449514E-005  0.1267047E+04  0.7818608E-02  0.8557715E-01
          4   -1    0    0  502    0  0.00000000000E+00  0.00000000000E+00  0.50575582053E+03  0.50575582053E+03  0.00000000000E+00 0. -1.
         -4   -1    0    0    0  501 -0.00000000000E+00 -0.00000000000E+00 -0.34303769745E+04  0.34303769745E+04  0.00000000000E+00 0.  1.
    9000010    2    1    2  502    0 -0.56060731689E+03 -0.54707250172E+03 -0.92175797405E+03  0.15647223605E+04  0.99254693431E+03 0.  0.
   -9000010    2    1    2    0  501  0.56060731689E+03  0.54707250172E+03 -0.20028631800E+04  0.23714104346E+04  0.99927856261E+03 0.  0.
        -13    1    3    3    0    0 -0.53688488717E+03 -0.48946079786E+03 -0.91637250994E+02  0.73226678994E+03  0.10566000000E+00 0.  1.
          4    1    3    3  502    0 -0.23722429711E+02 -0.57611703860E+02 -0.83012072306E+03  0.83245557055E+03  0.00000000000E+00 0.  1.
         13    1    4    4    0    0  0.30761466819E+03  0.13351368662E+03 -0.18241459263E+04  0.18547132016E+04  0.10566000000E+00 0. -1.
         -4    1    4    4    0  501  0.25299264870E+03  0.41355881509E+03 -0.17871725370E+03  0.51669723301E+03  0.00000000000E+00 0. -1.
<mgrwt>
<rscale>  2 0.12670471E+04</rscale>
<asrwt>0</asrwt>
<pdfrwt beam="1">  1        4 0.77808585E-01 0.12670471E+04</pdfrwt>
<pdfrwt beam="2">  1       -4 0.52775032E+00 0.12670471E+04</pdfrwt>
<totfact> 0.59985940E-02</totfact>
</mgrwt>
</event>
<event>
 8    1  0.1449514E-005  0.1164197E+04  0.7818608E-02  0.8634022E-01
         -1   -1    0    0    0  501 -0.00000000000E+00  0.00000000000E+00  0.94174904628E+03  0.94174904628E+03  0.00000000000E+00 0. -1.
          1   -1    0    0  502    0  0.00000000000E+00 -0.00000000000E+00 -0.17661728282E+04  0.17661728282E+04  0.00000000000E+00 0.  1.
    9000010    2    1    2  502    0 -0.55135494190E+03  0.25885844475E+03  0.16820881705E+03  0.11834995123E+04  0.10006882247E+04 0.  0.
   -9000010    2    1    2    0  501  0.55135494190E+03 -0.25885844475E+03 -0.99263259896E+03  0.15244223622E+04  0.98363819332E+03 0.  0.
        -13    1    3    3    0    0  0.17776116043E+02 -0.34233080384E+03  0.69712244939E+02  0.34980877322E+03  0.10566000000E+00 0.  1.
          4    1    3    3  502    0 -0.56913105794E+03  0.60118924860E+03  0.98496572115E+02  0.83369073910E+03  0.00000000000E+00 0.  1.
         13    1    4    4    0    0  0.59801962450E+02 -0.57048261348E+02 -0.98960067744E+03  0.99304596610E+03  0.10566000000E+00 0. -1.
         -4    1    4    4    0  501  0.49155297945E+03 -0.20181018341E+03 -0.30319215168E+01  0.53137639605E+03  0.00000000000E+00 0. -1.
<mgrwt>
<rscale>  2 0.11641971E+04</rscale>
<asrwt>0</asrwt>
<pdfrwt beam="2">  1        1 0.27171890E+00 0.11641971E+04</pdfrwt>
<pdfrwt beam="1">  1       -1 0.14488447E+00 0.11641971E+04</pdfrwt>
<totfact> 0.22650709E+00</totfact>
</mgrwt>
</event>
<event>
 8    1  0.1449514E-005  0.1212154E+04  0.7818608E-02  0.8597466E-01
          2   -1    0    0  502    0  0.00000000000E+00  0.00000000000E+00  0.15197189010E+04  0.15197189010E+04  0.00000000000E+00 0.  1.
         -2   -1    0    0    0  501 -0.00000000000E+00 -0.00000000000E+00 -0.11564796908E+04  0.11564796908E+04  0.00000000000E+00 0. -1.
    9000010    2    1    2  502    0 -0.66865019379E+03  0.11016976387E+03  0.72295114504E+03  0.14078538123E+04  0.10000817668E+04 0.  0.
   -9000010    2    1    2    0  501  0.66865019379E+03 -0.11016976387E+03 -0.35971193482E+03  0.12683447795E+04  0.10099877945E+04 0.  0.
        -13    1    3    3    0    0 -0.61514967157E+03  0.27578622395E+03  0.10260734477E+02  0.67421988520E+03  0.10566000000E+00 0.  1.
          4    1    3    3  502    0 -0.53500522216E+02 -0.16561646008E+03  0.71269041056E+03  0.73363392713E+03  0.00000000000E+00 0.  1.
         13    1    4    4    0    0  0.47758593672E+03 -0.55353119757E+03 -0.25551490854E+03  0.77445012317E+03  0.10566000000E+00 0. -1.
         -4    1    4    4    0  501  0.19106425707E+03  0.44336143370E+03 -0.10419702628E+03  0.49389465629E+03  0.00000000000E+00 0. -1.
<mgrwt>
<rscale>  2 0.12121535E+04</rscale>
<asrwt>0</asrwt>
<pdfrwt beam="1">  1        2 0.23380291E+00 0.12121535E+04</pdfrwt>
<pdfrwt beam="2">  1       -2 0.17791995E+00 0.12121535E+04</pdfrwt>
<totfact> 0.29556249E+00</totfact>
</mgrwt>
</event>
<event>
 8    1  0.1449514E-005  0.1106708E+04  0.7818608E-02  0.8680333E-01
         -2   -1    0    0    0  501 -0.00000000000E+00  0.00000000000E+00  0.47273767872E+03  0.47273767872E+03  0.00000000000E+00 0.  1.
          2   -1    0    0  502    0  0.00000000000E+00 -0.00000000000E+00 -0.29281602282E+04  0.29281602282E+04  0.00000000000E+00 0. -1.
    9000010    2    1    2  502    0 -0.28491920446E+03 -0.38899537102E+03 -0.64715267987E+03  0.12789943491E+04  0.99223162727E+03 0.  0.
   -9000010    2    1    2    0  501  0.28491920446E+03  0.38899537102E+03 -0.18082698696E+04  0.21219035578E+04  0.10000692154E+04 0.  0.
        -13    1    3    3    0    0  0.13424465107E+03 -0.48020450788E+03  0.47199416193E+01  0.49863843087E+03  0.10566000000E+00 0.  1.
          4    1    3    3  502    0 -0.41916385553E+03  0.91209136858E+02 -0.65187262149E+03  0.78035591821E+03  0.00000000000E+00 0.  1.
         13    1    4    4    0    0  0.64870679657E+03  0.34959429725E+03 -0.13196218688E+04  0.15114359293E+04  0.10566000000E+00 0. -1.
         -4    1    4    4    0  501 -0.36378759211E+03  0.39401073766E+02 -0.48864800075E+03  0.61046762849E+03  0.00000000000E+00 0. -1.
<mgrwt>
<rscale>  2 0.11067080E+04</rscale>
<asrwt>0</asrwt>
<pdfrwt beam="2">  1        2 0.45048617E+00 0.11067080E+04</pdfrwt>
<pdfrwt beam="1">  1       -2 0.72728876E-01 0.11067080E+04</pdfrwt>
<totfact> 0.51795101E+00</totfact>
</mgrwt>
</event>
<event>
 8    1  0.1449514E-005  0.1194801E+04  0.7818608E-02  0.8610488E-01
          2   -1    0    0  502    0  0.00000000000E+00  0.00000000000E+00  0.37084053957E+04  0.37084053957E+04  0.00000000000E+00 0. -1.
         -2   -1    0    0    0  501 -0.00000000000E+00 -0.00000000000E+00 -0.53588524148E+03  0.53588524148E+03  0.00000000000E+00 0.  1.
    9000010    2    1    2  502    0  0.60838616312E+03 -0.10512988099E+03  0.47500958260E+03  0.13001830524E+04  0.10409879206E+04 0.  0.
   -9000010    2    1    2    0  501 -0.60838616312E+03  0.10512988099E+03  0.26975105716E+04  0.29441075848E+04  0.10049975978E+04 0.  0.
        -13    1    3    3    0    0  0.89958375362E+03 -0.78636698883E+01  0.30929821453E+03  0.95130340258E+03  0.10566000000E+00 0.  1.
          4    1    3    3  502    0 -0.29119759050E+03 -0.97266211102E+02  0.16571136807E+03  0.34887964980E+03  0.00000000000E+00 0.  1.
         13    1    4    4    0    0 -0.19503978293E+03 -0.80619041896E+02  0.23833974776E+04  0.23927230292E+04  0.10566000000E+00 0. -1.
         -4    1    4    4    0  501 -0.41334638019E+03  0.18574892289E+03  0.31411309399E+03  0.55138455563E+03  0.00000000000E+00 0. -1.
<mgrwt>
<rscale>  2 0.11948010E+04</rscale>
<asrwt>0</asrwt>
<pdfrwt beam="1">  1        2 0.57052389E+00 0.11948010E+04</pdfrwt>
<pdfrwt beam="2">  1       -2 0.82443886E-01 0.11948010E+04</pdfrwt>
<totfact> 0.11262518E+00</totfact>
</mgrwt>
</event>
<event>
 8    1  0.1449514E-005  0.1065053E+04  0.7818608E-02  0.8715759E-01
         -2   -1    0    0    0  501 -0.00000000000E+00  0.00000000000E+00  0.80966807357E+03  0.80966807357E+03  0.00000000000E+00 0.  1.
          2   -1    0    0  502    0  0.00000000000E+00 -0.00000000000E+00 -0.14161638979E+04  0.14161638979E+04  0.00000000000E+00 0. -1.
    9000010    2    1    2  502    0  0.39288641533E+03 -0.10604530893E+03 -0.18577374223E+03  0.10716818924E+04  0.97385052869E+03 0.  0.
   -9000010    2    1    2    0  501 -0.39288641533E+03  0.10604530893E+03 -0.42072208205E+03  0.11541500791E+04  0.99471100917E+03 0.  0.
        -13    1    3    3    0    0  0.47424600838E+03  0.29109557520E+03 -0.32334970987E+03  0.64358445942E+03  0.10566000000E+00 0.  1.
          4    1    3    3  502    0 -0.81359593050E+02 -0.39714088413E+03  0.13757596764E+03  0.42809743295E+03  0.00000000000E+00 0.  1.
         13    1    4    4    0    0 -0.26303517094E+03 -0.26950824792E+03  0.19288283688E+03  0.42311463787E+03  0.10566000000E+00 0. -1.
         -4    1    4    4    0  501 -0.12985124439E+03  0.37555355685E+03 -0.61360491893E+03  0.73103544119E+03  0.00000000000E+00 0. -1.
<mgrwt>
<rscale>  2 0.10650526E+04</rscale>
<asrwt>0</asrwt>
<pdfrwt beam="2">  1        2 0.21787137E+00 0.10650526E+04</pdfrwt>
<pdfrwt beam="1">  1       -2 0.12456432E+00 0.10650526E+04</pdfrwt>
<totfact> 0.10104567E+01</totfact>
</mgrwt>
</event>
<event>
 8    1  0.1449514E-005  0.1336587E+04  0.7818608E-02  0.8510245E-01
         -2   -1    0    0    0  501 -0.00000000000E+00  0.00000000000E+00  0.99406854472E+03  0.99406854472E+03  0.00000000000E+00 0.  1.
          2   -1    0    0  502    0  0.00000000000E+00 -0.00000000000E+00 -0.18028111847E+04  0.18028111847E+04  0.00000000000E+00 0. -1.
    9000010    2    1    2  502    0  0.82650333525E+03 -0.18716510528E+03 -0.33252709070E+03  0.13272159196E+04  0.96581017363E+03 0.  0.
   -9000010    2    1    2    0  501 -0.82650333525E+03  0.18716510528E+03 -0.47621554932E+03  0.14696638098E+04  0.11022667212E+04 0.  0.
        -13    1    3    3    0    0  0.80462912919E+03 -0.36658678079E+03  0.68990562676E+02  0.88688985353E+03  0.10566000000E+00 0.  1.
          4    1    3    3  502    0  0.21874206064E+02  0.17942167551E+03 -0.40151765337E+03  0.44032606612E+03  0.00000000000E+00 0.  1.
         13    1    4    4    0    0  0.19694472658E+03 -0.21138251187E+03 -0.59620906078E+02  0.29499907671E+03  0.10566000000E+00 0. -1.
         -4    1    4    4    0  501 -0.10234480618E+04  0.39854761716E+03 -0.41659464324E+03  0.11746647331E+04  0.00000000000E+00 0. -1.
<mgrwt>
<rscale>  2 0.13365872E+04</rscale>
<asrwt>0</asrwt>
<pdfrwt beam="2">  1        2 0.27735556E+00 0.13365872E+04</pdfrwt>
<pdfrwt beam="1">  1       -2 0.15293362E+00 0.13365872E+04</pdfrwt>
<totfact> 0.33403307E+00</totfact>
</mgrwt>
</event>
<event>
 8    1  0.1449514E-005  0.1028591E+04  0.7818608E-02  0.8748182E-01
          2   -1    0    0  502    0  0.00000000000E+00  0.00000000000E+00  0.11937938913E+04  0.11937938913E+04  0.00000000000E+00 0. -1.
         -2   -1    0    0    0  501 -0.00000000000E+00 -0.00000000000E+00 -0.88897644696E+03  0.88897644696E+03  0.00000000000E+00 0.  1.
    9000010    2    1    2  502    0 -0.21707742917E+03 -0.58653129489E+02  0.21058964668E+03  0.10548121726E+04  0.10088200634E+04 0.  0.
   -9000010    2    1    2    0  501  0.21707742917E+03  0.58653129489E+02  0.94227797672E+02  0.10279581657E+04  0.99862721411E+03 0.  0.
        -13    1    3    3    0    0  0.40148965046E+03 -0.95333637943E+02  0.58624837360E+02  0.41679650271E+03  0.10566000000E+00 0.  1.
          4    1    3    3  502    0 -0.61856707963E+03  0.36680508455E+02  0.15196480932E+03  0.63801566985E+03  0.00000000000E+00 0.  1.
         13    1    4    4    0    0  0.30025949061E+03 -0.22457759780E+03  0.43685722360E+03  0.57570400738E+03  0.10566000000E+00 0. -1.
         -4    1    4    4    0  501 -0.83182061447E+02  0.28323072729E+03 -0.34262942593E+03  0.45225415834E+03  0.00000000000E+00 0. -1.
<mgrwt>
<rscale>  2 0.10285915E+04</rscale>
<asrwt>0</asrwt>
<pdfrwt beam="1">  1        2 0.18366060E+00 0.10285915E+04</pdfrwt>
<pdfrwt beam="2">  1       -2 0.13676561E+00 0.10285915E+04</pdfrwt>
<totfact> 0.10409922E+01</totfact>
</mgrwt>
</event>
<event>
 8    1  0.1449514E-005  0.1027587E+04  0.7818608E-02  0.8749095E-01
         -2   -1    0    0    0  501 -0.00000000000E+00  0.00000000000E+00  0.43713502090E+03  0.43713502090E+03  0.00000000000E+00 0.  1.
          2   -1    0    0  502    0  0.00000000000E+00 -0.00000000000E+00 -0.25700511094E+04  0.25700511094E+04  0.00000000000E+00 0. -1.
    9000010    2    1    2  502    0  0.72662595286E+02 -0.30422353448E+03 -0.72308929826E+03  0.12765601498E+04  0.10044480430E+04 0.  0.
   -9000010    2    1    2    0  501 -0.72662595286E+02  0.30422353448E+03 -0.14098267902E+04  0.17306259805E+04  0.95374152379E+03 0.  0.
        -13    1    3    3    0    0 -0.41986044725E+03 -0.17422964882E+03 -0.59956575811E+03  0.75240805096E+03  0.10566000000E+00 0.  1.
          4    1    3    3  502    0  0.49252304254E+03 -0.12999388567E+03 -0.12352354016E+03  0.52415209884E+03  0.00000000000E+00 0.  1.
         13    1    4    4    0    0  0.18820780885E+03  0.17160014455E+03  0.34437176688E+02  0.25701112666E+03  0.10566000000E+00 0. -1.
         -4    1    4    4    0  501 -0.26087040414E+03  0.13262338993E+03 -0.14442639669E+04  0.14736148538E+04  0.00000000000E+00 0. -1.
<mgrwt>
<rscale>  2 0.10275868E+04</rscale>
<asrwt>0</asrwt>
<pdfrwt beam="2">  1        2 0.39539248E+00 0.10275868E+04</pdfrwt>
<pdfrwt beam="1">  1       -2 0.67251541E-01 0.10275868E+04</pdfrwt>
<totfact> 0.99982047E+00</totfact>
</mgrwt>
</event>
<event>
 8    1  0.1449514E-005  0.1084851E+04  0.7818608E-02  0.8698714E-01
          2   -1    0    0  502    0  0.00000000000E+00  0.00000000000E+00  0.18076278740E+04  0.18076278740E+04  0.00000000000E+00 0. -1.
         -2   -1    0    0    0  501 -0.00000000000E+00 -0.00000000000E+00 -0.79509697836E+03  0.79509697836E+03  0.00000000000E+00 0.  1.
    9000010    2    1    2  502    0 -0.33616434505E+03  0.23242134580E+03  0.10560297354E+04  0.15065893740E+04  0.99377391336E+03 0.  0.
   -9000010    2    1    2    0  501  0.33616434505E+03 -0.23242134580E+03 -0.43498839703E+02  0.10961354784E+04  0.10161666641E+04 0.  0.
        -13    1    3    3    0    0 -0.43646653006E+03 -0.21460782820E+03  0.18115359519E+03  0.51901463178E+03  0.10566000000E+00 0.  1.
          4    1    3    3  502    0  0.10030218501E+03  0.44702917400E+03  0.87487614019E+03  0.98757474218E+03  0.00000000000E+00 0.  1.
         13    1    4    4    0    0  0.43864890085E+02  0.18483827696E+03 -0.42112147479E+03  0.46198768913E+03  0.10566000000E+00 0. -1.
         -4    1    4    4    0  501  0.29229945496E+03 -0.41725962276E+03  0.37762263509E+03  0.63414778931E+03  0.00000000000E+00 0. -1.
<mgrwt>
<rscale>  2 0.10848510E+04</rscale>
<asrwt>0</asrwt>
<pdfrwt beam="1">  1        2 0.27809659E+00 0.10848510E+04</pdfrwt>
<pdfrwt beam="2">  1       -2 0.12232261E+00 0.10848510E+04</pdfrwt>
<totfact> 0.64810001E+00</totfact>
</mgrwt>
</event>
<event>
 8    1  0.1449514E-005  0.1385692E+04  0.7818608E-02  0.8478481E-01
          2   -1    0    0  502    0  0.00000000000E+00  0.00000000000E+00  0.12999172906E+04  0.12999172906E+04  0.00000000000E+00 0. -1.
         -2   -1    0    0    0  501 -0.00000000000E+00 -0.00000000000E+00 -0.15607410641E+04  0.15607410641E+04  0.00000000000E+00 0.  1.
    9000010    2    1    2  502    0  0.92473931940E+03 -0.20314411465E+03 -0.46191908928E+03  0.14659326995E+04  0.10194013411E+04 0.  0.
   -9000010    2    1    2    0  501 -0.92473931940E+03  0.20314411465E+03  0.20109531577E+03  0.13947256552E+04  0.10041961896E+04 0.  0.
        -13    1    3    3    0    0  0.93769829930E+03 -0.40362152338E+03 -0.63373409401E+03  0.12015853477E+04  0.10566000000E+00 0.  1.
          4    1    3    3  502    0 -0.12958979899E+02  0.20047740873E+03  0.17181500472E+03  0.26434735183E+03  0.00000000000E+00 0.  1.
         13    1    4    4    0    0 -0.28958869909E+03 -0.39073400603E+03  0.19818044357E+03  0.52517632990E+03  0.10566000000E+00 0. -1.
         -4    1    4    4    0  501 -0.63515062031E+03  0.59387812068E+03  0.29148722023E+01  0.86954932533E+03  0.00000000000E+00 0. -1.
<mgrwt>
<rscale>  2 0.13856923E+04</rscale>
<asrwt>0</asrwt>
<pdfrwt beam="1">  1        2 0.19998728E+00 0.13856923E+04</pdfrwt>
<pdfrwt beam="2">  1       -2 0.24011401E+00 0.13856923E+04</pdfrwt>
<totfact> 0.11903708E+00</totfact>
</mgrwt>
</event>
<event>
 8    1  0.1449514E-005  0.1100573E+04  0.7818608E-02  0.8685448E-01
         -1   -1    0    0    0  501 -0.00000000000E+00  0.00000000000E+00  0.16749146199E+04  0.16749146199E+04  0.00000000000E+00 0.  1.
          1   -1    0    0  502    0  0.00000000000E+00 -0.00000000000E+00 -0.73379355208E+03  0.73379355208E+03  0.00000000000E+00 0. -1.
    9000010    2    1    2  502    0  0.20266920332E+03 -0.41188996167E+03  0.32759425079E+03  0.11524401706E+04  0.10050234859E+04 0.  0.
   -9000010    2    1    2    0  501 -0.20266920332E+03  0.41188996167E+03  0.61352681701E+03  0.12562680014E+04  0.99552297291E+03 0.  0.
        -13    1    3    3    0    0  0.41375508124E+03  0.17964823137E+03  0.16082792571E+02  0.45135952595E+03  0.10566000000E+00 0.  1.
          4    1    3    3  502    0 -0.21108587792E+03 -0.59153819304E+03  0.31151145822E+03  0.70108064463E+03  0.00000000000E+00 0.  1.
         13    1    4    4    0    0  0.39452379388E+03  0.16085515938E+03  0.12226641875E+03  0.44325217941E+03  0.10566000000E+00 0. -1.
         -4    1    4    4    0  501 -0.59719299720E+03  0.25103480229E+03  0.49126039825E+03  0.81301582196E+03  0.00000000000E+00 0. -1.
<mgrwt>
<rscale>  2 0.11005726E+04</rscale>
<asrwt>0</asrwt>
<pdfrwt beam="2">  1        1 0.11289132E+00 0.11005726E+04</pdfrwt>
<pdfrwt beam="1">  1       -1 0.25767917E+00 0.11005726E+04</pdfrwt>
<totfact> 0.14083513E+00</totfact>
</mgrwt>
</event>
<event>
 8    1  0.1449514E-005  0.1482005E+04  0.7818608E-02  0.8419931E-01
          2   -1    0    0  502    0  0.00000000000E+00  0.00000000000E+00  0.22516241729E+04  0.22516241729E+04  0.00000000000E+00 0. -1.
         -2   -1    0    0    0  501 -0.00000000000E+00 -0.00000000000E+00 -0.14646255127E+04  0.14646255127E+04  0.00000000000E+00 0.  1.
    9000010    2    1    2  502    0 -0.79968809134E+03  0.73799417677E+03  0.14671697414E+04  0.20846679913E+04  0.10045482246E+04 0.  0.
   -9000010    2    1    2    0  501  0.79968809134E+03 -0.73799417677E+03 -0.68017108119E+03  0.16315816942E+04  0.10076158379E+04 0.  0.
        -13    1    3    3    0    0 -0.32018157771E+03 -0.16077367035E+03  0.85979199449E+02  0.36845196388E+03  0.10566000000E+00 0.  1.
          4    1    3    3  502    0 -0.47950651362E+03  0.89876784711E+03  0.13811905420E+04  0.17162160274E+04  0.00000000000E+00 0.  1.
         13    1    4    4    0    0  0.56322698394E+03 -0.79821329430E+03 -0.75850734323E+02  0.97985837941E+03  0.10566000000E+00 0. -1.
         -4    1    4    4    0  501  0.23646110740E+03  0.60219117537E+02 -0.60432034687E+03  0.65172331481E+03  0.00000000000E+00 0. -1.
<mgrwt>
<rscale>  2 0.14820046E+04</rscale>
<asrwt>0</asrwt>
<pdfrwt beam="1">  1        2 0.34640372E+00 0.14820046E+04</pdfrwt>
<pdfrwt beam="2">  1       -2 0.22532700E+00 0.14820046E+04</pdfrwt>
<totfact> 0.46329392E-01</totfact>
</mgrwt>
</event>
<event>
 8    1  0.1449514E-005  0.1169837E+04  0.7818608E-02  0.8629629E-01
          2   -1    0    0  502    0  0.00000000000E+00  0.00000000000E+00  0.15014784041E+04  0.15014784041E+04  0.00000000000E+00 0.  1.
         -2   -1    0    0    0  501 -0.00000000000E+00 -0.00000000000E+00 -0.10529050879E+04  0.10529050879E+04  0.00000000000E+00 0. -1.
    9000010    2    1    2  502    0 -0.57956361824E+03 -0.12609734127E+03 -0.24576075148E+03  0.11830042160E+04  0.99363277974E+03 0.  0.
   -9000010    2    1    2    0  501  0.57956361824E+03  0.12609734127E+03  0.69433406768E+03  0.13713792761E+04  0.10231259914E+04 0.  0.
        -13    1    3    3    0    0 -0.61923614287E+03  0.14165082878E+03 -0.50248855704E+03  0.80994636801E+03  0.10566000000E+00 0.  1.
          4    1    3    3  502    0  0.39672524631E+02 -0.26774817006E+03  0.25672780556E+03  0.37305784796E+03  0.00000000000E+00 0.  1.
         13    1    4    4    0    0 -0.18350960321E+02  0.48490100042E+03  0.29158032190E+03  0.56611379884E+03  0.10566000000E+00 0. -1.
         -4    1    4    4    0  501  0.59791457856E+03 -0.35880365915E+03  0.40275374579E+03  0.80526547723E+03  0.00000000000E+00 0. -1.
<mgrwt>
<rscale>  2 0.11698367E+04</rscale>
<asrwt>0</asrwt>
<pdfrwt beam="1">  1        2 0.23099668E+00 0.11698367E+04</pdfrwt>
<pdfrwt beam="2">  1       -2 0.16198540E+00 0.11698367E+04</pdfrwt>
<totfact> 0.41379889E+00</totfact>
</mgrwt>
</event>
<event>
 8    1  0.1449514E-005  0.1751967E+04  0.7818608E-02  0.8277617E-01
         -2   -1    0    0    0  501 -0.00000000000E+00  0.00000000000E+00  0.92892277213E+03  0.92892277213E+03  0.00000000000E+00 0. -1.
          2   -1    0    0  502    0  0.00000000000E+00 -0.00000000000E+00 -0.41112844861E+04  0.41112844861E+04  0.00000000000E+00 0.  1.
    9000010    2    1    2  502    0 -0.13996642226E+04 -0.32356291448E+03 -0.27071811180E+04  0.32242209662E+04  0.10015080317E+04 0.  0.
   -9000010    2    1    2    0  501  0.13996642226E+04  0.32356291448E+03 -0.47518059596E+03  0.18159862920E+04  0.10041198725E+04 0.  0.
        -13    1    3    3    0    0 -0.96720512324E+03  0.24936263492E+03 -0.18811077690E+04  0.21298436383E+04  0.10566000000E+00 0.  1.
          4    1    3    3  502    0 -0.43245909935E+03 -0.57292554940E+03 -0.82607334906E+03  0.10943773279E+04  0.00000000000E+00 0.  1.
         13    1    4    4    0    0  0.73358479845E+03 -0.20899670584E+03  0.12527754758E+03  0.77299466664E+03  0.10566000000E+00 0. -1.
         -4    1    4    4    0  501  0.66607942415E+03  0.53255962033E+03 -0.60045814355E+03  0.10429916254E+04  0.00000000000E+00 0. -1.
<mgrwt>
<rscale>  2 0.17519673E+04</rscale>
<asrwt>0</asrwt>
<pdfrwt beam="2">  1        2 0.63250530E+00 0.17519673E+04</pdfrwt>
<pdfrwt beam="1">  1       -2 0.14291120E+00 0.17519673E+04</pdfrwt>
<totfact> 0.11644556E-01</totfact>
</mgrwt>
</event>
<event>
 8    1  0.1449514E-005  0.1826667E+04  0.7818608E-02  0.8242864E-01
         -2   -1    0    0    0  501 -0.00000000000E+00  0.00000000000E+00  0.12505126526E+04  0.12505126526E+04  0.00000000000E+00 0.  1.
          2   -1    0    0  502    0  0.00000000000E+00 -0.00000000000E+00 -0.26778665536E+04  0.26778665536E+04  0.00000000000E+00 0. -1.
    9000010    2    1    2  502    0  0.39513673600E+03 -0.14681350559E+04 -0.59735113480E+03  0.19247278444E+04  0.10179367928E+04 0.  0.
   -9000010    2    1    2    0  501 -0.39513673600E+03  0.14681350559E+04 -0.83000276622E+03  0.20036513618E+04  0.10070554132E+04 0.  0.
        -13    1    3    3    0    0 -0.19762939399E+03 -0.11272077154E+04 -0.33648772041E+03  0.11928447544E+04  0.10566000000E+00 0.  1.
          4    1    3    3  502    0  0.59276612998E+03 -0.34092734055E+03 -0.26086341438E+03  0.73188308995E+03  0.00000000000E+00 0.  1.
         13    1    4    4    0    0 -0.10748584662E+03  0.57875938370E+03  0.19149972993E+03  0.61902163870E+03  0.10566000000E+00 0. -1.
         -4    1    4    4    0  501 -0.28765088938E+03  0.88937567224E+03 -0.10215024962E+04  0.13846297231E+04  0.00000000000E+00 0. -1.
<mgrwt>
<rscale>  2 0.18266673E+04</rscale>
<asrwt>0</asrwt>
<pdfrwt beam="2">  1        2 0.41197947E+00 0.18266673E+04</pdfrwt>
<pdfrwt beam="1">  1       -2 0.19238656E+00 0.18266673E+04</pdfrwt>
<totfact> 0.47970021E-01</totfact>
</mgrwt>
</event>
<event>
 8    1  0.1449514E-005  0.1160964E+04  0.7818608E-02  0.8636552E-01
         -1   -1    0    0    0  501 -0.00000000000E+00  0.00000000000E+00  0.85033685255E+03  0.85033685255E+03  0.00000000000E+00 0.  1.
          1   -1    0    0  502    0  0.00000000000E+00 -0.00000000000E+00 -0.28165929128E+04  0.28165929128E+04  0.00000000000E+00 0. -1.
    9000010    2    1    2  502    0 -0.57525956402E+03 -0.11615652530E+03 -0.21964150721E+04  0.24852758998E+04  0.10039627605E+04 0.  0.
   -9000010    2    1    2    0  501  0.57525956402E+03  0.11615652530E+03  0.23015901186E+03  0.11816538656E+04  0.99945824474E+03 0.  0.
        -13    1    3    3    0    0  0.27234600174E+03 -0.13126642929E+03 -0.75146121865E+03  0.80999826816E+03  0.10566000000E+00 0.  1.
          4    1    3    3  502    0 -0.84760556576E+03  0.15109903984E+02 -0.14449538535E+04  0.16752776316E+04  0.00000000000E+00 0.  1.
         13    1    4    4    0    0  0.11876839456E+03 -0.39944851948E+03  0.26204073594E+03  0.49227066713E+03  0.10566000000E+00 0. -1.
         -4    1    4    4    0  501  0.45649116946E+03  0.51560504478E+03 -0.31881724082E+02  0.68938319847E+03  0.00000000000E+00 0. -1.
<mgrwt>
<rscale>  2 0.11609640E+04</rscale>
<asrwt>0</asrwt>
<pdfrwt beam="2">  1        1 0.43332199E+00 0.11609640E+04</pdfrwt>
<pdfrwt beam="1">  1       -1 0.13082105E+00 0.11609640E+04</pdfrwt>
<totfact> 0.38780011E-01</totfact>
</mgrwt>
</event>
<event>
 8    1  0.1449514E-005  0.1212349E+04  0.7818608E-02  0.8597321E-01
          2   -1    0    0  502    0  0.00000000000E+00  0.00000000000E+00  0.69276513455E+03  0.69276513455E+03  0.00000000000E+00 0.  1.
         -2   -1    0    0    0  501 -0.00000000000E+00 -0.00000000000E+00 -0.21659475698E+04  0.21659475698E+04  0.00000000000E+00 0. -1.
    9000010    2    1    2  502    0  0.45753496421E+03 -0.50886695387E+03 -0.53237677588E+03  0.13244706053E+04  0.10012559775E+04 0.  0.
   -9000010    2    1    2    0  501 -0.45753496421E+03  0.50886695387E+03 -0.94080565938E+03  0.15342420991E+04  0.10002498236E+04 0.  0.
        -13    1    3    3    0    0  0.34512548778E+03  0.14986588103E+03 -0.53760634162E+03  0.65619507338E+03  0.10566000000E+00 0.  1.
          4    1    3    3  502    0  0.11240947643E+03 -0.65873283490E+03  0.52295657355E+01  0.66827553189E+03  0.00000000000E+00 0.  1.
         13    1    4    4    0    0  0.83898167053E+02  0.35600960680E+03  0.74696699801E+02  0.37331133212E+03  0.10566000000E+00 0. -1.
         -4    1    4    4    0  501 -0.54143313126E+03  0.15285734707E+03 -0.10155023592E+04  0.11609307670E+04  0.00000000000E+00 0. -1.
<mgrwt>
<rscale>  2 0.12123490E+04</rscale>
<asrwt>0</asrwt>
<pdfrwt beam="1">  1        2 0.10657925E+00 0.12123490E+04</pdfrwt>
<pdfrwt beam="2">  1       -2 0.33322270E+00 0.12123490E+04</pdfrwt>
<totfact> 0.63595399E-01</totfact>
</mgrwt>
</event>
<event>
 8    1  0.1449514E-005  0.1113873E+04  0.7818608E-02  0.8674403E-01
          2   -1    0    0  502    0  0.00000000000E+00  0.00000000000E+00  0.39246796085E+04  0.39246796085E+04  0.00000000000E+00 0. -1.
         -2   -1    0    0    0  501 -0.00000000000E+00 -0.00000000000E+00 -0.32235487588E+03  0.32235487588E+03  0.00000000000E+00 0.  1.
    9000010    2    1    2  502    0  0.42385924661E+03 -0.24862000612E+03  0.15093555302E+04  0.18770760972E+04  0.10018942008E+04 0.  0.
   -9000010    2    1    2    0  501 -0.42385924661E+03  0.24862000612E+03  0.20929692024E+04  0.23699583872E+04  0.99735355144E+03 0.  0.
        -13    1    3    3    0    0  0.52452906010E+03  0.10141156572E+02  0.15109279181E+04  0.15994176324E+04  0.10566000000E+00 0.  1.
          4    1    3    3  502    0 -0.10066981349E+03 -0.25876116269E+03 -0.15723878764E+01  0.27765846479E+03  0.00000000000E+00 0.  1.
         13    1    4    4    0    0 -0.55899685593E+03 -0.23421574897E+03  0.12490751085E+04  0.13883526713E+04  0.10566000000E+00 0. -1.
         -4    1    4    4    0  501  0.13513760933E+03  0.48283575509E+03  0.84389409391E+03  0.98160571595E+03  0.00000000000E+00 0. -1.
<mgrwt>
<rscale>  2 0.11138731E+04</rscale>
<asrwt>0</asrwt>
<pdfrwt beam="1">  1        2 0.60379683E+00 0.11138731E+04</pdfrwt>
<pdfrwt beam="2">  1       -2 0.49593060E-01 0.11138731E+04</pdfrwt>
<totfact> 0.21448005E+00</totfact>
</mgrwt>
</event>
<event>
 8    1  0.1449514E-005  0.1167800E+04  0.7818608E-02  0.8631213E-01
         -2   -1    0    0    0  501 -0.00000000000E+00  0.00000000000E+00  0.10952477798E+04  0.10952477798E+04  0.00000000000E+00 0.  1.
          2   -1    0    0  502    0  0.00000000000E+00 -0.00000000000E+00 -0.12980735275E+04  0.12980735275E+04  0.00000000000E+00 0. -1.
    9000010    2    1    2  502    0  0.44353982269E+02 -0.61744593316E+03  0.14071244376E+03  0.11685798173E+04  0.98110755854E+03 0.  0.
   -9000010    2    1    2    0  501 -0.44353982269E+02  0.61744593316E+03 -0.34353819151E+03  0.12247414900E+04  0.99938304584E+03 0.  0.
        -13    1    3    3    0    0 -0.36512367093E+03 -0.40384662946E+03  0.36469287013E+03  0.65529252696E+03  0.10566000000E+00 0.  1.
          4    1    3    3  502    0  0.40947765320E+03 -0.21359930370E+03 -0.22398042637E+03  0.51328729032E+03  0.00000000000E+00 0.  1.
         13    1    4    4    0    0  0.16120871330E+03  0.69845127151E+02 -0.57080286054E+03  0.59722902457E+03  0.10566000000E+00 0. -1.
         -4    1    4    4    0  501 -0.20556269557E+03  0.54760080600E+03  0.22726466902E+03  0.62751246548E+03  0.00000000000E+00 0. -1.
<mgrwt>
<rscale>  2 0.11677996E+04</rscale>
<asrwt>0</asrwt>
<pdfrwt beam="2">  1        2 0.19970362E+00 0.11677996E+04</pdfrwt>
<pdfrwt beam="1">  1       -2 0.16849966E+00 0.11677996E+04</pdfrwt>
<totfact> 0.47217748E+00</totfact>
</mgrwt>
</event>
<event>
 8    1  0.1449514E-005  0.1273962E+04  0.7818608E-02  0.8552855E-01
          2   -1    0    0  502    0  0.00000000000E+00  0.00000000000E+00  0.97551010422E+03  0.97551010422E+03  0.00000000000E+00 0.  1.
         -2   -1    0    0    0  501 -0.00000000000E+00 -0.00000000000E+00 -0.17244295870E+04  0.17244295870E+04  0.00000000000E+00 0. -1.
    9000010    2    1    2  502    0 -0.26675288410E+03 -0.71381331888E+03 -0.63052079705E+03  0.14310659616E+04  0.10342662885E+04 0.  0.
   -9000010    2    1    2    0  501  0.26675288410E+03  0.71381331888E+03 -0.11839868574E+03  0.12688737297E+04  0.10076386940E+04 0.  0.
        -13    1    3    3    0    0  0.42341037213E+01 -0.92870764229E+03 -0.37734207056E+03  0.10024484335E+04  0.10566000000E+00 0.  1.
          4    1    3    3  502    0 -0.27098698782E+03  0.21489432342E+03 -0.25317872650E+03  0.42861752805E+03  0.00000000000E+00 0.  1.
         13    1    4    4    0    0  0.53408907227E+03  0.42141797500E+02  0.34384981310E+01  0.53576011670E+03  0.10566000000E+00 0. -1.
         -4    1    4    4    0  501 -0.26733618817E+03  0.67167152138E+03 -0.12183718387E+03  0.73311361296E+03  0.00000000000E+00 0. -1.
<mgrwt>
<rscale>  2 0.12739624E+04</rscale>
<asrwt>0</asrwt>
<pdfrwt beam="1">  1        2 0.15007848E+00 0.12739624E+04</pdfrwt>
<pdfrwt beam="2">  1       -2 0.26529686E+00 0.12739624E+04</pdfrwt>
<totfact> 0.11895934E+00</totfact>
</mgrwt>
</event>
<event>
 8    1  0.1449514E-005  0.1133675E+04  0.7818608E-02  0.8658253E-01
         -2   -1    0    0    0  501 -0.00000000000E+00  0.00000000000E+00  0.96888715563E+03  0.96888715563E+03  0.00000000000E+00 0. -1.
          2   -1    0    0  502    0  0.00000000000E+00 -0.00000000000E+00 -0.13344944463E+04  0.13344944463E+04  0.00000000000E+00 0.  1.
    9000010    2    1    2  502    0  0.81803119126E+02 -0.52887652993E+03 -0.94064619570E+02  0.11401678904E+04  0.10023634727E+04 0.  0.
   -9000010    2    1    2    0  501 -0.81803119126E+02  0.52887652993E+03 -0.27154267108E+03  0.11632137115E+04  0.99645801830E+03 0.  0.
        -13    1    3    3    0    0  0.53615955954E+03 -0.35022388080E+03 -0.11875259359E+03  0.65132636183E+03  0.10566000000E+00 0.  1.
          4    1    3    3  502    0 -0.45435644041E+03 -0.17865264913E+03  0.24687974020E+02  0.48884152856E+03  0.00000000000E+00 0.  1.
         13    1    4    4    0    0  0.76479822600E+02  0.61625377724E+03 -0.55111860837E+03  0.83027080696E+03  0.10566000000E+00 0. -1.
         -4    1    4    4    0  501 -0.15828294173E+03 -0.87377247314E+02  0.27957593729E+03  0.33294290456E+03  0.00000000000E+00 0. -1.
<mgrwt>
<rscale>  2 0.11336751E+04</rscale>
<asrwt>0</asrwt>
<pdfrwt beam="2">  1        2 0.20530684E+00 0.11336751E+04</pdfrwt>
<pdfrwt beam="1">  1       -2 0.14905956E+00 0.11336751E+04</pdfrwt>
<totfact> 0.66644940E+00</totfact>
</mgrwt>
</event>
<event>
 8    1  0.1449514E-005  0.1202792E+04  0.7818608E-02  0.8604463E-01
         -2   -1    0    0    0  501 -0.00000000000E+00  0.00000000000E+00  0.48941512643E+03  0.48941512643E+03  0.00000000000E+00 0. -1.
          2   -1    0    0  502    0  0.00000000000E+00 -0.00000000000E+00 -0.30615729901E+04  0.30615729901E+04  0.00000000000E+00 0.  1.
    9000010    2    1    2  502    0  0.62284749044E+03 -0.32904832642E+03 -0.16381061895E+04  0.20463113273E+04  0.10038856324E+04 0.  0.
   -9000010    2    1    2    0  501 -0.62284749044E+03  0.32904832642E+03 -0.93405167418E+03  0.15046767892E+04  0.94624939227E+03 0.  0.
        -13    1    3    3    0    0  0.41511501098E+03 -0.36505766697E+03 -0.17301113951E+04  0.18162799958E+04  0.10566000000E+00 0.  1.
          4    1    3    3  502    0  0.20773247946E+03  0.36009340549E+02  0.92005205622E+02  0.23003133154E+03  0.00000000000E+00 0.  1.
         13    1    4    4    0    0  0.23141101088E+03  0.35179122009E+01 -0.58202914764E+02  0.23864413279E+03  0.10566000000E+00 0. -1.
         -4    1    4    4    0  501 -0.85425850132E+03  0.32553041422E+03 -0.87584875942E+03  0.12660326564E+04  0.00000000000E+00 0. -1.
<mgrwt>
<rscale>  2 0.12027917E+04</rscale>
<asrwt>0</asrwt>
<pdfrwt beam="2">  1        2 0.47101122E+00 0.12027917E+04</pdfrwt>
<pdfrwt beam="1">  1       -2 0.75294636E-01 0.12027917E+04</pdfrwt>
<totfact> 0.39309746E+00</totfact>
</mgrwt>
</event>
<event>
 8    1  0.1449514E-005  0.1485137E+04  0.7818608E-02  0.8418104E-01
          2   -1    0    0  502    0  0.00000000000E+00  0.00000000000E+00  0.66294794873E+03  0.66294794873E+03  0.00000000000E+00 0.  1.
         -2   -1    0    0    0  501 -0.00000000000E+00 -0.00000000000E+00 -0.33459167495E+04  0.33459167495E+04  0.00000000000E+00 0. -1.
    9000010    2    1    2  502    0  0.36795759384E+03 -0.10033200811E+04 -0.15024842757E+04  0.21214819379E+04  0.10493724972E+04 0.  0.
   -9000010    2    1    2    0  501 -0.36795759384E+03  0.10033200811E+04 -0.11804845250E+04  0.18873827603E+04  0.10132255397E+04 0.  0.
        -13    1    3    3    0    0  0.40675777005E+02 -0.11295114346E+04 -0.12728499476E+04  0.17022331216E+04  0.10566000000E+00 0.  1.
          4    1    3    3  502    0  0.32728181683E+03  0.12619135354E+03 -0.22963432808E+03  0.41924881630E+03  0.00000000000E+00 0.  1.
         13    1    4    4    0    0 -0.13437012299E+03  0.13614587894E+03 -0.93776793329E+03  0.95707875234E+03  0.10566000000E+00 0. -1.
         -4    1    4    4    0  501 -0.23358747084E+03  0.86717420213E+03 -0.24271659172E+03  0.93030400799E+03  0.00000000000E+00 0. -1.
<mgrwt>
<rscale>  2 0.14851375E+04</rscale>
<asrwt>0</asrwt>
<pdfrwt beam="1">  1        2 0.10199199E+00 0.14851375E+04</pdfrwt>
<pdfrwt beam="2">  1       -2 0.51475642E+00 0.14851375E+04</pdfrwt>
<totfact> 0.17841497E-01</totfact>
</mgrwt>
</event>
<event>
 8    1  0.1449514E-005  0.1285592E+04  0.7818608E-02  0.8544754E-01
         -2   -1    0    0    0  501 -0.00000000000E+00  0.00000000000E+00  0.47846032502E+03  0.47846032502E+03  0.00000000000E+00 0.  1.
          2   -1    0    0  502    0  0.00000000000E+00 -0.00000000000E+00 -0.38702343569E+04  0.38702343569E+04  0.00000000000E+00 0. -1.
    9000010    2    1    2  502    0  0.80937263352E+03 -0.42949248658E+02 -0.24086713783E+04  0.27302731588E+04  0.99788026116E+03 0.  0.
   -9000010    2    1    2    0  501 -0.80937263352E+03  0.42949248658E+02 -0.98310265360E+03  0.16184215231E+04  0.99793221258E+03 0.  0.
        -13    1    3    3    0    0  0.39153038307E+03 -0.50984889498E+03 -0.14351705622E+04  0.15725636682E+04  0.10566000000E+00 0.  1.
          4    1    3    3  502    0  0.41784225045E+03  0.46689964632E+03 -0.97350081603E+03  0.11577094907E+04  0.00000000000E+00 0.  1.
         13    1    4    4    0    0 -0.39467243005E+02  0.27524844000E+03 -0.72073979028E+03  0.77251875281E+03  0.10566000000E+00 0. -1.
         -4    1    4    4    0  501 -0.76990539052E+03 -0.23229919135E+03 -0.26236286333E+03  0.84590277024E+03  0.00000000000E+00 0. -1.
<mgrwt>
<rscale>  2 0.12855915E+04</rscale>
<asrwt>0</asrwt>
<pdfrwt beam="2">  1        2 0.59542064E+00 0.12855915E+04</pdfrwt>
<pdfrwt beam="1">  1       -2 0.73609284E-01 0.12855915E+04</pdfrwt>
<totfact> 0.10455572E+00</totfact>
</mgrwt>
</event>
<event>
 8    1  0.1449514E-005  0.1094961E+04  0.7818608E-02  0.8690156E-01
         -1   -1    0    0    0  501 -0.00000000000E+00  0.00000000000E+00  0.10966235435E+04  0.10966235435E+04  0.00000000000E+00 0. -1.
          1   -1    0    0  502    0  0.00000000000E+00 -0.00000000000E+00 -0.13503651271E+04  0.13503651271E+04  0.00000000000E+00 0.  1.
    9000010    2    1    2  502    0 -0.44321571209E+03 -0.14474156251E+03  0.40501451147E+03  0.11836725618E+04  0.10097790311E+04 0.  0.
   -9000010    2    1    2    0  501  0.44321571209E+03  0.14474156251E+03 -0.65875609513E+03  0.12633161088E+04  0.97191445641E+03 0.  0.
        -13    1    3    3    0    0  0.77696384607E+02  0.27399378574E+03 -0.14364013466E+03  0.31896993942E+03  0.10566000000E+00 0.  1.
          4    1    3    3  502    0 -0.52091209670E+03 -0.41873534825E+03  0.54865464613E+03  0.86470262234E+03  0.00000000000E+00 0.  1.
         13    1    4    4    0    0  0.13088795790E+03  0.17685829798E+03  0.23146244365E+03  0.31935151334E+03  0.10566000000E+00 0. -1.
         -4    1    4    4    0  501  0.31232775419E+03 -0.32116735461E+02 -0.89021853878E+03  0.94396459548E+03  0.00000000000E+00 0. -1.
<mgrwt>
<rscale>  2 0.10949608E+04</rscale>
<asrwt>0</asrwt>
<pdfrwt beam="2">  1        1 0.20774848E+00 0.10949608E+04</pdfrwt>
<pdfrwt beam="1">  1       -1 0.16871132E+00 0.10949608E+04</pdfrwt>
<totfact> 0.29023687E+00</totfact>
</mgrwt>
</event>
<event>
 8    1  0.1449514E-005  0.1136284E+04  0.7818608E-02  0.8656151E-01
          2   -1    0    0  502    0  0.00000000000E+00  0.00000000000E+00  0.22103963071E+04  0.22103963071E+04  0.00000000000E+00 0. -1.
         -2   -1    0    0    0  501 -0.00000000000E+00 -0.00000000000E+00 -0.68056447127E+03  0.68056447127E+03  0.00000000000E+00 0.  1.
    9000010    2    1    2  502    0 -0.30701413712E+03  0.46688898952E+03  0.13179328540E+04  0.17507082488E+04  0.10078637585E+04 0.  0.
   -9000010    2    1    2    0  501  0.30701413712E+03 -0.46688898952E+03  0.21189898178E+03  0.11402525296E+04  0.97109816387E+03 0.  0.
        -13    1    3    3    0    0 -0.64408339916E+02 -0.26897420623E+03  0.75889108794E+02  0.28680084705E+03  0.10566000000E+00 0.  1.
          4    1    3    3  502    0 -0.24260579720E+03  0.73586319575E+03  0.12420437452E+04  0.14639074017E+04  0.00000000000E+00 0.  1.
         13    1    4    4    0    0 -0.13716595728E+03 -0.63013480314E+03  0.86296474620E+02  0.65063927230E+03  0.10566000000E+00 0. -1.
         -4    1    4    4    0  501  0.44418009440E+03  0.16324581362E+03  0.12560250716E+03  0.48961325731E+03  0.00000000000E+00 0. -1.
<mgrwt>
<rscale>  2 0.11362839E+04</rscale>
<asrwt>0</asrwt>
<pdfrwt beam="1">  1        2 0.34006097E+00 0.11362839E+04</pdfrwt>
<pdfrwt beam="2">  1       -2 0.10470223E+00 0.11362839E+04</pdfrwt>
<totfact> 0.57833018E+00</totfact>
</mgrwt>
</event>
<event>
 8    1  0.1449514E-005  0.1103244E+04  0.7818608E-02  0.8683216E-01
         -1   -1    0    0    0  501 -0.00000000000E+00  0.00000000000E+00  0.15056456148E+04  0.15056456148E+04  0.00000000000E+00 0.  1.
          1   -1    0    0  502    0  0.00000000000E+00 -0.00000000000E+00 -0.81781639598E+03  0.81781639598E+03  0.00000000000E+00 0. -1.
    9000010    2    1    2  502    0  0.12034154014E+03 -0.45069022847E+03  0.21827969370E+03  0.11216069423E+04  0.99636958005E+03 0.  0.
   -9000010    2    1    2    0  501 -0.12034154014E+03  0.45069022847E+03  0.46954952509E+03  0.12018550684E+04  0.10031824763E+04 0.  0.
        -13    1    3    3    0    0 -0.44332592079E+02 -0.19789133173E+03  0.60098542166E+03  0.63427899706E+03  0.10566000000E+00 0.  1.
          4    1    3    3  502    0  0.16467413222E+03 -0.25279889674E+03 -0.38270572796E+03  0.48732794526E+03  0.00000000000E+00 0.  1.
         13    1    4    4    0    0  0.39524327617E+03  0.16085092233E+03  0.43503401134E+03  0.60938072562E+03  0.10566000000E+00 0. -1.
         -4    1    4    4    0  501 -0.51558481631E+03  0.28983930614E+03  0.34515513754E+02  0.59247434281E+03  0.00000000000E+00 0. -1.
<mgrwt>
<rscale>  2 0.11032445E+04</rscale>
<asrwt>0</asrwt>
<pdfrwt beam="2">  1        1 0.12581791E+00 0.11032445E+04</pdfrwt>
<pdfrwt beam="1">  1       -1 0.23163779E+00 0.11032445E+04</pdfrwt>
<totfact> 0.21078926E+00</totfact>
</mgrwt>
</event>
<event>
 8    1  0.1449514E-005  0.1329654E+04  0.7818608E-02  0.8514843E-01
         -1   -1    0    0    0  501 -0.00000000000E+00  0.00000000000E+00  0.12576114439E+04  0.12576114439E+04  0.00000000000E+00 0. -1.
          1   -1    0    0  502    0  0.00000000000E+00 -0.00000000000E+00 -0.16017345443E+04  0.16017345443E+04  0.00000000000E+00 0.  1.
    9000010    2    1    2  502    0 -0.75086202244E+03  0.51090108715E+03  0.32504352673E+03  0.13894235412E+04  0.10000153923E+04 0.  0.
   -9000010    2    1    2    0  501  0.75086202244E+03 -0.51090108715E+03 -0.66916662713E+03  0.14699224469E+04  0.94237695620E+03 0.  0.
        -13    1    3    3    0    0 -0.87266750364E+03  0.70341808579E+03  0.29942835526E+03  0.11601736622E+04  0.10566000000E+00 0.  1.
          4    1    3    3  502    0  0.12180548120E+03 -0.19251699864E+03  0.25615171470E+02  0.22924987900E+03  0.00000000000E+00 0.  1.
         13    1    4    4    0    0  0.43675271608E+03 -0.53117374253E+03 -0.86053350774E+03  0.11015518185E+04  0.10566000000E+00 0. -1.
         -4    1    4    4    0  501  0.31410930637E+03  0.20272655380E+02  0.19136688061E+03  0.36837062844E+03  0.00000000000E+00 0. -1.
<mgrwt>
<rscale>  2 0.13296542E+04</rscale>
<asrwt>0</asrwt>
<pdfrwt beam="2">  1        1 0.24642070E+00 0.13296542E+04</pdfrwt>
<pdfrwt beam="1">  1       -1 0.19347868E+00 0.13296542E+04</pdfrwt>
<totfact> 0.11099253E+00</totfact>
</mgrwt>
</event>
<event>
 8    1  0.1449514E-005  0.1022660E+04  0.7818608E-02  0.8753587E-01
          2   -1    0    0  502    0  0.00000000000E+00  0.00000000000E+00  0.15663504215E+04  0.15663504215E+04  0.00000000000E+00 0. -1.
         -2   -1    0    0    0  501 -0.00000000000E+00 -0.00000000000E+00 -0.76656079700E+03  0.76656079700E+03  0.00000000000E+00 0.  1.
    9000010    2    1    2  502    0 -0.19974114696E+03  0.11437409802E+03 -0.18177165960E+02  0.10252919122E+04  0.99895702394E+03 0.  0.
   -9000010    2    1    2    0  501  0.19974114696E+03 -0.11437409802E+03  0.81796679048E+03  0.13076193064E+04  0.99389165405E+03 0.  0.
        -13    1    3    3    0    0 -0.36915820110E+03 -0.24338113320E+03 -0.30439482003E+03  0.53681316216E+03  0.10566000000E+00 0.  1.
          4    1    3    3  502    0  0.16941705414E+03  0.35775523122E+03  0.28621765407E+03  0.48847875000E+03  0.00000000000E+00 0.  1.
         13    1    4    4    0    0  0.23813772492E+02 -0.52067183177E+03  0.65213086020E+03  0.83482987617E+03  0.10566000000E+00 0. -1.
         -4    1    4    4    0  501  0.17592737447E+03  0.40629773375E+03  0.16583593027E+03  0.47278943020E+03  0.00000000000E+00 0. -1.
<mgrwt>
<rscale>  2 0.10226601E+04</rscale>
<asrwt>0</asrwt>
<pdfrwt beam="1">  1        2 0.24097699E+00 0.10226601E+04</pdfrwt>
<pdfrwt beam="2">  1       -2 0.11793243E+00 0.10226601E+04</pdfrwt>
<totfact> 0.97130270E+00</totfact>
</mgrwt>
</event>
<event>
 8    1  0.1449514E-005  0.1083252E+04  0.7818608E-02  0.8700077E-01
         -1   -1    0    0    0  501 -0.00000000000E+00  0.00000000000E+00  0.67324914755E+03  0.67324914755E+03  0.00000000000E+00 0.  1.
          1   -1    0    0  502    0  0.00000000000E+00 -0.00000000000E+00 -0.20354133981E+04  0.20354133981E+04  0.00000000000E+00 0. -1.
    9000010    2    1    2  502    0 -0.50979389942E+02  0.40725692819E+03 -0.11915374965E+04  0.16067546468E+04  0.99671549895E+03 0.  0.
   -9000010    2    1    2    0  501  0.50979389942E+02 -0.40725692819E+03 -0.17062675410E+03  0.11019078988E+04  0.10082809254E+04 0.  0.
        -13    1    3    3    0    0  0.75823553310E+02 -0.12261186919E+03 -0.10277874045E+04  0.10378486603E+04  0.10566000000E+00 0.  1.
          4    1    3    3  502    0 -0.12680294325E+03  0.52986879738E+03 -0.16375009196E+03  0.56890598650E+03  0.00000000000E+00 0.  1.
         13    1    4    4    0    0  0.36432607061E+03  0.36347911985E+01  0.24474950163E+03  0.43891801871E+03  0.10566000000E+00 0. -1.
         -4    1    4    4    0  501 -0.31334668066E+03 -0.41089171939E+03 -0.41537625573E+03  0.66298988014E+03  0.00000000000E+00 0. -1.
<mgrwt>
<rscale>  2 0.10832525E+04</rscale>
<asrwt>0</asrwt>
<pdfrwt beam="2">  1        1 0.31314052E+00 0.10832525E+04</pdfrwt>
<pdfrwt beam="1">  1       -1 0.10357679E+00 0.10832525E+04</pdfrwt>
<totfact> 0.33406038E+00</totfact>
</mgrwt>
</event>
<event>
 8    1  0.1449514E-005  0.1021056E+04  0.7818608E-02  0.8755055E-01
         -2   -1    0    0    0  501 -0.00000000000E+00  0.00000000000E+00  0.54324830274E+03  0.54324830274E+03  0.00000000000E+00 0. -1.
          2   -1    0    0  502    0  0.00000000000E+00 -0.00000000000E+00 -0.21911513999E+04  0.21911513999E+04  0.00000000000E+00 0.  1.
    9000010    2    1    2  502    0  0.24022352272E+02  0.21001974358E+03 -0.33486027134E+03  0.10644525742E+04  0.98804985464E+03 0.  0.
   -9000010    2    1    2    0  501 -0.24022352272E+02 -0.21001974358E+03 -0.13130428258E+04  0.16699471284E+04  0.10099289991E+04 0.  0.
        -13    1    3    3    0    0  0.11993933513E+03  0.59471105777E+03 -0.13973782859E+03  0.62256996253E+03  0.10566000000E+00 0.  1.
          4    1    3    3  502    0 -0.95916982854E+02 -0.38469131419E+03 -0.19512244275E+03  0.44188261165E+03  0.00000000000E+00 0.  1.
         13    1    4    4    0    0  0.36816371194E+03 -0.46737230433E+02 -0.99543659193E+02  0.38423669625E+03  0.10566000000E+00 0. -1.
         -4    1    4    4    0  501 -0.39218606421E+03 -0.16328251314E+03 -0.12134991666E+04  0.12857104322E+04  0.00000000000E+00 0. -1.
<mgrwt>
<rscale>  2 0.10210562E+04</rscale>
<asrwt>0</asrwt>
<pdfrwt beam="2">  1        2 0.33710022E+00 0.10210562E+04</pdfrwt>
<pdfrwt beam="1">  1       -2 0.83576660E-01 0.10210562E+04</pdfrwt>
<totfact> 0.10174780E+01</totfact>
</mgrwt>
</event>
<event>
 8    1  0.1449514E-005  0.1349995E+04  0.7818608E-02  0.8501434E-01
          2   -1    0    0  502    0  0.00000000000E+00  0.00000000000E+00  0.20327091755E+04  0.20327091755E+04  0.00000000000E+00 0.  1.
         -2   -1    0    0    0  501 -0.00000000000E+00 -0.00000000000E+00 -0.90569953846E+03  0.90569953846E+03  0.00000000000E+00 0. -1.
    9000010    2    1    2  502    0 -0.83319802133E+03  0.32374546038E+03  0.71207401657E+03  0.15288107881E+04  0.10154717892E+04 0.  0.
   -9000010    2    1    2    0  501  0.83319802133E+03 -0.32374546038E+03  0.41493562053E+03  0.14095979259E+04  0.10078515157E+04 0.  0.
        -13    1    3    3    0    0 -0.62373267730E+03  0.59830438789E+03  0.79426577857E+03  0.11738265338E+04  0.10566000000E+00 0.  1.
          4    1    3    3  502    0 -0.20946534402E+03 -0.27455892751E+03 -0.82191762006E+02  0.35498425425E+03  0.00000000000E+00 0.  1.
         13    1    4    4    0    0 -0.72178761886E+02 -0.36206308022E+03  0.33733456591E+03  0.50009405941E+03  0.10566000000E+00 0. -1.
         -4    1    4    4    0  501  0.90537678321E+03  0.38317619847E+02  0.77601054613E+02  0.90950386654E+03  0.00000000000E+00 0. -1.
<mgrwt>
<rscale>  2 0.13499954E+04</rscale>
<asrwt>0</asrwt>
<pdfrwt beam="1">  1        2 0.31272449E+00 0.13499954E+04</pdfrwt>
<pdfrwt beam="2">  1       -2 0.13933839E+00 0.13499954E+04</pdfrwt>
<totfact> 0.33029622E+00</totfact>
</mgrwt>
</event>
<event>
 8    1  0.1449514E-005  0.1436708E+04  0.7818608E-02  0.8446882E-01
         -2   -1    0    0    0  501 -0.00000000000E+00  0.00000000000E+00  0.10504622995E+04  0.10504622995E+04  0.00000000000E+00 0. -1.
          2   -1    0    0  502    0  0.00000000000E+00 -0.00000000000E+00 -0.19715559940E+04  0.19715559940E+04  0.00000000000E+00 0.  1.
    9000010    2    1    2  502    0  0.77858703549E+03 -0.65560679121E+03 -0.37854636454E+03  0.14985331497E+04  0.10326113568E+04 0.  0.
   -9000010    2    1    2    0  501 -0.77858703549E+03  0.65560679121E+03 -0.54254732997E+03  0.15234851437E+04  0.99530464754E+03 0.  0.
        -13    1    3    3    0    0 -0.16937478186E+03 -0.39442852530E+03  0.37418728302E+02  0.43088496225E+03  0.10566000000E+00 0.  1.
          4    1    3    3  502    0  0.94796181735E+03 -0.26117826591E+03 -0.41596509284E+03  0.10676481875E+04  0.00000000000E+00 0.  1.
         13    1    4    4    0    0 -0.35811209169E+03 -0.21647884059E+03 -0.32837711677E+03  0.53192001336E+03  0.10566000000E+00 0. -1.
         -4    1    4    4    0  501 -0.42047494381E+03  0.87208563179E+03 -0.21417021320E+03  0.99156513037E+03  0.00000000000E+00 0. -1.
<mgrwt>
<rscale>  2 0.14367081E+04</rscale>
<asrwt>0</asrwt>
<pdfrwt beam="2">  1        2 0.30331631E+00 0.14367081E+04</pdfrwt>
<pdfrwt beam="1">  1       -2 0.16160959E+00 0.14367081E+04</pdfrwt>
<totfact> 0.22457088E+00</totfact>
</mgrwt>
</event>
<event>
 8    1  0.1449514E-005  0.1239207E+04  0.7818608E-02  0.8577609E-01
         -2   -1    0    0    0  501 -0.00000000000E+00  0.00000000000E+00  0.12982824386E+04  0.12982824386E+04  0.00000000000E+00 0.  1.
          2   -1    0    0  502    0  0.00000000000E+00 -0.00000000000E+00 -0.19906252435E+04  0.19906252435E+04  0.00000000000E+00 0. -1.
    9000010    2    1    2  502    0 -0.71873899934E+03 -0.17241991181E+03  0.70235098179E+03  0.14192641744E+04  0.98726871721E+03 0.  0.
   -9000010    2    1    2    0  501  0.71873899934E+03  0.17241991181E+03 -0.13946937867E+04  0.18696435077E+04  0.10020387777E+04 0.  0.
        -13    1    3    3    0    0 -0.30754162302E+03 -0.42232512323E+03  0.77293231256E+03  0.93293340093E+03  0.10566000000E+00 0.  1.
          4    1    3    3  502    0 -0.41119737631E+03  0.24990521142E+03 -0.70581330767E+02  0.48633077348E+03  0.00000000000E+00 0.  1.
         13    1    4    4    0    0  0.26991867083E+03 -0.33970776178E+03 -0.16540600320E+03  0.46434535567E+03  0.10566000000E+00 0. -1.
         -4    1    4    4    0  501  0.44882032851E+03  0.51212767359E+03 -0.12292877835E+04  0.14052981520E+04  0.00000000000E+00 0. -1.
<mgrwt>
<rscale>  2 0.12392073E+04</rscale>
<asrwt>0</asrwt>
<pdfrwt beam="2">  1        2 0.30625004E+00 0.12392073E+04</pdfrwt>
<pdfrwt beam="1">  1       -2 0.19973576E+00 0.12392073E+04</pdfrwt>
<totfact> 0.10747723E+00</totfact>
</mgrwt>
</event>
<event>
 8    1  0.1449514E-005  0.1343965E+04  0.7818608E-02  0.8505384E-01
          1   -1    0    0  502    0  0.00000000000E+00  0.00000000000E+00  0.17293002413E+04  0.17293002413E+04  0.00000000000E+00 0. -1.
         -1   -1    0    0    0  501 -0.00000000000E+00 -0.00000000000E+00 -0.10456429984E+04  0.10456429984E+04  0.00000000000E+00 0.  1.
    9000010    2    1    2  502    0  0.37412805964E+02  0.90736516712E+03  0.38683346187E+03  0.13952663968E+04  0.98611202521E+03 0.  0.
   -9000010    2    1    2    0  501 -0.37412805964E+02 -0.90736516712E+03  0.29682378099E+03  0.13796768429E+04  0.99533540549E+03 0.  0.
        -13    1    3    3    0    0  0.46460236673E+02 -0.54783928841E+02 -0.23759522122E+03  0.24821630237E+03  0.10566000000E+00 0.  1.
          4    1    3    3  502    0 -0.90474307095E+01  0.96214909596E+03  0.62442868309E+03  0.11470500944E+04  0.00000000000E+00 0.  1.
         13    1    4    4    0    0 -0.19807609957E+03  0.14994327875E+03  0.17377707406E+03  0.30317587419E+03  0.10566000000E+00 0. -1.
         -4    1    4    4    0  501  0.16066329360E+03 -0.10573084459E+04  0.12304670693E+03  0.10765009687E+04  0.00000000000E+00 0. -1.
<mgrwt>
<rscale>  2 0.13439654E+04</rscale>
<asrwt>0</asrwt>
<pdfrwt beam="1">  1        1 0.26604619E+00 0.13439654E+04</pdfrwt>
<pdfrwt beam="2">  1       -1 0.16086815E+00 0.13439654E+04</pdfrwt>
<totfact> 0.17166446E+00</totfact>
</mgrwt>
</event>
<event>
 8    1  0.1449514E-005  0.1347027E+04  0.7818608E-02  0.8503376E-01
         -2   -1    0    0    0  501 -0.00000000000E+00  0.00000000000E+00  0.80240888365E+03  0.80240888365E+03  0.00000000000E+00 0.  1.
          2   -1    0    0  502    0  0.00000000000E+00 -0.00000000000E+00 -0.23169153517E+04  0.23169153517E+04  0.00000000000E+00 0. -1.
    9000010    2    1    2  502    0 -0.26204863206E+03  0.87275203344E+03 -0.99701219263E+03  0.16731314678E+04  0.98740569109E+03 0.  0.
   -9000010    2    1    2    0  501  0.26204863206E+03 -0.87275203344E+03 -0.51749427543E+03  0.14461927676E+04  0.99664818189E+03 0.  0.
        -13    1    3    3    0    0 -0.22827297244E+03  0.17324040649E+02 -0.74697770762E+03  0.78127100239E+03  0.10566000000E+00 0.  1.
          4    1    3    3  502    0 -0.33775659619E+02  0.85542799280E+03 -0.25003448501E+03  0.89186046539E+03  0.00000000000E+00 0.  1.
         13    1    4    4    0    0  0.64492042968E+03 -0.59297646733E+03 -0.34566069963E+03  0.94181993070E+03  0.10566000000E+00 0. -1.
         -4    1    4    4    0  501 -0.38287179763E+03 -0.27977556611E+03 -0.17183357581E+03  0.50437283688E+03  0.00000000000E+00 0. -1.
<mgrwt>
<rscale>  2 0.13470268E+04</rscale>
<asrwt>0</asrwt>
<pdfrwt beam="2">  1        2 0.35644852E+00 0.13470268E+04</pdfrwt>
<pdfrwt beam="1">  1       -2 0.12344752E+00 0.13470268E+04</pdfrwt>
<totfact> 0.32369124E+00</totfact>
</mgrwt>
</event>
<event>
 8    1  0.1449514E-005  0.1341043E+04  0.7818608E-02  0.8507305E-01
         -2   -1    0    0    0  501 -0.00000000000E+00  0.00000000000E+00  0.94688843294E+03  0.94688843294E+03  0.00000000000E+00 0. -1.
          2   -1    0    0  502    0  0.00000000000E+00 -0.00000000000E+00 -0.19018771467E+04  0.19018771467E+04  0.00000000000E+00 0.  1.
    9000010    2    1    2  502    0 -0.84332207668E+03  0.36652159099E+03 -0.53307638422E+03  0.14593156021E+04  0.99995069557E+03 0.  0.
   -9000010    2    1    2    0  501  0.84332207668E+03 -0.36652159099E+03 -0.42191232955E+03  0.13894499775E+04  0.95238176404E+03 0.  0.
        -13    1    3    3    0    0 -0.72483602942E+03 -0.89969993517E+02 -0.64519296752E+03  0.97455417796E+03  0.10566000000E+00 0.  1.
          4    1    3    3  502    0 -0.11848604726E+03  0.45649158451E+03  0.11211658330E+03  0.48476142418E+03  0.00000000000E+00 0.  1.
         13    1    4    4    0    0  0.59133273122E+03  0.15039332644E+03  0.93418291752E+02  0.61726780253E+03  0.10566000000E+00 0. -1.
         -4    1    4    4    0  501  0.25198934546E+03 -0.51691491743E+03 -0.51533062130E+03  0.77218217497E+03  0.00000000000E+00 0. -1.
<mgrwt>
<rscale>  2 0.13410433E+04</rscale>
<asrwt>0</asrwt>
<pdfrwt beam="2">  1        2 0.29259648E+00 0.13410433E+04</pdfrwt>
<pdfrwt beam="1">  1       -2 0.14567514E+00 0.13410433E+04</pdfrwt>
<totfact> 0.34200829E+00</totfact>
</mgrwt>
</event>
<event>
 8    1  0.1449514E-005  0.1374528E+04  0.7818608E-02  0.8485583E-01
         -1   -1    0    0    0  501 -0.00000000000E+00  0.00000000000E+00  0.89146065402E+03  0.89146065402E+03  0.00000000000E+00 0. -1.
          1   -1    0    0  502    0  0.00000000000E+00 -0.00000000000E+00 -0.27283116957E+04  0.27283116957E+04  0.00000000000E+00 0.  1.
    9000010    2    1    2  502    0 -0.46995452903E+03  0.81671840361E+03 -0.81800085668E+02  0.14107351016E+04  0.10467072479E+04 0.  0.
   -9000010    2    1    2    0  501  0.46995452903E+03 -0.81671840361E+03 -0.17550509561E+04  0.22090372482E+04  0.95485888760E+03 0.  0.
        -13    1    3    3    0    0 -0.43094287997E+03 -0.88008446769E+02  0.16882574211E+03  0.47112566780E+03  0.10566000000E+00 0.  1.
          4    1    3    3  502    0 -0.39011649061E+02  0.90472685038E+03 -0.25062582778E+03  0.93960943381E+03  0.00000000000E+00 0.  1.
         13    1    4    4    0    0  0.69078172901E+03 -0.83400251142E+03 -0.12277606938E+04  0.16371120666E+04  0.10566000000E+00 0. -1.
         -4    1    4    4    0  501 -0.22082719998E+03  0.17284107808E+02 -0.52729026225E+03  0.57192518155E+03  0.00000000000E+00 0. -1.
<mgrwt>
<rscale>  2 0.13745280E+04</rscale>
<asrwt>0</asrwt>
<pdfrwt beam="2">  1        1 0.41974025E+00 0.13745280E+04</pdfrwt>
<pdfrwt beam="1">  1       -1 0.13714780E+00 0.13745280E+04</pdfrwt>
<totfact> 0.40383929E-01</totfact>
</mgrwt>
</event>
<event>
 8    1  0.1449514E-005  0.1701908E+04  0.7818608E-02  0.8301919E-01
          2   -1    0    0  502    0  0.00000000000E+00  0.00000000000E+00  0.31546547556E+04  0.31546547556E+04  0.00000000000E+00 0. -1.
         -2   -1    0    0    0  501 -0.00000000000E+00 -0.00000000000E+00 -0.94422988097E+03  0.94422988097E+03  0.00000000000E+00 0.  1.
    9000010    2    1    2  502    0  0.11075018117E+04  0.85491065685E+03  0.14466598528E+04  0.22348117113E+04  0.97166154663E+03 0.  0.
   -9000010    2    1    2    0  501 -0.11075018117E+04 -0.85491065685E+03  0.76376502181E+03  0.18640729253E+04  0.96643591001E+03 0.  0.
        -13    1    3    3    0    0  0.14274633261E+01  0.54044555251E+03  0.59537604509E+03  0.80408710915E+03  0.10566000000E+00 0.  1.
          4    1    3    3  502    0  0.11060743483E+04  0.31446510434E+03  0.85128380773E+03  0.14307246021E+04  0.00000000000E+00 0.  1.
         13    1    4    4    0    0 -0.46727185532E+03 -0.65778403473E+02  0.70220741960E+03  0.84602899267E+03  0.10566000000E+00 0. -1.
         -4    1    4    4    0  501 -0.64022995634E+03 -0.78913225338E+03  0.61557602216E+02  0.10180439326E+04  0.00000000000E+00 0. -1.
<mgrwt>
<rscale>  2 0.17019079E+04</rscale>
<asrwt>0</asrwt>
<pdfrwt beam="1">  1        2 0.48533150E+00 0.17019079E+04</pdfrwt>
<pdfrwt beam="2">  1       -2 0.14526614E+00 0.17019079E+04</pdfrwt>
<totfact> 0.62697188E-01</totfact>
</mgrwt>
</event>
<event>
 8    1  0.1449514E-005  0.1340963E+04  0.7818608E-02  0.8507358E-01
          2   -1    0    0  502    0  0.00000000000E+00  0.00000000000E+00  0.12034366242E+04  0.12034366242E+04  0.00000000000E+00 0. -1.
         -2   -1    0    0    0  501 -0.00000000000E+00 -0.00000000000E+00 -0.15090708978E+04  0.15090708978E+04  0.00000000000E+00 0.  1.
    9000010    2    1    2  502    0 -0.18419062131E+03 -0.87408798668E+03 -0.18231031061E+02  0.13412603627E+04  0.10003454387E+04 0.  0.
   -9000010    2    1    2    0  501  0.18419062131E+03  0.87408798668E+03 -0.28740324255E+03  0.13712471592E+04  0.99988107010E+03 0.  0.
        -13    1    3    3    0    0  0.13310744487E+03  0.18343875538E+03 -0.66209211657E+02  0.23611658080E+03  0.10566000000E+00 0.  1.
          4    1    3    3  502    0 -0.31729806618E+03 -0.10575267421E+04  0.47978180596E+02  0.11051437819E+04  0.00000000000E+00 0.  1.
         13    1    4    4    0    0 -0.36219105302E+03  0.33013758898E+03  0.11235318124E+03  0.50278865842E+03  0.10566000000E+00 0. -1.
         -4    1    4    4    0  501  0.54638167433E+03  0.54395039770E+03 -0.39975642379E+03  0.86845850077E+03  0.00000000000E+00 0. -1.
<mgrwt>
<rscale>  2 0.13409633E+04</rscale>
<asrwt>0</asrwt>
<pdfrwt beam="1">  1        2 0.18514410E+00 0.13409633E+04</pdfrwt>
<pdfrwt beam="2">  1       -2 0.23216475E+00 0.13409633E+04</pdfrwt>
<totfact> 0.15691147E+00</totfact>
</mgrwt>
</event>
<event>
 8    1  0.1449514E-005  0.1692222E+04  0.7818608E-02  0.8306720E-01
          1   -1    0    0  502    0  0.00000000000E+00  0.00000000000E+00  0.30909706942E+04  0.30909706942E+04  0.00000000000E+00 0. -1.
         -1   -1    0    0    0  501 -0.00000000000E+00 -0.00000000000E+00 -0.10923019393E+04  0.10923019393E+04  0.00000000000E+00 0.  1.
    9000010    2    1    2  502    0 -0.89704870599E+03  0.10092491343E+04  0.18213361308E+04  0.24959090155E+04  0.10435594455E+04 0.  0.
   -9000010    2    1    2    0  501  0.89704870599E+03 -0.10092491343E+04  0.17733262408E+03  0.16873636181E+04  0.99622734555E+03 0.  0.
        -13    1    3    3    0    0  0.64238063947E+02 -0.96258009763E+02  0.53169307915E+03  0.54414122697E+03  0.10566000000E+00 0.  1.
          4    1    3    3  502    0 -0.96128676993E+03  0.11055071441E+04  0.12896430517E+04  0.19517677885E+04  0.00000000000E+00 0.  1.
         13    1    4    4    0    0  0.10737543104E+03  0.16383739720E+03 -0.13661256601E+03  0.23882039333E+03  0.10566000000E+00 0. -1.
         -4    1    4    4    0  501  0.78967327495E+03 -0.11730865315E+04  0.31394519009E+03  0.14485432248E+04  0.00000000000E+00 0. -1.
<mgrwt>
<rscale>  2 0.16922222E+04</rscale>
<asrwt>0</asrwt>
<pdfrwt beam="1">  1        1 0.47553395E+00 0.16922222E+04</pdfrwt>
<pdfrwt beam="2">  1       -1 0.16804645E+00 0.16922222E+04</pdfrwt>
<totfact> 0.86528273E-02</totfact>
</mgrwt>
</event>
<event>
 8    1  0.1449514E-005  0.1177182E+04  0.7818608E-02  0.8623945E-01
         -4   -1    0    0    0  501 -0.00000000000E+00  0.00000000000E+00  0.11452702709E+04  0.11452702709E+04  0.00000000000E+00 0. -1.
          4   -1    0    0  502    0  0.00000000000E+00 -0.00000000000E+00 -0.12219240294E+04  0.12219240294E+04  0.00000000000E+00 0.  1.
    9000010    2    1    2  502    0 -0.25913823375E+03 -0.57663478921E+03  0.78507635553E+02  0.11689250854E+04  0.98008270169E+03 0.  0.
   -9000010    2    1    2    0  501  0.25913823375E+03  0.57663478921E+03 -0.15516139406E+03  0.11982692148E+04  0.10060386417E+04 0.  0.
        -13    1    3    3    0    0  0.13124971954E+03 -0.69773600516E+03 -0.11063891272E+03  0.71854227568E+03  0.10566000000E+00 0.  1.
          4    1    3    3  502    0 -0.39038795329E+03  0.12110121594E+03  0.18914654828E+03  0.45038280973E+03  0.00000000000E+00 0.  1.
         13    1    4    4    0    0  0.30366687428E+03 -0.28221192451E+01  0.32471306684E+03  0.44458983550E+03  0.10566000000E+00 0. -1.
         -4    1    4    4    0  501 -0.44528640529E+02  0.57945690846E+03 -0.47987446089E+03  0.75367937932E+03  0.00000000000E+00 0. -1.
<mgrwt>
<rscale>  2 0.11771825E+04</rscale>
<asrwt>0</asrwt>
<pdfrwt beam="2">  1        4 0.18798831E+00 0.11771825E+04</pdfrwt>
<pdfrwt beam="1">  1       -4 0.17619543E+00 0.11771825E+04</pdfrwt>
<totfact> 0.23329824E-01</totfact>
</mgrwt>
</event>
<event>
 8    1  0.1449514E-005  0.1521357E+04  0.7818608E-02  0.8397313E-01
         -2   -1    0    0    0  501 -0.00000000000E+00  0.00000000000E+00  0.82622926500E+03  0.82622926500E+03  0.00000000000E+00 0. -1.
          2   -1    0    0  502    0  0.00000000000E+00 -0.00000000000E+00 -0.28020062595E+04  0.28020062595E+04  0.00000000000E+00 0.  1.
    9000010    2    1    2  502    0 -0.11537617362E+04  0.39101433790E+02 -0.10190494152E+04  0.18353883485E+04  0.99874602033E+03 0.  0.
   -9000010    2    1    2    0  501  0.11537617362E+04 -0.39101433790E+02 -0.95672757933E+03  0.17928471760E+04  0.98299454183E+03 0.  0.
        -13    1    3    3    0    0 -0.11758022284E+04 -0.70627659560E+02 -0.11614786297E+04  0.16542465853E+04  0.10566000000E+00 0.  1.
          4    1    3    3  502    0  0.22040492119E+02  0.10972909335E+03  0.14242921455E+03  0.18114176321E+03  0.00000000000E+00 0.  1.
         13    1    4    4    0    0  0.74583530316E+03  0.17442074743E+03 -0.40016189226E+02  0.76700339187E+03  0.10566000000E+00 0. -1.
         -4    1    4    4    0  501  0.40792643308E+03 -0.21352218122E+03 -0.91671139010E+03  0.10258437841E+04  0.00000000000E+00 0. -1.
<mgrwt>
<rscale>  2 0.15213574E+04</rscale>
<asrwt>0</asrwt>
<pdfrwt beam="2">  1        2 0.43107789E+00 0.15213574E+04</pdfrwt>
<pdfrwt beam="1">  1       -2 0.12711219E+00 0.15213574E+04</pdfrwt>
<totfact> 0.15518813E+00</totfact>
</mgrwt>
</event>
<event>
 8    1  0.1449514E-005  0.1100525E+04  0.7818608E-02  0.8685487E-01
         -1   -1    0    0    0  501 -0.00000000000E+00  0.00000000000E+00  0.59024864611E+03  0.59024864611E+03  0.00000000000E+00 0.  1.
          1   -1    0    0  502    0  0.00000000000E+00 -0.00000000000E+00 -0.20698978745E+04  0.20698978745E+04  0.00000000000E+00 0. -1.
    9000010    2    1    2  502    0  0.15608400802E+03  0.44377601695E+03 -0.86178978416E+03  0.13955871004E+04  0.99180761847E+03 0.  0.
   -9000010    2    1    2    0  501 -0.15608400802E+03 -0.44377601695E+03 -0.61785944427E+03  0.12645594202E+04  0.99802848836E+03 0.  0.
        -13    1    3    3    0    0  0.26922602948E+03 -0.26288540685E+03 -0.36632108115E+03  0.52515001451E+03  0.10566000000E+00 0.  1.
          4    1    3    3  502    0 -0.11314202145E+03  0.70666142380E+03 -0.49546870301E+03  0.87043708594E+03  0.00000000000E+00 0.  1.
         13    1    4    4    0    0  0.10065848554E+03  0.28428366324E+03 -0.48827607799E+02  0.30550528366E+03  0.10566000000E+00 0. -1.
         -4    1    4    4    0  501 -0.25674249357E+03 -0.72805968019E+03 -0.56903183648E+03  0.95905413656E+03  0.00000000000E+00 0. -1.
<mgrwt>
<rscale>  2 0.11005249E+04</rscale>
<asrwt>0</asrwt>
<pdfrwt beam="2">  1        1 0.31844582E+00 0.11005249E+04</pdfrwt>
<pdfrwt beam="1">  1       -1 0.90807486E-01 0.11005249E+04</pdfrwt>
<totfact> 0.41466407E+00</totfact>
</mgrwt>
</event>
<event>
 8    1  0.1449514E-005  0.1324129E+04  0.7818608E-02  0.8518527E-01
         -2   -1    0    0    0  501 -0.00000000000E+00  0.00000000000E+00  0.97721027936E+03  0.97721027936E+03  0.00000000000E+00 0. -1.
          2   -1    0    0  502    0  0.00000000000E+00 -0.00000000000E+00 -0.23384321640E+04  0.23384321640E+04  0.00000000000E+00 0.  1.
    9000010    2    1    2  502    0 -0.60739512525E+03  0.63417208073E+03  0.12236225870E+03  0.13215441235E+04  0.98000167447E+03 0.  0.
   -9000010    2    1    2    0  501  0.60739512525E+03 -0.63417208073E+03 -0.14835841433E+04  0.19940983198E+04  0.10021492566E+04 0.  0.
        -13    1    3    3    0    0 -0.57232843934E+03  0.35229938516E+03  0.50809140739E+03  0.84251503766E+03  0.10566000000E+00 0.  1.
          4    1    3    3  502    0 -0.35066685916E+02  0.28187269558E+03 -0.38572914869E+03  0.47902908588E+03  0.00000000000E+00 0.  1.
         13    1    4    4    0    0  0.23438269099E+03  0.13819644936E+03  0.94183880159E+01  0.27225396534E+03  0.10566000000E+00 0. -1.
         -4    1    4    4    0  501  0.37301243427E+03 -0.77236853009E+03 -0.14930025314E+04  0.17218443545E+04  0.00000000000E+00 0. -1.
<mgrwt>
<rscale>  2 0.13241295E+04</rscale>
<asrwt>0</asrwt>
<pdfrwt beam="2">  1        2 0.35975879E+00 0.13241295E+04</pdfrwt>
<pdfrwt beam="1">  1       -2 0.15034005E+00 0.13241295E+04</pdfrwt>
<totfact> 0.17945201E+00</totfact>
</mgrwt>
</event>
<event>
 8    1  0.1449514E-005  0.1346179E+04  0.7818608E-02  0.8503931E-01
          2   -1    0    0  502    0  0.00000000000E+00  0.00000000000E+00  0.33314915696E+04  0.33314915696E+04  0.00000000000E+00 0.  1.
         -2   -1    0    0    0  501 -0.00000000000E+00 -0.00000000000E+00 -0.54397113711E+03  0.54397113711E+03  0.00000000000E+00 0. -1.
    9000010    2    1    2  502    0  0.21843568308E+02 -0.90176926197E+03  0.14026001730E+04  0.19441354024E+04  0.99935492901E+03 0.  0.
   -9000010    2    1    2    0  501 -0.21843568308E+02  0.90176926197E+03  0.13849202595E+04  0.19313273043E+04  0.99917770595E+03 0.  0.
        -13    1    3    3    0    0  0.12663172657E+03 -0.10906044845E+04  0.13097399218E+04  0.17090559996E+04  0.10566000000E+00 0.  1.
          4    1    3    3  502    0 -0.10478815826E+03  0.18883522251E+03  0.92860251215E+02  0.23507940281E+03  0.00000000000E+00 0.  1.
         13    1    4    4    0    0 -0.44443617087E+03  0.58367815339E+03  0.11222556044E+04  0.13407689396E+04  0.10566000000E+00 0. -1.
         -4    1    4    4    0  501  0.42259260256E+03  0.31809110858E+03  0.26266465509E+03  0.59055836471E+03  0.00000000000E+00 0. -1.
<mgrwt>
<rscale>  2 0.13461791E+04</rscale>
<asrwt>0</asrwt>
<pdfrwt beam="1">  1        2 0.51253715E+00 0.13461791E+04</pdfrwt>
<pdfrwt beam="2">  1       -2 0.83687869E-01 0.13461791E+04</pdfrwt>
<totfact> 0.20465644E+00</totfact>
</mgrwt>
</event>
<event>
 8    1  0.1449514E-005  0.1141058E+04  0.7818608E-02  0.8652320E-01
          2   -1    0    0  502    0  0.00000000000E+00  0.00000000000E+00  0.73815955080E+03  0.73815955080E+03  0.00000000000E+00 0.  1.
         -2   -1    0    0    0  501 -0.00000000000E+00 -0.00000000000E+00 -0.18200536859E+04  0.18200536859E+04  0.00000000000E+00 0. -1.
    9000010    2    1    2  502    0 -0.52435165961E+03 -0.19511846530E+03 -0.31391871364E+03  0.11785248791E+04  0.98861522012E+03 0.  0.
   -9000010    2    1    2    0  501  0.52435165961E+03  0.19511846530E+03 -0.76797542147E+03  0.13796883576E+04  0.10003688508E+04 0.  0.
        -13    1    3    3    0    0 -0.84739659802E+02 -0.46925025642E+03  0.13221140480E+03  0.49482974832E+03  0.10566000000E+00 0.  1.
          4    1    3    3  502    0 -0.43961199981E+03  0.27413179113E+03 -0.44613011844E+03  0.68369513078E+03  0.00000000000E+00 0.  1.
         13    1    4    4    0    0 -0.25647447339E+03  0.24586013540E+03 -0.31944248259E+03  0.47777596479E+03  0.10566000000E+00 0. -1.
         -4    1    4    4    0  501  0.78082613300E+03 -0.50741670097E+02 -0.44853293888E+03  0.90191239282E+03  0.00000000000E+00 0. -1.
<mgrwt>
<rscale>  2 0.11410576E+04</rscale>
<asrwt>0</asrwt>
<pdfrwt beam="1">  1        2 0.11356301E+00 0.11410576E+04</pdfrwt>
<pdfrwt beam="2">  1       -2 0.28000826E+00 0.11410576E+04</pdfrwt>
<totfact> 0.13421596E+00</totfact>
</mgrwt>
</event>
<event>
 8    1  0.1449514E-005  0.2181049E+04  0.7818608E-02  0.8098418E-01
          1   -1    0    0  502    0  0.00000000000E+00  0.00000000000E+00  0.31821272133E+04  0.31821272133E+04  0.00000000000E+00 0.  1.
         -1   -1    0    0    0  501 -0.00000000000E+00 -0.00000000000E+00 -0.15050568743E+04  0.15050568743E+04  0.00000000000E+00 0. -1.
    9000010    2    1    2  502    0 -0.19533230912E+04  0.67981687682E+02  0.64132639070E+03  0.22601187725E+04  0.93634647312E+03 0.  0.
   -9000010    2    1    2    0  501  0.19533230912E+04 -0.67981687682E+02  0.10357439483E+04  0.24270653151E+04  0.99889334198E+03 0.  0.
        -13    1    3    3    0    0 -0.48797855612E+01 -0.20580048973E+02 -0.15275535890E+03  0.15421271530E+03  0.10566000000E+00 0.  1.
          4    1    3    3  502    0 -0.19484433057E+04  0.88561736655E+02  0.79408174961E+03  0.21059060572E+04  0.00000000000E+00 0.  1.
         13    1    4    4    0    0  0.12097575601E+04 -0.47759998823E+03  0.38190246087E+03  0.13555311150E+04  0.10566000000E+00 0. -1.
         -4    1    4    4    0  501  0.74356553113E+03  0.40961830055E+03  0.65384148745E+03  0.10715342001E+04  0.00000000000E+00 0. -1.
<mgrwt>
<rscale>  2 0.21810488E+04</rscale>
<asrwt>0</asrwt>
<pdfrwt beam="1">  1        1 0.48955803E+00 0.21810488E+04</pdfrwt>
<pdfrwt beam="2">  1       -1 0.23154721E+00 0.21810488E+04</pdfrwt>
<totfact> 0.16960690E-02</totfact>
</mgrwt>
</event>
<event>
 8    1  0.1449514E-005  0.1378984E+04  0.7818608E-02  0.8482740E-01
          2   -1    0    0  502    0  0.00000000000E+00  0.00000000000E+00  0.21409292906E+04  0.21409292906E+04  0.00000000000E+00 0. -1.
         -2   -1    0    0    0  501 -0.00000000000E+00 -0.00000000000E+00 -0.90533734020E+03  0.90533734020E+03  0.00000000000E+00 0.  1.
    9000010    2    1    2  502    0 -0.35970235817E+03 -0.90366373995E+03  0.82787748364E+03  0.16095658304E+04  0.97945244563E+03 0.  0.
   -9000010    2    1    2    0  501  0.35970235817E+03  0.90366373995E+03  0.40771446673E+03  0.14367008003E+04  0.97564551038E+03 0.  0.
        -13    1    3    3    0    0  0.29539849337E+03 -0.57484523276E+03  0.41910225252E+03  0.77029476224E+03  0.10566000000E+00 0.  1.
          4    1    3    3  502    0 -0.65510085153E+03 -0.32881850719E+03  0.40877523112E+03  0.83927106820E+03  0.00000000000E+00 0.  1.
         13    1    4    4    0    0  0.51216678593E+03  0.10450624805E+04  0.29696623053E+03  0.12011075547E+04  0.10566000000E+00 0. -1.
         -4    1    4    4    0  501 -0.15246442776E+03 -0.14139874055E+03  0.11074823620E+03  0.23559324562E+03  0.00000000000E+00 0. -1.
<mgrwt>
<rscale>  2 0.13789837E+04</rscale>
<asrwt>0</asrwt>
<pdfrwt beam="1">  1        2 0.32937373E+00 0.13789837E+04</pdfrwt>
<pdfrwt beam="2">  1       -2 0.13928267E+00 0.13789837E+04</pdfrwt>
<totfact> 0.28755942E+00</totfact>
</mgrwt>
</event>
<event>
 8    1  0.1449514E-005  0.1273586E+04  0.7818608E-02  0.8553119E-01
         -1   -1    0    0    0  501 -0.00000000000E+00  0.00000000000E+00  0.99838684855E+03  0.99838684855E+03  0.00000000000E+00 0. -1.
          1   -1    0    0  502    0  0.00000000000E+00 -0.00000000000E+00 -0.16582168497E+04  0.16582168497E+04  0.00000000000E+00 0.  1.
    9000010    2    1    2  502    0 -0.78642277964E+03 -0.24740989188E+03 -0.51277866837E+03  0.13547708995E+04  0.94487553913E+03 0.  0.
   -9000010    2    1    2    0  501  0.78642277964E+03  0.24740989188E+03 -0.14705133273E+03  0.13018327987E+04  0.99673070504E+03 0.  0.
        -13    1    3    3    0    0 -0.48541702636E+03 -0.10614865366E+02 -0.75788212776E+03  0.90007093920E+03  0.10566000000E+00 0.  1.
          4    1    3    3  502    0 -0.30100575328E+03 -0.23679502651E+03  0.24510345939E+03  0.45469996030E+03  0.00000000000E+00 0.  1.
         13    1    4    4    0    0 -0.79924445839E+02  0.42699087285E+02 -0.37263201514E+03  0.38349153703E+03  0.10566000000E+00 0. -1.
         -4    1    4    4    0  501  0.86634722548E+03  0.20471080459E+03  0.22558068241E+03  0.91834126167E+03  0.00000000000E+00 0. -1.
<mgrwt>
<rscale>  2 0.12735864E+04</rscale>
<asrwt>0</asrwt>
<pdfrwt beam="2">  1        1 0.25511028E+00 0.12735864E+04</pdfrwt>
<pdfrwt beam="1">  1       -1 0.15359798E+00 0.12735864E+04</pdfrwt>
<totfact> 0.22618996E+00</totfact>
</mgrwt>
</event>
<event>
 8    1  0.1449514E-005  0.1458608E+04  0.7818608E-02  0.8433727E-01
         -2   -1    0    0    0  501 -0.00000000000E+00  0.00000000000E+00  0.10581140791E+04  0.10581140791E+04  0.00000000000E+00 0.  1.
          2   -1    0    0  502    0  0.00000000000E+00 -0.00000000000E+00 -0.25482450781E+04  0.25482450781E+04  0.00000000000E+00 0. -1.
    9000010    2    1    2  502    0  0.20539851291E+03  0.10376084848E+04  0.77773936087E+02  0.14736316196E+04  0.10230940565E+04 0.  0.
   -9000010    2    1    2    0  501 -0.20539851291E+03 -0.10376084848E+04 -0.15679049351E+04  0.21327275376E+04  0.98558660072E+03 0.  0.
        -13    1    3    3    0    0 -0.15815131532E+03  0.73434188432E+02  0.36448823213E+03  0.40404962702E+03  0.10566000000E+00 0.  1.
          4    1    3    3  502    0  0.36354982823E+03  0.96417429633E+03 -0.28671429604E+03  0.10695819926E+04  0.00000000000E+00 0.  1.
         13    1    4    4    0    0 -0.76303418168E+01 -0.11566194826E+04 -0.14959618333E+04  0.18909597213E+04  0.10566000000E+00 0. -1.
         -4    1    4    4    0  501 -0.19776817109E+03  0.11901099788E+03 -0.71943101790E+02  0.24176781632E+03  0.00000000000E+00 0. -1.
<mgrwt>
<rscale>  2 0.14586081E+04</rscale>
<asrwt>0</asrwt>
<pdfrwt beam="2">  1        2 0.39203770E+00 0.14586081E+04</pdfrwt>
<pdfrwt beam="1">  1       -2 0.16278678E+00 0.14586081E+04</pdfrwt>
<totfact> 0.10498594E+00</totfact>
</mgrwt>
</event>
<event>
 8    1  0.1449514E-005  0.1143784E+04  0.7818608E-02  0.8650141E-01
          1   -1    0    0  502    0  0.00000000000E+00  0.00000000000E+00  0.16984536728E+04  0.16984536728E+04  0.00000000000E+00 0. -1.
         -1   -1    0    0    0  501 -0.00000000000E+00 -0.00000000000E+00 -0.77399836094E+03  0.77399836094E+03  0.00000000000E+00 0.  1.
    9000010    2    1    2  502    0 -0.44182220808E+03  0.33844279953E+03  0.37230771301E+03  0.11911001497E+04  0.98506656695E+03 0.  0.
   -9000010    2    1    2    0  501  0.44182220808E+03 -0.33844279953E+03  0.55214759884E+03  0.12813518840E+04  0.10135310985E+04 0.  0.
        -13    1    3    3    0    0 -0.17279666688E+02  0.31871316110E+02 -0.32055939554E+03  0.32260301441E+03  0.10566000000E+00 0.  1.
          4    1    3    3  502    0 -0.42454254139E+03  0.30657148342E+03  0.69286710854E+03  0.86849713529E+03  0.00000000000E+00 0.  1.
         13    1    4    4    0    0  0.55735897901E+03 -0.75687695430E+02  0.74651554131E+03  0.93469948288E+03  0.10566000000E+00 0. -1.
         -4    1    4    4    0  501 -0.11553677093E+03 -0.26275510410E+03 -0.19436794246E+03  0.34665240116E+03  0.00000000000E+00 0. -1.
<mgrwt>
<rscale>  2 0.11437840E+04</rscale>
<asrwt>0</asrwt>
<pdfrwt beam="1">  1        1 0.26130056E+00 0.11437840E+04</pdfrwt>
<pdfrwt beam="2">  1       -1 0.11907667E+00 0.11437840E+04</pdfrwt>
<totfact> 0.43000361E+00</totfact>
</mgrwt>
</event>
<event>
 8    1  0.1449514E-005  0.1025250E+04  0.7818608E-02  0.8751222E-01
          2   -1    0    0  502    0  0.00000000000E+00  0.00000000000E+00  0.72166581748E+03  0.72166581748E+03  0.00000000000E+00 0.  1.
         -2   -1    0    0    0  501 -0.00000000000E+00 -0.00000000000E+00 -0.14764125227E+04  0.14764125227E+04  0.00000000000E+00 0. -1.
    9000010    2    1    2  502    0 -0.18572667727E+03 -0.12332680148E+03 -0.24763403920E+03  0.10481960433E+04  0.99382515020E+03 0.  0.
   -9000010    2    1    2    0  501  0.18572667727E+03  0.12332680148E+03 -0.50711266598E+03  0.11498822969E+04  0.10076517960E+04 0.  0.
        -13    1    3    3    0    0  0.28813380813E+03 -0.10252603480E+03  0.22416649202E+03  0.37918769298E+03  0.10566000000E+00 0.  1.
          4    1    3    3  502    0 -0.47386048540E+03 -0.20800766685E+02 -0.47180053123E+03  0.66900835031E+03  0.00000000000E+00 0.  1.
         13    1    4    4    0    0 -0.33822507072E+02 -0.36717569509E+03 -0.48866101091E+03  0.61216954171E+03  0.10566000000E+00 0. -1.
         -4    1    4    4    0  501  0.21954918434E+03  0.49050249657E+03 -0.18451655069E+02  0.53771275516E+03  0.00000000000E+00 0. -1.
<mgrwt>
<rscale>  2 0.10252503E+04</rscale>
<asrwt>0</asrwt>
<pdfrwt beam="1">  1        2 0.11102551E+00 0.10252503E+04</pdfrwt>
<pdfrwt beam="2">  1       -2 0.22714039E+00 0.10252503E+04</pdfrwt>
<totfact> 0.35833161E+00</totfact>
</mgrwt>
</event>
<event>
 8    1  0.1449514E-005  0.1136080E+04  0.7818608E-02  0.8656315E-01
          2   -1    0    0  502    0  0.00000000000E+00  0.00000000000E+00  0.16549773326E+04  0.16549773326E+04  0.00000000000E+00 0. -1.
         -2   -1    0    0    0  501 -0.00000000000E+00 -0.00000000000E+00 -0.86647883200E+03  0.86647883200E+03  0.00000000000E+00 0.  1.
    9000010    2    1    2  502    0  0.35107220176E+03  0.40456047944E+03  0.79555508915E+03  0.13944830394E+04  0.10123014249E+04 0.  0.
   -9000010    2    1    2    0  501 -0.35107220176E+03 -0.40456047944E+03 -0.70565885834E+01  0.11269731252E+04  0.99151286282E+03 0.  0.
        -13    1    3    3    0    0 -0.42136767131E+02  0.26926950540E+01 -0.22520224394E+03  0.22912620886E+03  0.10566000000E+00 0.  1.
          4    1    3    3  502    0  0.39320896889E+03  0.40186778438E+03  0.10207573331E+04  0.11653568305E+04  0.00000000000E+00 0.  1.
         13    1    4    4    0    0  0.14675269072E+03 -0.15960874845E+03  0.38896211582E+03  0.44531207431E+03  0.10566000000E+00 0. -1.
         -4    1    4    4    0  501 -0.49782489248E+03 -0.24495173099E+03 -0.39601870440E+03  0.68166105091E+03  0.00000000000E+00 0. -1.
<mgrwt>
<rscale>  2 0.11360805E+04</rscale>
<asrwt>0</asrwt>
<pdfrwt beam="1">  1        2 0.25461190E+00 0.11360805E+04</pdfrwt>
<pdfrwt beam="2">  1       -2 0.13330444E+00 0.11360805E+04</pdfrwt>
<totfact> 0.61602132E+00</totfact>
</mgrwt>
</event>
<event>
 8    1  0.1449514E-005  0.1827355E+04  0.7818608E-02  0.8242552E-01
          2   -1    0    0  502    0  0.00000000000E+00  0.00000000000E+00  0.29034428936E+04  0.29034428936E+04  0.00000000000E+00 0. -1.
         -2   -1    0    0    0  501 -0.00000000000E+00 -0.00000000000E+00 -0.11625706890E+04  0.11625706890E+04  0.00000000000E+00 0.  1.
    9000010    2    1    2  502    0  0.11033925734E+04 -0.10653400192E+04  0.66215911104E+03  0.19481787418E+04  0.10022580478E+04 0.  0.
   -9000010    2    1    2    0  501 -0.11033925734E+04  0.10653400192E+04  0.10787130936E+04  0.21178348407E+04  0.98446835741E+03 0.  0.
        -13    1    3    3    0    0  0.11900775284E+03  0.17083744964E+03  0.22931937387E+03  0.30973483148E+03  0.10566000000E+00 0.  1.
          4    1    3    3  502    0  0.98438482057E+03 -0.12361774688E+04  0.43283973717E+03  0.16384439104E+04  0.00000000000E+00 0.  1.
         13    1    4    4    0    0 -0.50734755482E+03  0.67305766491E+02 -0.28317178834E+02  0.51257534213E+03  0.10566000000E+00 0. -1.
         -4    1    4    4    0  501 -0.59604501859E+03  0.99803425266E+03  0.11070302724E+04  0.16052594986E+04  0.00000000000E+00 0. -1.
<mgrwt>
<rscale>  2 0.18273553E+04</rscale>
<asrwt>0</asrwt>
<pdfrwt beam="1">  1        2 0.44668352E+00 0.18273553E+04</pdfrwt>
<pdfrwt beam="2">  1       -2 0.17885703E+00 0.18273553E+04</pdfrwt>
<totfact> 0.45605434E-01</totfact>
</mgrwt>
</event>
<event>
 8    1  0.1449514E-005  0.1053796E+04  0.7818608E-02  0.8725624E-01
          1   -1    0    0  502    0  0.00000000000E+00  0.00000000000E+00  0.91785102091E+03  0.91785102091E+03  0.00000000000E+00 0. -1.
         -1   -1    0    0    0  501 -0.00000000000E+00 -0.00000000000E+00 -0.12099482473E+04  0.12099482473E+04  0.00000000000E+00 0.  1.
    9000010    2    1    2  502    0  0.28820117397E+02  0.34823782505E+03 -0.13812449235E+03  0.10592706181E+04  0.99039168268E+03 0.  0.
   -9000010    2    1    2    0  501 -0.28820117397E+02 -0.34823782505E+03 -0.15397273406E+03  0.10685286501E+04  0.99797078677E+03 0.  0.
        -13    1    3    3    0    0 -0.28165655967E+03  0.50306889178E+03  0.16378334568E+03  0.59936109564E+03  0.10566000000E+00 0.  1.
          4    1    3    3  502    0  0.31047667707E+03 -0.15483106673E+03 -0.30190783802E+03  0.45990952250E+03  0.00000000000E+00 0.  1.
         13    1    4    4    0    0  0.21246740974E+02  0.15570087353E+03 -0.45364134514E+03  0.48008818690E+03  0.10566000000E+00 0. -1.
         -4    1    4    4    0  501 -0.50066858371E+02 -0.50393869858E+03  0.29966861108E+03  0.58844046317E+03  0.00000000000E+00 0. -1.
<mgrwt>
<rscale>  2 0.10537957E+04</rscale>
<asrwt>0</asrwt>
<pdfrwt beam="1">  1        1 0.14120785E+00 0.10537957E+04</pdfrwt>
<pdfrwt beam="2">  1       -1 0.18614588E+00 0.10537957E+04</pdfrwt>
<totfact> 0.44956981E+00</totfact>
</mgrwt>
</event>
<event>
 8    1  0.1449514E-005  0.1538254E+04  0.7818608E-02  0.8387818E-01
          2   -1    0    0  502    0  0.00000000000E+00  0.00000000000E+00  0.35256288564E+04  0.35256288564E+04  0.00000000000E+00 0. -1.
         -2   -1    0    0    0  501 -0.00000000000E+00 -0.00000000000E+00 -0.68550013553E+03  0.68550013553E+03  0.00000000000E+00 0.  1.
    9000010    2    1    2  502    0 -0.93556621221E+03 -0.65244920262E+03  0.11316700352E+04  0.19234787568E+04  0.10574116321E+04 0.  0.
   -9000010    2    1    2    0  501  0.93556621221E+03  0.65244920262E+03  0.17084586857E+04  0.22876502352E+04  0.10067464519E+04 0.  0.
        -13    1    3    3    0    0 -0.27766147959E+02 -0.63488109064E+03  0.35062981694E+03  0.72580041190E+03  0.10566000000E+00 0.  1.
          4    1    3    3  502    0 -0.90780006425E+03 -0.17568111976E+02  0.78104021828E+03  0.11976783449E+04  0.00000000000E+00 0.  1.
         13    1    4    4    0    0  0.97381697509E+03  0.86079266668E+03  0.15517604784E+04  0.20241650401E+04  0.10566000000E+00 0. -1.
         -4    1    4    4    0  501 -0.38250762877E+02 -0.20834346406E+03  0.15669820729E+03  0.26348519512E+03  0.00000000000E+00 0. -1.
<mgrwt>
<rscale>  2 0.15382540E+04</rscale>
<asrwt>0</asrwt>
<pdfrwt beam="1">  1        2 0.54240443E+00 0.15382540E+04</pdfrwt>
<pdfrwt beam="2">  1       -2 0.10546156E+00 0.15382540E+04</pdfrwt>
<totfact> 0.84349852E-01</totfact>
</mgrwt>
</event>
<event>
 8    1  0.1449514E-005  0.1116610E+04  0.7818608E-02  0.8672150E-01
          1   -1    0    0  502    0  0.00000000000E+00  0.00000000000E+00  0.11299054362E+04  0.11299054362E+04  0.00000000000E+00 0. -1.
         -1   -1    0    0    0  501 -0.00000000000E+00 -0.00000000000E+00 -0.14934357209E+04  0.14934357209E+04  0.00000000000E+00 0.  1.
    9000010    2    1    2  502    0  0.47977454062E+03  0.15762163670E+03  0.48827414774E+03  0.12203649130E+04  0.99792318712E+03 0.  0.
   -9000010    2    1    2    0  501 -0.47977454062E+03 -0.15762163670E+03 -0.85180443239E+03  0.14029762440E+04  0.99385278594E+03 0.  0.
        -13    1    3    3    0    0  0.75085966995E+03  0.21749246237E+03  0.52305891868E+03  0.94057634391E+03  0.10566000000E+00 0.  1.
          4    1    3    3  502    0 -0.27108512933E+03 -0.59870825667E+02 -0.34784770940E+02  0.27978856910E+03  0.00000000000E+00 0.  1.
         13    1    4    4    0    0  0.22826237828E+03 -0.28822686065E+03 -0.14859735881E+03  0.39655973415E+03  0.10566000000E+00 0. -1.
         -4    1    4    4    0  501 -0.70803691890E+03  0.13060522395E+03 -0.70320707358E+03  0.10064165099E+04  0.00000000000E+00 0. -1.
<mgrwt>
<rscale>  2 0.11166103E+04</rscale>
<asrwt>0</asrwt>
<pdfrwt beam="1">  1        1 0.17383161E+00 0.11166103E+04</pdfrwt>
<pdfrwt beam="2">  1       -1 0.22975934E+00 0.11166103E+04</pdfrwt>
<totfact> 0.12089207E+00</totfact>
</mgrwt>
</event>
<event>
 8    1  0.1449514E-005  0.1267178E+04  0.7818608E-02  0.8557623E-01
          4   -1    0    0  502    0  0.00000000000E+00  0.00000000000E+00  0.10629709552E+04  0.10629709552E+04  0.00000000000E+00 0.  1.
         -4   -1    0    0    0  501 -0.00000000000E+00 -0.00000000000E+00 -0.22651177832E+04  0.22651177832E+04  0.00000000000E+00 0. -1.
    9000010    2    1    2  502    0 -0.82613093230E+03 -0.11575980729E+03  0.36598512940E+03  0.12977329299E+04  0.92426889602E+03 0.  0.
   -9000010    2    1    2    0  501  0.82613093230E+03  0.11575980729E+03 -0.15681319574E+04  0.20303558085E+04  0.98357217462E+03 0.  0.
        -13    1    3    3    0    0 -0.75768787035E+03  0.26701546693E+03  0.64958322410E+02  0.80598248323E+03  0.10566000000E+00 0.  1.
          4    1    3    3  502    0 -0.68443061947E+02 -0.38277527422E+03  0.30102680699E+03  0.49175044668E+03  0.00000000000E+00 0.  1.
         13    1    4    4    0    0  0.61121460574E+03 -0.35370072800E+03 -0.12133702895E+04  0.14039070375E+04  0.10566000000E+00 0. -1.
         -4    1    4    4    0  501  0.21491632655E+03  0.46946053529E+03 -0.35476166792E+03  0.62644877096E+03  0.00000000000E+00 0. -1.
<mgrwt>
<rscale>  2 0.12671780E+04</rscale>
<asrwt>0</asrwt>
<pdfrwt beam="1">  1        4 0.16353399E+00 0.12671780E+04</pdfrwt>
<pdfrwt beam="2">  1       -4 0.34847966E+00 0.12671780E+04</pdfrwt>
<totfact> 0.96141220E-02</totfact>
</mgrwt>
</event>
<event>
 8    1  0.1449514E-005  0.1278162E+04  0.7818608E-02  0.8549920E-01
         -2   -1    0    0    0  501 -0.00000000000E+00  0.00000000000E+00  0.13142212205E+04  0.13142212205E+04  0.00000000000E+00 0. -1.
          2   -1    0    0  502    0  0.00000000000E+00 -0.00000000000E+00 -0.14090732227E+04  0.14090732227E+04  0.00000000000E+00 0.  1.
    9000010    2    1    2  502    0 -0.75393910162E+03 -0.37572465655E+03 -0.51305680099E+03  0.14283343280E+04  0.10331110711E+04 0.  0.
   -9000010    2    1    2    0  501  0.75393910162E+03  0.37572465655E+03  0.41820479880E+03  0.12949601152E+04  0.89018720484E+03 0.  0.
        -13    1    3    3    0    0 -0.57982621447E+03  0.48625004136E+01  0.18995951903E+03  0.61016941331E+03  0.10566000000E+00 0.  1.
          4    1    3    3  502    0 -0.17411288714E+03 -0.38058715696E+03 -0.70301632001E+03  0.81816491474E+03  0.00000000000E+00 0.  1.
         13    1    4    4    0    0  0.84565406797E+03  0.71257731900E+02  0.11647258233E+03  0.85660629266E+03  0.10566000000E+00 0. -1.
         -4    1    4    4    0  501 -0.91714966348E+02  0.30446692465E+03  0.30173221647E+03  0.43835382251E+03  0.00000000000E+00 0. -1.
<mgrwt>
<rscale>  2 0.12781619E+04</rscale>
<asrwt>0</asrwt>
<pdfrwt beam="2">  1        2 0.21678049E+00 0.12781619E+04</pdfrwt>
<pdfrwt beam="1">  1       -2 0.20218788E+00 0.12781619E+04</pdfrwt>
<totfact> 0.21223371E+00</totfact>
</mgrwt>
</event>
<event>
 8    1  0.1449514E-005  0.2005405E+04  0.7818608E-02  0.8166195E-01
          2   -1    0    0  502    0  0.00000000000E+00  0.00000000000E+00  0.32526796677E+04  0.32526796677E+04  0.00000000000E+00 0. -1.
         -2   -1    0    0    0  501 -0.00000000000E+00 -0.00000000000E+00 -0.15062126672E+04  0.15062126672E+04  0.00000000000E+00 0.  1.
    9000010    2    1    2  502    0 -0.70895535179E+03 -0.15703467350E+04  0.18772337414E+04  0.27408029975E+04  0.10096474593E+04 0.  0.
   -9000010    2    1    2    0  501  0.70895535179E+03  0.15703467350E+04 -0.13076674087E+03  0.20180893374E+04  0.10425824064E+04 0.  0.
        -13    1    3    3    0    0 -0.21490353632E+03 -0.14790479502E+04  0.14040554190E+04  0.20506433136E+04  0.10566000000E+00 0.  1.
          4    1    3    3  502    0 -0.49405181546E+03 -0.91298784884E+02  0.47317832233E+03  0.69015968384E+03  0.00000000000E+00 0.  1.
         13    1    4    4    0    0  0.83148546596E+03  0.81104177986E+03  0.20392059595E+03  0.11792965994E+04  0.10566000000E+00 0. -1.
         -4    1    4    4    0  501 -0.12253011417E+03  0.75930495518E+03 -0.33468733681E+03  0.83879273796E+03  0.00000000000E+00 0. -1.
<mgrwt>
<rscale>  2 0.20054046E+04</rscale>
<asrwt>0</asrwt>
<pdfrwt beam="1">  1        2 0.50041226E+00 0.20054046E+04</pdfrwt>
<pdfrwt beam="2">  1       -2 0.23172503E+00 0.20054046E+04</pdfrwt>
<totfact> 0.98306177E-02</totfact>
</mgrwt>
</event>
<event>
 8    1  0.1449514E-005  0.1083439E+04  0.7818608E-02  0.8699917E-01
          1   -1    0    0  502    0  0.00000000000E+00  0.00000000000E+00  0.87608750657E+03  0.87608750657E+03  0.00000000000E+00 0. -1.
         -1   -1    0    0    0  501 -0.00000000000E+00 -0.00000000000E+00 -0.13399245615E+04  0.13399245615E+04  0.00000000000E+00 0.  1.
    9000010    2    1    2  502    0 -0.28942369131E+03 -0.31656708048E+03 -0.23716006857E+03  0.11149603633E+04  0.10014544043E+04 0.  0.
   -9000010    2    1    2    0  501  0.28942369131E+03  0.31656708048E+03 -0.22667698631E+03  0.11010517048E+04  0.98840862546E+03 0.  0.
        -13    1    3    3    0    0 -0.53481869168E+03  0.79398516189E+02  0.86723172996E+02  0.54759115884E+03  0.10566000000E+00 0.  1.
          4    1    3    3  502    0  0.24539500037E+03 -0.39596559667E+03 -0.32388324157E+03  0.56736920442E+03  0.00000000000E+00 0.  1.
         13    1    4    4    0    0 -0.28854623659E+03  0.30376049955E+03  0.10852528068E+03  0.43278992531E+03  0.10566000000E+00 0. -1.
         -4    1    4    4    0  501  0.57796992790E+03  0.12806580932E+02 -0.33520226699E+03  0.66826177945E+03  0.00000000000E+00 0. -1.
<mgrwt>
<rscale>  2 0.10834391E+04</rscale>
<asrwt>0</asrwt>
<pdfrwt beam="1">  1        1 0.13478269E+00 0.10834391E+04</pdfrwt>
<pdfrwt beam="2">  1       -1 0.20614224E+00 0.10834391E+04</pdfrwt>
<totfact> 0.32282409E+00</totfact>
</mgrwt>
</event>
<event>
 8    1  0.1449514E-005  0.1020475E+04  0.7818608E-02  0.8755588E-01
          1   -1    0    0  502    0  0.00000000000E+00  0.00000000000E+00  0.12192448817E+04  0.12192448817E+04  0.00000000000E+00 0.  1.
         -1   -1    0    0    0  501 -0.00000000000E+00 -0.00000000000E+00 -0.10231490601E+04  0.10231490601E+04  0.00000000000E+00 0. -1.
    9000010    2    1    2  502    0 -0.16132132066E+03 -0.18733838882E+03  0.55277985081E+03  0.11513108569E+04  0.97919910409E+03 0.  0.
   -9000010    2    1    2    0  501  0.16132132066E+03  0.18733838882E+03 -0.35668402919E+03  0.10910830849E+04  0.10010587200E+04 0.  0.
        -13    1    3    3    0    0  0.22932081057E+03 -0.32362450679E+03 -0.70854512734E+02  0.40291590772E+03  0.10566000000E+00 0.  1.
          4    1    3    3  502    0 -0.39064213122E+03  0.13628611797E+03  0.62363436354E+03  0.74839494923E+03  0.00000000000E+00 0.  1.
         13    1    4    4    0    0  0.15316978829E+03  0.59914101011E+03 -0.19244526386E+03  0.64766204520E+03  0.10566000000E+00 0. -1.
         -4    1    4    4    0  501  0.81515323711E+01 -0.41180262129E+03 -0.16423876532E+03  0.44342103966E+03  0.00000000000E+00 0. -1.
<mgrwt>
<rscale>  2 0.10204754E+04</rscale>
<asrwt>0</asrwt>
<pdfrwt beam="1">  1        1 0.18757613E+00 0.10204754E+04</pdfrwt>
<pdfrwt beam="2">  1       -1 0.15740755E+00 0.10204754E+04</pdfrwt>
<totfact> 0.46157099E+00</totfact>
</mgrwt>
</event>
<event>
 8    1  0.1449514E-005  0.1723572E+04  0.7818608E-02  0.8291298E-01
          2   -1    0    0  502    0  0.00000000000E+00  0.00000000000E+00  0.28765215767E+04  0.28765215767E+04  0.00000000000E+00 0. -1.
         -2   -1    0    0    0  501 -0.00000000000E+00 -0.00000000000E+00 -0.11027461395E+04  0.11027461395E+04  0.00000000000E+00 0.  1.
    9000010    2    1    2  502    0  0.63724219152E+03  0.12645752527E+04  0.13886358420E+04  0.22140907079E+04  0.98420525320E+03 0.  0.
   -9000010    2    1    2    0  501 -0.63724219152E+03 -0.12645752527E+04  0.38513959509E+03  0.17651770083E+04  0.98096339513E+03 0.  0.
        -13    1    3    3    0    0  0.19186710498E+03  0.13359632084E+03 -0.13110487647E+03  0.26804750085E+03  0.10566000000E+00 0.  1.
          4    1    3    3  502    0  0.44537508654E+03  0.11309789319E+04  0.15197407185E+04  0.19460432070E+04  0.00000000000E+00 0.  1.
         13    1    4    4    0    0 -0.55990796932E+03 -0.99791269037E+03  0.70313388152E+03  0.13430278993E+04  0.10566000000E+00 0. -1.
         -4    1    4    4    0  501 -0.77334222199E+02 -0.26666256237E+03 -0.31799428643E+03  0.42214910908E+03  0.00000000000E+00 0. -1.
<mgrwt>
<rscale>  2 0.17235722E+04</rscale>
<asrwt>0</asrwt>
<pdfrwt beam="1">  1        2 0.44254178E+00 0.17235722E+04</pdfrwt>
<pdfrwt beam="2">  1       -2 0.16965325E+00 0.17235722E+04</pdfrwt>
<totfact> 0.57209381E-01</totfact>
</mgrwt>
</event>
<event>
 8    1  0.1449514E-005  0.1087641E+04  0.7818608E-02  0.8696343E-01
          1   -1    0    0  502    0  0.00000000000E+00  0.00000000000E+00  0.20502007664E+04  0.20502007664E+04  0.00000000000E+00 0. -1.
         -1   -1    0    0    0  501 -0.00000000000E+00 -0.00000000000E+00 -0.65171092433E+03  0.65171092433E+03  0.00000000000E+00 0.  1.
    9000010    2    1    2  502    0 -0.41035398545E+03 -0.25945884646E+03  0.24304899844E+03  0.11165429340E+04  0.97564646340E+03 0.  0.
   -9000010    2    1    2    0  501  0.41035398545E+03  0.25945884646E+03  0.11554408437E+04  0.15853687567E+04  0.97089714450E+03 0.  0.
        -13    1    3    3    0    0  0.11276999643E+03  0.30184757892E+03  0.83038299762E+02  0.33275276616E+03  0.10566000000E+00 0.  1.
          4    1    3    3  502    0 -0.52312398188E+03 -0.56130642538E+03  0.16001069868E+03  0.78379016789E+03  0.00000000000E+00 0.  1.
         13    1    4    4    0    0  0.30458325529E+03  0.15846585771E+03 -0.70694749935E+02  0.35054264547E+03  0.10566000000E+00 0. -1.
         -4    1    4    4    0  501  0.10577073016E+03  0.10099298876E+03  0.12261355936E+04  0.12348261112E+04  0.00000000000E+00 0. -1.
<mgrwt>
<rscale>  2 0.10876414E+04</rscale>
<asrwt>0</asrwt>
<pdfrwt beam="1">  1        1 0.31541550E+00 0.10876414E+04</pdfrwt>
<pdfrwt beam="2">  1       -1 0.10026322E+00 0.10876414E+04</pdfrwt>
<totfact> 0.34920323E+00</totfact>
</mgrwt>
</event>
<event>
 8    1  0.1449514E-005  0.1534097E+04  0.7818608E-02  0.8390142E-01
          2   -1    0    0  502    0  0.00000000000E+00  0.00000000000E+00  0.18850760169E+04  0.18850760169E+04  0.00000000000E+00 0. -1.
         -2   -1    0    0    0  501 -0.00000000000E+00 -0.00000000000E+00 -0.12533058824E+04  0.12533058824E+04  0.00000000000E+00 0.  1.
    9000010    2    1    2  502    0  0.50960606743E+03 -0.10555056143E+04  0.21844076784E+03  0.15498815241E+04  0.99026558261E+03 0.  0.
   -9000010    2    1    2    0  501 -0.50960606743E+03  0.10555056143E+04  0.41332936667E+03  0.15885003751E+04  0.98929360187E+03 0.  0.
        -13    1    3    3    0    0  0.67748778266E+03 -0.11444439078E+04  0.26070499083E+03  0.13552522485E+04  0.10566000000E+00 0.  1.
          4    1    3    3  502    0 -0.16788171523E+03  0.88938293564E+02 -0.42264222986E+02  0.19462927558E+03  0.00000000000E+00 0.  1.
         13    1    4    4    0    0 -0.21492398684E+03 -0.80170965893E+02 -0.16290408198E+03  0.28134934686E+03  0.10566000000E+00 0. -1.
         -4    1    4    4    0  501 -0.29468208059E+03  0.11356765801E+04  0.57623344865E+03  0.13071510283E+04  0.00000000000E+00 0. -1.
<mgrwt>
<rscale>  2 0.15340972E+04</rscale>
<asrwt>0</asrwt>
<pdfrwt beam="1">  1        2 0.29001169E+00 0.15340972E+04</pdfrwt>
<pdfrwt beam="2">  1       -2 0.19281629E+00 0.15340972E+04</pdfrwt>
<totfact> 0.13565355E+00</totfact>
</mgrwt>
</event>
<event>
 8    1  0.1449514E-005  0.1331832E+04  0.7818608E-02  0.8513396E-01
          2   -1    0    0  502    0  0.00000000000E+00  0.00000000000E+00  0.29257845526E+04  0.29257845526E+04  0.00000000000E+00 0.  1.
         -2   -1    0    0    0  501 -0.00000000000E+00 -0.00000000000E+00 -0.67576662166E+03  0.67576662166E+03  0.00000000000E+00 0. -1.
    9000010    2    1    2  502    0  0.79143972251E+03  0.38084730493E+03  0.54355591828E+03  0.14336650749E+04  0.99424393712E+03 0.  0.
   -9000010    2    1    2    0  501 -0.79143972251E+03 -0.38084730493E+03  0.17064620127E+04  0.21678860995E+04  0.10081150903E+04 0.  0.
        -13    1    3    3    0    0  0.89564856739E+03  0.60383222936E+03  0.43056277972E+03  0.11628344835E+04  0.10566000000E+00 0.  1.
          4    1    3    3  502    0 -0.10420884488E+03 -0.22298492443E+03  0.11299313857E+03  0.27083059139E+03  0.00000000000E+00 0.  1.
         13    1    4    4    0    0 -0.25785815562E+03 -0.36986522773E+03  0.15462751707E+04  0.16106700562E+04  0.10566000000E+00 0. -1.
         -4    1    4    4    0  501 -0.53358156689E+03 -0.10982077196E+02  0.16018684197E+03  0.55721604328E+03  0.00000000000E+00 0. -1.
<mgrwt>
<rscale>  2 0.13318317E+04</rscale>
<asrwt>0</asrwt>
<pdfrwt beam="1">  1        2 0.45012069E+00 0.13318317E+04</pdfrwt>
<pdfrwt beam="2">  1       -2 0.10396410E+00 0.13318317E+04</pdfrwt>
<totfact> 0.22431827E+00</totfact>
</mgrwt>
</event>
<event>
 8    1  0.1449514E-005  0.1410064E+04  0.7818608E-02  0.8463214E-01
          2   -1    0    0  502    0  0.00000000000E+00  0.00000000000E+00  0.20875062124E+04  0.20875062124E+04  0.00000000000E+00 0. -1.
         -2   -1    0    0    0  501 -0.00000000000E+00 -0.00000000000E+00 -0.10459338666E+04  0.10459338666E+04  0.00000000000E+00 0.  1.
    9000010    2    1    2  502    0 -0.98616104745E+03  0.19293709058E+02  0.55112671962E+02  0.14188712333E+04  0.10184656652E+04 0.  0.
   -9000010    2    1    2    0  501  0.98616104745E+03 -0.19293709058E+02  0.98645967379E+03  0.17145688457E+04  0.99687400408E+03 0.  0.
        -13    1    3    3    0    0 -0.85772796633E+03  0.41422324430E+03  0.21044783586E+03  0.97548268213E+03  0.10566000000E+00 0.  1.
          4    1    3    3  502    0 -0.12843308112E+03 -0.39492953524E+03 -0.15533516389E+03  0.44338855113E+03  0.00000000000E+00 0.  1.
         13    1    4    4    0    0  0.56384040054E+02 -0.18978830814E+03 -0.14115381075E+03  0.24315256802E+03  0.10566000000E+00 0. -1.
         -4    1    4    4    0  501  0.92977700740E+03  0.17049459908E+03  0.11276134845E+04  0.14714162777E+04  0.00000000000E+00 0. -1.
<mgrwt>
<rscale>  2 0.14100645E+04</rscale>
<asrwt>0</asrwt>
<pdfrwt beam="1">  1        2 0.32115480E+00 0.14100645E+04</pdfrwt>
<pdfrwt beam="2">  1       -2 0.16091290E+00 0.14100645E+04</pdfrwt>
<totfact> 0.19725961E+00</totfact>
</mgrwt>
</event>
<event>
 8    1  0.1449514E-005  0.1903994E+04  0.7818608E-02  0.8208640E-01
         -2   -1    0    0    0  501 -0.00000000000E+00  0.00000000000E+00  0.14378796641E+04  0.14378796641E+04  0.00000000000E+00 0.  1.
          2   -1    0    0  502    0  0.00000000000E+00 -0.00000000000E+00 -0.25618649418E+04  0.25618649418E+04  0.00000000000E+00 0. -1.
    9000010    2    1    2  502    0 -0.16094751090E+04  0.16820069620E+03 -0.31172564391E+03  0.19347925887E+04  0.10136803656E+04 0.  0.
   -9000010    2    1    2    0  501  0.16094751090E+04 -0.16820069620E+03 -0.81225963386E+03  0.20649520172E+04  0.99275350411E+03 0.  0.
        -13    1    3    3    0    0 -0.44449786283E+03  0.27988522059E+03  0.30964229855E+03  0.60974785853E+03  0.10566000000E+00 0.  1.
          4    1    3    3  502    0 -0.11649772462E+04 -0.11168452439E+03 -0.62136794246E+03  0.13250447302E+04  0.00000000000E+00 0.  1.
         13    1    4    4    0    0  0.39099963458E+02  0.15244625769E+03  0.13138782092E+03  0.20501570495E+03  0.10566000000E+00 0. -1.
         -4    1    4    4    0  501  0.15703751455E+04 -0.32064695389E+03 -0.94364745478E+03  0.18599363123E+04  0.00000000000E+00 0. -1.
<mgrwt>
<rscale>  2 0.19039944E+04</rscale>
<asrwt>0</asrwt>
<pdfrwt beam="2">  1        2 0.39413307E+00 0.19039944E+04</pdfrwt>
<pdfrwt beam="1">  1       -2 0.22121225E+00 0.19039944E+04</pdfrwt>
<totfact> 0.32124908E-01</totfact>
</mgrwt>
</event>
<event>
 8    1  0.1449514E-005  0.1082157E+04  0.7818608E-02  0.8701012E-01
         -2   -1    0    0    0  501 -0.00000000000E+00  0.00000000000E+00  0.15227823410E+04  0.15227823410E+04  0.00000000000E+00 0.  1.
          2   -1    0    0  502    0  0.00000000000E+00 -0.00000000000E+00 -0.79255184651E+03  0.79255184651E+03  0.00000000000E+00 0. -1.
    9000010    2    1    2  502    0 -0.38716523821E+03  0.13863596035E+03  0.16685843572E+03  0.10984240739E+04  0.10047770187E+04 0.  0.
   -9000010    2    1    2    0  501  0.38716523821E+03 -0.13863596035E+03  0.56337205877E+03  0.12169101136E+04  0.99717866849E+03 0.  0.
        -13    1    3    3    0    0  0.25500722691E+03  0.15735636787E+03  0.31956732660E+03  0.43807875967E+03  0.10566000000E+00 0.  1.
          4    1    3    3  502    0 -0.64217246512E+03 -0.18720407514E+02 -0.15270889088E+03  0.66034531419E+03  0.00000000000E+00 0.  1.
         13    1    4    4    0    0  0.24905190550E+03  0.40451078036E+03  0.43018341329E+03  0.64086941204E+03  0.10566000000E+00 0. -1.
         -4    1    4    4    0  501  0.13811333271E+03 -0.54314674071E+03  0.13318864548E+03  0.57604070160E+03  0.00000000000E+00 0. -1.
<mgrwt>
<rscale>  2 0.10821567E+04</rscale>
<asrwt>0</asrwt>
<pdfrwt beam="2">  1        2 0.12193105E+00 0.10821567E+04</pdfrwt>
<pdfrwt beam="1">  1       -2 0.23427421E+00 0.10821567E+04</pdfrwt>
<totfact> 0.27796714E+00</totfact>
</mgrwt>
</event>
<event>
 8    1  0.1449514E-005  0.1851488E+04  0.7818608E-02  0.8231693E-01
         -2   -1    0    0    0  501 -0.00000000000E+00  0.00000000000E+00  0.22766975303E+04  0.22766975303E+04  0.00000000000E+00 0. -1.
          2   -1    0    0  502    0  0.00000000000E+00 -0.00000000000E+00 -0.16937451941E+04  0.16937451941E+04  0.00000000000E+00 0.  1.
    9000010    2    1    2  502    0  0.63970829872E+03  0.14164964108E+04  0.95265418580E+03  0.20802364209E+04  0.10020702470E+04 0.  0.
   -9000010    2    1    2    0  501 -0.63970829872E+03 -0.14164964108E+04 -0.36970184962E+03  0.18902063035E+04  0.10102037531E+04 0.  0.
        -13    1    3    3    0    0  0.70613648795E+03  0.11123611720E+04  0.29145109350E+03  0.13494146389E+04  0.10566000000E+00 0.  1.
          4    1    3    3  502    0 -0.66428189229E+02  0.30413523881E+03  0.66120309230E+03  0.73082178202E+03  0.00000000000E+00 0.  1.
         13    1    4    4    0    0 -0.12975685673E+03  0.94367426020E+02  0.14329403690E+03  0.21511681743E+03  0.10566000000E+00 0. -1.
         -4    1    4    4    0  501 -0.50995144199E+03 -0.15108638369E+04 -0.51299588652E+03  0.16750894861E+04  0.00000000000E+00 0. -1.
<mgrwt>
<rscale>  2 0.18514878E+04</rscale>
<asrwt>0</asrwt>
<pdfrwt beam="2">  1        2 0.26057618E+00 0.18514878E+04</pdfrwt>
<pdfrwt beam="1">  1       -2 0.35026116E+00 0.18514878E+04</pdfrwt>
<totfact> 0.11477384E-01</totfact>
</mgrwt>
</event>
<event>
 8    1  0.1449514E-005  0.1085617E+04  0.7818608E-02  0.8698062E-01
          2   -1    0    0  502    0  0.00000000000E+00  0.00000000000E+00  0.41914876847E+04  0.41914876847E+04  0.00000000000E+00 0.  1.
         -2   -1    0    0    0  501 -0.00000000000E+00 -0.00000000000E+00 -0.31043146858E+03  0.31043146858E+03  0.00000000000E+00 0. -1.
    9000010    2    1    2  502    0 -0.23666221965E+03 -0.30972781035E+03  0.12350014262E+04  0.16383170879E+04  0.10034510626E+04 0.  0.
   -9000010    2    1    2    0  501  0.23666221965E+03  0.30972781035E+03  0.26460547900E+04  0.28636020654E+04  0.10230691642E+04 0.  0.
        -13    1    3    3    0    0 -0.67332641033E+02  0.36371502324E+03  0.31620350459E+03  0.48662816416E+03  0.10566000000E+00 0.  1.
          4    1    3    3  502    0 -0.16932957862E+03 -0.67344283359E+03  0.91879792159E+03  0.11516889237E+04  0.00000000000E+00 0.  1.
         13    1    4    4    0    0 -0.35130153484E+03  0.35928770489E+03  0.13092572738E+04  0.14023747871E+04  0.10566000000E+00 0. -1.
         -4    1    4    4    0  501  0.58796375449E+03 -0.49559894540E+02  0.13367975162E+04  0.14612272784E+04  0.00000000000E+00 0. -1.
<mgrwt>
<rscale>  2 0.10856173E+04</rscale>
<asrwt>0</asrwt>
<pdfrwt beam="1">  1        2 0.64484422E+00 0.10856173E+04</pdfrwt>
<pdfrwt beam="2">  1       -2 0.47758691E-01 0.10856173E+04</pdfrwt>
<totfact> 0.13337695E+00</totfact>
</mgrwt>
</event>
<event>
 8    1  0.1449514E-005  0.1803469E+04  0.7818608E-02  0.8253472E-01
         -2   -1    0    0    0  501 -0.00000000000E+00  0.00000000000E+00  0.11379982458E+04  0.11379982458E+04  0.00000000000E+00 0.  1.
          2   -1    0    0  502    0  0.00000000000E+00 -0.00000000000E+00 -0.35396273950E+04  0.35396273950E+04  0.00000000000E+00 0. -1.
    9000010    2    1    2  502    0  0.11492251324E+04  0.98069015148E+03 -0.22253518260E+04  0.28623653927E+04  0.97901650314E+03 0.  0.
   -9000010    2    1    2    0  501 -0.11492251324E+04 -0.98069015148E+03 -0.17627732319E+03  0.18152602481E+04  0.99076964800E+03 0.  0.
        -13    1    3    3    0    0  0.10435941952E+04  0.11097302842E+04 -0.15757759523E+04  0.21917253503E+04  0.10566000000E+00 0.  1.
          4    1    3    3  502    0  0.10563093720E+03 -0.12904013273E+03 -0.64957587376E+03  0.67064004243E+03  0.00000000000E+00 0.  1.
         13    1    4    4    0    0 -0.86213525725E+03 -0.92832408951E+03  0.25715038684E+03  0.12927448122E+04  0.10566000000E+00 0. -1.
         -4    1    4    4    0  501 -0.28708987520E+03 -0.52366061971E+02 -0.43342771003E+03  0.52251543586E+03  0.00000000000E+00 0. -1.
<mgrwt>
<rscale>  2 0.18034688E+04</rscale>
<asrwt>0</asrwt>
<pdfrwt beam="2">  1        2 0.54455806E+00 0.18034688E+04</pdfrwt>
<pdfrwt beam="1">  1       -2 0.17507665E+00 0.18034688E+04</pdfrwt>
<totfact> 0.18444190E-01</totfact>
</mgrwt>
</event>
<event>
 8    1  0.1449514E-005  0.1200322E+04  0.7818608E-02  0.8606320E-01
          2   -1    0    0  502    0  0.00000000000E+00  0.00000000000E+00  0.95976709499E+03  0.95976709499E+03  0.00000000000E+00 0.  1.
         -2   -1    0    0    0  501 -0.00000000000E+00 -0.00000000000E+00 -0.15397009376E+04  0.15397009376E+04  0.00000000000E+00 0. -1.
    9000010    2    1    2  502    0  0.61428313548E+03  0.17107016057E+03 -0.92631042253E+02  0.12054111496E+04  0.10187378266E+04 0.  0.
   -9000010    2    1    2    0  501 -0.61428313548E+03 -0.17107016057E+03 -0.48730280034E+03  0.12940568829E+04  0.10151405945E+04 0.  0.
        -13    1    3    3    0    0  0.26120157895E+03 -0.42926551928E+03  0.23548692055E+01  0.50249448500E+03  0.10566000000E+00 0.  1.
          4    1    3    3  502    0  0.35308155653E+03  0.60033567984E+03 -0.94985911459E+02  0.70291666464E+03  0.00000000000E+00 0.  1.
         13    1    4    4    0    0 -0.42918303795E+03 -0.46732275945E+03  0.67878730629E+02  0.63811924810E+03  0.10566000000E+00 0. -1.
         -4    1    4    4    0  501 -0.18510009754E+03  0.29625259888E+03 -0.55518153097E+03  0.65593763482E+03  0.00000000000E+00 0. -1.
<mgrwt>
<rscale>  2 0.12003219E+04</rscale>
<asrwt>0</asrwt>
<pdfrwt beam="1">  1        2 0.14765648E+00 0.12003219E+04</pdfrwt>
<pdfrwt beam="2">  1       -2 0.23687707E+00 0.12003219E+04</pdfrwt>
<totfact> 0.20350053E+00</totfact>
</mgrwt>
</event>
<event>
 8    1  0.1449514E-005  0.1059350E+04  0.7818608E-02  0.8720741E-01
          2   -1    0    0  502    0  0.00000000000E+00  0.00000000000E+00  0.17403160132E+04  0.17403160132E+04  0.00000000000E+00 0.  1.
         -2   -1    0    0    0  501 -0.00000000000E+00 -0.00000000000E+00 -0.69649510633E+03  0.69649510633E+03  0.00000000000E+00 0. -1.
    9000010    2    1    2  502    0  0.31261202800E+03  0.36991394456E+02  0.86109362986E+03  0.13788967109E+04  0.10299413850E+04 0.  0.
   -9000010    2    1    2    0  501 -0.31261202800E+03 -0.36991394456E+02  0.18272727703E+03  0.10579144087E+04  0.99332723460E+03 0.  0.
        -13    1    3    3    0    0 -0.25301205772E+03  0.32816902053E+03  0.49258557237E+03  0.64370067940E+03  0.10566000000E+00 0.  1.
          4    1    3    3  502    0  0.56562408572E+03 -0.29117762608E+03  0.36850805749E+03  0.73519603149E+03  0.00000000000E+00 0.  1.
         13    1    4    4    0    0 -0.77689482637E+02 -0.36368823123E+03  0.44321251600E+03  0.57856903715E+03  0.10566000000E+00 0. -1.
         -4    1    4    4    0  501 -0.23492254537E+03  0.32669683677E+03 -0.26048523897E+03  0.47934537152E+03  0.00000000000E+00 0. -1.
<mgrwt>
<rscale>  2 0.10593501E+04</rscale>
<asrwt>0</asrwt>
<pdfrwt beam="1">  1        2 0.26774092E+00 0.10593501E+04</pdfrwt>
<pdfrwt beam="2">  1       -2 0.10715309E+00 0.10593501E+04</pdfrwt>
<totfact> 0.99252182E+00</totfact>
</mgrwt>
</event>
<event>
 8    1  0.1449514E-005  0.1098419E+04  0.7818608E-02  0.8687251E-01
         -1   -1    0    0    0  501 -0.00000000000E+00  0.00000000000E+00  0.96499514074E+03  0.96499514074E+03  0.00000000000E+00 0. -1.
          1   -1    0    0  502    0  0.00000000000E+00 -0.00000000000E+00 -0.12749370743E+04  0.12749370743E+04  0.00000000000E+00 0.  1.
    9000010    2    1    2  502    0  0.28279599389E+02  0.54621570653E+03 -0.41741290585E+00  0.10517576770E+04  0.89835555495E+03 0.  0.
   -9000010    2    1    2    0  501 -0.28279599389E+02 -0.54621570653E+03 -0.30952452065E+03  0.11881745380E+04  0.10083659902E+04 0.  0.
        -13    1    3    3    0    0  0.36992456745E+03 -0.39744988048E+02 -0.26268322434E+02  0.37297973887E+03  0.10566000000E+00 0.  1.
          4    1    3    3  502    0 -0.34164496806E+03  0.58596069458E+03  0.25850909528E+02  0.67877793814E+03  0.00000000000E+00 0.  1.
         13    1    4    4    0    0 -0.22852738186E+03 -0.46639127358E+03  0.25884397061E+03  0.58029802396E+03  0.10566000000E+00 0. -1.
         -4    1    4    4    0  501  0.20024778248E+03 -0.79824432949E+02 -0.56836849126E+03  0.60787651406E+03  0.00000000000E+00 0. -1.
<mgrwt>
<rscale>  2 0.10984188E+04</rscale>
<asrwt>0</asrwt>
<pdfrwt beam="2">  1        1 0.19614417E+00 0.10984188E+04</pdfrwt>
<pdfrwt beam="1">  1       -1 0.14846079E+00 0.10984188E+04</pdfrwt>
<totfact> 0.49468138E+00</totfact>
</mgrwt>
</event>
<event>
 8    1  0.1449514E-005  0.1325078E+04  0.7818608E-02  0.8517893E-01
         -2   -1    0    0    0  501 -0.00000000000E+00  0.00000000000E+00  0.12092566635E+04  0.12092566635E+04  0.00000000000E+00 0.  1.
          2   -1    0    0  502    0  0.00000000000E+00 -0.00000000000E+00 -0.24496717654E+04  0.24496717654E+04  0.00000000000E+00 0. -1.
    9000010    2    1    2  502    0 -0.74212018828E+03  0.43889610246E+03 -0.17871946757E+04  0.22236913976E+04  0.10036764719E+04 0.  0.
   -9000010    2    1    2    0  501  0.74212018828E+03 -0.43889610246E+03  0.54677957386E+03  0.14352370313E+04  0.10087444032E+04 0.  0.
        -13    1    3    3    0    0 -0.86315184896E+03  0.17045764327E-01 -0.10786232413E+04  0.13814699499E+04  0.10566000000E+00 0.  1.
          4    1    3    3  502    0  0.12103166067E+03  0.43887905670E+03 -0.70857143443E+03  0.84222144771E+03  0.00000000000E+00 0.  1.
         13    1    4    4    0    0  0.42439155776E+03 -0.72304574466E+03  0.14766528126E+03  0.85129806156E+03  0.10566000000E+00 0. -1.
         -4    1    4    4    0  501  0.31772863053E+03  0.28414964219E+03  0.39911429259E+03  0.58393896973E+03  0.00000000000E+00 0. -1.
<mgrwt>
<rscale>  2 0.13250776E+04</rscale>
<asrwt>0</asrwt>
<pdfrwt beam="2">  1        2 0.37687257E+00 0.13250776E+04</pdfrwt>
<pdfrwt beam="1">  1       -2 0.18603949E+00 0.13250776E+04</pdfrwt>
<totfact> 0.77351597E-01</totfact>
</mgrwt>
</event>
<event>
 8    1  0.1449514E-005  0.1260732E+04  0.7818608E-02  0.8562181E-01
         -1   -1    0    0    0  501 -0.00000000000E+00  0.00000000000E+00  0.80880067607E+03  0.80880067607E+03  0.00000000000E+00 0.  1.
          1   -1    0    0  502    0  0.00000000000E+00 -0.00000000000E+00 -0.19660366719E+04  0.19660366719E+04  0.00000000000E+00 0. -1.
    9000010    2    1    2  502    0 -0.67007875191E+03 -0.42471900719E+03 -0.58788137404E+03  0.14149771779E+04  0.10134910632E+04 0.  0.
   -9000010    2    1    2    0  501  0.67007875191E+03  0.42471900719E+03 -0.56935462181E+03  0.13598601701E+04  0.94639485838E+03 0.  0.
        -13    1    3    3    0    0  0.96003635042E+01 -0.58720268256E+03 -0.29570920039E+03  0.65752802202E+03  0.10566000000E+00 0.  1.
          4    1    3    3  502    0 -0.67967911541E+03  0.16248367537E+03 -0.29217217365E+03  0.75744915588E+03  0.00000000000E+00 0.  1.
         13    1    4    4    0    0  0.12164796655E+03 -0.27005339409E+02 -0.63426210612E+03  0.64638683971E+03  0.10566000000E+00 0. -1.
         -4    1    4    4    0  501  0.54843078536E+03  0.45172434660E+03  0.64907484307E+02  0.71347333038E+03  0.00000000000E+00 0. -1.
<mgrwt>
<rscale>  2 0.12607324E+04</rscale>
<asrwt>0</asrwt>
<pdfrwt beam="2">  1        1 0.30246718E+00 0.12607324E+04</pdfrwt>
<pdfrwt beam="1">  1       -1 0.12443087E+00 0.12607324E+04</pdfrwt>
<totfact> 0.23925865E+00</totfact>
</mgrwt>
</event>
<event>
 8    1  0.1449514E-005  0.1406953E+04  0.7818608E-02  0.8465145E-01
          2   -1    0    0  502    0  0.00000000000E+00  0.00000000000E+00  0.19615292344E+04  0.19615292344E+04  0.00000000000E+00 0.  1.
         -2   -1    0    0    0  501 -0.00000000000E+00 -0.00000000000E+00 -0.11313049319E+04  0.11313049319E+04  0.00000000000E+00 0. -1.
    9000010    2    1    2  502    0  0.17806312934E+03 -0.97415924918E+03  0.92317376715E+03  0.16826342771E+04  0.99915743764E+03 0.  0.
   -9000010    2    1    2    0  501 -0.17806312934E+03  0.97415924918E+03 -0.92949464608E+02  0.14101998892E+04  0.99966564604E+03 0.  0.
        -13    1    3    3    0    0  0.13453086765E+03  0.29639382669E+02  0.61712583380E+03  0.63231428362E+03  0.10566000000E+00 0.  1.
          4    1    3    3  502    0  0.43532261691E+02 -0.10037986319E+04  0.30604793334E+03  0.10503199934E+04  0.00000000000E+00 0.  1.
         13    1    4    4    0    0  0.61669680444E+02 -0.16796735123E+03 -0.16168751232E+03  0.24116186135E+03  0.10566000000E+00 0. -1.
         -4    1    4    4    0  501 -0.23973280979E+03  0.11421266004E+04  0.68738047711E+02  0.11690380279E+04  0.00000000000E+00 0. -1.
<mgrwt>
<rscale>  2 0.14069528E+04</rscale>
<asrwt>0</asrwt>
<pdfrwt beam="1">  1        2 0.30177373E+00 0.14069528E+04</pdfrwt>
<pdfrwt beam="2">  1       -2 0.17404691E+00 0.14069528E+04</pdfrwt>
<totfact> 0.17897354E+00</totfact>
</mgrwt>
</event>
<event>
 8    1  0.1449514E-005  0.1849892E+04  0.7818608E-02  0.8232406E-01
         -2   -1    0    0    0  501 -0.00000000000E+00  0.00000000000E+00  0.12784901334E+04  0.12784901334E+04  0.00000000000E+00 0.  1.
          2   -1    0    0  502    0  0.00000000000E+00 -0.00000000000E+00 -0.49477401359E+04  0.49477401359E+04  0.00000000000E+00 0. -1.
    9000010    2    1    2  502    0 -0.67013874966E+03 -0.14054124447E+04  0.27281587709E+03  0.18730389400E+04  0.10047767337E+04 0.  0.
   -9000010    2    1    2    0  501  0.67013874966E+03  0.14054124447E+04 -0.39420658796E+04  0.43531913293E+04  0.99303638772E+03 0.  0.
        -13    1    3    3    0    0 -0.15512560418E+03 -0.11450031148E+04 -0.13938657876E+03  0.11638405026E+04  0.10566000000E+00 0.  1.
          4    1    3    3  502    0 -0.51501314548E+03 -0.26040932993E+03  0.41220245585E+03  0.70919843749E+03  0.00000000000E+00 0.  1.
         13    1    4    4    0    0  0.64459367923E+03  0.29247787668E+03 -0.18970798292E+04  0.20248348597E+04  0.10566000000E+00 0. -1.
         -4    1    4    4    0  501  0.25545070432E+02  0.11129345680E+04 -0.20449860504E+04  0.23283564696E+04  0.00000000000E+00 0. -1.
<mgrwt>
<rscale>  2 0.18498916E+04</rscale>
<asrwt>0</asrwt>
<pdfrwt beam="2">  1        2 0.76119080E+00 0.18498916E+04</pdfrwt>
<pdfrwt beam="1">  1       -2 0.19669079E+00 0.18498916E+04</pdfrwt>
<totfact> 0.71509789E-03</totfact>
</mgrwt>
</event>
<event>
 8    1  0.1449514E-005  0.1029622E+04  0.7818608E-02  0.8747247E-01
         -2   -1    0    0    0  501 -0.00000000000E+00  0.00000000000E+00  0.69422130703E+03  0.69422130703E+03  0.00000000000E+00 0.  1.
          2   -1    0    0  502    0  0.00000000000E+00 -0.00000000000E+00 -0.15875665226E+04  0.15875665226E+04  0.00000000000E+00 0. -1.
    9000010    2    1    2  502    0  0.16929534988E+02 -0.19870558651E+03 -0.67073673325E+03  0.12315864965E+04  0.10134826164E+04 0.  0.
   -9000010    2    1    2    0  501 -0.16929534988E+02  0.19870558651E+03 -0.22260848236E+03  0.10502013331E+04  0.10067759356E+04 0.  0.
        -13    1    3    3    0    0  0.50370626748E+03 -0.94058274046E+01 -0.40010922930E+03  0.64334740228E+03  0.10566000000E+00 0.  1.
          4    1    3    3  502    0 -0.48677673249E+03 -0.18929975911E+03 -0.27062750395E+03  0.58823909423E+03  0.00000000000E+00 0.  1.
         13    1    4    4    0    0  0.12479198919E+03  0.57444835523E+03  0.64574876086E+01  0.58788235532E+03  0.10566000000E+00 0. -1.
         -4    1    4    4    0  501 -0.14172152418E+03 -0.37574276871E+03 -0.22906596996E+03  0.46231897782E+03  0.00000000000E+00 0. -1.
<mgrwt>
<rscale>  2 0.10296219E+04</rscale>
<asrwt>0</asrwt>
<pdfrwt beam="2">  1        2 0.24424100E+00 0.10296219E+04</pdfrwt>
<pdfrwt beam="1">  1       -2 0.10680328E+00 0.10296219E+04</pdfrwt>
<totfact> 0.12151138E+01</totfact>
</mgrwt>
</event>
<event>
 8    1  0.1449514E-005  0.1310390E+04  0.7818608E-02  0.8527771E-01
         -2   -1    0    0    0  501 -0.00000000000E+00  0.00000000000E+00  0.10012636081E+04  0.10012636081E+04  0.00000000000E+00 0.  1.
          2   -1    0    0  502    0  0.00000000000E+00 -0.00000000000E+00 -0.21118692871E+04  0.21118692871E+04  0.00000000000E+00 0. -1.
    9000010    2    1    2  502    0 -0.21325107715E+03  0.81049410274E+03  0.11888302651E+03  0.13175731533E+04  0.10096975428E+04 0.  0.
   -9000010    2    1    2    0  501  0.21325107715E+03 -0.81049410274E+03 -0.12294887055E+04  0.17955597420E+04  0.10049953221E+04 0.  0.
        -13    1    3    3    0    0 -0.43120927149E+03  0.15880789064E+02 -0.14041403846E+03  0.45377279407E+03  0.10566000000E+00 0.  1.
          4    1    3    3  502    0  0.21795819434E+03  0.79461331368E+03  0.25929706498E+03  0.86380035926E+03  0.00000000000E+00 0.  1.
         13    1    4    4    0    0  0.24721435556E+02 -0.97091795516E+03 -0.12037061330E+04  0.15466742678E+04  0.10566000000E+00 0. -1.
         -4    1    4    4    0  501  0.18852964160E+03  0.16042385242E+03 -0.25782572556E+02  0.24888547413E+03  0.00000000000E+00 0. -1.
<mgrwt>
<rscale>  2 0.13103902E+04</rscale>
<asrwt>0</asrwt>
<pdfrwt beam="2">  1        2 0.32490296E+00 0.13103902E+04</pdfrwt>
<pdfrwt beam="1">  1       -2 0.15404056E+00 0.13103902E+04</pdfrwt>
<totfact> 0.22203414E+00</totfact>
</mgrwt>
</event>
<event>
 8    1  0.1449514E-005  0.1077421E+04  0.7818608E-02  0.8705066E-01
          1   -1    0    0  502    0  0.00000000000E+00  0.00000000000E+00  0.94351803647E+03  0.94351803647E+03  0.00000000000E+00 0.  1.
         -1   -1    0    0    0  501 -0.00000000000E+00 -0.00000000000E+00 -0.12423963527E+04  0.12423963527E+04  0.00000000000E+00 0. -1.
    9000010    2    1    2  502    0 -0.38628258413E+03  0.87135495979E+02 -0.42212362889E+02  0.10814949730E+04  0.10055061728E+04 0.  0.
   -9000010    2    1    2    0  501  0.38628258413E+03 -0.87135495979E+02 -0.25666595334E+03  0.11044194162E+04  0.99852791941E+03 0.  0.
        -13    1    3    3    0    0 -0.51407442065E+03 -0.34325710482E+03 -0.10872905549E+03  0.62763043955E+03  0.10566000000E+00 0.  1.
          4    1    3    3  502    0  0.12779183652E+03  0.43039260080E+03  0.66516692599E+02  0.45386453342E+03  0.00000000000E+00 0.  1.
         13    1    4    4    0    0 -0.19013338920E+03 -0.36250149098E+03  0.16456773403E+02  0.40966922414E+03  0.10566000000E+00 0. -1.
         -4    1    4    4    0  501  0.57641597333E+03  0.27536599500E+03 -0.27312272675E+03  0.69475019207E+03  0.00000000000E+00 0. -1.
<mgrwt>
<rscale>  2 0.10774210E+04</rscale>
<asrwt>0</asrwt>
<pdfrwt beam="1">  1        1 0.14515662E+00 0.10774210E+04</pdfrwt>
<pdfrwt beam="2">  1       -1 0.19113790E+00 0.10774210E+04</pdfrwt>
<totfact> 0.38566942E+00</totfact>
</mgrwt>
</event>
<event>
 8    1  0.1449514E-005  0.1250520E+04  0.7818608E-02  0.8569460E-01
          1   -1    0    0  502    0  0.00000000000E+00  0.00000000000E+00  0.10774518769E+04  0.10774518769E+04  0.00000000000E+00 0. -1.
         -1   -1    0    0    0  501 -0.00000000000E+00 -0.00000000000E+00 -0.14813854235E+04  0.14813854235E+04  0.00000000000E+00 0.  1.
    9000010    2    1    2  502    0 -0.60256498202E+03  0.43917016972E+03 -0.19639069431E+02  0.12489487100E+04  0.10017645390E+04 0.  0.
   -9000010    2    1    2    0  501  0.60256498202E+03 -0.43917016972E+03 -0.38429447714E+03  0.13098885904E+04  0.10060670348E+04 0.  0.
        -13    1    3    3    0    0 -0.79950717849E+03  0.56833192488E+03  0.97774557632E+02  0.98578536233E+03  0.10566000000E+00 0.  1.
          4    1    3    3  502    0  0.19694219648E+03 -0.12916175516E+03 -0.11741362706E+03  0.26316334769E+03  0.00000000000E+00 0.  1.
         13    1    4    4    0    0 -0.26724438804E+03 -0.22912452099E+03 -0.54378416252E+02  0.35619465518E+03  0.10566000000E+00 0. -1.
         -4    1    4    4    0  501  0.86980937006E+03 -0.21004564874E+03 -0.32991606088E+03  0.95369393520E+03  0.00000000000E+00 0. -1.
<mgrwt>
<rscale>  2 0.12505201E+04</rscale>
<asrwt>0</asrwt>
<pdfrwt beam="1">  1        1 0.16576183E+00 0.12505201E+04</pdfrwt>
<pdfrwt beam="2">  1       -1 0.22790545E+00 0.12505201E+04</pdfrwt>
<totfact> 0.13592768E+00</totfact>
</mgrwt>
</event>
<event>
 8    1  0.1449514E-005  0.1372543E+04  0.7818608E-02  0.8486853E-01
         -4   -1    0    0    0  501 -0.00000000000E+00  0.00000000000E+00  0.17318851699E+04  0.17318851699E+04  0.00000000000E+00 0. -1.
          4   -1    0    0  502    0  0.00000000000E+00 -0.00000000000E+00 -0.12889025383E+04  0.12889025383E+04  0.00000000000E+00 0.  1.
    9000010    2    1    2  502    0  0.60228659963E+03  0.69903526828E+03 -0.37327456035E+03  0.14347864247E+04  0.10333821814E+04 0.  0.
   -9000010    2    1    2    0  501 -0.60228659963E+03 -0.69903526828E+03  0.81625719195E+03  0.15860012834E+04  0.99886175879E+03 0.  0.
        -13    1    3    3    0    0  0.58580723171E+03  0.94676951530E+03 -0.19786681111E+03  0.11307934886E+04  0.10566000000E+00 0.  1.
          4    1    3    3  502    0  0.16479367925E+02 -0.24773424702E+03 -0.17540774924E+03  0.30399293611E+03  0.00000000000E+00 0.  1.
         13    1    4    4    0    0 -0.53415047528E+03 -0.18632145010E+03 -0.59581261514E+02  0.56884299319E+03  0.10566000000E+00 0. -1.
         -4    1    4    4    0  501 -0.68136124350E+02 -0.51271381818E+03  0.87583845347E+03  0.10171582902E+04  0.00000000000E+00 0. -1.
<mgrwt>
<rscale>  2 0.13725431E+04</rscale>
<asrwt>0</asrwt>
<pdfrwt beam="2">  1        4 0.19829270E+00 0.13725431E+04</pdfrwt>
<pdfrwt beam="1">  1       -4 0.26644387E+00 0.13725431E+04</pdfrwt>
<totfact> 0.12407078E-01</totfact>
</mgrwt>
</event>
<event>
 8    1  0.1449514E-005  0.1092415E+04  0.7818608E-02  0.8692303E-01
          2   -1    0    0  502    0  0.00000000000E+00  0.00000000000E+00  0.15038848940E+04  0.15038848940E+04  0.00000000000E+00 0. -1.
         -2   -1    0    0    0  501 -0.00000000000E+00 -0.00000000000E+00 -0.99123879014E+03  0.99123879014E+03  0.00000000000E+00 0.  1.
    9000010    2    1    2  502    0 -0.32773202397E+03  0.27782223665E+03 -0.30009108937E+03  0.11367065844E+04  0.10086891108E+04 0.  0.
   -9000010    2    1    2    0  501  0.32773202397E+03 -0.27782223665E+03  0.81273719327E+03  0.13584170998E+04  0.10000808952E+04 0.  0.
        -13    1    3    3    0    0 -0.47150681314E+03  0.20594165836E+03 -0.60367571450E+03  0.79319292794E+03  0.10566000000E+00 0.  1.
          4    1    3    3  502    0  0.14377478917E+03  0.71880578295E+02  0.30358462513E+03  0.34351365643E+03  0.00000000000E+00 0.  1.
         13    1    4    4    0    0  0.19874588663E+03 -0.38030054614E+03  0.10123894531E+04  0.10995730302E+04  0.10566000000E+00 0. -1.
         -4    1    4    4    0  501  0.12898613734E+03  0.10247830948E+03 -0.19965225979E+03  0.25884406963E+03  0.00000000000E+00 0. -1.
<mgrwt>
<rscale>  2 0.10924147E+04</rscale>
<asrwt>0</asrwt>
<pdfrwt beam="1">  1        2 0.23136691E+00 0.10924147E+04</pdfrwt>
<pdfrwt beam="2">  1       -2 0.15249828E+00 0.10924147E+04</pdfrwt>
<totfact> 0.50353373E+00</totfact>
</mgrwt>
</event>
<event>
 8    1  0.1449514E-005  0.1256865E+04  0.7818608E-02  0.8564929E-01
          1   -1    0    0  502    0  0.00000000000E+00  0.00000000000E+00  0.18934934030E+04  0.18934934030E+04  0.00000000000E+00 0.  1.
         -1   -1    0    0    0  501 -0.00000000000E+00 -0.00000000000E+00 -0.83699949730E+03  0.83699949730E+03  0.00000000000E+00 0. -1.
    9000010    2    1    2  502    0  0.65955849682E+03  0.35793939684E+03  0.45121518279E+03  0.13370425847E+04  0.10104205608E+04 0.  0.
   -9000010    2    1    2    0  501 -0.65955849682E+03 -0.35793939684E+03  0.60527872295E+03  0.13934503156E+04  0.10060832108E+04 0.  0.
        -13    1    3    3    0    0  0.55040583656E+03  0.42338463277E+03  0.74404928324E+03  0.10177477483E+04  0.10566000000E+00 0.  1.
          4    1    3    3  502    0  0.10915266025E+03 -0.65445235929E+02 -0.29283410046E+03  0.31929483638E+03  0.00000000000E+00 0.  1.
         13    1    4    4    0    0 -0.77774042099E-01 -0.53566163888E+03  0.43369275215E+03  0.68921898686E+03  0.10566000000E+00 0. -1.
         -4    1    4    4    0  501 -0.65948072278E+03  0.17772224204E+03  0.17158597080E+03  0.70423132876E+03  0.00000000000E+00 0. -1.
<mgrwt>
<rscale>  2 0.12568646E+04</rscale>
<asrwt>0</asrwt>
<pdfrwt beam="1">  1        1 0.29130668E+00 0.12568646E+04</pdfrwt>
<pdfrwt beam="2">  1       -1 0.12876915E+00 0.12568646E+04</pdfrwt>
<totfact> 0.24856830E+00</totfact>
</mgrwt>
</event>
<event>
 8    1  0.1449514E-005  0.1186899E+04  0.7818608E-02  0.8616493E-01
          2   -1    0    0  502    0  0.00000000000E+00  0.00000000000E+00  0.31905482832E+04  0.31905482832E+04  0.00000000000E+00 0. -1.
         -2   -1    0    0    0  501 -0.00000000000E+00 -0.00000000000E+00 -0.44684861399E+03  0.44684861399E+03  0.00000000000E+00 0.  1.
    9000010    2    1    2  502    0 -0.47985970198E+03  0.44128212162E+03  0.11826067601E+04  0.16809720827E+04  0.10010560171E+04 0.  0.
   -9000010    2    1    2    0  501  0.47985970198E+03 -0.44128212162E+03  0.15610929090E+04  0.19564248144E+04  0.98264527652E+03 0.  0.
        -13    1    3    3    0    0 -0.29405512146E+03  0.16250600974E+03  0.12869468358E+04  0.13300784890E+04  0.10566000000E+00 0.  1.
          4    1    3    3  502    0 -0.18580458052E+03  0.27877611189E+03 -0.10434007565E+03  0.35089359368E+03  0.00000000000E+00 0.  1.
         13    1    4    4    0    0 -0.12365372969E+03  0.19581505891E+03  0.65629001939E+03  0.69595285967E+03  0.10566000000E+00 0. -1.
         -4    1    4    4    0  501  0.60351343167E+03 -0.63709718054E+03  0.90480288965E+03  0.12604719548E+04  0.00000000000E+00 0. -1.
<mgrwt>
<rscale>  2 0.11868990E+04</rscale>
<asrwt>0</asrwt>
<pdfrwt beam="1">  1        2 0.49085357E+00 0.11868990E+04</pdfrwt>
<pdfrwt beam="2">  1       -2 0.68745943E-01 0.11868990E+04</pdfrwt>
<totfact> 0.39563891E+00</totfact>
</mgrwt>
</event>
<event>
 8    1  0.1449514E-005  0.1235164E+04  0.7818608E-02  0.8580543E-01
         -2   -1    0    0    0  501 -0.00000000000E+00  0.00000000000E+00  0.14814484253E+04  0.14814484253E+04  0.00000000000E+00 0. -1.
          2   -1    0    0  502    0  0.00000000000E+00 -0.00000000000E+00 -0.10309161484E+04  0.10309161484E+04  0.00000000000E+00 0.  1.
    9000010    2    1    2  502    0 -0.61674859008E+03 -0.37976041185E+03  0.26540279937E+03  0.12600111051E+04  0.99628938833E+03 0.  0.
   -9000010    2    1    2    0  501  0.61674859008E+03  0.37976041185E+03  0.18512947750E+03  0.12523534686E+04  0.10047484725E+04 0.  0.
        -13    1    3    3    0    0 -0.62606043088E+03 -0.35262059044E+03 -0.23713530121E+03  0.75665454876E+03  0.10566000000E+00 0.  1.
          4    1    3    3  502    0  0.93118407967E+01 -0.27139821411E+02  0.50253810058E+03  0.50335655635E+03  0.00000000000E+00 0.  1.
         13    1    4    4    0    0  0.18018040261E+03  0.20006799834E+03 -0.41136208455E+03  0.49164108577E+03  0.10566000000E+00 0. -1.
         -4    1    4    4    0  501  0.43656818747E+03  0.17969241351E+03  0.59649156205E+03  0.76071238283E+03  0.00000000000E+00 0. -1.
<mgrwt>
<rscale>  2 0.12351637E+04</rscale>
<asrwt>0</asrwt>
<pdfrwt beam="2">  1        2 0.15860248E+00 0.12351637E+04</pdfrwt>
<pdfrwt beam="1">  1       -2 0.22791514E+00 0.12351637E+04</pdfrwt>
<totfact> 0.21629594E+00</totfact>
</mgrwt>
</event>
<event>
 8    1  0.1449514E-005  0.1206471E+04  0.7818608E-02  0.8601705E-01
          2   -1    0    0  502    0  0.00000000000E+00  0.00000000000E+00  0.33638130473E+04  0.33638130473E+04  0.00000000000E+00 0.  1.
         -2   -1    0    0    0  501 -0.00000000000E+00 -0.00000000000E+00 -0.45233961943E+03  0.45233961943E+03  0.00000000000E+00 0. -1.
    9000010    2    1    2  502    0 -0.65591526322E+03  0.10286860663E+02  0.10578552906E+04  0.16042727672E+04  0.10120783781E+04 0.  0.
   -9000010    2    1    2    0  501  0.65591526322E+03 -0.10286860663E+02  0.18536181373E+04  0.22118798996E+04  0.10130063373E+04 0.  0.
        -13    1    3    3    0    0 -0.46725133206E+02  0.43592951726E+03  0.55363058337E+03  0.70620437276E+03  0.10566000000E+00 0.  1.
          4    1    3    3  502    0 -0.60919013001E+03 -0.42564265660E+03  0.50422470727E+03  0.89806839441E+03  0.00000000000E+00 0.  1.
         13    1    4    4    0    0  0.92850010788E+03  0.25995703104E+02  0.13621159555E+04  0.16486807193E+04  0.10566000000E+00 0. -1.
         -4    1    4    4    0  501 -0.27258484467E+03 -0.36282563767E+02  0.49150218182E+03  0.56319918031E+03  0.00000000000E+00 0. -1.
<mgrwt>
<rscale>  2 0.12064711E+04</rscale>
<asrwt>0</asrwt>
<pdfrwt beam="1">  1        2 0.51750968E+00 0.12064711E+04</pdfrwt>
<pdfrwt beam="2">  1       -2 0.69590713E-01 0.12064711E+04</pdfrwt>
<totfact> 0.29455840E+00</totfact>
</mgrwt>
</event>
<event>
 8    1  0.1449514E-005  0.1326996E+04  0.7818608E-02  0.8516613E-01
         -2   -1    0    0    0  501 -0.00000000000E+00  0.00000000000E+00  0.53714219432E+03  0.53714219432E+03  0.00000000000E+00 0. -1.
          2   -1    0    0  502    0  0.00000000000E+00 -0.00000000000E+00 -0.32868828741E+04  0.32868828741E+04  0.00000000000E+00 0.  1.
    9000010    2    1    2  502    0  0.86248979644E+03 -0.38005874581E+02 -0.12675793484E+04  0.18275910602E+04  0.99398117845E+03 0.  0.
   -9000010    2    1    2    0  501 -0.86248979644E+03  0.38005874581E+02 -0.14821613313E+04  0.19964340082E+04  0.10215740021E+04 0.  0.
        -13    1    3    3    0    0  0.57299424575E+03  0.45487976205E+03 -0.83884450022E+03  0.11130579995E+04  0.10566000000E+00 0.  1.
          4    1    3    3  502    0  0.28949555069E+03 -0.49288563663E+03 -0.42873484821E+03  0.71453306063E+03  0.00000000000E+00 0.  1.
         13    1    4    4    0    0 -0.10381291808E+04  0.22331626230E+03 -0.13194478327E+04  0.16936720295E+04  0.10566000000E+00 0. -1.
         -4    1    4    4    0  501  0.17563938438E+03 -0.18531038772E+03 -0.16271349861E+03  0.30276197875E+03  0.00000000000E+00 0. -1.
<mgrwt>
<rscale>  2 0.13269964E+04</rscale>
<asrwt>0</asrwt>
<pdfrwt beam="2">  1        2 0.50567430E+00 0.13269964E+04</pdfrwt>
<pdfrwt beam="1">  1       -2 0.82637259E-01 0.13269964E+04</pdfrwt>
<totfact> 0.22634352E+00</totfact>
</mgrwt>
</event>
<event>
 8    1  0.1449514E-005  0.1508110E+04  0.7818608E-02  0.8404847E-01
         -1   -1    0    0    0  501 -0.00000000000E+00  0.00000000000E+00  0.11616704293E+04  0.11616704293E+04  0.00000000000E+00 0. -1.
          1   -1    0    0  502    0  0.00000000000E+00 -0.00000000000E+00 -0.23729128711E+04  0.23729128711E+04  0.00000000000E+00 0.  1.
    9000010    2    1    2  502    0  0.10577470588E+04 -0.40370956965E+03 -0.13449586794E+04  0.20212101732E+04  0.99727952849E+03 0.  0.
   -9000010    2    1    2    0  501 -0.10577470588E+04  0.40370956965E+03  0.13371623764E+03  0.15133731272E+04  0.99529288803E+03 0.  0.
        -13    1    3    3    0    0  0.49007235468E+03  0.12680061147E+03 -0.46896965679E+02  0.50837844608E+03  0.10566000000E+00 0.  1.
          4    1    3    3  502    0  0.56767470412E+03 -0.53051018113E+03 -0.12980617137E+04  0.15128317271E+04  0.00000000000E+00 0.  1.
         13    1    4    4    0    0 -0.19230539610E+03 -0.30193196640E+03  0.16965347355E+03  0.39613960917E+03  0.10566000000E+00 0. -1.
         -4    1    4    4    0  501 -0.86544166269E+03  0.70564153605E+03 -0.35937235904E+02  0.11172335180E+04  0.00000000000E+00 0. -1.
<mgrwt>
<rscale>  2 0.15081103E+04</rscale>
<asrwt>0</asrwt>
<pdfrwt beam="2">  1        1 0.36506352E+00 0.15081103E+04</pdfrwt>
<pdfrwt beam="1">  1       -1 0.17871853E+00 0.15081103E+04</pdfrwt>
<totfact> 0.36565602E-01</totfact>
</mgrwt>
</event>
<event>
 8    1  0.1449514E-005  0.1505415E+04  0.7818608E-02  0.8406389E-01
          1   -1    0    0  502    0  0.00000000000E+00  0.00000000000E+00  0.30867473781E+04  0.30867473781E+04  0.00000000000E+00 0. -1.
         -1   -1    0    0    0  501 -0.00000000000E+00 -0.00000000000E+00 -0.74689541565E+03  0.74689541565E+03  0.00000000000E+00 0.  1.
    9000010    2    1    2  502    0  0.10664320865E+04 -0.45209692736E+02  0.14446058735E+04  0.21149603974E+04  0.11166243958E+04 0.  0.
   -9000010    2    1    2    0  501 -0.10664320865E+04  0.45209692736E+02  0.89524608901E+03  0.17186823964E+04  0.10065198996E+04 0.  0.
        -13    1    3    3    0    0  0.31923512652E+03  0.51321151323E+03  0.46769176994E+03  0.76422033874E+03  0.10566000000E+00 0.  1.
          4    1    3    3  502    0  0.74719696002E+03 -0.55842120597E+03  0.97691410352E+03  0.13507400586E+04  0.00000000000E+00 0.  1.
         13    1    4    4    0    0  0.70426219706E+02 -0.19404262673E+03  0.41121918923E+03  0.46012349012E+03  0.10566000000E+00 0. -1.
         -4    1    4    4    0  501 -0.11368583062E+04  0.23925231947E+03  0.48402689979E+03  0.12585589063E+04  0.00000000000E+00 0. -1.
<mgrwt>
<rscale>  2 0.15054153E+04</rscale>
<asrwt>0</asrwt>
<pdfrwt beam="1">  1        1 0.47488420E+00 0.15054153E+04</pdfrwt>
<pdfrwt beam="2">  1       -1 0.11490699E+00 0.15054153E+04</pdfrwt>
<totfact> 0.26303044E-01</totfact>
</mgrwt>
</event>
<event>
 8    1  0.1449514E-005  0.1133590E+04  0.7818608E-02  0.8658322E-01
         -1   -1    0    0    0  501 -0.00000000000E+00  0.00000000000E+00  0.33045847417E+04  0.33045847417E+04  0.00000000000E+00 0. -1.
          1   -1    0    0  502    0  0.00000000000E+00 -0.00000000000E+00 -0.79277948206E+03  0.79277948206E+03  0.00000000000E+00 0.  1.
    9000010    2    1    2  502    0 -0.76881593871E+02  0.52349854974E+03 -0.22016353535E+03  0.11292378759E+04  0.97300806110E+03 0.  0.
   -9000010    2    1    2    0  501  0.76881593871E+02 -0.52349854974E+03  0.27319687950E+04  0.29681263479E+04  0.10325497611E+04 0.  0.
        -13    1    3    3    0    0 -0.30846938594E+03  0.61885349602E+03  0.12510565479E+03  0.70269797753E+03  0.10566000000E+00 0.  1.
          4    1    3    3  502    0  0.23158779207E+03 -0.95354946281E+02 -0.34526919014E+03  0.42653989834E+03  0.00000000000E+00 0.  1.
         13    1    4    4    0    0  0.51815760352E+03 -0.62734783332E+02  0.12627194679E+04  0.13663394237E+04  0.10566000000E+00 0. -1.
         -4    1    4    4    0  501 -0.44127600965E+03 -0.46076376641E+03  0.14692493272E+04  0.16017869242E+04  0.00000000000E+00 0. -1.
<mgrwt>
<rscale>  2 0.11335903E+04</rscale>
<asrwt>0</asrwt>
<pdfrwt beam="2">  1        1 0.12196608E+00 0.11335903E+04</pdfrwt>
<pdfrwt beam="1">  1       -1 0.50839764E+00 0.11335903E+04</pdfrwt>
<totfact> 0.27379256E-01</totfact>
</mgrwt>
</event>
<event>
 8    1  0.1449514E-005  0.1134552E+04  0.7818608E-02  0.8657546E-01
         -1   -1    0    0    0  501 -0.00000000000E+00  0.00000000000E+00  0.14778305140E+04  0.14778305140E+04  0.00000000000E+00 0.  1.
          1   -1    0    0  502    0  0.00000000000E+00 -0.00000000000E+00 -0.93038370235E+03  0.93038370235E+03  0.00000000000E+00 0. -1.
    9000010    2    1    2  502    0 -0.19897372585E+03 -0.40605535479E+03  0.58135814992E+03  0.12909416213E+04  0.10602270871E+04 0.  0.
   -9000010    2    1    2    0  501  0.19897372585E+03  0.40605535479E+03 -0.33911338233E+02  0.11172725951E+04  0.10211153599E+04 0.  0.
        -13    1    3    3    0    0 -0.14093383364E+03  0.35708445279E+03  0.24147852332E+03  0.45352347268E+03  0.10566000000E+00 0.  1.
          4    1    3    3  502    0 -0.58039892213E+02 -0.76313980758E+03  0.33987962660E+03  0.83741814858E+03  0.00000000000E+00 0.  1.
         13    1    4    4    0    0  0.30735529222E+03  0.61285068796E+03  0.26756128400E+03  0.73596351353E+03  0.10566000000E+00 0. -1.
         -4    1    4    4    0  501 -0.10838156637E+03 -0.20679533316E+03 -0.30147262223E+03  0.38130908159E+03  0.00000000000E+00 0. -1.
<mgrwt>
<rscale>  2 0.11345515E+04</rscale>
<asrwt>0</asrwt>
<pdfrwt beam="2">  1        1 0.14313595E+00 0.11345515E+04</pdfrwt>
<pdfrwt beam="1">  1       -1 0.22735854E+00 0.11345515E+04</pdfrwt>
<totfact> 0.18395664E+00</totfact>
</mgrwt>
</event>
<event>
 8    1  0.1449514E-005  0.1066431E+04  0.7818608E-02  0.8714560E-01
          2   -1    0    0  502    0  0.00000000000E+00  0.00000000000E+00  0.29533456756E+04  0.29533456756E+04  0.00000000000E+00 0. -1.
         -2   -1    0    0    0  501 -0.00000000000E+00 -0.00000000000E+00 -0.38745134940E+03  0.38745134940E+03  0.00000000000E+00 0.  1.
    9000010    2    1    2  502    0 -0.85292735813E+02 -0.30688250079E+03  0.14263198777E+04  0.17879815667E+04  0.10300669732E+04 0.  0.
   -9000010    2    1    2    0  501  0.85292735813E+02  0.30688250079E+03  0.11395744484E+04  0.15528154582E+04  0.10055616360E+04 0.  0.
        -13    1    3    3    0    0 -0.14860742316E+03  0.13683771999E+03  0.13092325821E+04  0.13247258935E+04  0.10566000000E+00 0.  1.
          4    1    3    3  502    0  0.63314687350E+02 -0.44372022078E+03  0.11708729565E+03  0.46325567322E+03  0.00000000000E+00 0.  1.
         13    1    4    4    0    0  0.20071883996E+03 -0.52593595634E+01 -0.13075950433E+03  0.23961171239E+03  0.10566000000E+00 0. -1.
         -4    1    4    4    0  501 -0.11542610415E+03  0.31214186036E+03  0.12703339528E+04  0.13132037458E+04  0.00000000000E+00 0. -1.
<mgrwt>
<rscale>  2 0.10664307E+04</rscale>
<asrwt>0</asrwt>
<pdfrwt beam="1">  1        2 0.45436086E+00 0.10664307E+04</pdfrwt>
<pdfrwt beam="2">  1       -2 0.59607902E-01 0.10664307E+04</pdfrwt>
<totfact> 0.75763757E+00</totfact>
</mgrwt>
</event>
<event>
 8    1  0.1449514E-005  0.1137066E+04  0.7818608E-02  0.8655523E-01
          2   -1    0    0  502    0  0.00000000000E+00  0.00000000000E+00  0.28740517087E+04  0.28740517087E+04  0.00000000000E+00 0. -1.
         -2   -1    0    0    0  501 -0.00000000000E+00 -0.00000000000E+00 -0.45140138598E+03  0.45140138598E+03  0.00000000000E+00 0.  1.
    9000010    2    1    2  502    0  0.27765533879E+03  0.43858337900E+03  0.13037050577E+04  0.17270618851E+04  0.10068008790E+04 0.  0.
   -9000010    2    1    2    0  501 -0.27765533879E+03 -0.43858337900E+03  0.11189452650E+04  0.15983912096E+04  0.10165471388E+04 0.  0.
        -13    1    3    3    0    0  0.12838899353E+03 -0.28901500397E+03  0.70630765789E+03  0.77387591056E+03  0.10566000000E+00 0.  1.
          4    1    3    3  502    0  0.14926634526E+03  0.72759838297E+03  0.59739739982E+03  0.95318597453E+03  0.00000000000E+00 0.  1.
         13    1    4    4    0    0 -0.50955189030E+03 -0.34931937555E+03  0.11892590350E+04  0.13401508193E+04  0.10566000000E+00 0. -1.
         -4    1    4    4    0  501  0.23189655152E+03 -0.89264003458E+02 -0.70313769997E+02  0.25824039027E+03  0.00000000000E+00 0. -1.
<mgrwt>
<rscale>  2 0.11370657E+04</rscale>
<asrwt>0</asrwt>
<pdfrwt beam="1">  1        2 0.44216179E+00 0.11370657E+04</pdfrwt>
<pdfrwt beam="2">  1       -2 0.69446369E-01 0.11370657E+04</pdfrwt>
<totfact> 0.61339763E+00</totfact>
</mgrwt>
</event>
<event>
 8    1  0.1449514E-005  0.1061419E+04  0.7818608E-02  0.8718929E-01
          2   -1    0    0  502    0  0.00000000000E+00  0.00000000000E+00  0.41226972045E+04  0.41226972045E+04  0.00000000000E+00 0.  1.
         -2   -1    0    0    0  501 -0.00000000000E+00 -0.00000000000E+00 -0.28337520973E+03  0.28337520973E+03  0.00000000000E+00 0. -1.
    9000010    2    1    2  502    0  0.53035825252E+02 -0.41580385558E+03  0.13729186255E+04  0.16639405550E+04  0.84147903897E+03 0.  0.
   -9000010    2    1    2    0  501 -0.53035825252E+02  0.41580385558E+03  0.24664033693E+04  0.27421318593E+04  0.11226913684E+04 0.  0.
        -13    1    3    3    0    0 -0.69589079703E+02  0.20281064722E+03  0.86413799521E+02  0.23117559247E+03  0.10566000000E+00 0.  1.
          4    1    3    3  502    0  0.12262490496E+03 -0.61861450281E+03  0.12865048260E+04  0.14327649625E+04  0.00000000000E+00 0.  1.
         13    1    4    4    0    0 -0.99373481381E+02 -0.37536641781E+03  0.60313626470E+03  0.71732029204E+03  0.10566000000E+00 0. -1.
         -4    1    4    4    0  501  0.46337656129E+02  0.79117027339E+03  0.18632671046E+04  0.20248115672E+04  0.00000000000E+00 0. -1.
<mgrwt>
<rscale>  2 0.10614191E+04</rscale>
<asrwt>0</asrwt>
<pdfrwt beam="1">  1        2 0.63426107E+00 0.10614191E+04</pdfrwt>
<pdfrwt beam="2">  1       -2 0.43596189E-01 0.10614191E+04</pdfrwt>
<totfact> 0.18336040E+00</totfact>
</mgrwt>
</event>
<event>
 8    1  0.1449514E-005  0.1500291E+04  0.7818608E-02  0.8409331E-01
         -4   -1    0    0    0  501 -0.00000000000E+00  0.00000000000E+00  0.28377062435E+04  0.28377062435E+04  0.00000000000E+00 0. -1.
          4   -1    0    0  502    0  0.00000000000E+00 -0.00000000000E+00 -0.79337612274E+03  0.79337612274E+03  0.00000000000E+00 0.  1.
    9000010    2    1    2  502    0  0.75391408799E+03 -0.84914799172E+03  0.10350150439E+04  0.18119734687E+04  0.96049619796E+03 0.  0.
   -9000010    2    1    2    0  501 -0.75391408799E+03  0.84914799172E+03  0.10093150768E+04  0.18191088975E+04  0.10005006211E+04 0.  0.
        -13    1    3    3    0    0  0.57713917485E+03  0.23085512432E+02  0.55398436631E+03  0.80032571951E+03  0.10566000000E+00 0.  1.
          4    1    3    3  502    0  0.17677491315E+03 -0.87223350415E+03  0.48103067760E+03  0.10116477492E+04  0.00000000000E+00 0.  1.
         13    1    4    4    0    0  0.24296207723E+03  0.12235296364E+03  0.25636695244E+03  0.37379786536E+03  0.10566000000E+00 0. -1.
         -4    1    4    4    0  501 -0.99687616522E+03  0.72679502808E+03  0.75294812440E+03  0.14453110322E+04  0.00000000000E+00 0. -1.
<mgrwt>
<rscale>  2 0.15002914E+04</rscale>
<asrwt>0</asrwt>
<pdfrwt beam="2">  1        4 0.12205787E+00 0.15002914E+04</pdfrwt>
<pdfrwt beam="1">  1       -4 0.43657019E+00 0.15002914E+04</pdfrwt>
<totfact> 0.66773030E-02</totfact>
</mgrwt>
</event>
<event>
 8    1  0.1449514E-005  0.1257582E+04  0.7818608E-02  0.8564419E-01
         -2   -1    0    0    0  501 -0.00000000000E+00  0.00000000000E+00  0.10353705033E+04  0.10353705033E+04  0.00000000000E+00 0. -1.
          2   -1    0    0  502    0  0.00000000000E+00 -0.00000000000E+00 -0.15774365569E+04  0.15774365569E+04  0.00000000000E+00 0.  1.
    9000010    2    1    2  502    0  0.60976072119E+03 -0.44318934218E+03 -0.50342925088E+03  0.13542628515E+04  0.10061619800E+04 0.  0.
   -9000010    2    1    2    0  501 -0.60976072119E+03  0.44318934218E+03 -0.38636802727E+02  0.12585442087E+04  0.10070828131E+04 0.  0.
        -13    1    3    3    0    0 -0.24618763057E+03 -0.30082346190E+03 -0.17802194093E+03  0.42754523421E+03  0.10566000000E+00 0.  1.
          4    1    3    3  502    0  0.85594835176E+03 -0.14236588027E+03 -0.32540730994E+03  0.92671761725E+03  0.00000000000E+00 0.  1.
         13    1    4    4    0    0 -0.13014530266E+03  0.67038315902E+03  0.14282150789E+03  0.69767426065E+03  0.10566000000E+00 0. -1.
         -4    1    4    4    0  501 -0.47961541853E+03 -0.22719381684E+03 -0.18145831062E+03  0.56086994802E+03  0.00000000000E+00 0. -1.
<mgrwt>
<rscale>  2 0.12575824E+04</rscale>
<asrwt>0</asrwt>
<pdfrwt beam="2">  1        2 0.24268255E+00 0.12575824E+04</pdfrwt>
<pdfrwt beam="1">  1       -2 0.15928777E+00 0.12575824E+04</pdfrwt>
<totfact> 0.39309947E+00</totfact>
</mgrwt>
</event>
<event>
 8    1  0.1449514E-005  0.1336192E+04  0.7818608E-02  0.8510506E-01
          2   -1    0    0  502    0  0.00000000000E+00  0.00000000000E+00  0.10913453760E+04  0.10913453760E+04  0.00000000000E+00 0.  1.
         -2   -1    0    0    0  501 -0.00000000000E+00 -0.00000000000E+00 -0.19016372654E+04  0.19016372654E+04  0.00000000000E+00 0. -1.
    9000010    2    1    2  502    0  0.16460840093E+03 -0.87983258883E+03 -0.96224888148E+03  0.16399034157E+04  0.98089703483E+03 0.  0.
   -9000010    2    1    2    0  501 -0.16460840093E+03  0.87983258883E+03  0.15195699212E+03  0.13530792257E+04  0.10032602621E+04 0.  0.
        -13    1    3    3    0    0 -0.15186361729E+03 -0.37753328795E+03 -0.96383579229E+03  0.10462186136E+04  0.10566000000E+00 0.  1.
          4    1    3    3  502    0  0.31647201822E+03 -0.50229930088E+03  0.15869108095E+01  0.59368480212E+03  0.00000000000E+00 0.  1.
         13    1    4    4    0    0 -0.19286117589E+03  0.11011103692E+04  0.89622763347E+02  0.11214596422E+04  0.10566000000E+00 0. -1.
         -4    1    4    4    0  501  0.28252774963E+02 -0.22127778034E+03  0.62334228776E+02  0.23161958346E+03  0.00000000000E+00 0. -1.
<mgrwt>
<rscale>  2 0.13361918E+04</rscale>
<asrwt>0</asrwt>
<pdfrwt beam="1">  1        2 0.16789929E+00 0.13361918E+04</pdfrwt>
<pdfrwt beam="2">  1       -2 0.29255958E+00 0.13361918E+04</pdfrwt>
<totfact> 0.63209953E-01</totfact>
</mgrwt>
</event>
<event>
 8    1  0.1449514E-005  0.1246937E+04  0.7818608E-02  0.8572031E-01
          1   -1    0    0  502    0  0.00000000000E+00  0.00000000000E+00  0.33489240732E+04  0.33489240732E+04  0.00000000000E+00 0.  1.
         -1   -1    0    0    0  501 -0.00000000000E+00 -0.00000000000E+00 -0.54526314723E+03  0.54526314723E+03  0.00000000000E+00 0. -1.
    9000010    2    1    2  502    0 -0.63181149953E+03  0.34422315675E+03  0.65068076162E+03  0.14057666414E+04  0.10174080026E+04 0.  0.
   -9000010    2    1    2    0  501  0.63181149953E+03 -0.34422315675E+03  0.21529801644E+04  0.24884205791E+04  0.10194302515E+04 0.  0.
        -13    1    3    3    0    0 -0.17297888805E+03 -0.22970214165E+03  0.60464222182E+03  0.66953491109E+03  0.10566000000E+00 0.  1.
          4    1    3    3  502    0 -0.45883261148E+03  0.57392529840E+03  0.46038539793E+02  0.73623173026E+03  0.00000000000E+00 0.  1.
         13    1    4    4    0    0 -0.69882790060E+02 -0.19724154936E+03 -0.10229533331E+02  0.20950534040E+03  0.10566000000E+00 0. -1.
         -4    1    4    4    0  501  0.70169428959E+03 -0.14698160739E+03  0.21632096977E+04  0.22789152387E+04  0.00000000000E+00 0. -1.
<mgrwt>
<rscale>  2 0.12469373E+04</rscale>
<asrwt>0</asrwt>
<pdfrwt beam="1">  1        1 0.51521907E+00 0.12469373E+04</pdfrwt>
<pdfrwt beam="2">  1       -1 0.83886640E-01 0.12469373E+04</pdfrwt>
<totfact> 0.26217288E-01</totfact>
</mgrwt>
</event>
<event>
 8    1  0.1449514E-005  0.1357904E+04  0.7818608E-02  0.8496286E-01
          2   -1    0    0  502    0  0.00000000000E+00  0.00000000000E+00  0.33922455647E+04  0.33922455647E+04  0.00000000000E+00 0.  1.
         -2   -1    0    0    0  501 -0.00000000000E+00 -0.00000000000E+00 -0.55822303429E+03  0.55822303429E+03  0.00000000000E+00 0. -1.
    9000010    2    1    2  502    0  0.33628134020E+03 -0.85972150199E+03  0.10955989594E+04  0.17437526955E+04  0.99404737431E+03 0.  0.
   -9000010    2    1    2    0  501 -0.33628134020E+03  0.85972150199E+03  0.17384235710E+04  0.22067159035E+04  0.99763338246E+03 0.  0.
        -13    1    3    3    0    0  0.37710010186E+03 -0.39881094598E+03 -0.60220522524E+01  0.54889974835E+03  0.10566000000E+00 0.  1.
          4    1    3    3  502    0 -0.40818761669E+02 -0.46091055601E+03  0.11016210116E+04  0.11948529471E+04  0.00000000000E+00 0.  1.
         13    1    4    4    0    0 -0.97518767364E+02  0.95436981124E+03  0.84938846692E+03  0.12813244810E+04  0.10566000000E+00 0. -1.
         -4    1    4    4    0  501 -0.23876257283E+03 -0.94648309252E+02  0.88903510407E+03  0.92539142254E+03  0.00000000000E+00 0. -1.
<mgrwt>
<rscale>  2 0.13579043E+04</rscale>
<asrwt>0</asrwt>
<pdfrwt beam="1">  1        2 0.52188392E+00 0.13579043E+04</pdfrwt>
<pdfrwt beam="2">  1       -2 0.85880469E-01 0.13579043E+04</pdfrwt>
<totfact> 0.17502728E+00</totfact>
</mgrwt>
</event>
<event>
 8    1  0.1449514E-005  0.1701532E+04  0.7818608E-02  0.8302104E-01
          1   -1    0    0  502    0  0.00000000000E+00  0.00000000000E+00  0.21960125701E+04  0.21960125701E+04  0.00000000000E+00 0. -1.
         -1   -1    0    0    0  501 -0.00000000000E+00 -0.00000000000E+00 -0.13267449525E+04  0.13267449525E+04  0.00000000000E+00 0.  1.
    9000010    2    1    2  502    0  0.13409921064E+04  0.30423385167E+03  0.29666539333E+03  0.17334665035E+04  0.10129549334E+04 0.  0.
   -9000010    2    1    2    0  501 -0.13409921064E+04 -0.30423385167E+03  0.57260222423E+03  0.17892910192E+04  0.99139849612E+03 0.  0.
        -13    1    3    3    0    0 -0.10611150201E+03 -0.15599741960E+03  0.48449302420E+02  0.19478755569E+03  0.10566000000E+00 0.  1.
          4    1    3    3  502    0  0.14471036084E+04  0.46023127127E+03  0.24821609091E+03  0.15386789478E+04  0.00000000000E+00 0.  1.
         13    1    4    4    0    0 -0.27247102320E+03  0.33719694516E+03  0.44663595730E+02  0.43581772137E+03  0.10566000000E+00 0. -1.
         -4    1    4    4    0  501 -0.10685210832E+04 -0.64143079683E+03  0.52793862850E+03  0.13534732978E+04  0.00000000000E+00 0. -1.
<mgrwt>
<rscale>  2 0.17015322E+04</rscale>
<asrwt>0</asrwt>
<pdfrwt beam="1">  1        1 0.33784809E+00 0.17015322E+04</pdfrwt>
<pdfrwt beam="2">  1       -1 0.20411461E+00 0.17015322E+04</pdfrwt>
<totfact> 0.29925134E-01</totfact>
</mgrwt>
</event>
<event>
 8    1  0.1449514E-005  0.1098405E+04  0.7818608E-02  0.8687263E-01
         -1   -1    0    0    0  501 -0.00000000000E+00  0.00000000000E+00  0.14696329065E+04  0.14696329065E+04  0.00000000000E+00 0. -1.
          1   -1    0    0  502    0  0.00000000000E+00 -0.00000000000E+00 -0.10727493780E+04  0.10727493780E+04  0.00000000000E+00 0.  1.
    9000010    2    1    2  502    0 -0.66757827149E+02  0.47139002445E+03 -0.41831786721E+03  0.11690702116E+04  0.98237984457E+03 0.  0.
   -9000010    2    1    2    0  501  0.66757827149E+02 -0.47139002445E+03  0.81520139569E+03  0.13733120729E+04  0.99738035440E+03 0.  0.
        -13    1    3    3    0    0  0.31155485846E+03  0.93410448178E+02 -0.53085839626E+03  0.62257737648E+03  0.10566000000E+00 0.  1.
          4    1    3    3  502    0 -0.37831268561E+03  0.37797957627E+03  0.11254052905E+03  0.54649283513E+03  0.00000000000E+00 0.  1.
         13    1    4    4    0    0  0.31552567375E+03 -0.25055243221E+03 -0.86606297656E+02  0.41210876482E+03  0.10566000000E+00 0. -1.
         -4    1    4    4    0  501 -0.24876784660E+03 -0.22083759223E+03  0.90180769335E+03  0.96120330806E+03  0.00000000000E+00 0. -1.
<mgrwt>
<rscale>  2 0.10984046E+04</rscale>
<asrwt>0</asrwt>
<pdfrwt beam="2">  1        1 0.16503837E+00 0.10984046E+04</pdfrwt>
<pdfrwt beam="1">  1       -1 0.22609737E+00 0.10984046E+04</pdfrwt>
<totfact> 0.14543037E+00</totfact>
</mgrwt>
</event>
<event>
 8    1  0.1449514E-005  0.1067499E+04  0.7818608E-02  0.8713632E-01
          1   -1    0    0  502    0  0.00000000000E+00  0.00000000000E+00  0.28095732405E+04  0.28095732405E+04  0.00000000000E+00 0. -1.
         -1   -1    0    0    0  501 -0.00000000000E+00 -0.00000000000E+00 -0.51766716943E+03  0.51766716943E+03  0.00000000000E+00 0.  1.
    9000010    2    1    2  502    0 -0.39350477377E+03  0.99815972023E+02  0.36815251965E+03  0.11249693674E+04  0.98245130400E+03 0.  0.
   -9000010    2    1    2    0  501  0.39350477377E+03 -0.99815972023E+02  0.19237535514E+04  0.22022710425E+04  0.99214957680E+03 0.  0.
        -13    1    3    3    0    0 -0.42117973593E+03 -0.20275756377E+03  0.58710294345E+03  0.75046177584E+03  0.10566000000E+00 0.  1.
          4    1    3    3  502    0  0.27674962153E+02  0.30257353580E+03 -0.21895042380E+03  0.37450759161E+03  0.00000000000E+00 0.  1.
         13    1    4    4    0    0  0.34904272208E+03 -0.52546281246E+03  0.13108429502E+04  0.14547340789E+04  0.10566000000E+00 0. -1.
         -4    1    4    4    0  501  0.44462051694E+02  0.42564684044E+03  0.61291060121E+03  0.74753696356E+03  0.00000000000E+00 0. -1.
<mgrwt>
<rscale>  2 0.10674993E+04</rscale>
<asrwt>0</asrwt>
<pdfrwt beam="1">  1        1 0.43224203E+00 0.10674993E+04</pdfrwt>
<pdfrwt beam="2">  1       -1 0.79641105E-01 0.10674993E+04</pdfrwt>
<totfact> 0.12075901E+00</totfact>
</mgrwt>
</event>
<event>
 8    1  0.1449514E-005  0.1414251E+04  0.7818608E-02  0.8460623E-01
         -2   -1    0    0    0  501 -0.00000000000E+00  0.00000000000E+00  0.45865367996E+03  0.45865367996E+03  0.00000000000E+00 0. -1.
          2   -1    0    0  502    0  0.00000000000E+00 -0.00000000000E+00 -0.46153365755E+04  0.46153365755E+04  0.00000000000E+00 0.  1.
    9000010    2    1    2  502    0  0.84127848069E+03 -0.56437144774E+03 -0.26825358408E+04  0.30353831336E+04  0.99563427894E+03 0.  0.
   -9000010    2    1    2    0  501 -0.84127848069E+03  0.56437144774E+03 -0.14741470547E+04  0.20386071218E+04  0.97803110647E+03 0.  0.
        -13    1    3    3    0    0  0.14470121682E+03  0.13758760859E+03 -0.26754314075E+02  0.20145619046E+03  0.10566000000E+00 0.  1.
          4    1    3    3  502    0  0.69657726387E+03 -0.70195905633E+03 -0.26557815267E+04  0.28339269431E+04  0.00000000000E+00 0.  1.
         13    1    4    4    0    0 -0.44597450135E+03  0.77148632646E+03 -0.65556471761E+03  0.11062773241E+04  0.10566000000E+00 0. -1.
         -4    1    4    4    0  501 -0.39530397934E+03 -0.20711487872E+03 -0.81858233709E+03  0.93232979769E+03  0.00000000000E+00 0. -1.
<mgrwt>
<rscale>  2 0.14142508E+04</rscale>
<asrwt>0</asrwt>
<pdfrwt beam="2">  1        2 0.71005177E+00 0.14142508E+04</pdfrwt>
<pdfrwt beam="1">  1       -2 0.70562106E-01 0.14142508E+04</pdfrwt>
<totfact> 0.24136187E-01</totfact>
</mgrwt>
</event>
<event>
 8    1  0.1449514E-005  0.1391151E+04  0.7818608E-02  0.8475034E-01
          2   -1    0    0  502    0  0.00000000000E+00  0.00000000000E+00  0.26615565390E+04  0.26615565390E+04  0.00000000000E+00 0.  1.
         -2   -1    0    0    0  501 -0.00000000000E+00 -0.00000000000E+00 -0.77913359557E+03  0.77913359557E+03  0.00000000000E+00 0. -1.
    9000010    2    1    2  502    0 -0.85278875295E+03  0.45406729991E+03  0.13806799271E+04  0.19545343106E+04  0.99020277734E+03 0.  0.
   -9000010    2    1    2    0  501  0.85278875295E+03 -0.45406729991E+03  0.50174301625E+03  0.14861558239E+04  0.10116754957E+04 0.  0.
        -13    1    3    3    0    0 -0.11078519018E+03  0.60319483186E+03  0.75396276614E+03  0.97189362969E+03  0.10566000000E+00 0.  1.
          4    1    3    3  502    0 -0.74200356277E+03 -0.14912753195E+03  0.62671716100E+03  0.98264068094E+03  0.00000000000E+00 0.  1.
         13    1    4    4    0    0  0.86516208245E+03 -0.28467310511E+03  0.75376335608E+03  0.11822450735E+04  0.10566000000E+00 0. -1.
         -4    1    4    4    0  501 -0.12373329498E+02 -0.16939419480E+03 -0.25202033983E+03  0.30391075039E+03  0.00000000000E+00 0. -1.
<mgrwt>
<rscale>  2 0.13911509E+04</rscale>
<asrwt>0</asrwt>
<pdfrwt beam="1">  1        2 0.40947023E+00 0.13911509E+04</pdfrwt>
<pdfrwt beam="2">  1       -2 0.11986671E+00 0.13911509E+04</pdfrwt>
<totfact> 0.22290710E+00</totfact>
</mgrwt>
</event>
<event>
 8    1  0.1449514E-005  0.1436807E+04  0.7818608E-02  0.8446822E-01
          2   -1    0    0  502    0  0.00000000000E+00  0.00000000000E+00  0.18103603417E+04  0.18103603417E+04  0.00000000000E+00 0.  1.
         -2   -1    0    0    0  501 -0.00000000000E+00 -0.00000000000E+00 -0.11411456777E+04  0.11411456777E+04  0.00000000000E+00 0. -1.
    9000010    2    1    2  502    0  0.10121495487E+04  0.51459681823E+02  0.37415533422E+03  0.14854205494E+04  0.10195034019E+04 0.  0.
   -9000010    2    1    2    0  501 -0.10121495487E+04 -0.51459681823E+02  0.29505932974E+03  0.14660854700E+04  0.10174732378E+04 0.  0.
        -13    1    3    3    0    0  0.10173748528E+03 -0.24787891413E+03 -0.22949470336E+03  0.35279215130E+03  0.10566000000E+00 0.  1.
          4    1    3    3  502    0  0.91041206342E+03  0.29933859595E+03  0.60365003758E+03  0.11326283981E+04  0.00000000000E+00 0.  1.
         13    1    4    4    0    0 -0.67761112796E+03  0.37442896786E+03 -0.12043718488E+03  0.78349155667E+03  0.10566000000E+00 0. -1.
         -4    1    4    4    0  501 -0.33453842074E+03 -0.42588864969E+03  0.41549651462E+03  0.68259391335E+03  0.00000000000E+00 0. -1.
<mgrwt>
<rscale>  2 0.14368066E+04</rscale>
<asrwt>0</asrwt>
<pdfrwt beam="1">  1        2 0.27851698E+00 0.14368066E+04</pdfrwt>
<pdfrwt beam="2">  1       -2 0.17556087E+00 0.14368066E+04</pdfrwt>
<totfact> 0.20960520E+00</totfact>
</mgrwt>
</event>
<event>
 8    1  0.1449514E-005  0.1321947E+04  0.7818608E-02  0.8519988E-01
         -2   -1    0    0    0  501 -0.00000000000E+00  0.00000000000E+00  0.27151304667E+04  0.27151304667E+04  0.00000000000E+00 0. -1.
          2   -1    0    0  502    0  0.00000000000E+00 -0.00000000000E+00 -0.66299025685E+03  0.66299025685E+03  0.00000000000E+00 0.  1.
    9000010    2    1    2  502    0  0.36608665843E+03  0.77028989624E+03  0.73639721876E+03  0.15119928117E+04  0.10082040633E+04 0.  0.
   -9000010    2    1    2    0  501 -0.36608665843E+03 -0.77028989624E+03  0.13157429911E+04  0.18661279118E+04  0.10118734105E+04 0.  0.
        -13    1    3    3    0    0  0.67086952087E+03  0.27657425131E+03  0.52005619091E+03  0.89275846867E+03  0.10566000000E+00 0.  1.
          4    1    3    3  502    0 -0.30478286244E+03  0.49371564493E+03  0.21634102785E+03  0.61923434305E+03  0.00000000000E+00 0.  1.
         13    1    4    4    0    0 -0.22442951848E+03 -0.10140548999E+04  0.98327802301E+03  0.14302138408E+04  0.10566000000E+00 0. -1.
         -4    1    4    4    0  501 -0.14165713995E+03  0.24376500365E+03  0.33246496810E+03  0.43591407103E+03  0.00000000000E+00 0. -1.
<mgrwt>
<rscale>  2 0.13219469E+04</rscale>
<asrwt>0</asrwt>
<pdfrwt beam="2">  1        2 0.10199850E+00 0.13219469E+04</pdfrwt>
<pdfrwt beam="1">  1       -2 0.41771237E+00 0.13219469E+04</pdfrwt>
<totfact> 0.20403549E-01</totfact>
</mgrwt>
</event>
<event>
 8    1  0.1449514E-005  0.1355488E+04  0.7818608E-02  0.8497855E-01
         -2   -1    0    0    0  501 -0.00000000000E+00  0.00000000000E+00  0.80745930427E+03  0.80745930427E+03  0.00000000000E+00 0.  1.
          2   -1    0    0  502    0  0.00000000000E+00 -0.00000000000E+00 -0.23264958520E+04  0.23264958520E+04  0.00000000000E+00 0. -1.
    9000010    2    1    2  502    0  0.32779787965E+03 -0.80208491634E+03 -0.10122757219E+04  0.17347818893E+04  0.11108440049E+04 0.  0.
   -9000010    2    1    2    0  501 -0.32779787965E+03  0.80208491634E+03 -0.50676082585E+03  0.13991732670E+04  0.97472438854E+03 0.  0.
        -13    1    3    3    0    0 -0.13616522807E+03  0.23299638310E+03 -0.25215175089E+03  0.36933562042E+03  0.10566000000E+00 0.  1.
          4    1    3    3  502    0  0.46396310772E+03 -0.10350812994E+04 -0.76012397101E+03  0.13654462688E+04  0.00000000000E+00 0.  1.
         13    1    4    4    0    0 -0.41954808914E+03  0.15123530157E+03  0.14949143943E+03  0.47036200650E+03  0.10566000000E+00 0. -1.
         -4    1    4    4    0  501  0.91750209481E+02  0.65084961478E+03 -0.65625226528E+03  0.92881126053E+03  0.00000000000E+00 0. -1.
<mgrwt>
<rscale>  2 0.13554881E+04</rscale>
<asrwt>0</asrwt>
<pdfrwt beam="2">  1        2 0.35792243E+00 0.13554881E+04</pdfrwt>
<pdfrwt beam="1">  1       -2 0.12422451E+00 0.13554881E+04</pdfrwt>
<totfact> 0.31414731E+00</totfact>
</mgrwt>
</event>
<event>
 8    1  0.1449514E-005  0.1051220E+04  0.7818608E-02  0.8727899E-01
          1   -1    0    0  502    0  0.00000000000E+00  0.00000000000E+00  0.20524499305E+04  0.20524499305E+04  0.00000000000E+00 0. -1.
         -1   -1    0    0    0  501 -0.00000000000E+00 -0.00000000000E+00 -0.59000941109E+03  0.59000941109E+03  0.00000000000E+00 0.  1.
    9000010    2    1    2  502    0  0.20720525529E+02 -0.34544714385E+03  0.34334846534E+03  0.11100847832E+04  0.99731488902E+03 0.  0.
   -9000010    2    1    2    0  501 -0.20720525529E+02  0.34544714385E+03  0.11190920541E+04  0.15323745584E+04  0.98794822355E+03 0.  0.
        -13    1    3    3    0    0  0.13795191900E+03 -0.67663011075E+03  0.31077558461E+03  0.75725855154E+03  0.10566000000E+00 0.  1.
          4    1    3    3  502    0 -0.11723139347E+03  0.33118296690E+03  0.32572880730E+02  0.35282623165E+03  0.00000000000E+00 0.  1.
         13    1    4    4    0    0 -0.17078825865E+03  0.65360072016E+03  0.90096930142E+03  0.11261031143E+04  0.10566000000E+00 0. -1.
         -4    1    4    4    0  501  0.15006773312E+03 -0.30815357631E+03  0.21812275269E+03  0.40627144418E+03  0.00000000000E+00 0. -1.
<mgrwt>
<rscale>  2 0.10512199E+04</rscale>
<asrwt>0</asrwt>
<pdfrwt beam="1">  1        1 0.31576152E+00 0.10512199E+04</pdfrwt>
<pdfrwt beam="2">  1       -1 0.90770680E-01 0.10512199E+04</pdfrwt>
<totfact> 0.43089887E+00</totfact>
</mgrwt>
</event>
<event>
 8    1  0.1449514E-005  0.1105722E+04  0.7818608E-02  0.8681152E-01
         -1   -1    0    0    0  501 -0.00000000000E+00  0.00000000000E+00  0.12116858149E+04  0.12116858149E+04  0.00000000000E+00 0. -1.
          1   -1    0    0  502    0  0.00000000000E+00 -0.00000000000E+00 -0.10112444923E+04  0.10112444923E+04  0.00000000000E+00 0.  1.
    9000010    2    1    2  502    0 -0.15276863199E+03  0.43826029964E+03  0.14789597512E+03  0.10989293206E+04  0.98506958491E+03 0.  0.
   -9000010    2    1    2    0  501  0.15276863199E+03 -0.43826029964E+03  0.52545347418E+02  0.11240009866E+04  0.10223535881E+04 0.  0.
        -13    1    3    3    0    0  0.41390189041E+03  0.90164248085E+02  0.45474155380E+02  0.42604257591E+03  0.10566000000E+00 0.  1.
          4    1    3    3  502    0 -0.56667052240E+03  0.34809605156E+03  0.10242181974E+03  0.67288674472E+03  0.00000000000E+00 0.  1.
         13    1    4    4    0    0 -0.25415856710E+03  0.22841550310E+03  0.15352111501E+02  0.34206127782E+03  0.10566000000E+00 0. -1.
         -4    1    4    4    0  501  0.40692719909E+03 -0.66667580275E+03  0.37193235917E+02  0.78193970875E+03  0.00000000000E+00 0. -1.
<mgrwt>
<rscale>  2 0.11057225E+04</rscale>
<asrwt>0</asrwt>
<pdfrwt beam="2">  1        1 0.15557608E+00 0.11057225E+04</pdfrwt>
<pdfrwt beam="1">  1       -1 0.18641320E+00 0.11057225E+04</pdfrwt>
<totfact> 0.37189262E+00</totfact>
</mgrwt>
</event>
<event>
 8    1  0.1449514E-005  0.1215133E+04  0.7818608E-02  0.8595253E-01
         -2   -1    0    0    0  501 -0.00000000000E+00  0.00000000000E+00  0.10437117402E+04  0.10437117402E+04  0.00000000000E+00 0. -1.
          2   -1    0    0  502    0  0.00000000000E+00 -0.00000000000E+00 -0.15297909164E+04  0.15297909164E+04  0.00000000000E+00 0.  1.
    9000010    2    1    2  502    0  0.64121472972E+03  0.25437508816E+03 -0.59395836050E+03  0.13436014352E+04  0.98823846702E+03 0.  0.
   -9000010    2    1    2    0  501 -0.64121472972E+03 -0.25437508816E+03  0.10787918436E+03  0.12299012213E+04  0.10124999164E+04 0.  0.
        -13    1    3    3    0    0  0.38911975411E+03  0.18413429289E+03 -0.86539556382E+03  0.96655528238E+03  0.10566000000E+00 0.  1.
          4    1    3    3  502    0  0.25209497561E+03  0.70240795276E+02  0.27143720331E+03  0.37704615287E+03  0.00000000000E+00 0.  1.
         13    1    4    4    0    0 -0.70779898075E+03  0.93954960825E+02  0.35526073335E+03  0.79750682231E+03  0.10566000000E+00 0. -1.
         -4    1    4    4    0  501  0.66584251032E+02 -0.34833004899E+03 -0.24738154899E+03  0.43239439901E+03  0.00000000000E+00 0. -1.
<mgrwt>
<rscale>  2 0.12151334E+04</rscale>
<asrwt>0</asrwt>
<pdfrwt beam="2">  1        2 0.23535245E+00 0.12151334E+04</pdfrwt>
<pdfrwt beam="1">  1       -2 0.16057104E+00 0.12151334E+04</pdfrwt>
<totfact> 0.40865937E+00</totfact>
</mgrwt>
</event>
<event>
 8    1  0.1449514E-005  0.1489093E+04  0.7818608E-02  0.8415804E-01
          2   -1    0    0  502    0  0.00000000000E+00  0.00000000000E+00  0.66976945716E+03  0.66976945716E+03  0.00000000000E+00 0.  1.
         -2   -1    0    0    0  501 -0.00000000000E+00 -0.00000000000E+00 -0.34867177684E+04  0.34867177684E+04  0.00000000000E+00 0. -1.
    9000010    2    1    2  502    0 -0.63639098698E+03 -0.88937318816E+03 -0.18708149709E+04  0.23879390556E+04  0.10031580742E+04 0.  0.
   -9000010    2    1    2    0  501  0.63639098698E+03  0.88937318816E+03 -0.94613334031E+03  0.17685481699E+04  0.10181434946E+04 0.  0.
        -13    1    3    3    0    0 -0.79373594403E+03 -0.89008273034E+03 -0.11736406134E+04  0.16732293077E+04  0.10566000000E+00 0.  1.
          4    1    3    3  502    0  0.15734495705E+03  0.70954217917E+00 -0.69717435750E+03  0.71470974788E+03  0.00000000000E+00 0.  1.
         13    1    4    4    0    0  0.25499912687E+03 -0.19928784888E+03 -0.32396846885E+03  0.45792551948E+03  0.10566000000E+00 0. -1.
         -4    1    4    4    0  501  0.38139186011E+03  0.10886610370E+04 -0.62216487146E+03  0.13106226504E+04  0.00000000000E+00 0. -1.
<mgrwt>
<rscale>  2 0.14890929E+04</rscale>
<asrwt>0</asrwt>
<pdfrwt beam="1">  1        2 0.10304146E+00 0.14890929E+04</pdfrwt>
<pdfrwt beam="2">  1       -2 0.53641812E+00 0.14890929E+04</pdfrwt>
<totfact> 0.19799685E-01</totfact>
</mgrwt>
</event>
<event>
 8    1  0.1449514E-005  0.1562638E+04  0.7818608E-02  0.8374336E-01
          2   -1    0    0  502    0  0.00000000000E+00  0.00000000000E+00  0.35058732534E+04  0.35058732534E+04  0.00000000000E+00 0. -1.
         -2   -1    0    0    0  501 -0.00000000000E+00 -0.00000000000E+00 -0.69844957892E+03  0.69844957892E+03  0.00000000000E+00 0.  1.
    9000010    2    1    2  502    0  0.54067700703E+03 -0.10596714555E+04  0.12858933572E+04  0.20174490680E+04  0.10006716726E+04 0.  0.
   -9000010    2    1    2    0  501 -0.54067700703E+03  0.10596714555E+04  0.15215303172E+04  0.21868737643E+04  0.10257324871E+04 0.  0.
        -13    1    3    3    0    0  0.10617660576E+03 -0.30305440084E+02  0.78546618200E+03  0.79318914865E+03  0.10566000000E+00 0.  1.
          4    1    3    3  502    0  0.43450040127E+03 -0.10293660154E+04  0.50042717522E+03  0.12242599193E+04  0.00000000000E+00 0.  1.
         13    1    4    4    0    0 -0.81107915600E+03  0.76451255482E+03  0.83694408265E+03  0.13938451322E+04  0.10566000000E+00 0. -1.
         -4    1    4    4    0  501  0.27040214897E+03  0.29515890068E+03  0.68458623457E+03  0.79302863214E+03  0.00000000000E+00 0. -1.
<mgrwt>
<rscale>  2 0.15626384E+04</rscale>
<asrwt>0</asrwt>
<pdfrwt beam="1">  1        2 0.53936511E+00 0.15626384E+04</pdfrwt>
<pdfrwt beam="2">  1       -2 0.10745378E+00 0.15626384E+04</pdfrwt>
<totfact> 0.83076390E-01</totfact>
</mgrwt>
</event>
<event>
 8    1  0.1449514E-005  0.1255955E+04  0.7818608E-02  0.8565577E-01
         -2   -1    0    0    0  501 -0.00000000000E+00  0.00000000000E+00  0.71398019905E+03  0.71398019905E+03  0.00000000000E+00 0.  1.
          2   -1    0    0  502    0  0.00000000000E+00 -0.00000000000E+00 -0.22785507114E+04  0.22785507114E+04  0.00000000000E+00 0. -1.
    9000010    2    1    2  502    0  0.35722683842E+03 -0.65515497454E+03 -0.52605653132E+03  0.13684260083E+04  0.10193209560E+04 0.  0.
   -9000010    2    1    2    0  501 -0.35722683842E+03  0.65515497454E+03 -0.10385139811E+04  0.16241049022E+04  0.10011824957E+04 0.  0.
        -13    1    3    3    0    0  0.69720596811E+02 -0.84602009206E+03 -0.56711794996E+03  0.10208984955E+04  0.10566000000E+00 0.  1.
          4    1    3    3  502    0  0.28750624161E+03  0.19086511752E+03  0.41061418643E+02  0.34752751280E+03  0.00000000000E+00 0.  1.
         13    1    4    4    0    0 -0.59085890096E+03  0.63386749080E+03 -0.10812523617E+04  0.13856438639E+04  0.10566000000E+00 0. -1.
         -4    1    4    4    0  501  0.23363206254E+03  0.21287483742E+02  0.42738380596E+02  0.23846103830E+03  0.00000000000E+00 0. -1.
<mgrwt>
<rscale>  2 0.12559552E+04</rscale>
<asrwt>0</asrwt>
<pdfrwt beam="2">  1        2 0.35054626E+00 0.12559552E+04</pdfrwt>
<pdfrwt beam="1">  1       -2 0.10984311E+00 0.12559552E+04</pdfrwt>
<totfact> 0.46476468E+00</totfact>
</mgrwt>
</event>
<event>
 8    1  0.1449514E-005  0.1197232E+04  0.7818608E-02  0.8608649E-01
          1   -1    0    0  502    0  0.00000000000E+00  0.00000000000E+00  0.16520988850E+04  0.16520988850E+04  0.00000000000E+00 0. -1.
         -1   -1    0    0    0  501 -0.00000000000E+00 -0.00000000000E+00 -0.89222775419E+03  0.89222775419E+03  0.00000000000E+00 0.  1.
    9000010    2    1    2  502    0 -0.11217124621E+03 -0.64394447940E+03  0.59299526328E+03  0.13413008188E+04  0.10100483272E+04 0.  0.
   -9000010    2    1    2    0  501  0.11217124621E+03  0.64394447940E+03  0.16687586753E+03  0.12030258204E+04  0.99608066358E+03 0.  0.
        -13    1    3    3    0    0 -0.51805495425E+03 -0.26646126892E+03  0.83674362375E+02  0.58854392660E+03  0.10566000000E+00 0.  1.
          4    1    3    3  502    0  0.40588370804E+03 -0.37748321048E+03  0.50932090091E+03  0.75275689219E+03  0.00000000000E+00 0.  1.
         13    1    4    4    0    0  0.36956494197E+03  0.56269106641E+03 -0.24005095329E+03  0.71471949315E+03  0.10566000000E+00 0. -1.
         -4    1    4    4    0  501 -0.25739369575E+03  0.81253412991E+02  0.40692682081E+03  0.48830632725E+03  0.00000000000E+00 0. -1.
<mgrwt>
<rscale>  2 0.11972325E+04</rscale>
<asrwt>0</asrwt>
<pdfrwt beam="1">  1        1 0.25416906E+00 0.11972325E+04</pdfrwt>
<pdfrwt beam="2">  1       -1 0.13726581E+00 0.11972325E+04</pdfrwt>
<totfact> 0.31972374E+00</totfact>
</mgrwt>
</event>
<event>
 8    1  0.1449514E-005  0.1014959E+04  0.7818608E-02  0.8760662E-01
         -2   -1    0    0    0  501 -0.00000000000E+00  0.00000000000E+00  0.15806484247E+04  0.15806484247E+04  0.00000000000E+00 0.  1.
          2   -1    0    0  502    0  0.00000000000E+00 -0.00000000000E+00 -0.72713068172E+03  0.72713068172E+03  0.00000000000E+00 0. -1.
    9000010    2    1    2  502    0  0.13077215478E+03  0.17362051787E+03  0.53698124249E+02  0.10124348636E+04  0.98736792722E+03 0.  0.
   -9000010    2    1    2    0  501 -0.13077215478E+03 -0.17362051787E+03  0.79981961872E+03  0.12953442428E+04  0.99546966016E+03 0.  0.
        -13    1    3    3    0    0  0.42501522884E+03  0.33121593798E+03 -0.21877713686E+03  0.58155428732E+03  0.10566000000E+00 0.  1.
          4    1    3    3  502    0 -0.29424307406E+03 -0.15759542011E+03  0.27247526111E+03  0.43088057624E+03  0.00000000000E+00 0.  1.
         13    1    4    4    0    0 -0.17828899893E+03  0.29416991375E+03  0.74674288047E+03  0.82216047460E+03  0.10566000000E+00 0. -1.
         -4    1    4    4    0  501  0.47516844148E+02 -0.46779043162E+03  0.53076738252E+02  0.47318376825E+03  0.00000000000E+00 0. -1.
<mgrwt>
<rscale>  2 0.10149590E+04</rscale>
<asrwt>0</asrwt>
<pdfrwt beam="2">  1        2 0.11186626E+00 0.10149590E+04</pdfrwt>
<pdfrwt beam="1">  1       -2 0.24317668E+00 0.10149590E+04</pdfrwt>
<totfact> 0.26515507E+00</totfact>
</mgrwt>
</event>
<event>
 8    1  0.1449514E-005  0.1217123E+04  0.7818608E-02  0.8593779E-01
         -2   -1    0    0    0  501 -0.00000000000E+00  0.00000000000E+00  0.50679751576E+03  0.50679751576E+03  0.00000000000E+00 0. -1.
          2   -1    0    0  502    0  0.00000000000E+00 -0.00000000000E+00 -0.29406318137E+04  0.29406318137E+04  0.00000000000E+00 0.  1.
    9000010    2    1    2  502    0 -0.64393526004E+03 -0.23493599503E+03 -0.13547821109E+04  0.18243888971E+04  0.10114903554E+04 0.  0.
   -9000010    2    1    2    0  501  0.64393526004E+03  0.23493599503E+03 -0.10790521871E+04  0.16230404323E+04  0.10000295404E+04 0.  0.
        -13    1    3    3    0    0  0.25354791516E+03 -0.14614740478E+03 -0.51357665647E+03  0.59110625310E+03  0.10566000000E+00 0.  1.
          4    1    3    3  502    0 -0.89748317521E+03 -0.88788590246E+02 -0.84120545441E+03  0.12332826440E+04  0.00000000000E+00 0.  1.
         13    1    4    4    0    0  0.39642663643E+01  0.49936425935E+03 -0.60201483521E+03  0.78217789020E+03  0.10566000000E+00 0. -1.
         -4    1    4    4    0  501  0.63997099368E+03 -0.26442826433E+03 -0.47703735184E+03  0.84086254214E+03  0.00000000000E+00 0. -1.
<mgrwt>
<rscale>  2 0.12171231E+04</rscale>
<asrwt>0</asrwt>
<pdfrwt beam="2">  1        2 0.45240490E+00 0.12171231E+04</pdfrwt>
<pdfrwt beam="1">  1       -2 0.77968847E-01 0.12171231E+04</pdfrwt>
<totfact> 0.43259497E+00</totfact>
</mgrwt>
</event>
<event>
 8    1  0.1449514E-005  0.1069468E+04  0.7818608E-02  0.8711925E-01
          2   -1    0    0  502    0  0.00000000000E+00  0.00000000000E+00  0.91428311785E+03  0.91428311785E+03  0.00000000000E+00 0.  1.
         -2   -1    0    0    0  501 -0.00000000000E+00 -0.00000000000E+00 -0.12529618665E+04  0.12529618665E+04  0.00000000000E+00 0. -1.
    9000010    2    1    2  502    0  0.35467525085E+03 -0.14948154163E+03 -0.21097575162E+03  0.10844200621E+04  0.99162333495E+03 0.  0.
   -9000010    2    1    2    0  501 -0.35467525085E+03  0.14948154163E+03 -0.12770299702E+03  0.10828249223E+04  0.10040231531E+04 0.  0.
        -13    1    3    3    0    0  0.14232271035E+03 -0.49591107801E+03  0.15380634770E+03  0.53836786209E+03  0.10566000000E+00 0.  1.
          4    1    3    3  502    0  0.21235254050E+03  0.34642953638E+03 -0.36478209932E+03  0.54605219999E+03  0.00000000000E+00 0.  1.
         13    1    4    4    0    0 -0.50285117406E+01 -0.19648606573E+03  0.34728101812E+03  0.39904407860E+03  0.10566000000E+00 0. -1.
         -4    1    4    4    0  501 -0.34964673911E+03  0.34596760736E+03 -0.47498401515E+03  0.68378084366E+03  0.00000000000E+00 0. -1.
<mgrwt>
<rscale>  2 0.10694681E+04</rscale>
<asrwt>0</asrwt>
<pdfrwt beam="1">  1        2 0.14065894E+00 0.10694681E+04</pdfrwt>
<pdfrwt beam="2">  1       -2 0.19276336E+00 0.10694681E+04</pdfrwt>
<totfact> 0.50369858E+00</totfact>
</mgrwt>
</event>
<event>
 8    1  0.1449514E-005  0.1486743E+04  0.7818608E-02  0.8417170E-01
          1   -1    0    0  502    0  0.00000000000E+00  0.00000000000E+00  0.86635764622E+03  0.86635764622E+03  0.00000000000E+00 0.  1.
         -1   -1    0    0    0  501 -0.00000000000E+00 -0.00000000000E+00 -0.30243950457E+04  0.30243950457E+04  0.00000000000E+00 0. -1.
    9000010    2    1    2  502    0  0.28925296001E+03 -0.10496590852E+04 -0.30293725949E+03  0.15063437471E+04  0.99591617678E+03 0.  0.
   -9000010    2    1    2    0  501 -0.28925296001E+03  0.10496590852E+04 -0.18551001400E+04  0.23844089448E+04  0.10288624869E+04 0.  0.
        -13    1    3    3    0    0  0.40870315888E+03 -0.11976949618E+04 -0.34466140731E+03  0.13116032138E+04  0.10566000000E+00 0.  1.
          4    1    3    3  502    0 -0.11945019887E+03  0.14803587664E+03  0.41724147824E+02  0.19474053325E+03  0.00000000000E+00 0.  1.
         13    1    4    4    0    0 -0.44917322768E+03  0.78598373089E+03 -0.58602367146E+03  0.10784019512E+04  0.10566000000E+00 0. -1.
         -4    1    4    4    0  501  0.15992026767E+03  0.26367535427E+03 -0.12690764685E+04  0.13060069936E+04  0.00000000000E+00 0. -1.
<mgrwt>
<rscale>  2 0.14867425E+04</rscale>
<asrwt>0</asrwt>
<pdfrwt beam="1">  1        1 0.13328579E+00 0.14867425E+04</pdfrwt>
<pdfrwt beam="2">  1       -1 0.46529154E+00 0.14867425E+04</pdfrwt>
<totfact> 0.27120113E-01</totfact>
</mgrwt>
</event>
<event>
 8    1  0.1449514E-005  0.1079899E+04  0.7818608E-02  0.8702942E-01
         -4   -1    0    0    0  501 -0.00000000000E+00  0.00000000000E+00  0.40985162611E+04  0.40985162611E+04  0.00000000000E+00 0.  1.
          4   -1    0    0  502    0  0.00000000000E+00 -0.00000000000E+00 -0.30835910549E+03  0.30835910549E+03  0.00000000000E+00 0. -1.
    9000010    2    1    2  502    0 -0.20590949516E+03 -0.32978404049E+03  0.25054609783E+04  0.27277819110E+04  0.10061327976E+04 0.  0.
   -9000010    2    1    2    0  501  0.20590949516E+03  0.32978404049E+03  0.12846961773E+04  0.16790934556E+04  0.10088381095E+04 0.  0.
        -13    1    3    3    0    0  0.34164457122E+03 -0.33542905003E+03  0.75812110514E+03  0.89665003311E+03  0.10566000000E+00 0.  1.
          4    1    3    3  502    0 -0.54755406638E+03  0.56450095416E+01  0.17473398732E+04  0.18311318778E+04  0.00000000000E+00 0.  1.
         13    1    4    4    0    0 -0.19257680943E+03  0.36043320754E+03  0.88812043330E+02  0.41819315493E+03  0.10566000000E+00 0. -1.
         -4    1    4    4    0  501  0.39848630459E+03 -0.30649167046E+02  0.11958841340E+04  0.12609003007E+04  0.00000000000E+00 0. -1.
<mgrwt>
<rscale>  2 0.10798990E+04</rscale>
<asrwt>0</asrwt>
<pdfrwt beam="2">  1        4 0.47439865E-01 0.10798990E+04</pdfrwt>
<pdfrwt beam="1">  1       -4 0.63054092E+00 0.10798990E+04</pdfrwt>
<totfact> 0.49731672E-02</totfact>
</mgrwt>
</event>
<event>
 8    1  0.1449514E-005  0.1226664E+04  0.7818608E-02  0.8586750E-01
          4   -1    0    0  502    0  0.00000000000E+00  0.00000000000E+00  0.26590778374E+04  0.26590778374E+04  0.00000000000E+00 0.  1.
         -4   -1    0    0    0  501 -0.00000000000E+00 -0.00000000000E+00 -0.62813011806E+03  0.62813011806E+03  0.00000000000E+00 0. -1.
    9000010    2    1    2  502    0  0.64617383543E+03  0.29799526264E+03  0.15310852953E+04  0.19603435758E+04  0.99618419564E+03 0.  0.
   -9000010    2    1    2    0  501 -0.64617383543E+03 -0.29799526264E+03  0.49986242401E+03  0.13268643796E+04  0.10021800421E+04 0.  0.
        -13    1    3    3    0    0  0.34580291930E+03  0.23502395948E+03  0.15932603857E+04  0.16472081193E+04  0.10566000000E+00 0.  1.
          4    1    3    3  502    0  0.30037091613E+03  0.62971303168E+02 -0.62175090373E+02  0.31313545654E+03  0.00000000000E+00 0.  1.
         13    1    4    4    0    0  0.26116352425E+03 -0.79365852944E+02  0.10767152965E+02  0.27316893630E+03  0.10566000000E+00 0. -1.
         -4    1    4    4    0  501 -0.90733735968E+03 -0.21862940970E+03  0.48909527104E+03  0.10536954433E+04  0.00000000000E+00 0. -1.
<mgrwt>
<rscale>  2 0.12266637E+04</rscale>
<asrwt>0</asrwt>
<pdfrwt beam="1">  1        4 0.40908889E+00 0.12266637E+04</pdfrwt>
<pdfrwt beam="2">  1       -4 0.96635404E-01 0.12266637E+04</pdfrwt>
<totfact> 0.13611838E-01</totfact>
</mgrwt>
</event>
<event>
 8    1  0.1449514E-005  0.1566699E+04  0.7818608E-02  0.8372115E-01
         -4   -1    0    0    0  501 -0.00000000000E+00  0.00000000000E+00  0.27014899683E+04  0.27014899683E+04  0.00000000000E+00 0.  1.
          4   -1    0    0  502    0  0.00000000000E+00 -0.00000000000E+00 -0.10232911279E+04  0.10232911279E+04  0.00000000000E+00 0. -1.
    9000010    2    1    2  502    0  0.27956250586E+03  0.11588067376E+04  0.14706532309E+04  0.21617503903E+04  0.10437219816E+04 0.  0.
   -9000010    2    1    2    0  501 -0.27956250586E+03 -0.11588067376E+04  0.20754560961E+03  0.15630307059E+04  0.98944507567E+03 0.  0.
        -13    1    3    3    0    0 -0.39279654047E+03  0.32496657701E+03  0.40858143465E+03  0.65332319588E+03  0.10566000000E+00 0.  1.
          4    1    3    3  502    0  0.67235904633E+03  0.83384016056E+03  0.10620717962E+04  0.15084271944E+04  0.00000000000E+00 0.  1.
         13    1    4    4    0    0 -0.18328348034E+01  0.50644544093E+02  0.31351524042E+03  0.31758470724E+03  0.10566000000E+00 0. -1.
         -4    1    4    4    0  501 -0.27772967106E+03 -0.12094512817E+04 -0.10596963081E+03  0.12454459987E+04  0.00000000000E+00 0. -1.
<mgrwt>
<rscale>  2 0.15666993E+04</rscale>
<asrwt>0</asrwt>
<pdfrwt beam="2">  1        4 0.15742941E+00 0.15666993E+04</pdfrwt>
<pdfrwt beam="1">  1       -4 0.41561384E+00 0.15666993E+04</pdfrwt>
<totfact> 0.55026887E-02</totfact>
</mgrwt>
</event>
<event>
 8    1  0.1449514E-005  0.1184644E+04  0.7818608E-02  0.8618216E-01
          1   -1    0    0  502    0  0.00000000000E+00  0.00000000000E+00  0.49521383521E+03  0.49521383521E+03  0.00000000000E+00 0. -1.
         -1   -1    0    0    0  501 -0.00000000000E+00 -0.00000000000E+00 -0.30276737090E+04  0.30276737090E+04  0.00000000000E+00 0.  1.
    9000010    2    1    2  502    0  0.38112708312E+03 -0.51104233338E+03 -0.17124476440E+04  0.20826078577E+04  0.99917787970E+03 0.  0.
   -9000010    2    1    2    0  501 -0.38112708312E+03  0.51104233338E+03 -0.82001222971E+03  0.14402796865E+04  0.99777923334E+03 0.  0.
        -13    1    3    3    0    0  0.80621131841E+02 -0.77333135565E+03 -0.10074447910E+04  0.12725903389E+04  0.10566000000E+00 0.  1.
          4    1    3    3  502    0  0.30050595128E+03  0.26228902228E+03 -0.70500285303E+03  0.81001751879E+03  0.00000000000E+00 0.  1.
         13    1    4    4    0    0 -0.21852583049E+03  0.72914342236E+03 -0.87811050566E+03  0.11621022934E+04  0.10566000000E+00 0. -1.
         -4    1    4    4    0  501 -0.16260125263E+03 -0.21810108899E+03  0.58098275952E+02  0.27817739312E+03  0.00000000000E+00 0. -1.
<mgrwt>
<rscale>  2 0.11846440E+04</rscale>
<asrwt>0</asrwt>
<pdfrwt beam="1">  1        1 0.76186745E-01 0.11846440E+04</pdfrwt>
<pdfrwt beam="2">  1       -1 0.46579595E+00 0.11846440E+04</pdfrwt>
<totfact> 0.65936591E-01</totfact>
</mgrwt>
</event>
<event>
 8    1  0.1449514E-005  0.1221304E+04  0.7818608E-02  0.8590691E-01
          2   -1    0    0  502    0  0.00000000000E+00  0.00000000000E+00  0.44845325336E+04  0.44845325336E+04  0.00000000000E+00 0.  1.
         -2   -1    0    0    0  501 -0.00000000000E+00 -0.00000000000E+00 -0.40351274183E+03  0.40351274183E+03  0.00000000000E+00 0. -1.
    9000010    2    1    2  502    0  0.44426411727E+03 -0.56407322523E+03  0.30864819932E+04  0.33252610890E+04  0.10076909283E+04 0.  0.
   -9000010    2    1    2    0  501 -0.44426411727E+03  0.56407322523E+03  0.99453779862E+03  0.15627841864E+04  0.96831801131E+03 0.  0.
        -13    1    3    3    0    0  0.71739153361E+03 -0.35371890727E+03  0.26555886374E+04  0.27734308536E+04  0.10566000000E+00 0.  1.
          4    1    3    3  502    0 -0.27312741634E+03 -0.21035431796E+03  0.43089335579E+03  0.55183023540E+03  0.00000000000E+00 0.  1.
         13    1    4    4    0    0 -0.42367948634E+03 -0.17506352456E+03  0.46748423041E+03  0.65474656289E+03  0.10566000000E+00 0. -1.
         -4    1    4    4    0  501 -0.20584630929E+02  0.73913674979E+03  0.52705356822E+03  0.90803762350E+03  0.00000000000E+00 0. -1.
<mgrwt>
<rscale>  2 0.12213036E+04</rscale>
<asrwt>0</asrwt>
<pdfrwt beam="1">  1        2 0.68992805E+00 0.12213036E+04</pdfrwt>
<pdfrwt beam="2">  1       -2 0.62078887E-01 0.12213036E+04</pdfrwt>
<totfact> 0.41899366E-01</totfact>
</mgrwt>
</event>
<event>
 8    1  0.1449514E-005  0.1379543E+04  0.7818608E-02  0.8482384E-01
         -2   -1    0    0    0  501 -0.00000000000E+00  0.00000000000E+00  0.70648692269E+03  0.70648692269E+03  0.00000000000E+00 0. -1.
          2   -1    0    0  502    0  0.00000000000E+00 -0.00000000000E+00 -0.26938252279E+04  0.26938252279E+04  0.00000000000E+00 0.  1.
    9000010    2    1    2  502    0  0.91748420566E+03  0.23039156292E+03 -0.98936148298E+03  0.16949546122E+04  0.99958864223E+03 0.  0.
   -9000010    2    1    2    0  501 -0.91748420566E+03 -0.23039156292E+03 -0.99797682219E+03  0.17053575383E+04  0.10086768838E+04 0.  0.
        -13    1    3    3    0    0  0.38285730210E+03  0.33350635382E+03 -0.10306282902E+04  0.11489129147E+04  0.10566000000E+00 0.  1.
          4    1    3    3  502    0  0.53462690356E+03 -0.10311479091E+03  0.41266807202E+02  0.54604169757E+03  0.00000000000E+00 0.  1.
         13    1    4    4    0    0 -0.48235673826E+03  0.26563424633E+03 -0.87546678552E+03  0.10342493314E+04  0.10566000000E+00 0. -1.
         -4    1    4    4    0  501 -0.43512746740E+03 -0.49602580925E+03 -0.12251003668E+03  0.67110820693E+03  0.00000000000E+00 0. -1.
<mgrwt>
<rscale>  2 0.13795430E+04</rscale>
<asrwt>0</asrwt>
<pdfrwt beam="2">  1        2 0.41443466E+00 0.13795430E+04</pdfrwt>
<pdfrwt beam="1">  1       -2 0.10869029E+00 0.13795430E+04</pdfrwt>
<totfact> 0.27494690E+00</totfact>
</mgrwt>
</event>
<event>
 8    1  0.1449514E-005  0.1958792E+04  0.7818608E-02  0.8185379E-01
          2   -1    0    0  502    0  0.00000000000E+00  0.00000000000E+00  0.21337506475E+04  0.21337506475E+04  0.00000000000E+00 0.  1.
         -2   -1    0    0    0  501 -0.00000000000E+00 -0.00000000000E+00 -0.17997942719E+04  0.17997942719E+04  0.00000000000E+00 0. -1.
    9000010    2    1    2  502    0 -0.89546745964E+03  0.14258915714E+04  0.22610815387E+03  0.19760259092E+04  0.10092198728E+04 0.  0.
   -9000010    2    1    2    0  501  0.89546745964E+03 -0.14258915714E+04  0.10784822176E+03  0.19575190102E+04  0.99258283872E+03 0.  0.
        -13    1    3    3    0    0 -0.10615067679E+04  0.13032049896E+04  0.37418622315E+03  0.17219626024E+04  0.10566000000E+00 0.  1.
          4    1    3    3  502    0  0.16603930829E+03  0.12268658189E+03 -0.14807806928E+03  0.25406330682E+03  0.00000000000E+00 0.  1.
         13    1    4    4    0    0  0.49405684133E+03 -0.12762054512E+04  0.41538473852E+03  0.14301527919E+04  0.10566000000E+00 0. -1.
         -4    1    4    4    0  501  0.40141061831E+03 -0.14968612029E+03 -0.30753651677E+03  0.52736621834E+03  0.00000000000E+00 0. -1.
<mgrwt>
<rscale>  2 0.19587918E+04</rscale>
<asrwt>0</asrwt>
<pdfrwt beam="1">  1        2 0.32826933E+00 0.19587918E+04</pdfrwt>
<pdfrwt beam="2">  1       -2 0.27689142E+00 0.19587918E+04</pdfrwt>
<totfact> 0.20394579E-01</totfact>
</mgrwt>
</event>
<event>
 8    1  0.1449514E-005  0.1383987E+04  0.7818608E-02  0.8479561E-01
         -1   -1    0    0    0  501 -0.00000000000E+00  0.00000000000E+00  0.10929473684E+04  0.10929473684E+04  0.00000000000E+00 0.  1.
          1   -1    0    0  502    0  0.00000000000E+00 -0.00000000000E+00 -0.19672109749E+04  0.19672109749E+04  0.00000000000E+00 0. -1.
    9000010    2    1    2  502    0  0.99281039182E+03 -0.12647175954E+03 -0.94880786411E+03  0.16985816874E+04  0.99160264512E+03 0.  0.
   -9000010    2    1    2    0  501 -0.99281039182E+03  0.12647175954E+03  0.74544257599E+02  0.13615766558E+04  0.92014485993E+03 0.  0.
        -13    1    3    3    0    0 -0.13288762145E+03 -0.21016006055E+03 -0.45357082062E+02  0.25275214548E+03  0.10566000000E+00 0.  1.
          4    1    3    3  502    0  0.11256980133E+04  0.83688301014E+02 -0.90345078205E+03  0.14458295420E+04  0.00000000000E+00 0.  1.
         13    1    4    4    0    0 -0.48019917527E+03  0.51788307704E+03 -0.36188429425E+02  0.70718013476E+03  0.10566000000E+00 0. -1.
         -4    1    4    4    0  501 -0.51261121655E+03 -0.39141131750E+03  0.11073268702E+03  0.65439652106E+03  0.00000000000E+00 0. -1.
<mgrwt>
<rscale>  2 0.13839875E+04</rscale>
<asrwt>0</asrwt>
<pdfrwt beam="2">  1        1 0.30264784E+00 0.13839875E+04</pdfrwt>
<pdfrwt beam="1">  1       -1 0.16814575E+00 0.13839875E+04</pdfrwt>
<totfact> 0.97683950E-01</totfact>
</mgrwt>
</event>
<event>
 8    1  0.1449514E-005  0.1204281E+04  0.7818608E-02  0.8603345E-01
          2   -1    0    0  502    0  0.00000000000E+00  0.00000000000E+00  0.18172731228E+04  0.18172731228E+04  0.00000000000E+00 0.  1.
         -2   -1    0    0    0  501 -0.00000000000E+00 -0.00000000000E+00 -0.79837887281E+03  0.79837887281E+03  0.00000000000E+00 0. -1.
    9000010    2    1    2  502    0 -0.66335544777E+03  0.21297265984E+03  0.50819313986E+03  0.12863420004E+04  0.95447245677E+03 0.  0.
   -9000010    2    1    2    0  501  0.66335544777E+03 -0.21297265984E+03  0.51070111012E+03  0.13293099952E+04  0.10103720283E+04 0.  0.
        -13    1    3    3    0    0 -0.39741592963E+03 -0.36826104416E+03  0.21098087224E+03  0.58143663230E+03  0.10566000000E+00 0.  1.
          4    1    3    3  502    0 -0.26593951814E+03  0.58123370400E+03  0.29721226762E+03  0.70490536812E+03  0.00000000000E+00 0.  1.
         13    1    4    4    0    0  0.67192876030E+03 -0.50315719352E+03  0.12828679709E+03  0.84918368671E+03  0.10566000000E+00 0. -1.
         -4    1    4    4    0  501 -0.85733125324E+01  0.29018453368E+03  0.38241431303E+03  0.48012630847E+03  0.00000000000E+00 0. -1.
<mgrwt>
<rscale>  2 0.12042811E+04</rscale>
<asrwt>0</asrwt>
<pdfrwt beam="1">  1        2 0.27958048E+00 0.12042811E+04</pdfrwt>
<pdfrwt beam="2">  1       -2 0.12282752E+00 0.12042811E+04</pdfrwt>
<totfact> 0.62510418E+00</totfact>
</mgrwt>
</event>
<event>
 8    1  0.1449514E-005  0.1111215E+04  0.7818608E-02  0.8676598E-01
          2   -1    0    0  502    0  0.00000000000E+00  0.00000000000E+00  0.17178303896E+04  0.17178303896E+04  0.00000000000E+00 0. -1.
         -2   -1    0    0    0  501 -0.00000000000E+00 -0.00000000000E+00 -0.80276793354E+03  0.80276793354E+03  0.00000000000E+00 0.  1.
    9000010    2    1    2  502    0 -0.82156454249E+02 -0.49434220569E+03  0.46419226160E+02  0.11022077302E+04  0.98060350631E+03 0.  0.
   -9000010    2    1    2    0  501  0.82156454249E+02  0.49434220569E+03  0.86864322991E+03  0.14183905930E+04  0.10030787178E+04 0.  0.
        -13    1    3    3    0    0 -0.26479598804E+03 -0.59265109898E+03  0.34774423799E+03  0.73639548248E+03  0.10566000000E+00 0.  1.
          4    1    3    3  502    0  0.18263953379E+03  0.98308893289E+02 -0.30132501183E+03  0.36581224768E+03  0.00000000000E+00 0.  1.
         13    1    4    4    0    0 -0.33504367045E+02  0.78599010838E+03  0.49071411413E+03  0.92720189067E+03  0.10566000000E+00 0. -1.
         -4    1    4    4    0  501  0.11566082129E+03 -0.29164790269E+03  0.37792911578E+03  0.49118870231E+03  0.00000000000E+00 0. -1.
<mgrwt>
<rscale>  2 0.11112145E+04</rscale>
<asrwt>0</asrwt>
<pdfrwt beam="1">  1        2 0.26428160E+00 0.11112145E+04</pdfrwt>
<pdfrwt beam="2">  1       -2 0.12350276E+00 0.11112145E+04</pdfrwt>
<totfact> 0.70452252E+00</totfact>
</mgrwt>
</event>
<event>
 8    1  0.1449514E-005  0.1992884E+04  0.7818608E-02  0.8171295E-01
          4   -1    0    0  502    0  0.00000000000E+00  0.00000000000E+00  0.29614120253E+04  0.29614120253E+04  0.00000000000E+00 0.  1.
         -4   -1    0    0    0  501 -0.00000000000E+00 -0.00000000000E+00 -0.21584537330E+04  0.21584537330E+04  0.00000000000E+00 0. -1.
    9000010    2    1    2  502    0 -0.14802597943E+04 -0.88023359642E+03  0.19770461028E+04  0.28088071260E+04  0.10073261315E+04 0.  0.
   -9000010    2    1    2    0  501  0.14802597943E+04  0.88023359642E+03 -0.11740878105E+04  0.23110586324E+04  0.99826327820E+03 0.  0.
        -13    1    3    3    0    0 -0.93630444428E+03 -0.23584081131E+03  0.16349481033E+04  0.18987738707E+04  0.10566000000E+00 0.  1.
          4    1    3    3  502    0 -0.54395535001E+03 -0.64439278511E+03  0.34209799957E+03  0.91003325523E+03  0.00000000000E+00 0.  1.
         13    1    4    4    0    0  0.10641940406E+04  0.10186476731E+04 -0.11553720626E+04  0.18721743113E+04  0.10566000000E+00 0. -1.
         -4    1    4    4    0  501  0.41606575371E+03 -0.13841407668E+03 -0.18715747968E+02  0.43888432104E+03  0.00000000000E+00 0. -1.
<mgrwt>
<rscale>  2 0.19928842E+04</rscale>
<asrwt>0</asrwt>
<pdfrwt beam="1">  1        4 0.45560185E+00 0.19928842E+04</pdfrwt>
<pdfrwt beam="2">  1       -4 0.33206981E+00 0.19928842E+04</pdfrwt>
<totfact> 0.11183448E-02</totfact>
</mgrwt>
</event>
<event>
 8    1  0.1449514E-005  0.1305427E+04  0.7818608E-02  0.8531138E-01
         -1   -1    0    0    0  501 -0.00000000000E+00  0.00000000000E+00  0.40816769187E+04  0.40816769187E+04  0.00000000000E+00 0. -1.
          1   -1    0    0  502    0  0.00000000000E+00 -0.00000000000E+00 -0.42026093415E+03  0.42026093415E+03  0.00000000000E+00 0.  1.
    9000010    2    1    2  502    0 -0.71093095997E+03 -0.45451934897E+02  0.20556895606E+04  0.24846439988E+04  0.12000448004E+04 0.  0.
   -9000010    2    1    2    0  501  0.71093095997E+03  0.45451934897E+02  0.16057264239E+04  0.20172938540E+04  0.99178043774E+03 0.  0.
        -13    1    3    3    0    0 -0.83025636850E+03  0.37306203333E+03  0.16754720494E+04  0.19067531349E+04  0.10566000000E+00 0.  1.
          4    1    3    3  502    0  0.11932540854E+03 -0.41851396823E+03  0.38021751127E+03  0.57789086392E+03  0.00000000000E+00 0.  1.
         13    1    4    4    0    0 -0.96746708246E+02  0.31964610194E+03  0.68574888969E+03  0.76274839031E+03  0.10566000000E+00 0. -1.
         -4    1    4    4    0  501  0.80767766821E+03 -0.27419416704E+03  0.91997753418E+03  0.12545454637E+04  0.00000000000E+00 0. -1.
<mgrwt>
<rscale>  2 0.13054272E+04</rscale>
<asrwt>0</asrwt>
<pdfrwt beam="2">  1        1 0.64655531E-01 0.13054272E+04</pdfrwt>
<pdfrwt beam="1">  1       -1 0.62795027E+00 0.13054272E+04</pdfrwt>
<totfact> 0.12666210E-01</totfact>
</mgrwt>
</event>
<event>
 8    1  0.1449514E-005  0.1448840E+04  0.7818608E-02  0.8439565E-01
         -2   -1    0    0    0  501 -0.00000000000E+00  0.00000000000E+00  0.27764127319E+04  0.27764127319E+04  0.00000000000E+00 0.  1.
          2   -1    0    0  502    0  0.00000000000E+00 -0.00000000000E+00 -0.77016545608E+03  0.77016545608E+03  0.00000000000E+00 0. -1.
    9000010    2    1    2  502    0  0.10301657795E+04  0.16781483387E+03  0.76538278954E+03  0.16414454186E+04  0.10095191410E+04 0.  0.
   -9000010    2    1    2    0  501 -0.10301657795E+04 -0.16781483387E+03  0.12408644863E+04  0.19051327694E+04  0.10001914035E+04 0.  0.
        -13    1    3    3    0    0  0.15300529651E+03  0.36676443793E+03  0.61097790223E+03  0.72884894311E+03  0.10566000000E+00 0.  1.
          4    1    3    3  502    0  0.87716048302E+03 -0.19894960406E+03  0.15440488730E+03  0.91259647553E+03  0.00000000000E+00 0.  1.
         13    1    4    4    0    0 -0.10441669814E+04 -0.17526847686E+03  0.13943802111E+04  0.17507997910E+04  0.10566000000E+00 0. -1.
         -4    1    4    4    0  501  0.14001201918E+02  0.74536429898E+01 -0.15351572476E+03  0.15433297832E+03  0.00000000000E+00 0. -1.
<mgrwt>
<rscale>  2 0.14488403E+04</rscale>
<asrwt>0</asrwt>
<pdfrwt beam="2">  1        2 0.11848699E+00 0.14488403E+04</pdfrwt>
<pdfrwt beam="1">  1       -2 0.42714042E+00 0.14488403E+04</pdfrwt>
<totfact> 0.15941227E-01</totfact>
</mgrwt>
</event>
<event>
 8    1  0.1449514E-005  0.1452526E+04  0.7818608E-02  0.8437356E-01
         -1   -1    0    0    0  501 -0.00000000000E+00  0.00000000000E+00  0.12627706499E+04  0.12627706499E+04  0.00000000000E+00 0.  1.
          1   -1    0    0  502    0  0.00000000000E+00 -0.00000000000E+00 -0.17156222745E+04  0.17156222745E+04  0.00000000000E+00 0. -1.
    9000010    2    1    2  502    0  0.57044566984E+03  0.91372502588E+03 -0.46897759239E+03  0.15412555947E+04  0.99761071615E+03 0.  0.
   -9000010    2    1    2    0  501 -0.57044566984E+03 -0.91372502588E+03  0.16125967773E+02  0.14371373297E+04  0.95121079290E+03 0.  0.
        -13    1    3    3    0    0 -0.14421866368E+03 -0.99291185760E+02  0.71110388058E+02  0.18898270021E+03  0.10566000000E+00 0.  1.
          4    1    3    3  502    0  0.71466433352E+03  0.10130162116E+04 -0.54008798045E+03  0.13522728945E+04  0.00000000000E+00 0.  1.
         13    1    4    4    0    0  0.61024034177E+02  0.27660586959E+02 -0.26160529567E+03  0.27004885244E+03  0.10566000000E+00 0. -1.
         -4    1    4    4    0  501 -0.63146970401E+03 -0.94138561284E+03  0.27773126344E+03  0.11670884773E+04  0.00000000000E+00 0. -1.
<mgrwt>
<rscale>  2 0.14525260E+04</rscale>
<asrwt>0</asrwt>
<pdfrwt beam="2">  1        1 0.26394189E+00 0.14525260E+04</pdfrwt>
<pdfrwt beam="1">  1       -1 0.19427241E+00 0.14525260E+04</pdfrwt>
<totfact> 0.88447574E-01</totfact>
</mgrwt>
</event>
<event>
 8    1  0.1449514E-005  0.1024472E+04  0.7818608E-02  0.8751932E-01
          2   -1    0    0  502    0  0.00000000000E+00  0.00000000000E+00  0.31812505715E+04  0.31812505715E+04  0.00000000000E+00 0.  1.
         -2   -1    0    0    0  501 -0.00000000000E+00 -0.00000000000E+00 -0.57750774643E+03  0.57750774643E+03  0.00000000000E+00 0. -1.
    9000010    2    1    2  502    0 -0.73001946416E+02  0.19727481241E+03  0.74727584581E+02  0.10318702737E+04  0.10074350669E+04 0.  0.
   -9000010    2    1    2    0  501  0.73001946416E+02 -0.19727481241E+03  0.25290152405E+04  0.27268880443E+04  0.99787458306E+03 0.  0.
        -13    1    3    3    0    0 -0.41742222598E+03 -0.23265038616E+03  0.49235479032E+02  0.48040780643E+03  0.10566000000E+00 0.  1.
          4    1    3    3  502    0  0.34442027957E+03  0.42992519856E+03  0.25492105549E+02  0.55146246725E+03  0.00000000000E+00 0.  1.
         13    1    4    4    0    0 -0.41585841084E+03 -0.51320808414E+02  0.60191977232E+03  0.73340266343E+03  0.10566000000E+00 0. -1.
         -4    1    4    4    0  501  0.48886035726E+03 -0.14595400399E+03  0.19270954682E+04  0.19934853808E+04  0.00000000000E+00 0. -1.
<mgrwt>
<rscale>  2 0.10244718E+04</rscale>
<asrwt>0</asrwt>
<pdfrwt beam="1">  1        2 0.48942316E+00 0.10244718E+04</pdfrwt>
<pdfrwt beam="2">  1       -2 0.88847347E-01 0.10244718E+04</pdfrwt>
<totfact> 0.23496330E+00</totfact>
</mgrwt>
</event>
<event>
 8    1  0.1449514E-005  0.1127054E+04  0.7818608E-02  0.8663615E-01
         -1   -1    0    0    0  501 -0.00000000000E+00  0.00000000000E+00  0.63466159260E+03  0.63466159260E+03  0.00000000000E+00 0. -1.
          1   -1    0    0  502    0  0.00000000000E+00 -0.00000000000E+00 -0.20035271276E+04  0.20035271276E+04  0.00000000000E+00 0.  1.
    9000010    2    1    2  502    0  0.40112643479E+03  0.30285424695E+03 -0.64215927812E+03  0.12972765834E+04  0.10089275909E+04 0.  0.
   -9000010    2    1    2    0  501 -0.40112643479E+03 -0.30285424695E+03 -0.72670625688E+03  0.13409121368E+04  0.10086229540E+04 0.  0.
        -13    1    3    3    0    0  0.58712328028E+03 -0.17062717969E+02 -0.70956249375E+03  0.92113181809E+03  0.10566000000E+00 0.  1.
          4    1    3    3  502    0 -0.18599684550E+03  0.31991696492E+03  0.67403215633E+02  0.37614476529E+03  0.00000000000E+00 0.  1.
         13    1    4    4    0    0 -0.43997160951E+03 -0.16396316431E+03  0.11787913105E+03  0.48410168056E+03  0.10566000000E+00 0. -1.
         -4    1    4    4    0  501  0.38845174721E+02 -0.13889108264E+03 -0.84458538793E+03  0.85681045625E+03  0.00000000000E+00 0. -1.
<mgrwt>
<rscale>  2 0.11270540E+04</rscale>
<asrwt>0</asrwt>
<pdfrwt beam="2">  1        1 0.30823495E+00 0.11270540E+04</pdfrwt>
<pdfrwt beam="1">  1       -1 0.97640244E-01 0.11270540E+04</pdfrwt>
<totfact> 0.39932920E+00</totfact>
</mgrwt>
</event>
<event>
 8    1  0.1449514E-005  0.1064069E+04  0.7818608E-02  0.8716616E-01
          2   -1    0    0  502    0  0.00000000000E+00  0.00000000000E+00  0.35068529786E+04  0.35068529786E+04  0.00000000000E+00 0. -1.
         -2   -1    0    0    0  501 -0.00000000000E+00 -0.00000000000E+00 -0.33261566583E+03  0.33261566583E+03  0.00000000000E+00 0.  1.
    9000010    2    1    2  502    0 -0.41133363636E+03  0.27561979137E+03  0.14014893656E+04  0.18092187933E+04  0.10314739794E+04 0.  0.
   -9000010    2    1    2    0  501  0.41133363636E+03 -0.27561979137E+03  0.17727479472E+04  0.20302498512E+04  0.85680659671E+03 0.  0.
        -13    1    3    3    0    0 -0.11880938544E+03  0.37899017196E+02  0.14260404775E+04  0.14314829584E+04  0.10566000000E+00 0.  1.
          4    1    3    3  502    0 -0.29252425092E+03  0.23772077417E+03 -0.24551111907E+02  0.37773583487E+03  0.00000000000E+00 0.  1.
         13    1    4    4    0    0 -0.22278505432E+03 -0.27690708703E+03  0.62573766954E+03  0.71962376109E+03  0.10566000000E+00 0. -1.
         -4    1    4    4    0  501  0.63411869068E+03  0.12872956646E+01  0.11470102777E+04  0.13106260901E+04  0.00000000000E+00 0. -1.
<mgrwt>
<rscale>  2 0.10640691E+04</rscale>
<asrwt>0</asrwt>
<pdfrwt beam="1">  1        2 0.53951582E+00 0.10640691E+04</pdfrwt>
<pdfrwt beam="2">  1       -2 0.51171643E-01 0.10640691E+04</pdfrwt>
<totfact> 0.44170902E+00</totfact>
</mgrwt>
</event>
<event>
 8    1  0.1449514E-005  0.1435258E+04  0.7818608E-02  0.8447761E-01
          1   -1    0    0  502    0  0.00000000000E+00  0.00000000000E+00  0.22102340050E+04  0.22102340050E+04  0.00000000000E+00 0. -1.
         -1   -1    0    0    0  501 -0.00000000000E+00 -0.00000000000E+00 -0.96700436346E+03  0.96700436346E+03  0.00000000000E+00 0.  1.
    9000010    2    1    2  502    0  0.63754607071E+03  0.80014877624E+03  0.92324042770E+03  0.17054164783E+04  0.10046737883E+04 0.  0.
   -9000010    2    1    2    0  501 -0.63754607071E+03 -0.80014877624E+03  0.31998921380E+03  0.14718218901E+04  0.10085452507E+04 0.  0.
        -13    1    3    3    0    0 -0.27056828447E+03  0.23708120077E+03  0.16862108745E+03  0.39730060989E+03  0.10566000000E+00 0.  1.
          4    1    3    3  502    0  0.90811435518E+03  0.56306757546E+03  0.75461934025E+03  0.13081158685E+04  0.00000000000E+00 0.  1.
         13    1    4    4    0    0 -0.25510088525E+03 -0.43619078547E+03 -0.35304467077E+03  0.61642470239E+03  0.10566000000E+00 0. -1.
         -4    1    4    4    0  501 -0.38244518546E+03 -0.36395799076E+03  0.67303388458E+03  0.85539718769E+03  0.00000000000E+00 0. -1.
<mgrwt>
<rscale>  2 0.14352581E+04</rscale>
<asrwt>0</asrwt>
<pdfrwt beam="1">  1        1 0.34003600E+00 0.14352581E+04</pdfrwt>
<pdfrwt beam="2">  1       -1 0.14876990E+00 0.14352581E+04</pdfrwt>
<totfact> 0.92236468E-01</totfact>
</mgrwt>
</event>
<event>
 8    1  0.1449514E-005  0.1948908E+04  0.7818608E-02  0.8189517E-01
         -1   -1    0    0    0  501 -0.00000000000E+00  0.00000000000E+00  0.35037253101E+04  0.35037253101E+04  0.00000000000E+00 0.  1.
          1   -1    0    0  502    0  0.00000000000E+00 -0.00000000000E+00 -0.11495049522E+04  0.11495049522E+04  0.00000000000E+00 0. -1.
    9000010    2    1    2  502    0  0.65723255851E+03 -0.15395614973E+04  0.17297266129E+04  0.26025058526E+04  0.98938279621E+03 0.  0.
   -9000010    2    1    2    0  501 -0.65723255851E+03  0.15395614973E+04  0.62449374496E+03  0.20507244097E+04  0.10066150838E+04 0.  0.
        -13    1    3    3    0    0  0.33726952277E+02 -0.16705412835E+03 -0.12577490019E+03  0.21181106154E+03  0.10566000000E+00 0.  1.
          4    1    3    3  502    0  0.62350560623E+03 -0.13725073690E+04  0.18555015131E+04  0.23906947911E+04  0.00000000000E+00 0.  1.
         13    1    4    4    0    0 -0.59202101860E+03  0.15186356044E+04  0.83355879068E+03  0.18307275204E+04  0.10566000000E+00 0. -1.
         -4    1    4    4    0  501 -0.65211539912E+02  0.20925892912E+02 -0.20906504572E+03  0.21999688924E+03  0.00000000000E+00 0. -1.
<mgrwt>
<rscale>  2 0.19489078E+04</rscale>
<asrwt>0</asrwt>
<pdfrwt beam="2">  1        1 0.17684692E+00 0.19489078E+04</pdfrwt>
<pdfrwt beam="1">  1       -1 0.53903466E+00 0.19489078E+04</pdfrwt>
<totfact> 0.94412558E-02</totfact>
</mgrwt>
</event>
<event>
 8    1  0.1449514E-005  0.1871683E+04  0.7818608E-02  0.8222735E-01
          2   -1    0    0  502    0  0.00000000000E+00  0.00000000000E+00  0.21383018909E+04  0.21383018909E+04  0.00000000000E+00 0.  1.
         -2   -1    0    0    0  501 -0.00000000000E+00 -0.00000000000E+00 -0.17264808084E+04  0.17264808084E+04  0.00000000000E+00 0. -1.
    9000010    2    1    2  502    0 -0.10658009455E+04  0.11697565359E+04 -0.23125460970E+03  0.18812361254E+04  0.99061024440E+03 0.  0.
   -9000010    2    1    2    0  501  0.10658009455E+04 -0.11697565359E+04  0.64307569220E+03  0.19835465739E+04  0.10082899663E+04 0.  0.
        -13    1    3    3    0    0 -0.26769431478E+03  0.84040083834E+03 -0.45056273947E+03  0.99042445881E+03  0.10566000000E+00 0.  1.
          4    1    3    3  502    0 -0.79810663075E+03  0.32935569752E+03  0.21930812977E+03  0.89081166659E+03  0.00000000000E+00 0.  1.
         13    1    4    4    0    0  0.27793730513E+03 -0.67930347582E+02  0.55711612820E+03  0.62629231926E+03  0.10566000000E+00 0. -1.
         -4    1    4    4    0  501  0.78786364041E+03 -0.11018261883E+04  0.85959563999E+02  0.13572542546E+04  0.00000000000E+00 0. -1.
<mgrwt>
<rscale>  2 0.18716827E+04</rscale>
<asrwt>0</asrwt>
<pdfrwt beam="1">  1        2 0.32896952E+00 0.18716827E+04</pdfrwt>
<pdfrwt beam="2">  1       -2 0.26561243E+00 0.18716827E+04</pdfrwt>
<totfact> 0.24898339E-01</totfact>
</mgrwt>
</event>
<event>
 8    1  0.1449514E-005  0.2187356E+04  0.7818608E-02  0.8096108E-01
          2   -1    0    0  502    0  0.00000000000E+00  0.00000000000E+00  0.11365577973E+04  0.11365577973E+04  0.00000000000E+00 0. -1.
         -2   -1    0    0    0  501 -0.00000000000E+00 -0.00000000000E+00 -0.42833980576E+04  0.42833980576E+04  0.00000000000E+00 0.  1.
    9000010    2    1    2  502    0  0.28563546186E+02 -0.19497766867E+04 -0.19268198948E+04  0.29127209487E+04  0.98430859675E+03 0.  0.
   -9000010    2    1    2    0  501 -0.28563546186E+02  0.19497766867E+04 -0.12200203655E+04  0.25072349062E+04  0.99766335934E+03 0.  0.
        -13    1    3    3    0    0 -0.16823575182E+03 -0.19595194928E+04 -0.16197238666E+04  0.25478471944E+04  0.10566000000E+00 0.  1.
          4    1    3    3  502    0  0.19679929801E+03  0.97428061745E+01 -0.30709602823E+03  0.36487375423E+03  0.00000000000E+00 0.  1.
         13    1    4    4    0    0  0.31194727778E+03  0.14721305734E+04 -0.51592322770E+03  0.15908036703E+04  0.10566000000E+00 0. -1.
         -4    1    4    4    0  501 -0.34051082396E+03  0.47764611324E+03 -0.70409713776E+03  0.91643123590E+03  0.00000000000E+00 0. -1.
<mgrwt>
<rscale>  2 0.21873556E+04</rscale>
<asrwt>0</asrwt>
<pdfrwt beam="1">  1        2 0.17485505E+00 0.21873556E+04</pdfrwt>
<pdfrwt beam="2">  1       -2 0.65898431E+00 0.21873556E+04</pdfrwt>
<totfact> 0.79211697E-02</totfact>
</mgrwt>
</event>
<event>
 8    1  0.1449514E-005  0.1455538E+04  0.7818608E-02  0.8435557E-01
          2   -1    0    0  502    0  0.00000000000E+00  0.00000000000E+00  0.16617470434E+04  0.16617470434E+04  0.00000000000E+00 0. -1.
         -2   -1    0    0    0  501 -0.00000000000E+00 -0.00000000000E+00 -0.12754431682E+04  0.12754431682E+04  0.00000000000E+00 0.  1.
    9000010    2    1    2  502    0 -0.10513226435E+04  0.77435814676E+02  0.22323706192E+03  0.14766163730E+04  0.10095967120E+04 0.  0.
   -9000010    2    1    2    0  501  0.10513226435E+04 -0.77435814676E+02  0.16306681326E+03  0.14605738387E+04  0.99770213315E+03 0.  0.
        -13    1    3    3    0    0 -0.48795791053E+03 -0.40470587333E+03 -0.14257063085E+03  0.64978162663E+03  0.10566000000E+00 0.  1.
          4    1    3    3  502    0 -0.56336473297E+03  0.48214168801E+03  0.36580769277E+03  0.82683474634E+03  0.00000000000E+00 0.  1.
         13    1    4    4    0    0  0.61091105726E+03 -0.54957181539E+02 -0.40976640045E+03  0.73765922063E+03  0.10566000000E+00 0. -1.
         -4    1    4    4    0  501  0.44041158624E+03 -0.22478633137E+02  0.57283321371E+03  0.72291461804E+03  0.00000000000E+00 0. -1.
<mgrwt>
<rscale>  2 0.14555375E+04</rscale>
<asrwt>0</asrwt>
<pdfrwt beam="1">  1        2 0.25565339E+00 0.14555375E+04</pdfrwt>
<pdfrwt beam="2">  1       -2 0.19622203E+00 0.14555375E+04</pdfrwt>
<totfact> 0.16968169E+00</totfact>
</mgrwt>
</event>
<event>
 8    1  0.1449514E-005  0.1326122E+04  0.7818608E-02  0.8517196E-01
         -4   -1    0    0    0  501 -0.00000000000E+00  0.00000000000E+00  0.59210142804E+03  0.59210142804E+03  0.00000000000E+00 0.  1.
          4   -1    0    0  502    0  0.00000000000E+00 -0.00000000000E+00 -0.30085433085E+04  0.30085433085E+04  0.00000000000E+00 0. -1.
    9000010    2    1    2  502    0  0.25923912429E+03 -0.90683896272E+03 -0.14355436530E+04  0.19760981817E+04  0.97704483830E+03 0.  0.
   -9000010    2    1    2    0  501 -0.25923912429E+03  0.90683896272E+03 -0.98089822738E+03  0.16245465548E+04  0.88737159542E+03 0.  0.
        -13    1    3    3    0    0  0.34863357254E+03 -0.10509214842E+04 -0.94030840699E+03  0.14526394065E+04  0.10566000000E+00 0.  1.
          4    1    3    3  502    0 -0.89394448253E+02  0.14408252151E+03 -0.49523524606E+03  0.52345877519E+03  0.00000000000E+00 0.  1.
         13    1    4    4    0    0 -0.36210386943E+03  0.10065483856E+04 -0.62031523135E+03  0.12365475576E+04  0.10566000000E+00 0. -1.
         -4    1    4    4    0  501  0.10286474514E+03 -0.99709422873E+02 -0.36058299603E+03  0.38799899720E+03  0.00000000000E+00 0. -1.
<mgrwt>
<rscale>  2 0.13261216E+04</rscale>
<asrwt>0</asrwt>
<pdfrwt beam="2">  1        4 0.46285282E+00 0.13261216E+04</pdfrwt>
<pdfrwt beam="1">  1       -4 0.91092528E-01 0.13261216E+04</pdfrwt>
<totfact> 0.87127705E-02</totfact>
</mgrwt>
</event>
<event>
 8    1  0.1449514E-005  0.1457952E+04  0.7818608E-02  0.8434117E-01
         -4   -1    0    0    0  501 -0.00000000000E+00  0.00000000000E+00  0.60601412714E+03  0.60601412714E+03  0.00000000000E+00 0. -1.
          4   -1    0    0  502    0  0.00000000000E+00 -0.00000000000E+00 -0.35084382361E+04  0.35084382361E+04  0.00000000000E+00 0.  1.
    9000010    2    1    2  502    0  0.10448364742E+04 -0.14050394371E+03 -0.14230894812E+04  0.20403197685E+04  0.10130629153E+04 0.  0.
   -9000010    2    1    2    0  501 -0.10448364742E+04  0.14050394371E+03 -0.14793346277E+04  0.20741325947E+04  0.10010846436E+04 0.  0.
        -13    1    3    3    0    0  0.64541674384E+03  0.42882108066E+02 -0.14623910610E+04  0.15990588716E+04  0.10566000000E+00 0.  1.
          4    1    3    3  502    0  0.39941973032E+03 -0.18338605178E+03  0.39301579805E+02  0.44126089690E+03  0.00000000000E+00 0.  1.
         13    1    4    4    0    0  0.32856699901E+02  0.29322215361E+03 -0.62249346566E+03  0.68888091863E+03  0.10566000000E+00 0. -1.
         -4    1    4    4    0  501 -0.10776931741E+04 -0.15271820990E+03 -0.85684116206E+03  0.13852516761E+04  0.00000000000E+00 0. -1.
<mgrwt>
<rscale>  2 0.14579519E+04</rscale>
<asrwt>0</asrwt>
<pdfrwt beam="2">  1        4 0.53975973E+00 0.14579519E+04</pdfrwt>
<pdfrwt beam="1">  1       -4 0.93232942E-01 0.14579519E+04</pdfrwt>
<totfact> 0.35911425E-02</totfact>
</mgrwt>
</event>
<event>
 8    1  0.1449514E-005  0.1218862E+04  0.7818608E-02  0.8592492E-01
         -2   -1    0    0    0  501 -0.00000000000E+00  0.00000000000E+00  0.14231883871E+04  0.14231883871E+04  0.00000000000E+00 0.  1.
          2   -1    0    0  502    0  0.00000000000E+00 -0.00000000000E+00 -0.11115120896E+04  0.11115120896E+04  0.00000000000E+00 0. -1.
    9000010    2    1    2  502    0  0.26301680872E+03  0.63887779871E+03 -0.15715726310E+03  0.12258858947E+04  0.10003774978E+04 0.  0.
   -9000010    2    1    2    0  501 -0.26301680872E+03 -0.63887779871E+03  0.46883356057E+03  0.13088145820E+04  0.10078928610E+04 0.  0.
        -13    1    3    3    0    0  0.15670192970E+03  0.91019231023E+03 -0.13824345324E+03  0.93387193978E+03  0.10566000000E+00 0.  1.
          4    1    3    3  502    0  0.10631487902E+03 -0.27131451152E+03 -0.18913809865E+02  0.29201395491E+03  0.00000000000E+00 0.  1.
         13    1    4    4    0    0 -0.60302903140E+03 -0.25183339752E+03  0.69893977536E+02  0.65722846262E+03  0.10566000000E+00 0. -1.
         -4    1    4    4    0  501  0.34001222268E+03 -0.38704440120E+03  0.39893958304E+03  0.65158611939E+03  0.00000000000E+00 0. -1.
<mgrwt>
<rscale>  2 0.12188622E+04</rscale>
<asrwt>0</asrwt>
<pdfrwt beam="2">  1        2 0.17100186E+00 0.12188622E+04</pdfrwt>
<pdfrwt beam="1">  1       -2 0.21895206E+00 0.12188622E+04</pdfrwt>
<totfact> 0.22927607E+00</totfact>
</mgrwt>
</event>
<event>
 8    1  0.1449514E-005  0.1597811E+04  0.7818608E-02  0.8355331E-01
          2   -1    0    0  502    0  0.00000000000E+00  0.00000000000E+00  0.23474814024E+04  0.23474814024E+04  0.00000000000E+00 0.  1.
         -2   -1    0    0    0  501 -0.00000000000E+00 -0.00000000000E+00 -0.13157600102E+04  0.13157600102E+04  0.00000000000E+00 0. -1.
    9000010    2    1    2  502    0 -0.22600609240E+03  0.12269129274E+04 -0.25000946570E+03  0.16055285595E+04  0.97919514755E+03 0.  0.
   -9000010    2    1    2    0  501  0.22600609240E+03 -0.12269129274E+04  0.12817308579E+04  0.20577128531E+04  0.10173269427E+04 0.  0.
        -13    1    3    3    0    0 -0.38325495077E+03  0.58589209219E+02 -0.17183573298E+03  0.42408086849E+03  0.10566000000E+00 0.  1.
          4    1    3    3  502    0  0.15724885837E+03  0.11683237182E+04 -0.78173732721E+02  0.11814476910E+04  0.00000000000E+00 0.  1.
         13    1    4    4    0    0 -0.27604332042E+03 -0.90678696476E+03  0.10608747005E+04  0.14226445991E+04  0.10566000000E+00 0. -1.
         -4    1    4    4    0  501  0.50204941282E+03 -0.32012596269E+03  0.22085615742E+03  0.63506825394E+03  0.00000000000E+00 0. -1.
<mgrwt>
<rscale>  2 0.15978107E+04</rscale>
<asrwt>0</asrwt>
<pdfrwt beam="1">  1        2 0.36115098E+00 0.15978107E+04</pdfrwt>
<pdfrwt beam="2">  1       -2 0.20242462E+00 0.15978107E+04</pdfrwt>
<totfact> 0.62393768E-01</totfact>
</mgrwt>
</event>
<event>
 8    1  0.1449514E-005  0.1561586E+04  0.7818608E-02  0.8374912E-01
          2   -1    0    0  502    0  0.00000000000E+00  0.00000000000E+00  0.13387423368E+04  0.13387423368E+04  0.00000000000E+00 0. -1.
         -2   -1    0    0    0  501 -0.00000000000E+00 -0.00000000000E+00 -0.28378756311E+04  0.28378756311E+04  0.00000000000E+00 0.  1.
    9000010    2    1    2  502    0 -0.39520597503E+03 -0.11288818354E+04  0.50064543922E+03  0.16384188703E+04  0.10016030042E+04 0.  0.
   -9000010    2    1    2    0  501  0.39520597503E+03  0.11288818354E+04 -0.19997787336E+04  0.25381990975E+04  0.10063685778E+04 0.  0.
        -13    1    3    3    0    0 -0.51754587160E+02 -0.61001847451E+02 -0.26727914605E+03  0.27899447263E+03  0.10566000000E+00 0.  1.
          4    1    3    3  502    0 -0.34345138787E+03 -0.10678799879E+04  0.76792458527E+03  0.13594243977E+04  0.00000000000E+00 0.  1.
         13    1    4    4    0    0  0.52871171567E+03  0.12468317395E+04 -0.15726967788E+04  0.20754519108E+04  0.10566000000E+00 0. -1.
         -4    1    4    4    0  501 -0.13350574065E+03 -0.11794990416E+03 -0.42708195479E+03  0.46274718668E+03  0.00000000000E+00 0. -1.
<mgrwt>
<rscale>  2 0.15615859E+04</rscale>
<asrwt>0</asrwt>
<pdfrwt beam="1">  1        2 0.20596036E+00 0.15615859E+04</pdfrwt>
<pdfrwt beam="2">  1       -2 0.43659624E+00 0.15615859E+04</pdfrwt>
<totfact> 0.69730398E-02</totfact>
</mgrwt>
</event>
<event>
 8    1  0.1449514E-005  0.1398602E+04  0.7818608E-02  0.8470354E-01
         -2   -1    0    0    0  501 -0.00000000000E+00  0.00000000000E+00  0.11377037290E+04  0.11377037290E+04  0.00000000000E+00 0. -1.
          2   -1    0    0  502    0  0.00000000000E+00 -0.00000000000E+00 -0.21540310039E+04  0.21540310039E+04  0.00000000000E+00 0.  1.
    9000010    2    1    2  502    0  0.56969582029E+03 -0.77508889981E+03  0.23390135627E+03  0.14086288964E+04  0.10021024863E+04 0.  0.
   -9000010    2    1    2    0  501 -0.56969582029E+03  0.77508889981E+03 -0.12502286312E+04  0.18831058365E+04  0.10284453465E+04 0.  0.
        -13    1    3    3    0    0  0.21127443623E+03 -0.82243376762E+03  0.47606498292E+03  0.97348449841E+03  0.10566000000E+00 0.  1.
          4    1    3    3  502    0  0.35842138406E+03  0.47344867805E+02 -0.24216362665E+03  0.43514439802E+03  0.00000000000E+00 0.  1.
         13    1    4    4    0    0 -0.66858719597E+03  0.49396265828E+03 -0.13355513713E+04  0.15731196467E+04  0.10566000000E+00 0. -1.
         -4    1    4    4    0  501  0.98891375673E+02  0.28112624153E+03  0.85322740079E+02  0.30998618975E+03  0.00000000000E+00 0. -1.
<mgrwt>
<rscale>  2 0.13986021E+04</rscale>
<asrwt>0</asrwt>
<pdfrwt beam="2">  1        2 0.33138938E+00 0.13986021E+04</pdfrwt>
<pdfrwt beam="1">  1       -2 0.17503134E+00 0.13986021E+04</pdfrwt>
<totfact> 0.13782767E+00</totfact>
</mgrwt>
</event>
<event>
 8    1  0.1449514E-005  0.1506989E+04  0.7818608E-02  0.8405488E-01
         -2   -1    0    0    0  501 -0.00000000000E+00  0.00000000000E+00  0.10032753506E+04  0.10032753506E+04  0.00000000000E+00 0. -1.
          2   -1    0    0  502    0  0.00000000000E+00 -0.00000000000E+00 -0.24191425571E+04  0.24191425571E+04  0.00000000000E+00 0.  1.
    9000010    2    1    2  502    0  0.10912266104E+04  0.19917779131E+03 -0.11315866991E+04  0.18673349097E+04  0.98792909642E+03 0.  0.
   -9000010    2    1    2    0  501 -0.10912266104E+04 -0.19917779131E+03 -0.28428050744E+03  0.15550829980E+04  0.10521503771E+04 0.  0.
        -13    1    3    3    0    0  0.12539929556E+04  0.29078981393E+03 -0.90432461362E+03  0.15731687979E+04  0.10566000000E+00 0.  1.
          4    1    3    3  502    0 -0.16276634524E+03 -0.91612022621E+02 -0.22726208550E+03  0.29416611181E+03  0.00000000000E+00 0.  1.
         13    1    4    4    0    0 -0.25831124794E+03 -0.52372336408E+03  0.80740671995E+02  0.58951669203E+03  0.10566000000E+00 0. -1.
         -4    1    4    4    0  501 -0.83291536245E+03  0.32454557278E+03 -0.36502117943E+03  0.96556630599E+03  0.00000000000E+00 0. -1.
<mgrwt>
<rscale>  2 0.15069887E+04</rscale>
<asrwt>0</asrwt>
<pdfrwt beam="2">  1        2 0.37217578E+00 0.15069887E+04</pdfrwt>
<pdfrwt beam="1">  1       -2 0.15435005E+00 0.15069887E+04</pdfrwt>
<totfact> 0.14632094E+00</totfact>
</mgrwt>
</event>
<event>
 8    1  0.1449514E-005  0.1390379E+04  0.7818608E-02  0.8475520E-01
          1   -1    0    0  502    0  0.00000000000E+00  0.00000000000E+00  0.12815896836E+04  0.12815896836E+04  0.00000000000E+00 0. -1.
         -1   -1    0    0    0  501 -0.00000000000E+00 -0.00000000000E+00 -0.18067478510E+04  0.18067478510E+04  0.00000000000E+00 0.  1.
    9000010    2    1    2  502    0 -0.44786782753E+03  0.84574300198E+03  0.36364298445E+03  0.14445902890E+04  0.10191850012E+04 0.  0.
   -9000010    2    1    2    0  501  0.44786782753E+03 -0.84574300198E+03 -0.88880115182E+03  0.16437472456E+04  0.99803341803E+03 0.  0.
        -13    1    3    3    0    0 -0.24780782433E+03  0.77093788011E+03 -0.20654392573E+03  0.83571187451E+03  0.10566000000E+00 0.  1.
          4    1    3    3  502    0 -0.20006000320E+03  0.74805121876E+02  0.57018691018E+03  0.60887841453E+03  0.00000000000E+00 0.  1.
         13    1    4    4    0    0 -0.26747842581E+03 -0.49745219273E+03 -0.51634021456E+03  0.76525199814E+03  0.10566000000E+00 0. -1.
         -4    1    4    4    0  501  0.71534625334E+03 -0.34829080926E+03 -0.37246093726E+03  0.87849524743E+03  0.00000000000E+00 0. -1.
<mgrwt>
<rscale>  2 0.13903789E+04</rscale>
<asrwt>0</asrwt>
<pdfrwt beam="1">  1        1 0.19716764E+00 0.13903789E+04</pdfrwt>
<pdfrwt beam="2">  1       -1 0.27796121E+00 0.13903789E+04</pdfrwt>
<totfact> 0.30301403E-01</totfact>
</mgrwt>
</event>
<event>
 8    1  0.1449514E-005  0.1289630E+04  0.7818608E-02  0.8541962E-01
          2   -1    0    0  502    0  0.00000000000E+00  0.00000000000E+00  0.11577092527E+04  0.11577092527E+04  0.00000000000E+00 0.  1.
         -2   -1    0    0    0  501 -0.00000000000E+00 -0.00000000000E+00 -0.14396915568E+04  0.14396915568E+04  0.00000000000E+00 0. -1.
    9000010    2    1    2  502    0 -0.44419779540E+03  0.70134274670E+03 -0.80429961810E+02  0.12817183920E+04  0.97321103966E+03 0.  0.
   -9000010    2    1    2    0  501  0.44419779540E+03 -0.70134274670E+03 -0.20155234226E+03  0.13156824176E+04  0.10006015928E+04 0.  0.
        -13    1    3    3    0    0 -0.70917464890E+03  0.43204334329E+03  0.14322736635E+03  0.84267681988E+03  0.10566000000E+00 0.  1.
          4    1    3    3  502    0  0.26497685350E+03  0.26929940341E+03 -0.22365732816E+03  0.43904157207E+03  0.00000000000E+00 0.  1.
         13    1    4    4    0    0  0.46619446988E+03  0.11652381996E+03 -0.10467214385E+03  0.49180418179E+03  0.10566000000E+00 0. -1.
         -4    1    4    4    0  501 -0.21996674481E+02 -0.81786656666E+03 -0.96880198405E+02  0.82387823578E+03  0.00000000000E+00 0. -1.
<mgrwt>
<rscale>  2 0.12896299E+04</rscale>
<asrwt>0</asrwt>
<pdfrwt beam="1">  1        2 0.17810912E+00 0.12896299E+04</pdfrwt>
<pdfrwt beam="2">  1       -2 0.22149101E+00 0.12896299E+04</pdfrwt>
<totfact> 0.20404317E+00</totfact>
</mgrwt>
</event>
<event>
 8    1  0.1449514E-005  0.1162853E+04  0.7818608E-02  0.8635072E-01
          2   -1    0    0  502    0  0.00000000000E+00  0.00000000000E+00  0.29331721930E+04  0.29331721930E+04  0.00000000000E+00 0. -1.
         -2   -1    0    0    0  501 -0.00000000000E+00 -0.00000000000E+00 -0.94937791230E+03  0.94937791230E+03  0.00000000000E+00 0.  1.
    9000010    2    1    2  502    0  0.32228639435E+03  0.10579445190E+03 -0.43790832105E+03  0.11430482644E+04  0.99986731677E+03 0.  0.
   -9000010    2    1    2    0  501 -0.32228639435E+03 -0.10579445190E+03  0.24217026017E+04  0.27395018408E+04  0.12349760559E+04 0.  0.
        -13    1    3    3    0    0  0.66977338179E+03  0.16118770027E+03 -0.19666789602E+03  0.71641896273E+03  0.10566000000E+00 0.  1.
          4    1    3    3  502    0 -0.34748698744E+03 -0.55393248372E+02 -0.24124042503E+03  0.42662930171E+03  0.00000000000E+00 0.  1.
         13    1    4    4    0    0 -0.41649322855E+03 -0.90743286488E+02  0.12976306059E+03  0.44557762122E+03  0.10566000000E+00 0. -1.
         -4    1    4    4    0  501  0.94206834204E+02 -0.15051165408E+02  0.22919395411E+04  0.22939242196E+04  0.00000000000E+00 0. -1.
<mgrwt>
<rscale>  2 0.11628529E+04</rscale>
<asrwt>0</asrwt>
<pdfrwt beam="1">  1        2 0.45125726E+00 0.11628529E+04</pdfrwt>
<pdfrwt beam="2">  1       -2 0.14605814E+00 0.11628529E+04</pdfrwt>
<totfact> 0.90780629E-01</totfact>
</mgrwt>
</event>
<event>
 8    1  0.1449514E-005  0.1212594E+04  0.7818608E-02  0.8597138E-01
         -1   -1    0    0    0  501 -0.00000000000E+00  0.00000000000E+00  0.42245581030E+03  0.42245581030E+03  0.00000000000E+00 0.  1.
          1   -1    0    0  502    0  0.00000000000E+00 -0.00000000000E+00 -0.35592305478E+04  0.35592305478E+04  0.00000000000E+00 0. -1.
    9000010    2    1    2  502    0  0.37234174707E+03  0.65437669047E+03 -0.12199787258E+04  0.16853245718E+04  0.88607200121E+03 0.  0.
   -9000010    2    1    2    0  501 -0.37234174707E+03 -0.65437669047E+03 -0.19167960117E+04  0.22963617863E+04  0.10160331064E+04 0.  0.
        -13    1    3    3    0    0  0.25960576565E+02  0.19113763136E+03  0.11907312349E+03  0.22668472723E+03  0.10566000000E+00 0.  1.
          4    1    3    3  502    0  0.34638117051E+03  0.46323905911E+03 -0.13390518492E+04  0.14586398446E+04  0.00000000000E+00 0.  1.
         13    1    4    4    0    0 -0.33115784835E+02  0.24999478589E+03 -0.18269939428E+03  0.31140508669E+03  0.10566000000E+00 0. -1.
         -4    1    4    4    0  501 -0.33922596224E+03 -0.90437147636E+03 -0.17340966174E+04  0.19849566996E+04  0.00000000000E+00 0. -1.
<mgrwt>
<rscale>  2 0.12125943E+04</rscale>
<asrwt>0</asrwt>
<pdfrwt beam="2">  1        1 0.54757391E+00 0.12125943E+04</pdfrwt>
<pdfrwt beam="1">  1       -1 0.64993204E-01 0.12125943E+04</pdfrwt>
<totfact> 0.25001005E-01</totfact>
</mgrwt>
</event>
<event>
 8    1  0.1449514E-005  0.1293770E+04  0.7818608E-02  0.8539110E-01
         -2   -1    0    0    0  501 -0.00000000000E+00  0.00000000000E+00  0.49705590877E+03  0.49705590877E+03  0.00000000000E+00 0. -1.
          2   -1    0    0  502    0  0.00000000000E+00 -0.00000000000E+00 -0.33677651940E+04  0.33677651940E+04  0.00000000000E+00 0.  1.
    9000010    2    1    2  502    0 -0.57849372520E+03  0.60909106260E+03 -0.14361726953E+04  0.19271361331E+04  0.97242724767E+03 0.  0.
   -9000010    2    1    2    0  501  0.57849372520E+03 -0.60909106260E+03 -0.14345365899E+04  0.19376849697E+04  0.99553046224E+03 0.  0.
        -13    1    3    3    0    0  0.14744797240E+03  0.18463458416E+03 -0.89841840104E+03  0.92897065009E+03  0.10566000000E+00 0.  1.
          4    1    3    3  502    0 -0.72594169760E+03  0.42445647844E+03 -0.53775429424E+03  0.99816548297E+03  0.00000000000E+00 0.  1.
         13    1    4    4    0    0  0.86317066698E+03 -0.47759549803E+03 -0.11386288933E+04  0.15065313896E+04  0.10566000000E+00 0. -1.
         -4    1    4    4    0  501 -0.28467694178E+03 -0.13149556457E+03 -0.29590769664E+03  0.43115358008E+03  0.00000000000E+00 0. -1.
<mgrwt>
<rscale>  2 0.12937698E+04</rscale>
<asrwt>0</asrwt>
<pdfrwt beam="2">  1        2 0.51811770E+00 0.12937698E+04</pdfrwt>
<pdfrwt beam="1">  1       -2 0.76470144E-01 0.12937698E+04</pdfrwt>
<totfact> 0.23696699E+00</totfact>
</mgrwt>
</event>
<event>
 8    1  0.1449514E-005  0.1193780E+04  0.7818608E-02  0.8611261E-01
          2   -1    0    0  502    0  0.00000000000E+00  0.00000000000E+00  0.31342951239E+04  0.31342951239E+04  0.00000000000E+00 0. -1.
         -2   -1    0    0    0  501 -0.00000000000E+00 -0.00000000000E+00 -0.59043074925E+03  0.59043074925E+03  0.00000000000E+00 0.  1.
    9000010    2    1    2  502    0 -0.66666785018E+03  0.52957061856E+02  0.21607573786E+04  0.24661730779E+04  0.98279536442E+03 0.  0.
   -9000010    2    1    2    0  501  0.66666785018E+03 -0.52957061856E+02  0.38310699603E+03  0.12585527952E+04  0.99495411703E+03 0.  0.
        -13    1    3    3    0    0 -0.81716540110E+03 -0.22570649943E+03  0.17750118774E+04  0.19670714000E+04  0.10566000000E+00 0.  1.
          4    1    3    3  502    0  0.15049755092E+03  0.27866356128E+03  0.38574550117E+03  0.49910167791E+03  0.00000000000E+00 0.  1.
         13    1    4    4    0    0  0.42942822060E+03 -0.11348622717E+02 -0.30674992667E+03  0.52785690917E+03  0.10566000000E+00 0. -1.
         -4    1    4    4    0  501  0.23723962958E+03 -0.41608439140E+02  0.68985692270E+03  0.73069588602E+03  0.00000000000E+00 0. -1.
<mgrwt>
<rscale>  2 0.11937797E+04</rscale>
<asrwt>0</asrwt>
<pdfrwt beam="1">  1        2 0.48219924E+00 0.11937797E+04</pdfrwt>
<pdfrwt beam="2">  1       -2 0.90835502E-01 0.11937797E+04</pdfrwt>
<totfact> 0.23334085E+00</totfact>
</mgrwt>
</event>
<event>
 8    1  0.1449514E-005  0.1067907E+04  0.7818608E-02  0.8713278E-01
         -1   -1    0    0    0  501 -0.00000000000E+00  0.00000000000E+00  0.52554948388E+03  0.52554948388E+03  0.00000000000E+00 0.  1.
          1   -1    0    0  502    0  0.00000000000E+00 -0.00000000000E+00 -0.22027993375E+04  0.22027993375E+04  0.00000000000E+00 0. -1.
    9000010    2    1    2  502    0 -0.77109700471E+01  0.36242707683E+03 -0.10059744955E+04  0.14678773474E+04  0.10056174105E+04 0.  0.
   -9000010    2    1    2    0  501  0.77109700471E+01 -0.36242707683E+03 -0.67127535809E+03  0.12604714740E+04  0.10033767415E+04 0.  0.
        -13    1    3    3    0    0  0.41177186481E+03  0.23085460746E+03 -0.13299414740E+03  0.49044609576E+03  0.10566000000E+00 0.  1.
          4    1    3    3  502    0 -0.41948283486E+03  0.13157246937E+03 -0.87298034815E+03  0.97743125164E+03  0.00000000000E+00 0.  1.
         13    1    4    4    0    0 -0.21105267418E+03 -0.60773031057E+03 -0.67404183357E+03  0.93177881830E+03  0.10566000000E+00 0. -1.
         -4    1    4    4    0  501  0.21876364422E+03  0.24530323375E+03  0.27664754789E+01  0.32869265569E+03  0.00000000000E+00 0. -1.
<mgrwt>
<rscale>  2 0.10679074E+04</rscale>
<asrwt>0</asrwt>
<pdfrwt beam="2">  1        1 0.33889221E+00 0.10679074E+04</pdfrwt>
<pdfrwt beam="1">  1       -1 0.80853767E-01 0.10679074E+04</pdfrwt>
<totfact> 0.41335069E+00</totfact>
</mgrwt>
</event>
<event>
 8    1  0.1449514E-005  0.1536795E+04  0.7818608E-02  0.8388633E-01
         -2   -1    0    0    0  501 -0.00000000000E+00  0.00000000000E+00  0.74352639401E+03  0.74352639401E+03  0.00000000000E+00 0. -1.
          2   -1    0    0  502    0  0.00000000000E+00 -0.00000000000E+00 -0.32832193269E+04  0.32832193269E+04  0.00000000000E+00 0.  1.
    9000010    2    1    2  502    0 -0.11680540384E+04 -0.61299638823E+02 -0.16362839297E+04  0.22476604828E+04  0.10032171573E+04 0.  0.
   -9000010    2    1    2    0  501  0.11680540384E+04  0.61299638823E+02 -0.90340900314E+03  0.17790852381E+04  0.99039819018E+03 0.  0.
        -13    1    3    3    0    0 -0.42156166991E+03  0.14915904495E+03 -0.13479819407E+04  0.14202175840E+04  0.10566000000E+00 0.  1.
          4    1    3    3  502    0 -0.74649236854E+03 -0.21045868377E+03 -0.28830198900E+03  0.82744289877E+03  0.00000000000E+00 0.  1.
         13    1    4    4    0    0  0.33285693686E+03 -0.44059855261E+03 -0.25187636623E+03  0.60692877671E+03  0.10566000000E+00 0. -1.
         -4    1    4    4    0  501  0.83519710159E+03  0.50189819143E+03 -0.65153263691E+03  0.11721564614E+04  0.00000000000E+00 0. -1.
<mgrwt>
<rscale>  2 0.15367953E+04</rscale>
<asrwt>0</asrwt>
<pdfrwt beam="2">  1        2 0.50511067E+00 0.15367953E+04</pdfrwt>
<pdfrwt beam="1">  1       -2 0.11438868E+00 0.15367953E+04</pdfrwt>
<totfact> 0.10204669E+00</totfact>
</mgrwt>
</event>
<event>
 8    1  0.1449514E-005  0.1037760E+04  0.7818608E-02  0.8739900E-01
         -2   -1    0    0    0  501 -0.00000000000E+00  0.00000000000E+00  0.75433359678E+03  0.75433359678E+03  0.00000000000E+00 0.  1.
          2   -1    0    0  502    0  0.00000000000E+00 -0.00000000000E+00 -0.16723496673E+04  0.16723496673E+04  0.00000000000E+00 0. -1.
    9000010    2    1    2  502    0 -0.59609496014E+02  0.28234185486E+03 -0.92434953437E+03  0.13922313017E+04  0.10003078130E+04 0.  0.
   -9000010    2    1    2    0  501  0.59609496014E+02 -0.28234185486E+03  0.63334638193E+01  0.10344519624E+04  0.99336827751E+03 0.  0.
        -13    1    3    3    0    0  0.41543514629E+03 -0.76600675621E+02 -0.53138061213E+03  0.67883679216E+03  0.10566000000E+00 0.  1.
          4    1    3    3  502    0 -0.47504464231E+03  0.35894253048E+03 -0.39296892224E+03  0.71339450952E+03  0.00000000000E+00 0.  1.
         13    1    4    4    0    0  0.64157282564E+01  0.24587087100E+03 -0.32581329623E+03  0.40822538130E+03  0.10566000000E+00 0. -1.
         -4    1    4    4    0  501  0.53193767758E+02 -0.52821272586E+03  0.33214676005E+03  0.62622658112E+03  0.00000000000E+00 0. -1.
<mgrwt>
<rscale>  2 0.10377601E+04</rscale>
<asrwt>0</asrwt>
<pdfrwt beam="2">  1        2 0.25728456E+00 0.10377601E+04</pdfrwt>
<pdfrwt beam="1">  1       -2 0.11605132E+00 0.10377601E+04</pdfrwt>
<totfact> 0.88573017E+00</totfact>
</mgrwt>
</event>
<event>
 8    1  0.1449514E-005  0.1304797E+04  0.7818608E-02  0.8531567E-01
          4   -1    0    0  502    0  0.00000000000E+00  0.00000000000E+00  0.31197571487E+04  0.31197571487E+04  0.00000000000E+00 0.  1.
         -4   -1    0    0    0  501 -0.00000000000E+00 -0.00000000000E+00 -0.58017230375E+03  0.58017230375E+03  0.00000000000E+00 0. -1.
    9000010    2    1    2  502    0 -0.78646967631E+03 -0.30108573767E+03  0.82415424976E+03  0.15480462621E+04  0.10040068870E+04 0.  0.
   -9000010    2    1    2    0  501  0.78646967631E+03  0.30108573767E+03  0.17154305952E+04  0.21518831903E+04  0.98929872370E+03 0.  0.
        -13    1    3    3    0    0 -0.15465062074E+03 -0.27561679635E+03  0.85845728633E+03  0.91478432242E+03  0.10566000000E+00 0.  1.
          4    1    3    3  502    0 -0.63181905557E+03 -0.25468941320E+02 -0.34303036572E+02  0.63326193970E+03  0.00000000000E+00 0.  1.
         13    1    4    4    0    0  0.96014527025E+02  0.24109367863E+03  0.13375714684E+04  0.13625132644E+04  0.10566000000E+00 0. -1.
         -4    1    4    4    0  501  0.69045514929E+03  0.59992059036E+02  0.37785912676E+03  0.78936992595E+03  0.00000000000E+00 0. -1.
<mgrwt>
<rscale>  2 0.13047969E+04</rscale>
<asrwt>0</asrwt>
<pdfrwt beam="1">  1        4 0.47996263E+00 0.13047969E+04</pdfrwt>
<pdfrwt beam="2">  1       -4 0.89257279E-01 0.13047969E+04</pdfrwt>
<totfact> 0.75585392E-02</totfact>
</mgrwt>
</event>
<event>
 8    1  0.1449514E-005  0.1367249E+04  0.7818608E-02  0.8490250E-01
          2   -1    0    0  502    0  0.00000000000E+00  0.00000000000E+00  0.91992511458E+03  0.91992511458E+03  0.00000000000E+00 0.  1.
         -2   -1    0    0    0  501 -0.00000000000E+00 -0.00000000000E+00 -0.20857038537E+04  0.20857038537E+04  0.00000000000E+00 0. -1.
    9000010    2    1    2  502    0  0.70037159112E+03 -0.61818538928E+03 -0.34101081560E+03  0.14069297115E+04  0.99523328695E+03 0.  0.
   -9000010    2    1    2    0  501 -0.70037159112E+03  0.61818538928E+03 -0.82476792357E+03  0.15986992569E+04  0.10014607556E+04 0.  0.
        -13    1    3    3    0    0  0.16928856320E+03  0.25189412757E+03  0.63810653463E+02  0.31013074629E+03  0.10566000000E+00 0.  1.
          4    1    3    3  502    0  0.53108302792E+03 -0.87007951684E+03 -0.40482146906E+03  0.10967989652E+04  0.00000000000E+00 0.  1.
         13    1    4    4    0    0  0.51235664209E+02 -0.22934503317E+03 -0.17273909357E+03  0.29165569279E+03  0.10566000000E+00 0. -1.
         -4    1    4    4    0  501 -0.75160725533E+03  0.84753042245E+03 -0.65202883000E+03  0.13070435641E+04  0.00000000000E+00 0. -1.
<mgrwt>
<rscale>  2 0.13672489E+04</rscale>
<asrwt>0</asrwt>
<pdfrwt beam="1">  1        2 0.14152694E+00 0.13672489E+04</pdfrwt>
<pdfrwt beam="2">  1       -2 0.32087752E+00 0.13672489E+04</pdfrwt>
<totfact> 0.51954760E-01</totfact>
</mgrwt>
</event>
<event>
 8    1  0.1449514E-005  0.1044718E+04  0.7818608E-02  0.8733673E-01
          1   -1    0    0  502    0  0.00000000000E+00  0.00000000000E+00  0.12427415608E+04  0.12427415608E+04  0.00000000000E+00 0.  1.
         -1   -1    0    0    0  501 -0.00000000000E+00 -0.00000000000E+00 -0.88561235191E+03  0.88561235191E+03  0.00000000000E+00 0. -1.
    9000010    2    1    2  502    0 -0.16217397644E+03  0.24654419020E+03  0.82875861479E+02  0.10545807519E+04  0.10090528814E+04 0.  0.
   -9000010    2    1    2    0  501  0.16217397644E+03 -0.24654419020E+03  0.27425334743E+03  0.10737731608E+04  0.99533384651E+03 0.  0.
        -13    1    3    3    0    0  0.36411324414E+03 -0.43537618740E+02 -0.16802506388E+03  0.40336882882E+03  0.10566000000E+00 0.  1.
          4    1    3    3  502    0 -0.52628722058E+03  0.29008180894E+03  0.25090092536E+03  0.65121192308E+03  0.00000000000E+00 0.  1.
         13    1    4    4    0    0  0.20492843853E+02 -0.28789231062E+03 -0.33772306423E+03  0.44425085081E+03  0.10566000000E+00 0. -1.
         -4    1    4    4    0  501  0.14168113258E+03  0.41348120429E+02  0.61197641166E+03  0.62952231003E+03  0.00000000000E+00 0. -1.
<mgrwt>
<rscale>  2 0.10447183E+04</rscale>
<asrwt>0</asrwt>
<pdfrwt beam="1">  1        1 0.19119101E+00 0.10447183E+04</pdfrwt>
<pdfrwt beam="2">  1       -1 0.13624805E+00 0.10447183E+04</pdfrwt>
<totfact> 0.67233242E+00</totfact>
</mgrwt>
</event>
<event>
 8    1  0.1449514E-005  0.1175072E+04  0.7818608E-02  0.8625574E-01
         -2   -1    0    0    0  501 -0.00000000000E+00  0.00000000000E+00  0.66623260596E+03  0.66623260596E+03  0.00000000000E+00 0.  1.
          2   -1    0    0  502    0  0.00000000000E+00 -0.00000000000E+00 -0.22523297174E+04  0.22523297174E+04  0.00000000000E+00 0. -1.
    9000010    2    1    2  502    0  0.35451608901E+03  0.49824365001E+03 -0.38789346361E+03  0.12480566335E+04  0.10164918244E+04 0.  0.
   -9000010    2    1    2    0  501 -0.35451608901E+03 -0.49824365001E+03 -0.11982036478E+04  0.16705056899E+04  0.99043873413E+03 0.  0.
        -13    1    3    3    0    0 -0.24290929469E+03  0.16438602615E+03  0.19239523654E+03  0.35077575350E+03  0.10566000000E+00 0.  1.
          4    1    3    3  502    0  0.59742538370E+03  0.33385762386E+03 -0.58028870014E+03  0.89728088000E+03  0.00000000000E+00 0.  1.
         13    1    4    4    0    0  0.19752964946E+03 -0.50391896152E+03 -0.30726909593E+03  0.62238781373E+03  0.10566000000E+00 0. -1.
         -4    1    4    4    0  501 -0.55204573847E+03  0.56753115110E+01 -0.89093455190E+03  0.10481178761E+04  0.00000000000E+00 0. -1.
<mgrwt>
<rscale>  2 0.11750716E+04</rscale>
<asrwt>0</asrwt>
<pdfrwt beam="2">  1        2 0.34651227E+00 0.11750716E+04</pdfrwt>
<pdfrwt beam="1">  1       -2 0.10249732E+00 0.11750716E+04</pdfrwt>
<totfact> 0.57521741E+00</totfact>
</mgrwt>
</event>
<event>
 8    1  0.1449514E-005  0.1327711E+04  0.7818608E-02  0.8516136E-01
         -1   -1    0    0    0  501 -0.00000000000E+00  0.00000000000E+00  0.65816531918E+03  0.65816531918E+03  0.00000000000E+00 0. -1.
          1   -1    0    0  502    0  0.00000000000E+00 -0.00000000000E+00 -0.28038122903E+04  0.28038122903E+04  0.00000000000E+00 0.  1.
    9000010    2    1    2  502    0  0.88148555724E+03 -0.61568402935E+02 -0.70093842882E+03  0.14946397228E+04  0.98072716086E+03 0.  0.
   -9000010    2    1    2    0  501 -0.88148555724E+03  0.61568402935E+02 -0.14447085423E+04  0.19673378867E+04  0.10012133301E+04 0.  0.
        -13    1    3    3    0    0  0.23560684926E+03  0.42679662297E+03 -0.40066207841E+03  0.63102777834E+03  0.10566000000E+00 0.  1.
          4    1    3    3  502    0  0.64587870799E+03 -0.48836502591E+03 -0.30027635042E+03  0.86361194444E+03  0.00000000000E+00 0.  1.
         13    1    4    4    0    0 -0.71033535131E+02  0.42551772998E+03 -0.33737032864E+03  0.54765851719E+03  0.10566000000E+00 0. -1.
         -4    1    4    4    0  501 -0.81045202211E+03 -0.36394932704E+03 -0.11073382137E+04  0.14196793695E+04  0.00000000000E+00 0. -1.
<mgrwt>
<rscale>  2 0.13277114E+04</rscale>
<asrwt>0</asrwt>
<pdfrwt beam="2">  1        1 0.43135574E+00 0.13277114E+04</pdfrwt>
<pdfrwt beam="1">  1       -1 0.10125620E+00 0.13277114E+04</pdfrwt>
<totfact> 0.71852553E-01</totfact>
</mgrwt>
</event>
<event>
 8    1  0.1449514E-005  0.1155618E+04  0.7818608E-02  0.8640754E-01
          1   -1    0    0  502    0  0.00000000000E+00  0.00000000000E+00  0.16821501006E+04  0.16821501006E+04  0.00000000000E+00 0. -1.
         -1   -1    0    0    0  501 -0.00000000000E+00 -0.00000000000E+00 -0.12297296938E+04  0.12297296938E+04  0.00000000000E+00 0.  1.
    9000010    2    1    2  502    0 -0.20893553582E+03 -0.53447275014E+03  0.10931440783E+04  0.15917349412E+04  0.10046596280E+04 0.  0.
   -9000010    2    1    2    0  501  0.20893553582E+03  0.53447275014E+03 -0.64072367148E+03  0.13201448532E+04  0.10014691366E+04 0.  0.
        -13    1    3    3    0    0 -0.13549859359E+03  0.27742170616E+03  0.14434104889E+03  0.34081816482E+03  0.10566000000E+00 0.  1.
          4    1    3    3  502    0 -0.73436942236E+02 -0.81189445629E+03  0.94880302945E+03  0.12509167763E+04  0.00000000000E+00 0.  1.
         13    1    4    4    0    0  0.53767793008E+03  0.91585747725E+02 -0.11344337088E+03  0.55709506841E+03  0.10566000000E+00 0. -1.
         -4    1    4    4    0  501 -0.32874239426E+03  0.44288700241E+03 -0.52728030061E+03  0.76304978481E+03  0.00000000000E+00 0. -1.
<mgrwt>
<rscale>  2 0.11556176E+04</rscale>
<asrwt>0</asrwt>
<pdfrwt beam="1">  1        1 0.25879232E+00 0.11556176E+04</pdfrwt>
<pdfrwt beam="2">  1       -1 0.18918918E+00 0.11556176E+04</pdfrwt>
<totfact> 0.10810060E+00</totfact>
</mgrwt>
</event>
<event>
 8    1  0.1449514E-005  0.1215855E+04  0.7818608E-02  0.8594718E-01
          2   -1    0    0  502    0  0.00000000000E+00  0.00000000000E+00  0.23024058874E+04  0.23024058874E+04  0.00000000000E+00 0. -1.
         -2   -1    0    0    0  501 -0.00000000000E+00 -0.00000000000E+00 -0.68724587670E+03  0.68724587670E+03  0.00000000000E+00 0.  1.
    9000010    2    1    2  502    0  0.25570240413E+03 -0.65478594945E+03  0.11833890292E+04  0.16884390790E+04  0.97790008180E+03 0.  0.
   -9000010    2    1    2    0  501 -0.25570240413E+03  0.65478594945E+03  0.43177098151E+03  0.13012126851E+04  0.10062802355E+04 0.  0.
        -13    1    3    3    0    0  0.49388638788E+02 -0.27018561310E+03  0.12199312508E+04  0.12504686206E+04  0.10566000000E+00 0.  1.
          4    1    3    3  502    0  0.20631376534E+03 -0.38460033635E+03 -0.36542221622E+02  0.43797045842E+03  0.00000000000E+00 0.  1.
         13    1    4    4    0    0 -0.54294513855E+03  0.49085885027E+03  0.58473192638E+03  0.93682616918E+03  0.10566000000E+00 0. -1.
         -4    1    4    4    0  501  0.28724273442E+03  0.16392709918E+03 -0.15296094487E+03  0.36438651592E+03  0.00000000000E+00 0. -1.
<mgrwt>
<rscale>  2 0.12158555E+04</rscale>
<asrwt>0</asrwt>
<pdfrwt beam="1">  1        2 0.35421629E+00 0.12158555E+04</pdfrwt>
<pdfrwt beam="2">  1       -2 0.10573014E+00 0.12158555E+04</pdfrwt>
<totfact> 0.49802558E+00</totfact>
</mgrwt>
</event>
<event>
 8    1  0.1449514E-005  0.1321381E+04  0.7818608E-02  0.8520367E-01
          2   -1    0    0  502    0  0.00000000000E+00  0.00000000000E+00  0.29820342405E+04  0.29820342405E+04  0.00000000000E+00 0.  1.
         -2   -1    0    0    0  501 -0.00000000000E+00 -0.00000000000E+00 -0.59535479772E+03  0.59535479772E+03  0.00000000000E+00 0. -1.
    9000010    2    1    2  502    0  0.94292130995E+01 -0.85627167768E+03  0.96468770709E+03  0.16371543973E+04  0.10081478325E+04 0.  0.
   -9000010    2    1    2    0  501 -0.94292130995E+01  0.85627167768E+03  0.14219917357E+04  0.19402346409E+04  0.10045694946E+04 0.  0.
        -13    1    3    3    0    0  0.32376056423E+03 -0.11377621302E+03  0.71499794777E+03  0.79308764085E+03  0.10566000000E+00 0.  1.
          4    1    3    3  502    0 -0.31433135113E+03 -0.74249546467E+03  0.24968975932E+03  0.84406675640E+03  0.00000000000E+00 0.  1.
         13    1    4    4    0    0 -0.18721511240E+03  0.18466741713E+02 -0.85340010835E+02  0.20657552487E+03  0.10566000000E+00 0. -1.
         -4    1    4    4    0  501  0.17778589931E+03  0.83780493597E+03  0.15073317465E+04  0.17336591161E+04  0.00000000000E+00 0. -1.
<mgrwt>
<rscale>  2 0.13213808E+04</rscale>
<asrwt>0</asrwt>
<pdfrwt beam="1">  1        2 0.45877449E+00 0.13213808E+04</pdfrwt>
<pdfrwt beam="2">  1       -2 0.91593047E-01 0.13213808E+04</pdfrwt>
<totfact> 0.28052634E+00</totfact>
</mgrwt>
</event>
<event>
 8    1  0.1449514E-005  0.1657144E+04  0.7818608E-02  0.8324391E-01
         -1   -1    0    0    0  501 -0.00000000000E+00  0.00000000000E+00  0.13499042697E+04  0.13499042697E+04  0.00000000000E+00 0.  1.
          1   -1    0    0  502    0  0.00000000000E+00 -0.00000000000E+00 -0.20491741472E+04  0.20491741472E+04  0.00000000000E+00 0. -1.
    9000010    2    1    2  502    0 -0.95767669536E+03 -0.85588139409E+03 -0.48350023763E+03  0.16949926498E+04  0.99476127255E+03 0.  0.
   -9000010    2    1    2    0  501  0.95767669536E+03  0.85588139409E+03 -0.21576963981E+03  0.17040857671E+04  0.10989422873E+04 0.  0.
        -13    1    3    3    0    0 -0.68615277926E+03 -0.13977301094E+02  0.12066809959E+01  0.68629619603E+03  0.10566000000E+00 0.  1.
          4    1    3    3  502    0 -0.27152391610E+03 -0.84190409300E+03 -0.48470691863E+03  0.10086964537E+04  0.00000000000E+00 0.  1.
         13    1    4    4    0    0  0.11529191659E+04  0.62316136757E+03  0.33724774853E+02  0.13109882016E+04  0.10566000000E+00 0. -1.
         -4    1    4    4    0  501 -0.19524247057E+03  0.23272002652E+03 -0.24949441466E+03  0.39309756551E+03  0.00000000000E+00 0. -1.
<mgrwt>
<rscale>  2 0.16571436E+04</rscale>
<asrwt>0</asrwt>
<pdfrwt beam="2">  1        1 0.31525756E+00 0.16571436E+04</pdfrwt>
<pdfrwt beam="1">  1       -1 0.20767758E+00 0.16571436E+04</pdfrwt>
<totfact> 0.36485224E-01</totfact>
</mgrwt>
</event>
<event>
 8    1  0.1449514E-005  0.1238557E+04  0.7818608E-02  0.8578080E-01
          1   -1    0    0  502    0  0.00000000000E+00  0.00000000000E+00  0.27237840122E+04  0.27237840122E+04  0.00000000000E+00 0.  1.
         -1   -1    0    0    0  501 -0.00000000000E+00 -0.00000000000E+00 -0.60230990102E+03  0.60230990102E+03  0.00000000000E+00 0. -1.
    9000010    2    1    2  502    0  0.45793870213E+03  0.57906452891E+03  0.14798195198E+04  0.19260270891E+04  0.98726437852E+03 0.  0.
   -9000010    2    1    2    0  501 -0.45793870213E+03 -0.57906452891E+03  0.64165459139E+03  0.14000668242E+04  0.10017199778E+04 0.  0.
        -13    1    3    3    0    0  0.56838905175E+01 -0.12789017895E+03  0.89263701981E+03  0.90176996223E+03  0.10566000000E+00 0.  1.
          4    1    3    3  502    0  0.45225481161E+03  0.70695470786E+03  0.58718250000E+03  0.10242571268E+04  0.00000000000E+00 0.  1.
         13    1    4    4    0    0  0.16128414709E+03 -0.59297803944E+03  0.41022102793E+03  0.73886185060E+03  0.10566000000E+00 0. -1.
         -4    1    4    4    0  501 -0.61922284922E+03  0.13913510526E+02  0.23143356346E+03  0.66120497357E+03  0.00000000000E+00 0. -1.
<mgrwt>
<rscale>  2 0.12385569E+04</rscale>
<asrwt>0</asrwt>
<pdfrwt beam="1">  1        1 0.41904369E+00 0.12385569E+04</pdfrwt>
<pdfrwt beam="2">  1       -1 0.92663063E-01 0.12385569E+04</pdfrwt>
<totfact> 0.10550997E+00</totfact>
</mgrwt>
</event>
<event>
 8    1  0.1449514E-005  0.1214785E+04  0.7818608E-02  0.8595511E-01
         -2   -1    0    0    0  501 -0.00000000000E+00  0.00000000000E+00  0.35983358918E+04  0.35983358918E+04  0.00000000000E+00 0.  1.
          2   -1    0    0  502    0  0.00000000000E+00 -0.00000000000E+00 -0.41033489296E+03  0.41033489296E+03  0.00000000000E+00 0. -1.
    9000010    2    1    2  502    0  0.78554184001E+01 -0.65940377746E+03  0.16538373068E+04  0.20643901792E+04  0.10448224371E+04 0.  0.
   -9000010    2    1    2    0  501 -0.78554184001E+01  0.65940377746E+03  0.15341636920E+04  0.19442806056E+04  0.99583823485E+03 0.  0.
        -13    1    3    3    0    0  0.21618103899E+03 -0.88406689085E+03  0.13821978593E+04  0.16549258118E+04  0.10566000000E+00 0.  1.
          4    1    3    3  502    0 -0.20832562059E+03  0.22466311339E+03  0.27163944750E+03  0.40946436737E+03  0.00000000000E+00 0.  1.
         13    1    4    4    0    0  0.38506392695E+03  0.53191120750E+03  0.48389310948E+03  0.81569376182E+03  0.10566000000E+00 0. -1.
         -4    1    4    4    0  501 -0.39291934535E+03  0.12749256996E+03  0.10502705826E+04  0.11285868438E+04  0.00000000000E+00 0. -1.
<mgrwt>
<rscale>  2 0.12147851E+04</rscale>
<asrwt>0</asrwt>
<pdfrwt beam="2">  1        2 0.63128447E-01 0.12147851E+04</pdfrwt>
<pdfrwt beam="1">  1       -2 0.55359012E+00 0.12147851E+04</pdfrwt>
<totfact> 0.42288916E-01</totfact>
</mgrwt>
</event>
<event>
 8    1  0.1449514E-005  0.1236108E+04  0.7818608E-02  0.8579857E-01
          1   -1    0    0  502    0  0.00000000000E+00  0.00000000000E+00  0.36034632478E+04  0.36034632478E+04  0.00000000000E+00 0. -1.
         -1   -1    0    0    0  501 -0.00000000000E+00 -0.00000000000E+00 -0.57530939418E+03  0.57530939418E+03  0.00000000000E+00 0.  1.
    9000010    2    1    2  502    0 -0.18844487314E+03  0.69046477537E+03  0.44235084323E+03  0.13125628692E+04  0.10074194464E+04 0.  0.
   -9000010    2    1    2    0  501  0.18844487314E+03 -0.69046477537E+03  0.25858030104E+04  0.28662097727E+04  0.10082302201E+04 0.  0.
        -13    1    3    3    0    0 -0.11100296346E+03 -0.22478090207E+03 -0.70698930558E+02  0.26047353374E+03  0.10566000000E+00 0.  1.
          4    1    3    3  502    0 -0.77441909686E+02  0.91524567744E+03  0.51304977379E+03  0.10520893355E+04  0.00000000000E+00 0.  1.
         13    1    4    4    0    0 -0.29192479384E+03  0.94142706493E+02  0.50088975269E+03  0.58734443894E+03  0.10566000000E+00 0. -1.
         -4    1    4    4    0  501  0.48036966698E+03 -0.78460748187E+03  0.20849132577E+04  0.22788653338E+04  0.00000000000E+00 0. -1.
<mgrwt>
<rscale>  2 0.12361084E+04</rscale>
<asrwt>0</asrwt>
<pdfrwt beam="1">  1        1 0.55437895E+00 0.12361084E+04</pdfrwt>
<pdfrwt beam="2">  1       -1 0.88509139E-01 0.12361084E+04</pdfrwt>
<totfact> 0.12587465E-01</totfact>
</mgrwt>
</event>
<event>
 8    1  0.1449514E-005  0.1370665E+04  0.7818608E-02  0.8488056E-01
          2   -1    0    0  502    0  0.00000000000E+00  0.00000000000E+00  0.34037857129E+04  0.34037857129E+04  0.00000000000E+00 0.  1.
         -2   -1    0    0    0  501 -0.00000000000E+00 -0.00000000000E+00 -0.56272591609E+03  0.56272591609E+03  0.00000000000E+00 0. -1.
    9000010    2    1    2  502    0 -0.21670567740E+02  0.96172505510E+03  0.11297249640E+04  0.17630613285E+04  0.95221954341E+03 0.  0.
   -9000010    2    1    2    0  501  0.21670567740E+02 -0.96172505510E+03  0.17113348328E+04  0.22034503004E+04  0.10005706478E+04 0.  0.
        -13    1    3    3    0    0 -0.24634196150E+03  0.91481217220E+03  0.11944828884E+04  0.15245835675E+04  0.10566000000E+00 0.  1.
          4    1    3    3  502    0  0.22467139376E+03  0.46912882899E+02 -0.64757924395E+02  0.23847776108E+03  0.00000000000E+00 0.  1.
         13    1    4    4    0    0  0.30523042803E+03  0.73965437031E+02  0.39958665231E+03  0.50823813704E+03  0.10566000000E+00 0. -1.
         -4    1    4    4    0  501 -0.28355986029E+03 -0.10356904921E+04  0.13117481805E+04  0.16952121634E+04  0.00000000000E+00 0. -1.
<mgrwt>
<rscale>  2 0.13706653E+04</rscale>
<asrwt>0</asrwt>
<pdfrwt beam="1">  1        2 0.52365933E+00 0.13706653E+04</pdfrwt>
<pdfrwt beam="2">  1       -2 0.86573219E-01 0.13706653E+04</pdfrwt>
<totfact> 0.16842947E+00</totfact>
</mgrwt>
</event>
<event>
 8    1  0.1449514E-005  0.1126997E+04  0.7818608E-02  0.8663661E-01
          5   -1    0    0  502    0  0.00000000000E+00  0.00000000000E+00  0.16152177846E+04  0.16152177846E+04  0.00000000000E+00 0.  1.
         -5   -1    0    0    0  501 -0.00000000000E+00 -0.00000000000E+00 -0.93263622429E+03  0.93263622429E+03  0.00000000000E+00 0. -1.
    9000010    2    1    2  502    0  0.52553074023E+03 -0.39411604266E+03  0.85872220252E+03  0.15185034934E+04  0.10662734285E+04 0.  0.
   -9000010    2    1    2    0  501 -0.52553074023E+03  0.39411604266E+03 -0.17614064217E+03  0.10293505155E+04  0.77267518663E+03 0.  0.
        -13    1    3    3    0    0  0.27091769264E+03  0.24791944508E+03 -0.56877416627E+02  0.37161202769E+03  0.10566000000E+00 0.  1.
          4    1    3    3  502    0  0.25461304758E+03 -0.64203548773E+03  0.91559961914E+03  0.11468914657E+04  0.00000000000E+00 0.  1.
         13    1    4    4    0    0 -0.53657624280E+03  0.37727470676E+02 -0.34062412624E+03  0.63668063652E+03  0.10566000000E+00 0. -1.
         -4    1    4    4    0  501  0.11045502574E+02  0.35638857198E+03  0.16448348407E+03  0.39266987903E+03  0.00000000000E+00 0. -1.
<mgrwt>
<rscale>  2 0.11269965E+04</rscale>
<asrwt>0</asrwt>
<pdfrwt beam="1">  1        5 0.24849504E+00 0.11269965E+04</pdfrwt>
<pdfrwt beam="2">  1       -5 0.14348250E+00 0.11269965E+04</pdfrwt>
<totfact> 0.49878262E-03</totfact>
</mgrwt>
</event>
<event>
 8    1  0.1449514E-005  0.1633046E+04  0.7818608E-02  0.8336793E-01
          2   -1    0    0  502    0  0.00000000000E+00  0.00000000000E+00  0.38230472608E+04  0.38230472608E+04  0.00000000000E+00 0. -1.
         -2   -1    0    0    0  501 -0.00000000000E+00 -0.00000000000E+00 -0.75886229184E+03  0.75886229184E+03  0.00000000000E+00 0.  1.
    9000010    2    1    2  502    0 -0.12498544847E+04 -0.33157236284E+03  0.21878724847E+04  0.27334254587E+04  0.10063559332E+04 0.  0.
   -9000010    2    1    2    0  501  0.12498544847E+04  0.33157236284E+03  0.87631248426E+03  0.18484840939E+04  0.98837918374E+03 0.  0.
        -13    1    3    3    0    0 -0.11453757325E+04  0.60242168593E+02  0.11731072531E+04  0.16406386946E+04  0.10566000000E+00 0.  1.
          4    1    3    3  502    0 -0.10447875215E+03 -0.39181453143E+03  0.10147652316E+04  0.10927867641E+04  0.00000000000E+00 0.  1.
         13    1    4    4    0    0  0.96428838691E+03  0.55251759832E+03  0.27141908573E+03  0.11440262763E+04  0.10566000000E+00 0. -1.
         -4    1    4    4    0  501  0.28556609776E+03 -0.22094523548E+03  0.60489339852E+03  0.70445781765E+03  0.00000000000E+00 0. -1.
<mgrwt>
<rscale>  2 0.16330459E+04</rscale>
<asrwt>0</asrwt>
<pdfrwt beam="1">  1        2 0.58816110E+00 0.16330459E+04</pdfrwt>
<pdfrwt beam="2">  1       -2 0.11674805E+00 0.16330459E+04</pdfrwt>
<totfact> 0.37053864E-01</totfact>
</mgrwt>
</event>
<event>
 8    1  0.1449514E-005  0.1142702E+04  0.7818608E-02  0.8651005E-01
          2   -1    0    0  502    0  0.00000000000E+00  0.00000000000E+00  0.13049744752E+04  0.13049744752E+04  0.00000000000E+00 0. -1.
         -2   -1    0    0    0  501 -0.00000000000E+00 -0.00000000000E+00 -0.11517115911E+04  0.11517115911E+04  0.00000000000E+00 0.  1.
    9000010    2    1    2  502    0 -0.33731873667E+03 -0.27945475458E+03  0.52150858476E+03  0.12992873252E+04  0.11064797600E+04 0.  0.
   -9000010    2    1    2    0  501  0.33731873667E+03  0.27945475458E+03 -0.36824570067E+03  0.11573987411E+04  0.10060258743E+04 0.  0.
        -13    1    3    3    0    0  0.43043752663E+02  0.40465895591E+03  0.19331628154E+03  0.45052506158E+03  0.10566000000E+00 0.  1.
          4    1    3    3  502    0 -0.38036248933E+03 -0.68411371049E+03  0.32819230323E+03  0.84876226358E+03  0.00000000000E+00 0.  1.
         13    1    4    4    0    0  0.56747394463E+03 -0.30441206400E+02 -0.49237048901E+03  0.75191891484E+03  0.10566000000E+00 0. -1.
         -4    1    4    4    0  501 -0.23015520796E+03  0.30989596098E+03  0.12412478834E+03  0.40547982621E+03  0.00000000000E+00 0. -1.
<mgrwt>
<rscale>  2 0.11427020E+04</rscale>
<asrwt>0</asrwt>
<pdfrwt beam="1">  1        2 0.20076530E+00 0.11427020E+04</pdfrwt>
<pdfrwt beam="2">  1       -2 0.17718640E+00 0.11427020E+04</pdfrwt>
<totfact> 0.39689883E+00</totfact>
</mgrwt>
</event>
<event>
 8    1  0.1449514E-005  0.1262700E+04  0.7818608E-02  0.8560786E-01
         -2   -1    0    0    0  501 -0.00000000000E+00  0.00000000000E+00  0.15359910165E+04  0.15359910165E+04  0.00000000000E+00 0. -1.
          2   -1    0    0  502    0  0.00000000000E+00 -0.00000000000E+00 -0.10388439490E+04  0.10388439490E+04  0.00000000000E+00 0.  1.
    9000010    2    1    2  502    0  0.74709466510E+03 -0.23407215848E+03  0.28365839325E+03  0.12908296698E+04  0.98632597979E+03 0.  0.
   -9000010    2    1    2    0  501 -0.74709466510E+03  0.23407215848E+03  0.21348867426E+03  0.12840052956E+04  0.99506380253E+03 0.  0.
        -13    1    3    3    0    0  0.83722983196E+03  0.14333816556E+03  0.81529525046E+02  0.85331512107E+03  0.10566000000E+00 0.  1.
          4    1    3    3  502    0 -0.90135166862E+02 -0.37741032404E+03  0.20212886820E+03  0.43751454874E+03  0.00000000000E+00 0.  1.
         13    1    4    4    0    0  0.75650793176E+02  0.25914027142E+02 -0.28755546232E+03  0.29846730874E+03  0.10566000000E+00 0. -1.
         -4    1    4    4    0  501 -0.82274545827E+03  0.20815813134E+03  0.50104413658E+03  0.98553798686E+03  0.00000000000E+00 0. -1.
<mgrwt>
<rscale>  2 0.12627003E+04</rscale>
<asrwt>0</asrwt>
<pdfrwt beam="2">  1        2 0.15982215E+00 0.12627003E+04</pdfrwt>
<pdfrwt beam="1">  1       -2 0.23630631E+00 0.12627003E+04</pdfrwt>
<totfact> 0.18291445E+00</totfact>
</mgrwt>
</event>
<event>
 8    1  0.1449514E-005  0.1550288E+04  0.7818608E-02  0.8381132E-01
         -2   -1    0    0    0  501 -0.00000000000E+00  0.00000000000E+00  0.83106875657E+03  0.83106875657E+03  0.00000000000E+00 0. -1.
          2   -1    0    0  502    0  0.00000000000E+00 -0.00000000000E+00 -0.31367828011E+04  0.31367828011E+04  0.00000000000E+00 0.  1.
    9000010    2    1    2  502    0  0.95002784099E+03 -0.70583256752E+03 -0.59315223544E+03  0.16524020847E+04  0.98886326823E+03 0.  0.
   -9000010    2    1    2    0  501 -0.95002784099E+03  0.70583256752E+03 -0.17125618091E+04  0.23154494729E+04  0.10137483907E+04 0.  0.
        -13    1    3    3    0    0  0.57800260562E+02 -0.37532928599E+03 -0.58913116906E+03  0.70091974474E+03  0.10566000000E+00 0.  1.
          4    1    3    3  502    0  0.89222758042E+03 -0.33050328153E+03 -0.40210663813E+01  0.95148234001E+03  0.00000000000E+00 0.  1.
         13    1    4    4    0    0 -0.73627147406E+03  0.42461656283E+03 -0.36962184442E+03  0.92683074398E+03  0.10566000000E+00 0. -1.
         -4    1    4    4    0  501 -0.21375636692E+03  0.28121600469E+03 -0.13429399647E+04  0.13886187289E+04  0.00000000000E+00 0. -1.
<mgrwt>
<rscale>  2 0.15502876E+04</rscale>
<asrwt>0</asrwt>
<pdfrwt beam="2">  1        2 0.48258195E+00 0.15502876E+04</pdfrwt>
<pdfrwt beam="1">  1       -2 0.12785674E+00 0.15502876E+04</pdfrwt>
<totfact> 0.94441800E-01</totfact>
</mgrwt>
</event>
<event>
 8    1  0.1449514E-005  0.1172691E+04  0.7818608E-02  0.8627415E-01
         -1   -1    0    0    0  501 -0.00000000000E+00  0.00000000000E+00  0.88451002840E+03  0.88451002840E+03  0.00000000000E+00 0.  1.
          1   -1    0    0  502    0  0.00000000000E+00 -0.00000000000E+00 -0.20003197780E+04  0.20003197780E+04  0.00000000000E+00 0. -1.
    9000010    2    1    2  502    0 -0.20775265456E+03  0.54362616145E+03  0.12793005071E+03  0.11655023508E+04  0.10016681402E+04 0.  0.
   -9000010    2    1    2    0  501  0.20775265456E+03 -0.54362616145E+03 -0.12437398003E+04  0.17193274556E+04  0.10346533911E+04 0.  0.
        -13    1    3    3    0    0 -0.21331164997E+03 -0.13357189287E+03  0.36899571201E+03  0.44665552412E+03  0.10566000000E+00 0.  1.
          4    1    3    3  502    0  0.55589954149E+01  0.67719805432E+03 -0.24106566131E+03  0.71884682671E+03  0.00000000000E+00 0.  1.
         13    1    4    4    0    0 -0.36899129095E+03 -0.26862850356E+03 -0.86105652612E+03  0.97454307143E+03  0.10566000000E+00 0. -1.
         -4    1    4    4    0  501  0.57674394551E+03 -0.27499765789E+03 -0.38268327419E+03  0.74478438415E+03  0.00000000000E+00 0. -1.
<mgrwt>
<rscale>  2 0.11726909E+04</rscale>
<asrwt>0</asrwt>
<pdfrwt beam="2">  1        1 0.30774150E+00 0.11726909E+04</pdfrwt>
<pdfrwt beam="1">  1       -1 0.13607847E+00 0.11726909E+04</pdfrwt>
<totfact> 0.17997697E+00</totfact>
</mgrwt>
</event>
<event>
 8    1  0.1449514E-005  0.1109571E+04  0.7818608E-02  0.8677957E-01
          1   -1    0    0  502    0  0.00000000000E+00  0.00000000000E+00  0.13960778566E+04  0.13960778566E+04  0.00000000000E+00 0.  1.
         -1   -1    0    0    0  501 -0.00000000000E+00 -0.00000000000E+00 -0.10915560749E+04  0.10915560749E+04  0.00000000000E+00 0. -1.
    9000010    2    1    2  502    0 -0.42135809341E+03 -0.24209773577E+03  0.69692112846E+03  0.13066130373E+04  0.99266540856E+03 0.  0.
   -9000010    2    1    2    0  501  0.42135809341E+03  0.24209773577E+03 -0.39239934678E+03  0.11810208942E+04  0.10023368438E+04 0.  0.
        -13    1    3    3    0    0 -0.65429416167E+03 -0.75234372301E+02  0.12988283270E+03  0.67129026670E+03  0.10566000000E+00 0.  1.
          4    1    3    3  502    0  0.23293606826E+03 -0.16686336347E+03  0.56703829576E+03  0.63532277059E+03  0.00000000000E+00 0.  1.
         13    1    4    4    0    0 -0.29074385520E+03  0.13418542287E+03  0.66458834025E+02  0.32703899588E+03  0.10566000000E+00 0. -1.
         -4    1    4    4    0  501  0.71210194861E+03  0.10791231290E+03 -0.45885818081E+03  0.85398189827E+03  0.00000000000E+00 0. -1.
<mgrwt>
<rscale>  2 0.11095711E+04</rscale>
<asrwt>0</asrwt>
<pdfrwt beam="1">  1        1 0.21478121E+00 0.11095711E+04</pdfrwt>
<pdfrwt beam="2">  1       -1 0.16793171E+00 0.11095711E+04</pdfrwt>
<totfact> 0.27195216E+00</totfact>
</mgrwt>
</event>
<event>
 8    1  0.1449514E-005  0.1050046E+04  0.7818608E-02  0.8728939E-01
          2   -1    0    0  502    0  0.00000000000E+00  0.00000000000E+00  0.20400645126E+04  0.20400645126E+04  0.00000000000E+00 0. -1.
         -2   -1    0    0    0  501 -0.00000000000E+00 -0.00000000000E+00 -0.54708451673E+03  0.54708451673E+03  0.00000000000E+00 0.  1.
    9000010    2    1    2  502    0 -0.32154678052E+03  0.13368689601E+03  0.61468570151E+03  0.12284357746E+04  0.10049633936E+04 0.  0.
   -9000010    2    1    2    0  501  0.32154678052E+03 -0.13368689601E+03  0.87829429437E+03  0.13587132548E+04  0.97644063974E+03 0.  0.
        -13    1    3    3    0    0 -0.21869018431E+03 -0.43225002637E+03  0.33393768407E+03  0.58837052103E+03  0.10566000000E+00 0.  1.
          4    1    3    3  502    0 -0.10285659621E+03  0.56593692238E+03  0.28074801745E+03  0.64006525354E+03  0.00000000000E+00 0.  1.
         13    1    4    4    0    0  0.51902212985E+03 -0.42553900351E+03  0.67501960996E+03  0.95190277854E+03  0.10566000000E+00 0. -1.
         -4    1    4    4    0  501 -0.19747534934E+03  0.29185210750E+03  0.20327468441E+03  0.40681047623E+03  0.00000000000E+00 0. -1.
<mgrwt>
<rscale>  2 0.10500459E+04</rscale>
<asrwt>0</asrwt>
<pdfrwt beam="1">  1        2 0.31385608E+00 0.10500459E+04</pdfrwt>
<pdfrwt beam="2">  1       -2 0.84166849E-01 0.10500459E+04</pdfrwt>
<totfact> 0.12066112E+01</totfact>
</mgrwt>
</event>
<event>
 8    1  0.1449514E-005  0.1459776E+04  0.7818608E-02  0.8433032E-01
         -2   -1    0    0    0  501 -0.00000000000E+00  0.00000000000E+00  0.15752928389E+04  0.15752928389E+04  0.00000000000E+00 0. -1.
          2   -1    0    0  502    0  0.00000000000E+00 -0.00000000000E+00 -0.14131737807E+04  0.14131737807E+04  0.00000000000E+00 0.  1.
    9000010    2    1    2  502    0 -0.10417060715E+04  0.24932467427E+03 -0.22737055682E+03  0.14860832916E+04  0.10047048556E+04 0.  0.
   -9000010    2    1    2    0  501  0.10417060715E+04 -0.24932467427E+03  0.38948961500E+03  0.15023833280E+04  0.97884583643E+03 0.  0.
        -13    1    3    3    0    0 -0.98610479881E+03 -0.11211374854E+03 -0.41421117227E+03  0.10754269260E+04  0.10566000000E+00 0.  1.
          4    1    3    3  502    0 -0.55601272684E+02  0.36143842281E+03  0.18684061545E+03  0.41065636558E+03  0.00000000000E+00 0.  1.
         13    1    4    4    0    0  0.27151668449E+03  0.33553777665E+03 -0.60284278913E+02  0.43582234335E+03  0.10566000000E+00 0. -1.
         -4    1    4    4    0  501  0.77018938700E+03 -0.58486245092E+03  0.44977389392E+03  0.10665609847E+04  0.00000000000E+00 0. -1.
<mgrwt>
<rscale>  2 0.14597758E+04</rscale>
<asrwt>0</asrwt>
<pdfrwt beam="2">  1        2 0.21741135E+00 0.14597758E+04</pdfrwt>
<pdfrwt beam="1">  1       -2 0.24235274E+00 0.14597758E+04</pdfrwt>
<totfact> 0.98073777E-01</totfact>
</mgrwt>
</event>
<event>
 8    1  0.1449514E-005  0.1424188E+04  0.7818608E-02  0.8454511E-01
          2   -1    0    0  502    0  0.00000000000E+00  0.00000000000E+00  0.18520886366E+04  0.18520886366E+04  0.00000000000E+00 0. -1.
         -2   -1    0    0    0  501 -0.00000000000E+00 -0.00000000000E+00 -0.12671665283E+04  0.12671665283E+04  0.00000000000E+00 0.  1.
    9000010    2    1    2  502    0 -0.49992789441E+03  0.86478553412E+03 -0.28244548675E+03  0.14504120366E+04  0.10129845524E+04 0.  0.
   -9000010    2    1    2    0  501  0.49992789441E+03 -0.86478553412E+03  0.86736759507E+03  0.16688431283E+04  0.10173145640E+04 0.  0.
        -13    1    3    3    0    0 -0.42915360853E+03  0.10711002714E+04 -0.37526948803E+03  0.12133654894E+04  0.10566000000E+00 0.  1.
          4    1    3    3  502    0 -0.70774285887E+02 -0.20631473724E+03  0.92824001283E+02  0.23704654724E+03  0.00000000000E+00 0.  1.
         13    1    4    4    0    0  0.33345477472E+03 -0.92029174816E+03  0.22693344668E+03  0.10048023631E+04  0.10566000000E+00 0. -1.
         -4    1    4    4    0  501  0.16647311970E+03  0.55506214038E+02  0.64043414838E+03  0.66404076516E+03  0.00000000000E+00 0. -1.
<mgrwt>
<rscale>  2 0.14241877E+04</rscale>
<asrwt>0</asrwt>
<pdfrwt beam="1">  1        2 0.28493671E+00 0.14241877E+04</pdfrwt>
<pdfrwt beam="2">  1       -2 0.19494870E+00 0.14241877E+04</pdfrwt>
<totfact> 0.13724879E+00</totfact>
</mgrwt>
</event>
<event>
 8    1  0.1449514E-005  0.1452834E+04  0.7818608E-02  0.8437172E-01
          1   -1    0    0  502    0  0.00000000000E+00  0.00000000000E+00  0.19799441934E+04  0.19799441934E+04  0.00000000000E+00 0. -1.
         -1   -1    0    0    0  501 -0.00000000000E+00 -0.00000000000E+00 -0.10915909819E+04  0.10915909819E+04  0.00000000000E+00 0.  1.
    9000010    2    1    2  502    0 -0.10564674784E+04 -0.33361398719E+03  0.22784615522E+03  0.15162833318E+04  0.10098412976E+04 0.  0.
   -9000010    2    1    2    0  501  0.10564674784E+04  0.33361398719E+03  0.66050705629E+03  0.15552518435E+04  0.86897462552E+03 0.  0.
        -13    1    3    3    0    0 -0.78654406472E+03 -0.36180058889E+03 -0.30531499873E+03  0.91802423251E+03  0.10566000000E+00 0.  1.
          4    1    3    3  502    0 -0.26992341371E+03  0.28186601709E+02  0.53316115395E+03  0.59825909928E+03  0.00000000000E+00 0.  1.
         13    1    4    4    0    0  0.11833670659E+04  0.38898660038E+03  0.67369896769E+03  0.14161703634E+04  0.10566000000E+00 0. -1.
         -4    1    4    4    0  501 -0.12689958743E+03 -0.55372613199E+02 -0.13191911406E+02  0.13908148011E+03  0.00000000000E+00 0. -1.
<mgrwt>
<rscale>  2 0.14528337E+04</rscale>
<asrwt>0</asrwt>
<pdfrwt beam="1">  1        1 0.30460680E+00 0.14528337E+04</pdfrwt>
<pdfrwt beam="2">  1       -1 0.16793707E+00 0.14528337E+04</pdfrwt>
<totfact> 0.95125841E-01</totfact>
</mgrwt>
</event>
<event>
 8    1  0.1449514E-005  0.1667893E+04  0.7818608E-02  0.8318928E-01
          2   -1    0    0  502    0  0.00000000000E+00  0.00000000000E+00  0.13835270193E+04  0.13835270193E+04  0.00000000000E+00 0. -1.
         -2   -1    0    0    0  501 -0.00000000000E+00 -0.00000000000E+00 -0.20109321629E+04  0.20109321629E+04  0.00000000000E+00 0.  1.
    9000010    2    1    2  502    0  0.13272309925E+04 -0.13590749534E+03 -0.29557377149E+03  0.16926518762E+04  0.99884611669E+03 0.  0.
   -9000010    2    1    2    0  501 -0.13272309925E+04  0.13590749534E+03 -0.33183137212E+03  0.17018073059E+04  0.10030070250E+04 0.  0.
        -13    1    3    3    0    0  0.14502385371E+04  0.95387391572E+01 -0.16047784487E+03  0.14591216371E+04  0.10566000000E+00 0.  1.
          4    1    3    3  502    0 -0.12300754462E+03 -0.14544623450E+03 -0.13509592663E+03  0.23353023905E+03  0.00000000000E+00 0.  1.
         13    1    4    4    0    0 -0.85175359581E+03 -0.39775667309E+03 -0.77853655718E+02  0.94326865835E+03  0.10566000000E+00 0. -1.
         -4    1    4    4    0  501 -0.47547739671E+03  0.53366416843E+03 -0.25397771640E+03  0.75853864758E+03  0.00000000000E+00 0. -1.
<mgrwt>
<rscale>  2 0.16678933E+04</rscale>
<asrwt>0</asrwt>
<pdfrwt beam="1">  1        2 0.21285031E+00 0.16678933E+04</pdfrwt>
<pdfrwt beam="2">  1       -2 0.30937418E+00 0.16678933E+04</pdfrwt>
<totfact> 0.32380333E-01</totfact>
</mgrwt>
</event>
<event>
 8    1  0.1449514E-005  0.1316913E+04  0.7818608E-02  0.8523368E-01
         -2   -1    0    0    0  501 -0.00000000000E+00  0.00000000000E+00  0.97729954431E+03  0.97729954431E+03  0.00000000000E+00 0.  1.
          2   -1    0    0  502    0  0.00000000000E+00 -0.00000000000E+00 -0.24833999257E+04  0.24833999257E+04  0.00000000000E+00 0. -1.
    9000010    2    1    2  502    0 -0.48267906657E+03 -0.65371043373E+03 -0.16737808710E+04  0.21242284683E+04  0.10249330558E+04 0.  0.
   -9000010    2    1    2    0  501  0.48267906657E+03  0.65371043373E+03  0.16768048963E+03  0.13364710017E+04  0.10477220907E+04 0.  0.
        -13    1    3    3    0    0 -0.67509754092E+03 -0.28444906093E+03 -0.15071076579E+04  0.16757211766E+04  0.10566000000E+00 0.  1.
          4    1    3    3  502    0  0.19241847435E+03 -0.36926137280E+03 -0.16667321309E+03  0.44850729166E+03  0.00000000000E+00 0.  1.
         13    1    4    4    0    0 -0.20737671807E+03  0.15330514053E+03  0.37885903973E+03  0.45830312290E+03  0.10566000000E+00 0. -1.
         -4    1    4    4    0  501  0.69005578464E+03  0.50040529320E+03 -0.21117855010E+03  0.87816787882E+03  0.00000000000E+00 0. -1.
<mgrwt>
<rscale>  2 0.13169132E+04</rscale>
<asrwt>0</asrwt>
<pdfrwt beam="2">  1        2 0.38206153E+00 0.13169132E+04</pdfrwt>
<pdfrwt beam="1">  1       -2 0.15035378E+00 0.13169132E+04</pdfrwt>
<totfact> 0.14925550E+00</totfact>
</mgrwt>
</event>
<event>
 8    1  0.1449514E-005  0.1095101E+04  0.7818608E-02  0.8690038E-01
         -2   -1    0    0    0  501 -0.00000000000E+00  0.00000000000E+00  0.43341596553E+03  0.43341596553E+03  0.00000000000E+00 0. -1.
          2   -1    0    0  502    0  0.00000000000E+00 -0.00000000000E+00 -0.28975932903E+04  0.28975932903E+04  0.00000000000E+00 0.  1.
    9000010    2    1    2  502    0 -0.30722360713E+03 -0.34268593065E+03 -0.15807300297E+04  0.19204096184E+04  0.98865852743E+03 0.  0.
   -9000010    2    1    2    0  501  0.30722360713E+03  0.34268593065E+03 -0.88344729506E+03  0.14105996374E+04  0.99874532393E+03 0.  0.
        -13    1    3    3    0    0 -0.48527362621E+02 -0.12724709023E+03  0.12313742459E+03  0.18360164322E+03  0.10566000000E+00 0.  1.
          4    1    3    3  502    0 -0.25869624451E+03 -0.21543884042E+03 -0.17038674543E+04  0.17368079752E+04  0.00000000000E+00 0.  1.
         13    1    4    4    0    0  0.26183753904E+02  0.57356908274E+03 -0.87527298484E+03  0.10467902802E+04  0.10566000000E+00 0. -1.
         -4    1    4    4    0  501  0.28103985322E+03 -0.23088315209E+03 -0.81743102183E+01  0.36380935717E+03  0.00000000000E+00 0. -1.
<mgrwt>
<rscale>  2 0.10951014E+04</rscale>
<asrwt>0</asrwt>
<pdfrwt beam="2">  1        2 0.44578359E+00 0.10951014E+04</pdfrwt>
<pdfrwt beam="1">  1       -2 0.66679379E-01 0.10951014E+04</pdfrwt>
<totfact> 0.64945431E+00</totfact>
</mgrwt>
</event>
<event>
 8    1  0.1449514E-005  0.1167803E+04  0.7818608E-02  0.8631210E-01
          1   -1    0    0  502    0  0.00000000000E+00  0.00000000000E+00  0.65272590917E+03  0.65272590917E+03  0.00000000000E+00 0. -1.
         -1   -1    0    0    0  501 -0.00000000000E+00 -0.00000000000E+00 -0.24315386644E+04  0.24315386644E+04  0.00000000000E+00 0.  1.
    9000010    2    1    2  502    0 -0.38140467643E+03  0.53200944252E+03 -0.14853675255E+04  0.19074071426E+04  0.10016894467E+04 0.  0.
   -9000010    2    1    2    0  501  0.38140467643E+03 -0.53200944252E+03 -0.29344522974E+03  0.11768574310E+04  0.93294144291E+03 0.  0.
        -13    1    3    3    0    0  0.31532641060E+03  0.36022189820E+03 -0.57429868382E+03  0.74766941262E+03  0.10566000000E+00 0.  1.
          4    1    3    3  502    0 -0.69673108702E+03  0.17178754432E+03 -0.91106884165E+03  0.11597377299E+04  0.00000000000E+00 0.  1.
         13    1    4    4    0    0  0.23189835929E+03 -0.23789374885E+03 -0.62581819818E+03  0.70853278903E+03  0.10566000000E+00 0. -1.
         -4    1    4    4    0  501  0.14950631714E+03 -0.29411569367E+03  0.33237296844E+03  0.46832464197E+03  0.00000000000E+00 0. -1.
<mgrwt>
<rscale>  2 0.11678030E+04</rscale>
<asrwt>0</asrwt>
<pdfrwt beam="1">  1        1 0.10041937E+00 0.11678030E+04</pdfrwt>
<pdfrwt beam="2">  1       -1 0.37408287E+00 0.11678030E+04</pdfrwt>
<totfact> 0.43629498E-01</totfact>
</mgrwt>
</event>
<event>
 8    1  0.1449514E-005  0.1323792E+04  0.7818608E-02  0.8518752E-01
         -2   -1    0    0    0  501 -0.00000000000E+00  0.00000000000E+00  0.51741390560E+03  0.51741390560E+03  0.00000000000E+00 0.  1.
          2   -1    0    0  502    0  0.00000000000E+00 -0.00000000000E+00 -0.34926675577E+04  0.34926675577E+04  0.00000000000E+00 0. -1.
    9000010    2    1    2  502    0 -0.67977681191E+03  0.56192986296E+03 -0.18417767460E+04  0.22710126533E+04  0.99372793266E+03 0.  0.
   -9000010    2    1    2    0  501  0.67977681191E+03 -0.56192986296E+03 -0.11334769060E+04  0.17390688100E+04  0.98067769656E+03 0.  0.
        -13    1    3    3    0    0 -0.38400572534E+03 -0.18275159339E+03 -0.10990425742E+04  0.11784537042E+04  0.10566000000E+00 0.  1.
          4    1    3    3  502    0 -0.29577108657E+03  0.74468145634E+03 -0.74273417185E+03  0.10925589490E+04  0.00000000000E+00 0.  1.
         13    1    4    4    0    0  0.26214218548E+03 -0.70756603092E+02  0.14456823243E+03  0.30761178014E+03  0.10566000000E+00 0. -1.
         -4    1    4    4    0  501  0.41763462643E+03 -0.49117325987E+03 -0.12780451385E+04  0.14314570299E+04  0.00000000000E+00 0. -1.
<mgrwt>
<rscale>  2 0.13237924E+04</rscale>
<asrwt>0</asrwt>
<pdfrwt beam="2">  1        2 0.53733346E+00 0.13237924E+04</pdfrwt>
<pdfrwt beam="1">  1       -2 0.79602141E-01 0.13237924E+04</pdfrwt>
<totfact> 0.17645692E+00</totfact>
</mgrwt>
</event>
<event>
 8    1  0.1449514E-005  0.1071751E+04  0.7818608E-02  0.8709950E-01
         -4   -1    0    0    0  501 -0.00000000000E+00  0.00000000000E+00  0.82763259062E+03  0.82763259062E+03  0.00000000000E+00 0. -1.
          4   -1    0    0  502    0  0.00000000000E+00 -0.00000000000E+00 -0.14008999780E+04  0.14008999780E+04  0.00000000000E+00 0.  1.
    9000010    2    1    2  502    0 -0.94801814485E+02  0.38503628513E+03 -0.39425382277E+03  0.11425870412E+04  0.99640792102E+03 0.  0.
   -9000010    2    1    2    0  501  0.94801814485E+02 -0.38503628513E+03 -0.17901356457E+03  0.10859455274E+04  0.99498316932E+03 0.  0.
        -13    1    3    3    0    0 -0.53467650853E+03  0.99271234726E+02 -0.15106026973E+03  0.56440496372E+03  0.10566000000E+00 0.  1.
          4    1    3    3  502    0  0.43987469404E+03  0.28576505040E+03 -0.24319355304E+03  0.57818207749E+03  0.00000000000E+00 0.  1.
         13    1    4    4    0    0  0.50510735121E+03 -0.32309146425E+03  0.67340963318E+02  0.60337082050E+03  0.10566000000E+00 0. -1.
         -4    1    4    4    0  501 -0.41030553673E+03 -0.61944820879E+02 -0.24635452789E+03  0.48257470687E+03  0.00000000000E+00 0. -1.
<mgrwt>
<rscale>  2 0.10717507E+04</rscale>
<asrwt>0</asrwt>
<pdfrwt beam="2">  1        4 0.21552307E+00 0.10717507E+04</pdfrwt>
<pdfrwt beam="1">  1       -4 0.12732809E+00 0.10717507E+04</pdfrwt>
<totfact> 0.31670428E-01</totfact>
</mgrwt>
</event>
<event>
 8    1  0.1449514E-005  0.1070997E+04  0.7818608E-02  0.8710601E-01
          2   -1    0    0  502    0  0.00000000000E+00  0.00000000000E+00  0.29589207700E+04  0.29589207700E+04  0.00000000000E+00 0.  1.
         -2   -1    0    0    0  501 -0.00000000000E+00 -0.00000000000E+00 -0.39699926370E+03  0.39699926370E+03  0.00000000000E+00 0. -1.
    9000010    2    1    2  502    0  0.30049291083E+03 -0.22192992045E+03  0.14839994627E+04  0.18074363673E+04  0.96178112777E+03 0.  0.
   -9000010    2    1    2    0  501 -0.30049291083E+03  0.22192992045E+03  0.10779220437E+04  0.15484836664E+04  0.10470610554E+04 0.  0.
        -13    1    3    3    0    0  0.64429023848E+02  0.21848567142E+03  0.12223367062E+04  0.12433801198E+04  0.10566000000E+00 0.  1.
          4    1    3    3  502    0  0.23606388699E+03 -0.44041559187E+03  0.26166275644E+03  0.56405624755E+03  0.00000000000E+00 0.  1.
         13    1    4    4    0    0 -0.23190555617E+03  0.29303383087E+02  0.12558598339E+04  0.12774282010E+04  0.10566000000E+00 0. -1.
         -4    1    4    4    0  501 -0.68587354668E+02  0.19262653736E+03 -0.17793779022E+03  0.27105546537E+03  0.00000000000E+00 0. -1.
<mgrwt>
<rscale>  2 0.10709972E+04</rscale>
<asrwt>0</asrwt>
<pdfrwt beam="1">  1        2 0.45521857E+00 0.10709972E+04</pdfrwt>
<pdfrwt beam="2">  1       -2 0.61076812E-01 0.10709972E+04</pdfrwt>
<totfact> 0.71527006E+00</totfact>
</mgrwt>
</event>
<event>
 8    1  0.1449514E-005  0.1285590E+04  0.7818608E-02  0.8544756E-01
         -2   -1    0    0    0  501 -0.00000000000E+00  0.00000000000E+00  0.35804703429E+04  0.35804703429E+04  0.00000000000E+00 0.  1.
          2   -1    0    0  502    0  0.00000000000E+00 -0.00000000000E+00 -0.61383093433E+03  0.61383093433E+03  0.00000000000E+00 0. -1.
    9000010    2    1    2  502    0  0.60695865810E+03 -0.53001262178E+03  0.43276766426E+03  0.13496883723E+04  0.99250121374E+03 0.  0.
   -9000010    2    1    2    0  501 -0.60695865810E+03  0.53001262178E+03  0.25338717443E+04  0.28446129049E+04  0.10109423180E+04 0.  0.
        -13    1    3    3    0    0  0.34908232768E+03 -0.60270392744E+03  0.68846228974E+03  0.97933182896E+03  0.10566000000E+00 0.  1.
          4    1    3    3  502    0  0.25787633042E+03  0.72691305666E+02 -0.25569462548E+03  0.37035654336E+03  0.00000000000E+00 0.  1.
         13    1    4    4    0    0  0.24270540564E+03  0.23294129591E+03  0.36498275011E+03  0.49636678002E+03  0.10566000000E+00 0. -1.
         -4    1    4    4    0  501 -0.84966406374E+03  0.29707132587E+03  0.21688889942E+04  0.23482461248E+04  0.00000000000E+00 0. -1.
<mgrwt>
<rscale>  2 0.12855895E+04</rscale>
<asrwt>0</asrwt>
<pdfrwt beam="2">  1        2 0.94435530E-01 0.12855895E+04</pdfrwt>
<pdfrwt beam="1">  1       -2 0.55084158E+00 0.12855895E+04</pdfrwt>
<totfact> 0.25445266E-01</totfact>
</mgrwt>
</event>
<event>
 8    1  0.1449514E-005  0.1183291E+04  0.7818608E-02  0.8619252E-01
         -2   -1    0    0    0  501 -0.00000000000E+00  0.00000000000E+00  0.87957104743E+03  0.87957104743E+03  0.00000000000E+00 0.  1.
          2   -1    0    0  502    0  0.00000000000E+00 -0.00000000000E+00 -0.20083242696E+04  0.20083242696E+04  0.00000000000E+00 0. -1.
    9000010    2    1    2  502    0  0.56594833697E+03 -0.23623072554E+03 -0.12246442598E+04  0.17081026826E+04  0.10206658295E+04 0.  0.
   -9000010    2    1    2    0  501 -0.56594833697E+03  0.23623072554E+03  0.95891037561E+02  0.11797926345E+04  0.10033010981E+04 0.  0.
        -13    1    3    3    0    0  0.20919559186E+03 -0.10249967285E+03 -0.12991676760E+04  0.13198884954E+04  0.10566000000E+00 0.  1.
          4    1    3    3  502    0  0.35675274511E+03 -0.13373105269E+03  0.74523416277E+02  0.38821418724E+03  0.00000000000E+00 0.  1.
         13    1    4    4    0    0 -0.75193842993E+03  0.45909589315E+03  0.26864073799E+02  0.88142051890E+03  0.10566000000E+00 0. -1.
         -4    1    4    4    0  501  0.18599009296E+03 -0.22286516762E+03  0.69026963762E+02  0.29837211556E+03  0.00000000000E+00 0. -1.
<mgrwt>
<rscale>  2 0.11832912E+04</rscale>
<asrwt>0</asrwt>
<pdfrwt beam="2">  1        2 0.30897296E+00 0.11832912E+04</pdfrwt>
<pdfrwt beam="1">  1       -2 0.13531863E+00 0.11832912E+04</pdfrwt>
<totfact> 0.37724194E+00</totfact>
</mgrwt>
</event>
<event>
 8    1  0.1449514E-005  0.1141249E+04  0.7818608E-02  0.8652167E-01
         -1   -1    0    0    0  501 -0.00000000000E+00  0.00000000000E+00  0.67470666770E+03  0.67470666770E+03  0.00000000000E+00 0. -1.
          1   -1    0    0  502    0  0.00000000000E+00 -0.00000000000E+00 -0.21322371935E+04  0.21322371935E+04  0.00000000000E+00 0.  1.
    9000010    2    1    2  502    0 -0.46530838799E+03 -0.30406963428E+03 -0.30905508991E+03  0.12015997071E+04  0.10194883860E+04 0.  0.
   -9000010    2    1    2    0  501  0.46530838799E+03  0.30406963428E+03 -0.11484754359E+04  0.16053441540E+04  0.97425037218E+03 0.  0.
        -13    1    3    3    0    0 -0.78533475864E+02 -0.87354848590E+02 -0.63851967505E+03  0.64923475184E+03  0.10566000000E+00 0.  1.
          4    1    3    3  502    0 -0.38677491213E+03 -0.21671478569E+03  0.32946458514E+03  0.55236495531E+03  0.00000000000E+00 0.  1.
         13    1    4    4    0    0 -0.78144450590E+02 -0.16599170379E+03 -0.77327821733E+03  0.79474462153E+03  0.10566000000E+00 0. -1.
         -4    1    4    4    0  501  0.54345283858E+03  0.47006133807E+03 -0.37519721855E+03  0.81059953252E+03  0.00000000000E+00 0. -1.
<mgrwt>
<rscale>  2 0.11412493E+04</rscale>
<asrwt>0</asrwt>
<pdfrwt beam="2">  1        1 0.32803649E+00 0.11412493E+04</pdfrwt>
<pdfrwt beam="1">  1       -1 0.10380103E+00 0.11412493E+04</pdfrwt>
<totfact> 0.27768052E+00</totfact>
</mgrwt>
</event>
<event>
 8    1  0.1449514E-005  0.1046228E+04  0.7818608E-02  0.8732328E-01
         -2   -1    0    0    0  501 -0.00000000000E+00  0.00000000000E+00  0.94656058242E+03  0.94656058242E+03  0.00000000000E+00 0. -1.
          2   -1    0    0  502    0  0.00000000000E+00 -0.00000000000E+00 -0.11924243504E+04  0.11924243504E+04  0.00000000000E+00 0.  1.
    9000010    2    1    2  502    0  0.15395342091E+03 -0.22536085206E+03  0.60372652497E+02  0.10644057156E+04  0.10270469808E+04 0.  0.
   -9000010    2    1    2    0  501 -0.15395342091E+03  0.22536085206E+03 -0.30623642048E+03  0.10745792173E+04  0.99320218459E+03 0.  0.
        -13    1    3    3    0    0 -0.37475244946E+03 -0.14602200225E+03 -0.22241416411E+03  0.45959753598E+03  0.10566000000E+00 0.  1.
          4    1    3    3  502    0  0.52870587037E+03 -0.79338849816E+02  0.28278681661E+03  0.60480817959E+03  0.00000000000E+00 0.  1.
         13    1    4    4    0    0  0.42421775369E+03  0.98687707896E+02 -0.16756258562E+03  0.46666604494E+03  0.10566000000E+00 0. -1.
         -4    1    4    4    0  501 -0.57817117460E+03  0.12667314417E+03 -0.13867383486E+03  0.60791317231E+03  0.00000000000E+00 0. -1.
<mgrwt>
<rscale>  2 0.10462282E+04</rscale>
<asrwt>0</asrwt>
<pdfrwt beam="2">  1        2 0.18344990E+00 0.10462282E+04</pdfrwt>
<pdfrwt beam="1">  1       -2 0.14562471E+00 0.10462282E+04</pdfrwt>
<totfact> 0.86719364E+00</totfact>
</mgrwt>
</event>
<event>
 8    1  0.1449514E-005  0.1178017E+04  0.7818608E-02  0.8623303E-01
          1   -1    0    0  502    0  0.00000000000E+00  0.00000000000E+00  0.31197859576E+04  0.31197859576E+04  0.00000000000E+00 0. -1.
         -1   -1    0    0    0  501 -0.00000000000E+00 -0.00000000000E+00 -0.53882501992E+03  0.53882501992E+03  0.00000000000E+00 0.  1.
    9000010    2    1    2  502    0  0.49027133545E+02  0.66047498293E+03  0.54140112662E+03  0.13112824165E+04  0.99383878618E+03 0.  0.
   -9000010    2    1    2    0  501 -0.49027133545E+02 -0.66047498293E+03  0.20395598110E+04  0.23473285610E+04  0.95473362135E+03 0.  0.
        -13    1    3    3    0    0 -0.11579947409E+02 -0.10651347574E+03  0.53113609108E+03  0.54183463724E+03  0.10566000000E+00 0.  1.
          4    1    3    3  502    0  0.60607080955E+02  0.76698845867E+03  0.10265035539E+02  0.76944777923E+03  0.00000000000E+00 0.  1.
         13    1    4    4    0    0  0.21298264575E+03 -0.73325790831E+03  0.92183283711E+03  0.11969981446E+04  0.10566000000E+00 0. -1.
         -4    1    4    4    0  501 -0.26200977930E+03  0.72782925383E+02  0.11177269739E+04  0.11503304164E+04  0.00000000000E+00 0. -1.
<mgrwt>
<rscale>  2 0.11780169E+04</rscale>
<asrwt>0</asrwt>
<pdfrwt beam="1">  1        1 0.47996706E+00 0.11780169E+04</pdfrwt>
<pdfrwt beam="2">  1       -1 0.82896159E-01 0.11780169E+04</pdfrwt>
<totfact> 0.51013571E-01</totfact>
</mgrwt>
</event>
<event>
 8    1  0.1449514E-005  0.1622657E+04  0.7818608E-02  0.8342208E-01
         -2   -1    0    0    0  501 -0.00000000000E+00  0.00000000000E+00  0.29616920511E+04  0.29616920511E+04  0.00000000000E+00 0.  1.
          2   -1    0    0  502    0  0.00000000000E+00 -0.00000000000E+00 -0.98194241199E+03  0.98194241199E+03  0.00000000000E+00 0. -1.
    9000010    2    1    2  502    0  0.14414608026E+02 -0.12878348003E+04  0.37950255837E+03  0.16596341267E+04  0.97551883061E+03 0.  0.
   -9000010    2    1    2    0  501 -0.14414608026E+02  0.12878348003E+04  0.16002470807E+04  0.22840003364E+04  0.99856925817E+03 0.  0.
        -13    1    3    3    0    0 -0.92753880785E+02  0.14228698715E+03  0.10435672286E+03  0.19934694851E+03  0.10566000000E+00 0.  1.
          4    1    3    3  502    0  0.10716848881E+03 -0.14301217875E+04  0.27514583552E+03  0.14602871782E+04  0.00000000000E+00 0.  1.
         13    1    4    4    0    0  0.88314810255E+02  0.33658580412E+02  0.77143325297E+03  0.77720118419E+03  0.10566000000E+00 0. -1.
         -4    1    4    4    0  501 -0.10272941828E+03  0.12541762199E+04  0.82881382773E+03  0.15067991522E+04  0.00000000000E+00 0. -1.
<mgrwt>
<rscale>  2 0.16226573E+04</rscale>
<asrwt>0</asrwt>
<pdfrwt beam="2">  1        2 0.15106806E+00 0.16226573E+04</pdfrwt>
<pdfrwt beam="1">  1       -2 0.45564493E+00 0.16226573E+04</pdfrwt>
<totfact> 0.11160352E-01</totfact>
</mgrwt>
</event>
<event>
 8    1  0.1449514E-005  0.1157218E+04  0.7818608E-02  0.8639494E-01
          2   -1    0    0  502    0  0.00000000000E+00  0.00000000000E+00  0.18139860763E+04  0.18139860763E+04  0.00000000000E+00 0. -1.
         -2   -1    0    0    0  501 -0.00000000000E+00 -0.00000000000E+00 -0.82459443889E+03  0.82459443889E+03  0.00000000000E+00 0.  1.
    9000010    2    1    2  502    0 -0.53043956229E+03  0.28757188635E+03  0.92147174824E+03  0.14789410355E+04  0.98696133901E+03 0.  0.
   -9000010    2    1    2    0  501  0.53043956229E+03 -0.28757188635E+03  0.67919889213E+02  0.11596394797E+04  0.98797109901E+03 0.  0.
        -13    1    3    3    0    0 -0.42877891191E+03 -0.32116807892E+03  0.48886864859E+03  0.72525365008E+03  0.10566000000E+00 0.  1.
          4    1    3    3  502    0 -0.10166065038E+03  0.60873996527E+03  0.43260309965E+03  0.75368738544E+03  0.00000000000E+00 0.  1.
         13    1    4    4    0    0 -0.24563815889E+03 -0.26497572677E+03 -0.77997171536E+02  0.36964010985E+03  0.10566000000E+00 0. -1.
         -4    1    4    4    0  501  0.77607772118E+03 -0.22596159583E+02  0.14591706075E+03  0.78999936985E+03  0.00000000000E+00 0. -1.
<mgrwt>
<rscale>  2 0.11572178E+04</rscale>
<asrwt>0</asrwt>
<pdfrwt beam="1">  1        2 0.27907478E+00 0.11572178E+04</pdfrwt>
<pdfrwt beam="2">  1       -2 0.12686068E+00 0.11572178E+04</pdfrwt>
<totfact> 0.57801771E+00</totfact>
</mgrwt>
</event>
<event>
 8    1  0.1449514E-005  0.1175659E+04  0.7818608E-02  0.8625121E-01
         -4   -1    0    0    0  501 -0.00000000000E+00  0.00000000000E+00  0.12513646680E+04  0.12513646680E+04  0.00000000000E+00 0. -1.
          4   -1    0    0  502    0  0.00000000000E+00 -0.00000000000E+00 -0.11073180831E+04  0.11073180831E+04  0.00000000000E+00 0.  1.
    9000010    2    1    2  502    0 -0.59266229791E+03  0.21674075862E+03  0.13093443926E+03  0.11801539606E+04  0.98863258472E+03 0.  0.
   -9000010    2    1    2    0  501  0.59266229791E+03 -0.21674075862E+03  0.13112145624E+02  0.11785287906E+04  0.99525525670E+03 0.  0.
        -13    1    3    3    0    0 -0.38470769340E+03  0.59901899146E+03  0.20012167631E+03  0.73950825417E+03  0.10566000000E+00 0.  1.
          4    1    3    3  502    0 -0.20795460451E+03 -0.38227823284E+03 -0.69187237054E+02  0.44064570645E+03  0.00000000000E+00 0.  1.
         13    1    4    4    0    0  0.33430439382E+03 -0.60802941288E+01  0.49210767302E+03  0.59495072965E+03  0.10566000000E+00 0. -1.
         -4    1    4    4    0  501  0.25835790409E+03 -0.21066046449E+03 -0.47899552739E+03  0.58357806090E+03  0.00000000000E+00 0. -1.
<mgrwt>
<rscale>  2 0.11756586E+04</rscale>
<asrwt>0</asrwt>
<pdfrwt beam="2">  1        4 0.17035663E+00 0.11756586E+04</pdfrwt>
<pdfrwt beam="1">  1       -4 0.19251764E+00 0.11756586E+04</pdfrwt>
<totfact> 0.23696807E-01</totfact>
</mgrwt>
</event>
<event>
 8    1  0.1449514E-005  0.1155288E+04  0.7818608E-02  0.8641014E-01
          2   -1    0    0  502    0  0.00000000000E+00  0.00000000000E+00  0.24310902316E+04  0.24310902316E+04  0.00000000000E+00 0. -1.
         -2   -1    0    0    0  501 -0.00000000000E+00 -0.00000000000E+00 -0.55121258946E+03  0.55121258946E+03  0.00000000000E+00 0.  1.
    9000010    2    1    2  502    0 -0.24332170304E+03 -0.51509632903E+03  0.85080947275E+03  0.14395915605E+04  0.10119374599E+04 0.  0.
   -9000010    2    1    2    0  501  0.24332170304E+03  0.51509632903E+03  0.10290681693E+04  0.15427112605E+04  0.99822194769E+03 0.  0.
        -13    1    3    3    0    0  0.28285404276E+03 -0.49904695937E+03  0.21136132537E+03  0.61133288656E+03  0.10566000000E+00 0.  1.
          4    1    3    3  502    0 -0.52617574581E+03 -0.16049369655E+02  0.63944814738E+03  0.82825867392E+03  0.00000000000E+00 0.  1.
         13    1    4    4    0    0 -0.86435633169E+02  0.67812439092E+03  0.34436312295E+03  0.76544743768E+03  0.10566000000E+00 0. -1.
         -4    1    4    4    0  501  0.32975733621E+03 -0.16302806189E+03  0.68470504640E+03  0.77726382285E+03  0.00000000000E+00 0. -1.
<mgrwt>
<rscale>  2 0.11552882E+04</rscale>
<asrwt>0</asrwt>
<pdfrwt beam="1">  1        2 0.37401388E+00 0.11552882E+04</pdfrwt>
<pdfrwt beam="2">  1       -2 0.84801938E-01 0.11552882E+04</pdfrwt>
<totfact> 0.71656140E+00</totfact>
</mgrwt>
</event>
<event>
 8    1  0.1449514E-005  0.1270083E+04  0.7818608E-02  0.8555578E-01
          2   -1    0    0  502    0  0.00000000000E+00  0.00000000000E+00  0.15770190784E+04  0.15770190784E+04  0.00000000000E+00 0. -1.
         -2   -1    0    0    0  501 -0.00000000000E+00 -0.00000000000E+00 -0.11187716290E+04  0.11187716290E+04  0.00000000000E+00 0.  1.
    9000010    2    1    2  502    0  0.75249082984E+03  0.22137308441E+03 -0.16641057204E+03  0.12750691359E+04  0.99139312659E+03 0.  0.
   -9000010    2    1    2    0  501 -0.75249082984E+03 -0.22137308441E+03  0.62465802138E+03  0.14207215714E+04  0.10064808236E+04 0.  0.
        -13    1    3    3    0    0  0.60420452822E+03  0.31571136652E+03 -0.53509362437E+03  0.86663831953E+03  0.10566000000E+00 0.  1.
          4    1    3    3  502    0  0.14828630161E+03 -0.94338282105E+02  0.36868305233E+03  0.40843081641E+03  0.00000000000E+00 0.  1.
         13    1    4    4    0    0 -0.95418293331E+02 -0.23123948709E+03 -0.23191080025E+03  0.34111432325E+03  0.10566000000E+00 0. -1.
         -4    1    4    4    0  501 -0.65707253651E+03  0.98664026796E+01  0.85656882163E+03  0.10796072482E+04  0.00000000000E+00 0. -1.
<mgrwt>
<rscale>  2 0.12700827E+04</rscale>
<asrwt>0</asrwt>
<pdfrwt beam="1">  1        2 0.24261832E+00 0.12700827E+04</pdfrwt>
<pdfrwt beam="2">  1       -2 0.17211871E+00 0.12700827E+04</pdfrwt>
<totfact> 0.30556803E+00</totfact>
</mgrwt>
</event>
<event>
 8    1  0.1449514E-005  0.1180604E+04  0.7818608E-02  0.8621313E-01
         -2   -1    0    0    0  501 -0.00000000000E+00  0.00000000000E+00  0.41215238920E+03  0.41215238920E+03  0.00000000000E+00 0. -1.
          2   -1    0    0  502    0  0.00000000000E+00 -0.00000000000E+00 -0.40115294976E+04  0.40115294976E+04  0.00000000000E+00 0.  1.
    9000010    2    1    2  502    0  0.65394462822E+03 -0.19718619931E+02 -0.27044462376E+04  0.29602393003E+04  0.10104231106E+04 0.  0.
   -9000010    2    1    2    0  501 -0.65394462822E+03  0.19718619931E+02 -0.89493087082E+03  0.14634425865E+04  0.95536932109E+03 0.  0.
        -13    1    3    3    0    0  0.67141301364E+03 -0.23039004800E+03 -0.26479243016E+04  0.27414189988E+04  0.10566000000E+00 0.  1.
          4    1    3    3  502    0 -0.17468385425E+02  0.21067142807E+03 -0.56521936022E+02  0.21882030150E+03  0.00000000000E+00 0.  1.
         13    1    4    4    0    0  0.80878335499E+02  0.31992640025E+03 -0.11191569367E+03  0.34845278070E+03  0.10566000000E+00 0. -1.
         -4    1    4    4    0  501 -0.73482296372E+03 -0.30020778031E+03 -0.78301517715E+03  0.11149898058E+04  0.00000000000E+00 0. -1.
<mgrwt>
<rscale>  2 0.11806037E+04</rscale>
<asrwt>0</asrwt>
<pdfrwt beam="2">  1        2 0.61715838E+00 0.11806037E+04</pdfrwt>
<pdfrwt beam="1">  1       -2 0.63408061E-01 0.11806037E+04</pdfrwt>
<totfact> 0.10995887E+00</totfact>
</mgrwt>
</event>
<event>
 8    1  0.1449514E-005  0.1300360E+04  0.7818608E-02  0.8534593E-01
          1   -1    0    0  502    0  0.00000000000E+00  0.00000000000E+00  0.13893668273E+04  0.13893668273E+04  0.00000000000E+00 0. -1.
         -1   -1    0    0    0  501 -0.00000000000E+00 -0.00000000000E+00 -0.12197522435E+04  0.12197522435E+04  0.00000000000E+00 0.  1.
    9000010    2    1    2  502    0 -0.38501245110E+03  0.72196712772E+03  0.14498535644E+03  0.12999318250E+04  0.99966538151E+03 0.  0.
   -9000010    2    1    2    0  501  0.38501245110E+03 -0.72196712772E+03  0.24629227344E+02  0.13091872457E+04  0.10217110769E+04 0.  0.
        -13    1    3    3    0    0 -0.13700143406E+02  0.73252367751E+02 -0.37954100360E+03  0.38678804000E+03  0.10566000000E+00 0.  1.
          4    1    3    3  502    0 -0.37131230769E+03  0.64871475996E+03  0.52452636004E+03  0.91314378497E+03  0.00000000000E+00 0.  1.
         13    1    4    4    0    0  0.18437107004E+02 -0.18243937168E+03  0.47989927785E+03  0.51373862936E+03  0.10566000000E+00 0. -1.
         -4    1    4    4    0  501  0.36657534410E+03 -0.53952775604E+03 -0.45527005050E+03  0.79544861639E+03  0.00000000000E+00 0. -1.
<mgrwt>
<rscale>  2 0.13003602E+04</rscale>
<asrwt>0</asrwt>
<pdfrwt beam="1">  1        1 0.21374874E+00 0.13003602E+04</pdfrwt>
<pdfrwt beam="2">  1       -1 0.18765419E+00 0.13003602E+04</pdfrwt>
<totfact> 0.18064584E+00</totfact>
</mgrwt>
</event>
<event>
 8    1  0.1449514E-005  0.1299202E+04  0.7818608E-02  0.8535385E-01
          2   -1    0    0  502    0  0.00000000000E+00  0.00000000000E+00  0.31046624131E+04  0.31046624131E+04  0.00000000000E+00 0. -1.
         -2   -1    0    0    0  501 -0.00000000000E+00 -0.00000000000E+00 -0.95501575724E+03  0.95501575724E+03  0.00000000000E+00 0.  1.
    9000010    2    1    2  502    0 -0.81367314311E+03 -0.25038810395E+03 -0.24867282506E+03  0.13404866325E+04  0.10051408118E+04 0.  0.
   -9000010    2    1    2    0  501  0.81367314311E+03  0.25038810395E+03  0.23983194809E+04  0.27191915378E+04  0.95776202700E+03 0.  0.
        -13    1    3    3    0    0 -0.44517059042E+03  0.29777506882E+03  0.16585364973E+03  0.56067306916E+03  0.10566000000E+00 0.  1.
          4    1    3    3  502    0 -0.36850255269E+03 -0.54816317277E+03 -0.41452647478E+03  0.77981356337E+03  0.00000000000E+00 0.  1.
         13    1    4    4    0    0  0.32978301174E+03 -0.24932418435E+03  0.30621427638E+03  0.51447699458E+03  0.10566000000E+00 0. -1.
         -4    1    4    4    0  501  0.48389013137E+03  0.49971228829E+03  0.20921052045E+04  0.22047145432E+04  0.00000000000E+00 0. -1.
<mgrwt>
<rscale>  2 0.12992020E+04</rscale>
<asrwt>0</asrwt>
<pdfrwt beam="1">  1        2 0.47764037E+00 0.12992020E+04</pdfrwt>
<pdfrwt beam="2">  1       -2 0.14692550E+00 0.12992020E+04</pdfrwt>
<totfact> 0.68421527E-01</totfact>
</mgrwt>
</event>
<event>
 8    1  0.1449514E-005  0.1193562E+04  0.7818608E-02  0.8611426E-01
         -2   -1    0    0    0  501 -0.00000000000E+00  0.00000000000E+00  0.80072183127E+03  0.80072183127E+03  0.00000000000E+00 0. -1.
          2   -1    0    0  502    0  0.00000000000E+00 -0.00000000000E+00 -0.20788299913E+04  0.20788299913E+04  0.00000000000E+00 0.  1.
    9000010    2    1    2  502    0  0.12876324783E+03  0.74363612513E+03 -0.11783044312E+04  0.16662656651E+04  0.90469070594E+03 0.  0.
   -9000010    2    1    2    0  501 -0.12876324783E+03 -0.74363612513E+03 -0.99803728863E+02  0.12132861575E+04  0.94473692379E+03 0.  0.
        -13    1    3    3    0    0  0.34980257506E+03  0.61271027562E+03 -0.12167454067E+04  0.14065010200E+04  0.10566000000E+00 0.  1.
          4    1    3    3  502    0 -0.22103932723E+03  0.13092584950E+03  0.38440975464E+02  0.25976464510E+03  0.00000000000E+00 0.  1.
         13    1    4    4    0    0  0.19852662312E+03 -0.83068466306E+03  0.19267936887E+02  0.85429567135E+03  0.10566000000E+00 0. -1.
         -4    1    4    4    0  501 -0.32728987095E+03  0.87048537936E+02 -0.11907166575E+03  0.35899048618E+03  0.00000000000E+00 0. -1.
<mgrwt>
<rscale>  2 0.11935619E+04</rscale>
<asrwt>0</asrwt>
<pdfrwt beam="2">  1        2 0.31982000E+00 0.11935619E+04</pdfrwt>
<pdfrwt beam="1">  1       -2 0.12318797E+00 0.11935619E+04</pdfrwt>
<totfact> 0.44731569E+00</totfact>
</mgrwt>
</event>
<event>
 8    1  0.1449514E-005  0.1402858E+04  0.7818608E-02  0.8467695E-01
          2   -1    0    0  502    0  0.00000000000E+00  0.00000000000E+00  0.20644092027E+04  0.20644092027E+04  0.00000000000E+00 0.  1.
         -2   -1    0    0    0  501 -0.00000000000E+00 -0.00000000000E+00 -0.21271811426E+04  0.21271811426E+04  0.00000000000E+00 0. -1.
    9000010    2    1    2  502    0 -0.69301817775E+03  0.71990283756E+03 -0.15881581992E+04  0.21135638086E+04  0.97281612710E+03 0.  0.
   -9000010    2    1    2    0  501  0.69301817775E+03 -0.71990283756E+03  0.15253862593E+04  0.20780265366E+04  0.99642197726E+03 0.  0.
        -13    1    3    3    0    0  0.54207650648E+02 -0.81987781678E+02  0.73663771830E+02  0.12282845020E+03  0.10566000000E+00 0.  1.
          4    1    3    3  502    0 -0.74722582840E+03  0.80189061924E+03 -0.16618219710E+04  0.19907353584E+04  0.00000000000E+00 0.  1.
         13    1    4    4    0    0  0.89457559131E+03 -0.79388547487E+03  0.12747724568E+04  0.17480172950E+04  0.10566000000E+00 0. -1.
         -4    1    4    4    0  501 -0.20155741356E+03  0.73982637306E+02  0.25061380247E+03  0.33000924165E+03  0.00000000000E+00 0. -1.
<mgrwt>
<rscale>  2 0.14028582E+04</rscale>
<asrwt>0</asrwt>
<pdfrwt beam="1">  1        2 0.31760142E+00 0.14028582E+04</pdfrwt>
<pdfrwt beam="2">  1       -2 0.32725864E+00 0.14028582E+04</pdfrwt>
<totfact> 0.10757877E-01</totfact>
</mgrwt>
</event>
<event>
 8    1  0.1449514E-005  0.1019321E+04  0.7818608E-02  0.8756647E-01
          2   -1    0    0  502    0  0.00000000000E+00  0.00000000000E+00  0.83514331950E+03  0.83514331950E+03  0.00000000000E+00 0.  1.
         -2   -1    0    0    0  501 -0.00000000000E+00 -0.00000000000E+00 -0.14166343592E+04  0.14166343592E+04  0.00000000000E+00 0. -1.
    9000010    2    1    2  502    0  0.13124940208E+02 -0.20507612978E+03  0.10022526619E+03  0.10316044092E+04  0.10059493377E+04 0.  0.
   -9000010    2    1    2    0  501 -0.13124940208E+02  0.20507612978E+03 -0.68171630591E+03  0.12201732696E+04  0.99088707881E+03 0.  0.
        -13    1    3    3    0    0  0.39669068330E+03 -0.42237483704E+03 -0.27750969448E+00  0.57945154185E+03  0.10566000000E+00 0.  1.
          4    1    3    3  502    0 -0.38356574309E+03  0.21729870726E+03  0.10050277588E+03  0.45215286730E+03  0.00000000000E+00 0.  1.
         13    1    4    4    0    0  0.42724070288E+03  0.40099398927E+02 -0.60799133577E+03  0.74417474797E+03  0.10566000000E+00 0. -1.
         -4    1    4    4    0  501 -0.44036564308E+03  0.16497673085E+03 -0.73724970140E+02  0.47599852159E+03  0.00000000000E+00 0. -1.
<mgrwt>
<rscale>  2 0.10193210E+04</rscale>
<asrwt>0</asrwt>
<pdfrwt beam="1">  1        2 0.12848359E+00 0.10193210E+04</pdfrwt>
<pdfrwt beam="2">  1       -2 0.21794374E+00 0.10193210E+04</pdfrwt>
<totfact> 0.35400251E+00</totfact>
</mgrwt>
</event>
<event>
 8    1  0.1449514E-005  0.1311581E+04  0.7818608E-02  0.8526965E-01
          2   -1    0    0  502    0  0.00000000000E+00  0.00000000000E+00  0.17685607380E+04  0.17685607380E+04  0.00000000000E+00 0.  1.
         -2   -1    0    0    0  501 -0.00000000000E+00 -0.00000000000E+00 -0.10356784496E+04  0.10356784496E+04  0.00000000000E+00 0. -1.
    9000010    2    1    2  502    0  0.86799290184E+03  0.23881461928E+02  0.70927938451E+03  0.14817893245E+04  0.96883453438E+03 0.  0.
   -9000010    2    1    2    0  501 -0.86799290184E+03 -0.23881461928E+02  0.23602903859E+02  0.13224498631E+04  0.99716324715E+03 0.  0.
        -13    1    3    3    0    0  0.84798781011E+03  0.26153073554E+03  0.82949017841E+03  0.12147162710E+04  0.10566000000E+00 0.  1.
          4    1    3    3  502    0  0.20005091727E+02 -0.23764927362E+03 -0.12021079389E+03  0.26707305352E+03  0.00000000000E+00 0.  1.
         13    1    4    4    0    0 -0.83939745204E+03  0.31042241055E+03  0.23574276885E+03  0.92548626121E+03  0.10566000000E+00 0. -1.
         -4    1    4    4    0  501 -0.28595449795E+02 -0.33430387247E+03 -0.21213986499E+03  0.39696360188E+03  0.00000000000E+00 0. -1.
<mgrwt>
<rscale>  2 0.13115808E+04</rscale>
<asrwt>0</asrwt>
<pdfrwt beam="1">  1        2 0.27208627E+00 0.13115808E+04</pdfrwt>
<pdfrwt beam="2">  1       -2 0.15933515E+00 0.13115808E+04</pdfrwt>
<totfact> 0.30709137E+00</totfact>
</mgrwt>
</event>
<event>
 8    1  0.1449514E-005  0.1286871E+04  0.7818608E-02  0.8543868E-01
         -2   -1    0    0    0  501 -0.00000000000E+00  0.00000000000E+00  0.69144381723E+03  0.69144381723E+03  0.00000000000E+00 0. -1.
          2   -1    0    0  502    0  0.00000000000E+00 -0.00000000000E+00 -0.29323432193E+04  0.29323432193E+04  0.00000000000E+00 0.  1.
    9000010    2    1    2  502    0  0.20636549320E+02  0.84051139147E+03 -0.33994961423E+03  0.13242824657E+04  0.96502489214E+03 0.  0.
   -9000010    2    1    2    0  501 -0.20636549320E+02 -0.84051139147E+03 -0.19009497878E+04  0.22995045708E+04  0.98347644045E+03 0.  0.
        -13    1    3    3    0    0  0.12414617423E+03  0.84663110249E+03 -0.59949416931E+03  0.10447917335E+04  0.10566000000E+00 0.  1.
          4    1    3    3  502    0 -0.10350962491E+03 -0.61197110186E+01  0.25954455507E+03  0.27949073219E+03  0.00000000000E+00 0.  1.
         13    1    4    4    0    0 -0.16178226853E+03 -0.10362537213E+04 -0.14736379883E+04  0.18087576424E+04  0.10566000000E+00 0. -1.
         -4    1    4    4    0  501  0.14114571921E+03  0.19574232978E+03 -0.42731179948E+03  0.49074692836E+03  0.00000000000E+00 0. -1.
<mgrwt>
<rscale>  2 0.12868711E+04</rscale>
<asrwt>0</asrwt>
<pdfrwt beam="2">  1        2 0.45112972E+00 0.12868711E+04</pdfrwt>
<pdfrwt beam="1">  1       -2 0.10637597E+00 0.12868711E+04</pdfrwt>
<totfact> 0.21117772E+00</totfact>
</mgrwt>
</event>
<event>
 8    1  0.1449514E-005  0.1134172E+04  0.7818608E-02  0.8657852E-01
          1   -1    0    0  502    0  0.00000000000E+00  0.00000000000E+00  0.23498586746E+04  0.23498586746E+04  0.00000000000E+00 0.  1.
         -1   -1    0    0    0  501 -0.00000000000E+00 -0.00000000000E+00 -0.65920051144E+03  0.65920051144E+03  0.00000000000E+00 0. -1.
    9000010    2    1    2  502    0  0.34055956663E+03  0.42534325095E+03  0.14627407584E+04  0.18488261647E+04  0.99078249951E+03 0.  0.
   -9000010    2    1    2    0  501 -0.34055956663E+03 -0.42534325095E+03  0.22791740471E+03  0.11602330213E+04  0.99864739566E+03 0.  0.
        -13    1    3    3    0    0  0.61294771891E+03  0.13329387420E+03  0.48574562948E+03  0.79336056793E+03  0.10566000000E+00 0.  1.
          4    1    3    3  502    0 -0.27238815228E+03  0.29204937675E+03  0.97699512894E+03  0.10554655968E+04  0.00000000000E+00 0.  1.
         13    1    4    4    0    0 -0.17925463535E+03  0.28922626379E+03  0.25806772757E+03  0.42706324957E+03  0.10566000000E+00 0. -1.
         -4    1    4    4    0  501 -0.16130493128E+03 -0.71456951474E+03 -0.30150322861E+02  0.73316977176E+03  0.00000000000E+00 0. -1.
<mgrwt>
<rscale>  2 0.11341725E+04</rscale>
<asrwt>0</asrwt>
<pdfrwt beam="1">  1        1 0.36151671E+00 0.11341725E+04</pdfrwt>
<pdfrwt beam="2">  1       -1 0.10141546E+00 0.11341725E+04</pdfrwt>
<totfact> 0.19401517E+00</totfact>
</mgrwt>
</event>
<event>
 8    1  0.1449514E-005  0.1306434E+04  0.7818608E-02  0.8530454E-01
         -2   -1    0    0    0  501 -0.00000000000E+00  0.00000000000E+00  0.16179014400E+04  0.16179014400E+04  0.00000000000E+00 0. -1.
          2   -1    0    0  502    0  0.00000000000E+00 -0.00000000000E+00 -0.13295824259E+04  0.13295824259E+04  0.00000000000E+00 0.  1.
    9000010    2    1    2  502    0 -0.76646243618E+03 -0.29466576367E+03 -0.52606293323E+03  0.14038721514E+04  0.10098624805E+04 0.  0.
   -9000010    2    1    2    0  501  0.76646243618E+03  0.29466576367E+03  0.81438194738E+03  0.15436117144E+04  0.10223632380E+04 0.  0.
        -13    1    3    3    0    0 -0.13905578654E+03  0.35345292540E+03 -0.27055562125E+03  0.46633232528E+03  0.10566000000E+00 0.  1.
          4    1    3    3  502    0 -0.62740664965E+03 -0.64811868906E+03 -0.25550731198E+03  0.93753982615E+03  0.00000000000E+00 0.  1.
         13    1    4    4    0    0  0.65650000353E+03 -0.50160640076E+02  0.65945972461E+01  0.65844653870E+03  0.10566000000E+00 0. -1.
         -4    1    4    4    0  501  0.10996243266E+03  0.34482640374E+03  0.80778735014E+03  0.88516517575E+03  0.00000000000E+00 0. -1.
<mgrwt>
<rscale>  2 0.13064340E+04</rscale>
<asrwt>0</asrwt>
<pdfrwt beam="2">  1        2 0.20455114E+00 0.13064340E+04</pdfrwt>
<pdfrwt beam="1">  1       -2 0.24890791E+00 0.13064340E+04</pdfrwt>
<totfact> 0.98605935E-01</totfact>
</mgrwt>
</event>
<event>
 8    1  0.1449514E-005  0.1263846E+04  0.7818608E-02  0.8559976E-01
         -1   -1    0    0    0  501 -0.00000000000E+00  0.00000000000E+00  0.89239720310E+03  0.89239720310E+03  0.00000000000E+00 0. -1.
          1   -1    0    0  502    0  0.00000000000E+00 -0.00000000000E+00 -0.18022137368E+04  0.18022137368E+04  0.00000000000E+00 0.  1.
    9000010    2    1    2  502    0  0.56219701217E+03  0.50882501250E+03 -0.33909538049E+03  0.12928999850E+04  0.99077561557E+03 0.  0.
   -9000010    2    1    2    0  501 -0.56219701217E+03 -0.50882501250E+03 -0.57072115320E+03  0.14017109549E+04  0.10315534850E+04 0.  0.
        -13    1    3    3    0    0 -0.26011789630E+03  0.97185239939E+02  0.70076037074E+02  0.28638602091E+03  0.10566000000E+00 0.  1.
          4    1    3    3  502    0  0.82231490847E+03  0.41163977256E+03 -0.40917141756E+03  0.10065139641E+04  0.00000000000E+00 0.  1.
         13    1    4    4    0    0  0.15350528807E+03 -0.24198154209E+03  0.17372513280E+03  0.33511098625E+03  0.10566000000E+00 0. -1.
         -4    1    4    4    0  501 -0.71570230024E+03 -0.26684347041E+03 -0.74444628600E+03  0.10665999686E+04  0.00000000000E+00 0. -1.
<mgrwt>
<rscale>  2 0.12638456E+04</rscale>
<asrwt>0</asrwt>
<pdfrwt beam="2">  1        1 0.27726365E+00 0.12638456E+04</pdfrwt>
<pdfrwt beam="1">  1       -1 0.13729188E+00 0.12638456E+04</pdfrwt>
<totfact> 0.24473431E+00</totfact>
</mgrwt>
</event>
<event>
 8    1  0.1449514E-005  0.1688049E+04  0.7818608E-02  0.8308799E-01
          2   -1    0    0  502    0  0.00000000000E+00  0.00000000000E+00  0.13139353674E+04  0.13139353674E+04  0.00000000000E+00 0. -1.
         -2   -1    0    0    0  501 -0.00000000000E+00 -0.00000000000E+00 -0.25846067106E+04  0.25846067106E+04  0.00000000000E+00 0.  1.
    9000010    2    1    2  502    0 -0.87007877508E+03 -0.10663125599E+04 -0.14146520684E+04  0.21961952299E+04  0.96331379263E+03 0.  0.
   -9000010    2    1    2    0  501  0.87007877508E+03  0.10663125599E+04  0.14398072520E+03  0.17023468481E+04  0.99156179413E+03 0.  0.
        -13    1    3    3    0    0 -0.30969297073E+03  0.13346071610E+03 -0.16491852604E+03  0.37539263480E+03  0.10566000000E+00 0.  1.
          4    1    3    3  502    0 -0.56038580435E+03 -0.11997732760E+04 -0.12497335423E+04  0.18208025951E+04  0.00000000000E+00 0.  1.
         13    1    4    4    0    0  0.25264709382E+03 -0.42382174800E+02 -0.26545333492E+03  0.36890688113E+03  0.10566000000E+00 0. -1.
         -4    1    4    4    0  501  0.61743168126E+03  0.11086947347E+04  0.40943406012E+03  0.13334399669E+04  0.00000000000E+00 0. -1.
<mgrwt>
<rscale>  2 0.16880491E+04</rscale>
<asrwt>0</asrwt>
<pdfrwt beam="1">  1        2 0.20214390E+00 0.16880491E+04</pdfrwt>
<pdfrwt beam="2">  1       -2 0.39763180E+00 0.16880491E+04</pdfrwt>
<totfact> 0.90238360E-02</totfact>
</mgrwt>
</event>
<event>
 8    1  0.1449514E-005  0.1440073E+04  0.7818608E-02  0.8444845E-01
         -1   -1    0    0    0  501 -0.00000000000E+00  0.00000000000E+00  0.76949783524E+03  0.76949783524E+03  0.00000000000E+00 0. -1.
          1   -1    0    0  502    0  0.00000000000E+00 -0.00000000000E+00 -0.27478989160E+04  0.27478989160E+04  0.00000000000E+00 0.  1.
    9000010    2    1    2  502    0  0.10041945593E+04  0.29275652370E+03 -0.74542211570E+03  0.16218199845E+04  0.99021858017E+03 0.  0.
   -9000010    2    1    2    0  501 -0.10041945593E+04 -0.29275652370E+03 -0.12329789651E+04  0.18955767668E+04  0.98937407248E+03 0.  0.
        -13    1    3    3    0    0  0.15475963631E+03 -0.11040308894E+03 -0.64942611066E+03  0.67667841065E+03  0.10566000000E+00 0.  1.
          4    1    3    3  502    0  0.84943492298E+03  0.40315961264E+03 -0.95996005042E+02  0.94514157386E+03  0.00000000000E+00 0.  1.
         13    1    4    4    0    0 -0.26839295701E+03  0.87502559340E+02  0.12197972276E+03  0.30752323683E+03  0.10566000000E+00 0. -1.
         -4    1    4    4    0  501 -0.73580160228E+03 -0.38025908304E+03 -0.13549586879E+04  0.15880535299E+04  0.00000000000E+00 0. -1.
<mgrwt>
<rscale>  2 0.14400729E+04</rscale>
<asrwt>0</asrwt>
<pdfrwt beam="2">  1        1 0.42275368E+00 0.14400729E+04</pdfrwt>
<pdfrwt beam="1">  1       -1 0.11838428E+00 0.14400729E+04</pdfrwt>
<totfact> 0.56119565E-01</totfact>
</mgrwt>
</event>
<event>
 8    1  0.1449514E-005  0.1261185E+04  0.7818608E-02  0.8561859E-01
         -1   -1    0    0    0  501 -0.00000000000E+00  0.00000000000E+00  0.25841101815E+04  0.25841101815E+04  0.00000000000E+00 0. -1.
          1   -1    0    0  502    0  0.00000000000E+00 -0.00000000000E+00 -0.79367073261E+03  0.79367073261E+03  0.00000000000E+00 0.  1.
    9000010    2    1    2  502    0  0.69056266711E+02  0.74770684008E+03  0.16843560726E+04  0.20927902879E+04  0.98938441636E+03 0.  0.
   -9000010    2    1    2    0  501 -0.69056266711E+02 -0.74770684008E+03  0.10608337632E+03  0.12849906262E+04  0.10373586362E+04 0.  0.
        -13    1    3    3    0    0 -0.33881014746E+03  0.72418583077E+03  0.13308001209E+04  0.15525032710E+04  0.10566000000E+00 0.  1.
          4    1    3    3  502    0  0.40786641417E+03  0.23521009305E+02  0.35355595164E+03  0.54028701690E+03  0.00000000000E+00 0.  1.
         13    1    4    4    0    0 -0.19286834287E+03 -0.92956088692E+03  0.29591838908E+03  0.99440904277E+03  0.10566000000E+00 0. -1.
         -4    1    4    4    0  501  0.12381207616E+03  0.18185404685E+03 -0.18983501276E+03  0.29058158343E+03  0.00000000000E+00 0. -1.
<mgrwt>
<rscale>  2 0.12611854E+04</rscale>
<asrwt>0</asrwt>
<pdfrwt beam="2">  1        1 0.12210319E+00 0.12611854E+04</pdfrwt>
<pdfrwt beam="1">  1       -1 0.39755541E+00 0.12611854E+04</pdfrwt>
<totfact> 0.33924284E-01</totfact>
</mgrwt>
</event>
<event>
 8    1  0.1449514E-005  0.1056238E+04  0.7818608E-02  0.8723473E-01
          1   -1    0    0  502    0  0.00000000000E+00  0.00000000000E+00  0.11064901929E+04  0.11064901929E+04  0.00000000000E+00 0. -1.
         -1   -1    0    0    0  501 -0.00000000000E+00 -0.00000000000E+00 -0.12189955798E+04  0.12189955798E+04  0.00000000000E+00 0.  1.
    9000010    2    1    2  502    0  0.81941181447E+02  0.34726224634E+03  0.42688167214E+03  0.11448079029E+04  0.10005257356E+04 0.  0.
   -9000010    2    1    2    0  501 -0.81941181447E+02 -0.34726224634E+03 -0.53938705898E+03  0.11806778698E+04  0.98780383073E+03 0.  0.
        -13    1    3    3    0    0  0.38328858516E+03  0.48695763149E+03  0.50980839818E+03  0.80246027216E+03  0.10566000000E+00 0.  1.
          4    1    3    3  502    0 -0.30134740371E+03 -0.13969538515E+03 -0.82926726040E+02  0.34234763070E+03  0.00000000000E+00 0.  1.
         13    1    4    4    0    0 -0.17669930274E+03  0.32165154980E+03 -0.25916362537E+03  0.44927514838E+03  0.10566000000E+00 0. -1.
         -4    1    4    4    0  501  0.94758121292E+02 -0.66891379614E+03 -0.28022343361E+03  0.73140272146E+03  0.00000000000E+00 0. -1.
<mgrwt>
<rscale>  2 0.10562376E+04</rscale>
<asrwt>0</asrwt>
<pdfrwt beam="1">  1        1 0.17022926E+00 0.10562376E+04</pdfrwt>
<pdfrwt beam="2">  1       -1 0.18753778E+00 0.10562376E+04</pdfrwt>
<totfact> 0.30731856E+00</totfact>
</mgrwt>
</event>
<event>
 8    1  0.1449514E-005  0.1278080E+04  0.7818608E-02  0.8549977E-01
         -2   -1    0    0    0  501 -0.00000000000E+00  0.00000000000E+00  0.10318490600E+04  0.10318490600E+04  0.00000000000E+00 0.  1.
          2   -1    0    0  502    0  0.00000000000E+00 -0.00000000000E+00 -0.17431151181E+04  0.17431151181E+04  0.00000000000E+00 0. -1.
    9000010    2    1    2  502    0 -0.29647772323E+03  0.71640516145E+03 -0.77888274515E+03  0.15069908463E+04  0.10311293248E+04 0.  0.
   -9000010    2    1    2    0  501  0.29647772323E+03 -0.71640516145E+03  0.67616687058E+02  0.12679733318E+04  0.10010239548E+04 0.  0.
        -13    1    3    3    0    0 -0.37400022010E+03 -0.13756625420E+03 -0.41543823309E+03  0.57566446443E+03  0.10566000000E+00 0.  1.
          4    1    3    3  502    0  0.77522496872E+02  0.85397141565E+03 -0.36344451206E+03  0.93132638189E+03  0.00000000000E+00 0.  1.
         13    1    4    4    0    0  0.46348252179E+03 -0.49641323152E+03  0.43636607775E+03  0.80725306405E+03  0.10566000000E+00 0. -1.
         -4    1    4    4    0  501 -0.16700479857E+03 -0.21999192993E+03 -0.36874939069E+03  0.46072026775E+03  0.00000000000E+00 0. -1.
<mgrwt>
<rscale>  2 0.12780795E+04</rscale>
<asrwt>0</asrwt>
<pdfrwt beam="2">  1        2 0.26817155E+00 0.12780795E+04</pdfrwt>
<pdfrwt beam="1">  1       -2 0.15874601E+00 0.12780795E+04</pdfrwt>
<totfact> 0.32195417E+00</totfact>
</mgrwt>
</event>
<event>
 8    1  0.1449514E-005  0.1111611E+04  0.7818608E-02  0.8676270E-01
          1   -1    0    0  502    0  0.00000000000E+00  0.00000000000E+00  0.32821913622E+04  0.32821913622E+04  0.00000000000E+00 0.  1.
         -1   -1    0    0    0  501 -0.00000000000E+00 -0.00000000000E+00 -0.56092846879E+03  0.56092846879E+03  0.00000000000E+00 0. -1.
    9000010    2    1    2  502    0  0.23004072283E+03 -0.45366600606E+03  0.26927301277E+03  0.11560636407E+04  0.10026183754E+04 0.  0.
   -9000010    2    1    2    0  501 -0.23004072283E+03  0.45366600606E+03  0.24519898807E+04  0.26870561903E+04  0.97431258631E+03 0.  0.
        -13    1    3    3    0    0  0.86931387038E+02 -0.69839945387E+03  0.43529265422E+03  0.82752557012E+03  0.10566000000E+00 0.  1.
          4    1    3    3  502    0  0.14310933579E+03  0.24473344782E+03 -0.16601964145E+03  0.32853807057E+03  0.00000000000E+00 0.  1.
         13    1    4    4    0    0 -0.29998011033E+03  0.69823225811E+03  0.12869951777E+04  0.14946146498E+04  0.10566000000E+00 0. -1.
         -4    1    4    4    0  501  0.69939387506E+02 -0.24456625205E+03  0.11649947030E+04  0.11924415405E+04  0.00000000000E+00 0. -1.
<mgrwt>
<rscale>  2 0.11116111E+04</rscale>
<asrwt>0</asrwt>
<pdfrwt beam="1">  1        1 0.50495251E+00 0.11116111E+04</pdfrwt>
<pdfrwt beam="2">  1       -1 0.86296689E-01 0.11116111E+04</pdfrwt>
<totfact> 0.30272252E-01</totfact>
</mgrwt>
</event>
<event>
 8    1  0.1449514E-005  0.1055386E+04  0.7818608E-02  0.8724223E-01
          4   -1    0    0  502    0  0.00000000000E+00  0.00000000000E+00  0.15643183799E+04  0.15643183799E+04  0.00000000000E+00 0.  1.
         -4   -1    0    0    0  501 -0.00000000000E+00 -0.00000000000E+00 -0.71358339379E+03  0.71358339379E+03  0.00000000000E+00 0. -1.
    9000010    2    1    2  502    0 -0.31059682802E+03  0.81058169630E+02  0.37400369494E+03  0.11235023213E+04  0.10096226452E+04 0.  0.
   -9000010    2    1    2    0  501  0.31059682802E+03 -0.81058169630E+02  0.47673129119E+03  0.11543994524E+04  0.10011616029E+04 0.  0.
        -13    1    3    3    0    0 -0.89167824515E+02 -0.45929163837E+03  0.23340574309E+03  0.52285558434E+03  0.10566000000E+00 0.  1.
          4    1    3    3  502    0 -0.22142900351E+03  0.54034980800E+03  0.14059795185E+03  0.60064673700E+03  0.00000000000E+00 0.  1.
         13    1    4    4    0    0 -0.43521134219E+02  0.20305211510E+03 -0.23285549437E+03  0.31200311376E+03  0.10566000000E+00 0. -1.
         -4    1    4    4    0  501  0.35411796224E+03 -0.28411028473E+03  0.70958678556E+03  0.84239633862E+03  0.00000000000E+00 0. -1.
<mgrwt>
<rscale>  2 0.10553860E+04</rscale>
<asrwt>0</asrwt>
<pdfrwt beam="1">  1        4 0.24066437E+00 0.10553860E+04</pdfrwt>
<pdfrwt beam="2">  1       -4 0.10978206E+00 0.10553860E+04</pdfrwt>
<totfact> 0.35361754E-01</totfact>
</mgrwt>
</event>
<event>
 8    1  0.1449514E-005  0.1249249E+04  0.7818608E-02  0.8570372E-01
         -4   -1    0    0    0  501 -0.00000000000E+00  0.00000000000E+00  0.82643945061E+03  0.82643945061E+03  0.00000000000E+00 0. -1.
          4   -1    0    0  502    0  0.00000000000E+00 -0.00000000000E+00 -0.19409360686E+04  0.19409360686E+04  0.00000000000E+00 0.  1.
    9000010    2    1    2  502    0 -0.74101163646E+02 -0.75606884388E+03 -0.33314262348E+03  0.13005870725E+04  0.10017043708E+04 0.  0.
   -9000010    2    1    2    0  501  0.74101163646E+02  0.75606884388E+03 -0.78135399450E+03  0.14667884467E+04  0.98174497886E+03 0.  0.
        -13    1    3    3    0    0  0.37254115348E+03 -0.57351679230E+02  0.61980494270E+02  0.38199177869E+03  0.10566000000E+00 0.  1.
          4    1    3    3  502    0 -0.44664231713E+03 -0.69871716465E+03 -0.39512311775E+03  0.91859529381E+03  0.00000000000E+00 0.  1.
         13    1    4    4    0    0  0.24657826354E+03  0.46584623448E+03  0.87823667456E+02  0.53434685548E+03  0.10566000000E+00 0. -1.
         -4    1    4    4    0  501 -0.17247709989E+03  0.29022260940E+03 -0.86917766196E+03  0.93244159122E+03  0.00000000000E+00 0. -1.
<mgrwt>
<rscale>  2 0.12492490E+04</rscale>
<asrwt>0</asrwt>
<pdfrwt beam="2">  1        4 0.29860555E+00 0.12492490E+04</pdfrwt>
<pdfrwt beam="1">  1       -4 0.12714453E+00 0.12492490E+04</pdfrwt>
<totfact> 0.19644158E-01</totfact>
</mgrwt>
</event>
<event>
 8    1  0.1449514E-005  0.1150670E+04  0.7818608E-02  0.8644665E-01
          2   -1    0    0  502    0  0.00000000000E+00  0.00000000000E+00  0.12070336330E+04  0.12070336330E+04  0.00000000000E+00 0.  1.
         -2   -1    0    0    0  501 -0.00000000000E+00 -0.00000000000E+00 -0.11450241760E+04  0.11450241760E+04  0.00000000000E+00 0. -1.
    9000010    2    1    2  502    0  0.54798436228E+03  0.21840742491E+02 -0.19734763707E+03  0.10900507607E+04  0.92114097280E+03 0.  0.
   -9000010    2    1    2    0  501 -0.54798436228E+03 -0.21840742491E+02  0.25935709406E+03  0.12620070483E+04  0.11066308365E+04 0.  0.
        -13    1    3    3    0    0  0.44345877240E+03  0.46758119254E+02 -0.55768028840E+03  0.71403733780E+03  0.10566000000E+00 0.  1.
          4    1    3    3  502    0  0.10452558988E+03 -0.24917376763E+02  0.36033265134E+03  0.37601342293E+03  0.00000000000E+00 0.  1.
         13    1    4    4    0    0 -0.26159244400E+03 -0.12236703449E+03 -0.42472629612E+03  0.51361146372E+03  0.10566000000E+00 0. -1.
         -4    1    4    4    0  501 -0.28639191829E+03  0.10052629200E+03  0.68408339019E+03  0.74839558455E+03  0.00000000000E+00 0. -1.
<mgrwt>
<rscale>  2 0.11506696E+04</rscale>
<asrwt>0</asrwt>
<pdfrwt beam="1">  1        2 0.18569748E+00 0.11506696E+04</pdfrwt>
<pdfrwt beam="2">  1       -2 0.17615757E+00 0.11506696E+04</pdfrwt>
<totfact> 0.45936247E+00</totfact>
</mgrwt>
</event>
<event>
 8    1  0.1449514E-005  0.2110228E+04  0.7818608E-02  0.8124930E-01
          2   -1    0    0  502    0  0.00000000000E+00  0.00000000000E+00  0.19650464360E+04  0.19650464360E+04  0.00000000000E+00 0.  1.
         -2   -1    0    0    0  501 -0.00000000000E+00 -0.00000000000E+00 -0.22709667434E+04  0.22709667434E+04  0.00000000000E+00 0. -1.
    9000010    2    1    2  502    0  0.17195672438E+03  0.18468334712E+04 -0.25056032334E+03  0.21239098300E+04  0.10039170807E+04 0.  0.
   -9000010    2    1    2    0  501 -0.17195672438E+03 -0.18468334712E+04 -0.55359984090E+02  0.21121033495E+04  0.10087382443E+04 0.  0.
        -13    1    3    3    0    0  0.29256067619E+02 -0.11565482353E+03  0.57226404449E+02  0.13231337131E+03  0.10566000000E+00 0.  1.
          4    1    3    3  502    0  0.14270065676E+03  0.19624882947E+04 -0.30778672779E+03  0.19915964587E+04  0.00000000000E+00 0.  1.
         13    1    4    4    0    0 -0.34489045953E+03 -0.95915214170E+03 -0.46373103536E+03  0.11198074586E+04  0.10566000000E+00 0. -1.
         -4    1    4    4    0  501  0.17293373516E+03 -0.88768132951E+03  0.40837105127E+03  0.99229589086E+03  0.00000000000E+00 0. -1.
<mgrwt>
<rscale>  2 0.21102278E+04</rscale>
<asrwt>0</asrwt>
<pdfrwt beam="1">  1        2 0.30231484E+00 0.21102278E+04</pdfrwt>
<pdfrwt beam="2">  1       -2 0.34937950E+00 0.21102278E+04</pdfrwt>
<totfact> 0.80689913E-02</totfact>
</mgrwt>
</event>
<event>
 8    1  0.1449514E-005  0.1479832E+04  0.7818608E-02  0.8421202E-01
          2   -1    0    0  502    0  0.00000000000E+00  0.00000000000E+00  0.26175833623E+04  0.26175833623E+04  0.00000000000E+00 0.  1.
         -2   -1    0    0    0  501 -0.00000000000E+00 -0.00000000000E+00 -0.88762062859E+03  0.88762062859E+03  0.00000000000E+00 0. -1.
    9000010    2    1    2  502    0 -0.10970497978E+04 -0.72245789466E+01  0.12851550580E+04  0.19600306878E+04  0.99324031373E+03 0.  0.
   -9000010    2    1    2    0  501  0.10970497978E+04  0.72245789466E+01  0.44480767573E+03  0.15451733030E+04  0.99304391367E+03 0.  0.
        -13    1    3    3    0    0  0.12147962014E+03 -0.15821544338E+03  0.39809462751E+03  0.44527381267E+03  0.10566000000E+00 0.  1.
          4    1    3    3  502    0 -0.12185294180E+04  0.15099086443E+03  0.88706043044E+03  0.15147568752E+04  0.00000000000E+00 0.  1.
         13    1    4    4    0    0 -0.37571326827E+02  0.30436742231E+03  0.81851632704E+02  0.31741271761E+03  0.10566000000E+00 0. -1.
         -4    1    4    4    0  501  0.11346211247E+04 -0.29714284336E+03  0.36295604303E+03  0.12277605854E+04  0.00000000000E+00 0. -1.
<mgrwt>
<rscale>  2 0.14798317E+04</rscale>
<asrwt>0</asrwt>
<pdfrwt beam="1">  1        2 0.40270513E+00 0.14798317E+04</pdfrwt>
<pdfrwt beam="2">  1       -2 0.13655702E+00 0.14798317E+04</pdfrwt>
<totfact> 0.16335507E+00</totfact>
</mgrwt>
</event>
<event>
 8    1  0.1449514E-005  0.1155153E+04  0.7818608E-02  0.8641120E-01
          2   -1    0    0  502    0  0.00000000000E+00  0.00000000000E+00  0.25289463802E+04  0.25289463802E+04  0.00000000000E+00 0. -1.
         -2   -1    0    0    0  501 -0.00000000000E+00 -0.00000000000E+00 -0.54925154928E+03  0.54925154928E+03  0.00000000000E+00 0.  1.
    9000010    2    1    2  502    0  0.56617150151E+03 -0.25699486138E+01  0.68819586936E+03  0.13483564536E+04  0.10118768688E+04 0.  0.
   -9000010    2    1    2    0  501 -0.56617150151E+03  0.25699486138E+01  0.12914989615E+04  0.17298414758E+04  0.10019107696E+04 0.  0.
        -13    1    3    3    0    0  0.84023491519E+03  0.10190907577E+03  0.61449049483E+03  0.10459343917E+04  0.10566000000E+00 0.  1.
          4    1    3    3  502    0 -0.27406341368E+03 -0.10447902438E+03  0.73705374526E+02  0.30242206184E+03  0.00000000000E+00 0.  1.
         13    1    4    4    0    0 -0.56240725740E+03 -0.39137231923E+03  0.10896752237E+04  0.12871931944E+04  0.10566000000E+00 0. -1.
         -4    1    4    4    0  501 -0.37642441182E+01  0.39394226784E+03  0.20182373786E+03  0.44264828147E+03  0.00000000000E+00 0. -1.
<mgrwt>
<rscale>  2 0.11551533E+04</rscale>
<asrwt>0</asrwt>
<pdfrwt beam="1">  1        2 0.38906867E+00 0.11551533E+04</pdfrwt>
<pdfrwt beam="2">  1       -2 0.84500240E-01 0.11551533E+04</pdfrwt>
<totfact> 0.63673739E+00</totfact>
</mgrwt>
</event>
<event>
 8    1  0.1449514E-005  0.1213688E+04  0.7818608E-02  0.8596326E-01
         -2   -1    0    0    0  501 -0.00000000000E+00  0.00000000000E+00  0.69141465367E+03  0.69141465367E+03  0.00000000000E+00 0.  1.
          2   -1    0    0  502    0  0.00000000000E+00 -0.00000000000E+00 -0.21586044075E+04  0.21586044075E+04  0.00000000000E+00 0. -1.
    9000010    2    1    2  502    0  0.66850452021E+03  0.22823616199E+03 -0.89969677367E+03  0.15156089114E+04  0.99429676076E+03 0.  0.
   -9000010    2    1    2    0  501 -0.66850452021E+03 -0.22823616199E+03 -0.56749298020E+03  0.13344101499E+04  0.97959794114E+03 0.  0.
        -13    1    3    3    0    0  0.57457816134E+03  0.47921704008E+03 -0.21215514147E+03  0.77768814457E+03  0.10566000000E+00 0.  1.
          4    1    3    3  502    0  0.93926358870E+02 -0.25098087808E+03 -0.68754163220E+03  0.73792076679E+03  0.00000000000E+00 0.  1.
         13    1    4    4    0    0 -0.15784258987E+03 -0.10283002599E+03 -0.75346461722E+03  0.77665773542E+03  0.10566000000E+00 0. -1.
         -4    1    4    4    0  501 -0.51066193033E+03 -0.12540613600E+03  0.18597163701E+03  0.55775241444E+03  0.00000000000E+00 0. -1.
<mgrwt>
<rscale>  2 0.12136876E+04</rscale>
<asrwt>0</asrwt>
<pdfrwt beam="2">  1        2 0.33209299E+00 0.12136876E+04</pdfrwt>
<pdfrwt beam="1">  1       -2 0.10637149E+00 0.12136876E+04</pdfrwt>
<totfact> 0.58856666E+00</totfact>
</mgrwt>
</event>
<event>
 8    1  0.1449514E-005  0.1142302E+04  0.7818608E-02  0.8651325E-01
          2   -1    0    0  502    0  0.00000000000E+00  0.00000000000E+00  0.25726503892E+04  0.25726503892E+04  0.00000000000E+00 0.  1.
         -2   -1    0    0    0  501 -0.00000000000E+00 -0.00000000000E+00 -0.50727862708E+03  0.50727862708E+03  0.00000000000E+00 0. -1.
    9000010    2    1    2  502    0  0.26181886663E+03 -0.46241845422E+03  0.10312437965E+04  0.15472630958E+04  0.10238063167E+04 0.  0.
   -9000010    2    1    2    0  501 -0.26181886663E+03  0.46241845422E+03  0.10341279657E+04  0.15326659205E+04  0.99863117760E+03 0.  0.
        -13    1    3    3    0    0  0.56217057818E+03  0.35658887285E+02  0.41337590160E+03  0.69870377299E+03  0.10566000000E+00 0.  1.
          4    1    3    3  502    0 -0.30035171154E+03 -0.49807734151E+03  0.61786789489E+03  0.84855932278E+03  0.00000000000E+00 0.  1.
         13    1    4    4    0    0 -0.25961960613E+03  0.75439988117E+03  0.92355599863E+03  0.12204414014E+04  0.10566000000E+00 0. -1.
         -4    1    4    4    0  501 -0.21992605086E+01 -0.29198142695E+03  0.11057196705E+03  0.31222451910E+03  0.00000000000E+00 0. -1.
<mgrwt>
<rscale>  2 0.11423018E+04</rscale>
<asrwt>0</asrwt>
<pdfrwt beam="1">  1        2 0.39579236E+00 0.11423018E+04</pdfrwt>
<pdfrwt beam="2">  1       -2 0.78042867E-01 0.11423018E+04</pdfrwt>
<totfact> 0.71741972E+00</totfact>
</mgrwt>
</event>
<event>
 8    1  0.1449514E-005  0.1123215E+04  0.7818608E-02  0.8666741E-01
         -2   -1    0    0    0  501 -0.00000000000E+00  0.00000000000E+00  0.67952704508E+03  0.67952704508E+03  0.00000000000E+00 0.  1.
          2   -1    0    0  502    0  0.00000000000E+00 -0.00000000000E+00 -0.20570107191E+04  0.20570107191E+04  0.00000000000E+00 0. -1.
    9000010    2    1    2  502    0 -0.45621190899E+03  0.27362857093E+03 -0.26523446976E+03  0.11602888486E+04  0.99645320384E+03 0.  0.
   -9000010    2    1    2    0  501  0.45621190899E+03 -0.27362857093E+03 -0.11122492042E+04  0.15762489156E+04  0.98206947351E+03 0.  0.
        -13    1    3    3    0    0  0.23971443443E+03  0.17585536194E+03 -0.34221953771E+03  0.45332366092E+03  0.10566000000E+00 0.  1.
          4    1    3    3  502    0 -0.69592634342E+03  0.97773208985E+02  0.76985067959E+02  0.70696518765E+03  0.00000000000E+00 0.  1.
         13    1    4    4    0    0  0.72038194358E+03 -0.11783368812E+03 -0.10232068015E+04  0.12568958161E+04  0.10566000000E+00 0. -1.
         -4    1    4    4    0  501 -0.26417003459E+03 -0.15579488280E+03 -0.89042402776E+02  0.31935309952E+03  0.00000000000E+00 0. -1.
<mgrwt>
<rscale>  2 0.11232148E+04</rscale>
<asrwt>0</asrwt>
<pdfrwt beam="2">  1        2 0.31646319E+00 0.11232148E+04</pdfrwt>
<pdfrwt beam="1">  1       -2 0.10454262E+00 0.11232148E+04</pdfrwt>
<totfact> 0.70507324E+00</totfact>
</mgrwt>
</event>
<event>
 8    1  0.1449514E-005  0.1368749E+04  0.7818608E-02  0.8489286E-01
          2   -1    0    0  502    0  0.00000000000E+00  0.00000000000E+00  0.25666754964E+04  0.25666754964E+04  0.00000000000E+00 0. -1.
         -2   -1    0    0    0  501 -0.00000000000E+00 -0.00000000000E+00 -0.73514421422E+03  0.73514421422E+03  0.00000000000E+00 0.  1.
    9000010    2    1    2  502    0  0.94616683267E+03 -0.12653667675E+03  0.77001283220E+03  0.15610274783E+04  0.96573486026E+03 0.  0.
   -9000010    2    1    2    0  501 -0.94616683267E+03  0.12653667675E+03  0.10615184500E+04  0.17407922324E+04  0.99613903185E+03 0.  0.
        -13    1    3    3    0    0  0.82136294161E+02  0.35569480777E+03  0.15973939314E+03  0.39847440568E+03  0.10566000000E+00 0.  1.
          4    1    3    3  502    0  0.86403053851E+03 -0.48223148452E+03  0.61027343906E+03  0.11625530726E+04  0.00000000000E+00 0.  1.
         13    1    4    4    0    0 -0.44049039217E+03  0.47668495098E+03  0.19412245971E+03  0.67745396051E+03  0.10566000000E+00 0. -1.
         -4    1    4    4    0  501 -0.50567644050E+03 -0.35014827423E+03  0.86739599030E+03  0.10633382719E+04  0.00000000000E+00 0. -1.
<mgrwt>
<rscale>  2 0.13687491E+04</rscale>
<asrwt>0</asrwt>
<pdfrwt beam="1">  1        2 0.39487315E+00 0.13687491E+04</pdfrwt>
<pdfrwt beam="2">  1       -2 0.11309911E+00 0.13687491E+04</pdfrwt>
<totfact> 0.29469447E+00</totfact>
</mgrwt>
</event>
<event>
 8    1  0.1449514E-005  0.1079168E+04  0.7818608E-02  0.8703568E-01
          1   -1    0    0  502    0  0.00000000000E+00  0.00000000000E+00  0.11985153387E+04  0.11985153387E+04  0.00000000000E+00 0.  1.
         -1   -1    0    0    0  501 -0.00000000000E+00 -0.00000000000E+00 -0.97179922842E+03  0.97179922842E+03  0.00000000000E+00 0. -1.
    9000010    2    1    2  502    0 -0.12309233811E+03  0.42262044057E+03  0.10665277412E+03  0.10920203547E+04  0.99366688606E+03 0.  0.
   -9000010    2    1    2    0  501  0.12309233811E+03 -0.42262044057E+03  0.12006333612E+03  0.10782942123E+04  0.97700739157E+03 0.  0.
        -13    1    3    3    0    0  0.21184065988E+00  0.21736725372E+03 -0.44246169573E+03  0.49297153185E+03  0.10566000000E+00 0.  1.
          4    1    3    3  502    0 -0.12330417876E+03  0.20525318686E+03  0.54911446984E+03  0.59904882289E+03  0.00000000000E+00 0.  1.
         13    1    4    4    0    0  0.34029223170E+02 -0.73478121491E+03  0.15525402515E+03  0.75177473042E+03  0.10566000000E+00 0. -1.
         -4    1    4    4    0  501  0.89063114935E+02  0.31216077433E+03 -0.35190689031E+02  0.32651948191E+03  0.00000000000E+00 0. -1.
<mgrwt>
<rscale>  2 0.10791676E+04</rscale>
<asrwt>0</asrwt>
<pdfrwt beam="1">  1        1 0.18438698E+00 0.10791676E+04</pdfrwt>
<pdfrwt beam="2">  1       -1 0.14950757E+00 0.10791676E+04</pdfrwt>
<totfact> 0.55544726E+00</totfact>
</mgrwt>
</event>
<event>
 8    1  0.1449514E-005  0.1335624E+04  0.7818608E-02  0.8510882E-01
         -1   -1    0    0    0  501 -0.00000000000E+00  0.00000000000E+00  0.29807459267E+04  0.29807459267E+04  0.00000000000E+00 0. -1.
          1   -1    0    0  502    0  0.00000000000E+00 -0.00000000000E+00 -0.60020043265E+03  0.60020043265E+03  0.00000000000E+00 0.  1.
    9000010    2    1    2  502    0  0.86660452234E+03  0.13231467626E+03  0.12933367002E+04  0.18654147941E+04  0.10190887903E+04 0.  0.
   -9000010    2    1    2    0  501 -0.86660452234E+03 -0.13231467626E+03  0.10872087939E+04  0.17155315652E+04  0.99625047956E+03 0.  0.
        -13    1    3    3    0    0 -0.17028005807E+03  0.12651158392E+03  0.55029846321E+03  0.58977020000E+03  0.10566000000E+00 0.  1.
          4    1    3    3  502    0  0.10368845804E+04  0.58030923428E+01  0.74303823695E+03  0.12756445941E+04  0.00000000000E+00 0.  1.
         13    1    4    4    0    0  0.18386919715E+02 -0.17536156404E+03  0.74520242461E+03  0.76577831111E+03  0.10566000000E+00 0. -1.
         -4    1    4    4    0  501 -0.88499144206E+03  0.43046887777E+02  0.34200636929E+03  0.94975325411E+03  0.00000000000E+00 0. -1.
<mgrwt>
<rscale>  2 0.13356237E+04</rscale>
<asrwt>0</asrwt>
<pdfrwt beam="2">  1        1 0.92338530E-01 0.13356237E+04</pdfrwt>
<pdfrwt beam="1">  1       -1 0.45857629E+00 0.13356237E+04</pdfrwt>
<totfact> 0.50407438E-01</totfact>
</mgrwt>
</event>
<event>
 8    1  0.1449514E-005  0.1506298E+04  0.7818608E-02  0.8405884E-01
          2   -1    0    0  502    0  0.00000000000E+00  0.00000000000E+00  0.23681023298E+04  0.23681023298E+04  0.00000000000E+00 0.  1.
         -2   -1    0    0    0  501 -0.00000000000E+00 -0.00000000000E+00 -0.98176903858E+03  0.98176903858E+03  0.00000000000E+00 0. -1.
    9000010    2    1    2  502    0  0.98633497178E+03 -0.54696270635E+03  0.95461641295E+03  0.17862196648E+04  0.10036250876E+04 0.  0.
   -9000010    2    1    2    0  501 -0.98633497178E+03  0.54696270635E+03  0.43171687828E+03  0.15636517036E+04  0.99327856536E+03 0.  0.
        -13    1    3    3    0    0  0.13999800733E+03  0.26941384052E+03  0.61958206696E+02  0.30987431333E+03  0.10566000000E+00 0.  1.
          4    1    3    3  502    0  0.84633696445E+03 -0.81637654687E+03  0.89265820626E+03  0.14763453515E+04  0.00000000000E+00 0.  1.
         13    1    4    4    0    0 -0.65844676670E+03 -0.14559457231E+03 -0.19091412973E+02  0.67462168456E+03  0.10566000000E+00 0. -1.
         -4    1    4    4    0  501 -0.32788820509E+03  0.69255727866E+03  0.45080829126E+03  0.88903001902E+03  0.00000000000E+00 0. -1.
<mgrwt>
<rscale>  2 0.15062982E+04</rscale>
<asrwt>0</asrwt>
<pdfrwt beam="1">  1        2 0.36432343E+00 0.15062982E+04</pdfrwt>
<pdfrwt beam="2">  1       -2 0.15104139E+00 0.15062982E+04</pdfrwt>
<totfact> 0.16707752E+00</totfact>
</mgrwt>
</event>
<event>
 8    1  0.1449514E-005  0.1293250E+04  0.7818608E-02  0.8539467E-01
          2   -1    0    0  502    0  0.00000000000E+00  0.00000000000E+00  0.12400606219E+04  0.12400606219E+04  0.00000000000E+00 0. -1.
         -2   -1    0    0    0  501 -0.00000000000E+00 -0.00000000000E+00 -0.14495787243E+04  0.14495787243E+04  0.00000000000E+00 0.  1.
    9000010    2    1    2  502    0  0.77765321205E+03  0.27459303889E+03 -0.46003678432E+03  0.13810156868E+04  0.10076828018E+04 0.  0.
   -9000010    2    1    2    0  501 -0.77765321205E+03 -0.27459303889E+03  0.25051868189E+03  0.13086236595E+04  0.98467782395E+03 0.  0.
        -13    1    3    3    0    0  0.45384972489E+03  0.63932270680E+03 -0.13674706101E+03  0.79587239309E+03  0.10566000000E+00 0.  1.
          4    1    3    3  502    0  0.32380348715E+03 -0.36472966791E+03 -0.32328972331E+03  0.58514329369E+03  0.00000000000E+00 0.  1.
         13    1    4    4    0    0 -0.35288542198E+03 -0.58440270971E+03 -0.80402353745E+02  0.68740031846E+03  0.10566000000E+00 0. -1.
         -4    1    4    4    0  501 -0.42476779007E+03  0.30980967082E+03  0.33092103563E+03  0.62122334103E+03  0.00000000000E+00 0. -1.
<mgrwt>
<rscale>  2 0.12932503E+04</rscale>
<asrwt>0</asrwt>
<pdfrwt beam="1">  1        2 0.19077856E+00 0.12932503E+04</pdfrwt>
<pdfrwt beam="2">  1       -2 0.22301211E+00 0.12932503E+04</pdfrwt>
<totfact> 0.17785731E+00</totfact>
</mgrwt>
</event>
<event>
 8    1  0.1449514E-005  0.1028720E+04  0.7818608E-02  0.8748065E-01
          2   -1    0    0  502    0  0.00000000000E+00  0.00000000000E+00  0.99195885050E+03  0.99195885050E+03  0.00000000000E+00 0. -1.
         -2   -1    0    0    0  501 -0.00000000000E+00 -0.00000000000E+00 -0.11062391302E+04  0.11062391302E+04  0.00000000000E+00 0.  1.
    9000010    2    1    2  502    0  0.20215111918E+03 -0.21184936849E+03 -0.25305154759E+03  0.10405053874E+04  0.96585254856E+03 0.  0.
   -9000010    2    1    2    0  501 -0.20215111918E+03  0.21184936849E+03  0.13877126786E+03  0.10576925933E+04  0.10068321247E+04 0.  0.
        -13    1    3    3    0    0  0.19671700102E+03 -0.45313729629E+03  0.19539738341E+03  0.53123548110E+03  0.10566000000E+00 0.  1.
          4    1    3    3  502    0  0.54341181570E+01  0.24128792780E+03 -0.44844893100E+03  0.50926990629E+03  0.00000000000E+00 0.  1.
         13    1    4    4    0    0  0.10173488547E+03  0.27909137564E+01  0.51845058020E+03  0.52834533346E+03  0.10566000000E+00 0. -1.
         -4    1    4    4    0  501 -0.30388600465E+03  0.20905845473E+03 -0.37967931234E+03  0.52934725987E+03  0.00000000000E+00 0. -1.
<mgrwt>
<rscale>  2 0.10287199E+04</rscale>
<asrwt>0</asrwt>
<pdfrwt beam="1">  1        2 0.15260905E+00 0.10287199E+04</pdfrwt>
<pdfrwt beam="2">  1       -2 0.17019064E+00 0.10287199E+04</pdfrwt>
<totfact> 0.69756438E+00</totfact>
</mgrwt>
</event>
<event>
 8    1  0.1449514E-005  0.1146435E+04  0.7818608E-02  0.8648028E-01
         -1   -1    0    0    0  501 -0.00000000000E+00  0.00000000000E+00  0.10072009638E+04  0.10072009638E+04  0.00000000000E+00 0. -1.
          1   -1    0    0  502    0  0.00000000000E+00 -0.00000000000E+00 -0.14006702931E+04  0.14006702931E+04  0.00000000000E+00 0.  1.
    9000010    2    1    2  502    0  0.43672575034E+02 -0.41499808059E+03  0.10247827902E+03  0.12113272067E+04  0.11325551215E+04 0.  0.
   -9000010    2    1    2    0  501 -0.43672575034E+02  0.41499808059E+03 -0.49594760835E+03  0.11965440502E+04  0.10057946774E+04 0.  0.
        -13    1    3    3    0    0  0.84442041808E+02  0.13561056281E+03 -0.42112755231E+03  0.45040993511E+03  0.10566000000E+00 0.  1.
          4    1    3    3  502    0 -0.40769466774E+02 -0.55060864340E+03  0.52360583133E+03  0.76091727159E+03  0.00000000000E+00 0.  1.
         13    1    4    4    0    0  0.24907300274E+02 -0.15792413618E+03  0.22318416026E+03  0.27453886237E+03  0.10566000000E+00 0. -1.
         -4    1    4    4    0  501 -0.68579875308E+02  0.57292221677E+03 -0.71913176862E+03  0.92200518784E+03  0.00000000000E+00 0. -1.
<mgrwt>
<rscale>  2 0.11464351E+04</rscale>
<asrwt>0</asrwt>
<pdfrwt beam="2">  1        1 0.21548774E+00 0.11464351E+04</pdfrwt>
<pdfrwt beam="1">  1       -1 0.15495399E+00 0.11464351E+04</pdfrwt>
<totfact> 0.34778825E+00</totfact>
</mgrwt>
</event>
<event>
 8    1  0.1449514E-005  0.1066877E+04  0.7818608E-02  0.8714173E-01
          2   -1    0    0  502    0  0.00000000000E+00  0.00000000000E+00  0.14376574702E+04  0.14376574702E+04  0.00000000000E+00 0.  1.
         -2   -1    0    0    0  501 -0.00000000000E+00 -0.00000000000E+00 -0.79317296789E+03  0.79317296789E+03  0.00000000000E+00 0. -1.
    9000010    2    1    2  502    0 -0.40508356211E+03 -0.25417109033E+02  0.36522859934E+03  0.11173377494E+04  0.97483998422E+03 0.  0.
   -9000010    2    1    2    0  501  0.40508356211E+03  0.25417109033E+02  0.27925590298E+03  0.11134926887E+04  0.99857067182E+03 0.  0.
        -13    1    3    3    0    0 -0.43650615152E+03  0.41465303855E+03  0.12468696229E+03  0.61483462201E+03  0.10566000000E+00 0.  1.
          4    1    3    3  502    0  0.31422589412E+02 -0.44007014759E+03  0.24054163705E+03  0.50250312743E+03  0.00000000000E+00 0.  1.
         13    1    4    4    0    0  0.40941372023E+03  0.21284720206E+03 -0.26896368765E+03  0.53410205221E+03  0.10566000000E+00 0. -1.
         -4    1    4    4    0  501 -0.43301581269E+01 -0.18743009302E+03  0.54821959063E+03  0.57939063644E+03  0.00000000000E+00 0. -1.
<mgrwt>
<rscale>  2 0.10668768E+04</rscale>
<asrwt>0</asrwt>
<pdfrwt beam="1">  1        2 0.22117807E+00 0.10668768E+04</pdfrwt>
<pdfrwt beam="2">  1       -2 0.12202661E+00 0.10668768E+04</pdfrwt>
<totfact> 0.10388746E+01</totfact>
</mgrwt>
</event>
<event>
 8    1  0.1449514E-005  0.1364508E+04  0.7818608E-02  0.8492015E-01
          2   -1    0    0  502    0  0.00000000000E+00  0.00000000000E+00  0.27578374960E+04  0.27578374960E+04  0.00000000000E+00 0. -1.
         -2   -1    0    0    0  501 -0.00000000000E+00 -0.00000000000E+00 -0.67662359598E+03  0.67662359598E+03  0.00000000000E+00 0.  1.
    9000010    2    1    2  502    0  0.74076594731E+03 -0.58610409831E+03  0.11200062891E+04  0.17638821420E+04  0.98214760626E+03 0.  0.
   -9000010    2    1    2    0  501 -0.74076594731E+03  0.58610409831E+03  0.96120761095E+03  0.16705789500E+04  0.98724959057E+03 0.  0.
        -13    1    3    3    0    0  0.73630648641E+03 -0.59533122542E+03  0.37439968292E+03  0.10182051088E+04  0.10566000000E+00 0.  1.
          4    1    3    3  502    0  0.44594609006E+01  0.92271271058E+01  0.74560660613E+03  0.74567703315E+03  0.00000000000E+00 0.  1.
         13    1    4    4    0    0 -0.94892758495E+03  0.27418689495E+03  0.74977342211E+03  0.12400815338E+04  0.10566000000E+00 0. -1.
         -4    1    4    4    0  501  0.20816163763E+03  0.31191720336E+03  0.21143418885E+03  0.43049741619E+03  0.00000000000E+00 0. -1.
<mgrwt>
<rscale>  2 0.13645084E+04</rscale>
<asrwt>0</asrwt>
<pdfrwt beam="1">  1        2 0.42428269E+00 0.13645084E+04</pdfrwt>
<pdfrwt beam="2">  1       -2 0.10409594E+00 0.13645084E+04</pdfrwt>
<totfact> 0.28118244E+00</totfact>
</mgrwt>
</event>
<event>
 8    1  0.1449514E-005  0.1293602E+04  0.7818608E-02  0.8539225E-01
          2   -1    0    0  502    0  0.00000000000E+00  0.00000000000E+00  0.19858668201E+04  0.19858668201E+04  0.00000000000E+00 0. -1.
         -2   -1    0    0    0  501 -0.00000000000E+00 -0.00000000000E+00 -0.84762570092E+03  0.84762570092E+03  0.00000000000E+00 0.  1.
    9000010    2    1    2  502    0 -0.49943102427E+03 -0.47777277704E+03  0.50614218496E+03  0.13020919460E+04  0.98059438604E+03 0.  0.
   -9000010    2    1    2    0  501  0.49943102427E+03  0.47777277704E+03  0.63209893426E+03  0.15314005751E+04  0.12115859376E+04 0.  0.
        -13    1    3    3    0    0 -0.40147931559E+03  0.10801658272E+03  0.56915774947E+03  0.70483599364E+03  0.10566000000E+00 0.  1.
          4    1    3    3  502    0 -0.97951708678E+02 -0.58578935976E+03 -0.63015564514E+02  0.59725595234E+03  0.00000000000E+00 0.  1.
         13    1    4    4    0    0  0.51209778514E+03  0.56852599586E+03 -0.11932874127E+03  0.77440642377E+03  0.10566000000E+00 0. -1.
         -4    1    4    4    0  501 -0.12666760874E+02 -0.90753218818E+02  0.75142767553E+03  0.75699415131E+03  0.00000000000E+00 0. -1.
<mgrwt>
<rscale>  2 0.12936018E+04</rscale>
<asrwt>0</asrwt>
<pdfrwt beam="1">  1        2 0.30551797E+00 0.12936018E+04</pdfrwt>
<pdfrwt beam="2">  1       -2 0.13040395E+00 0.12936018E+04</pdfrwt>
<totfact> 0.42555072E+00</totfact>
</mgrwt>
</event>
<event>
 8    1  0.1449514E-005  0.1001641E+04  0.7818608E-02  0.8773051E-01
          2   -1    0    0  502    0  0.00000000000E+00  0.00000000000E+00  0.97193521788E+03  0.97193521788E+03  0.00000000000E+00 0.  1.
         -2   -1    0    0    0  501 -0.00000000000E+00 -0.00000000000E+00 -0.10657781047E+04  0.10657781047E+04  0.00000000000E+00 0. -1.
    9000010    2    1    2  502    0  0.16245888172E+03  0.11171892204E+03 -0.22771968914E+03  0.10298295375E+04  0.98479369094E+03 0.  0.
   -9000010    2    1    2    0  501 -0.16245888172E+03 -0.11171892204E+03  0.13387680232E+03  0.10078837851E+04  0.97930215981E+03 0.  0.
        -13    1    3    3    0    0  0.36008376074E+03  0.22618326994E+03  0.25498875355E+03  0.49582099789E+03  0.10566000000E+00 0.  1.
          4    1    3    3  502    0 -0.19762487902E+03 -0.11446434790E+03 -0.48270844269E+03  0.53400853962E+03  0.00000000000E+00 0.  1.
         13    1    4    4    0    0  0.32583518466E+02  0.42505638178E+03  0.84899616276E+02  0.43467524587E+03  0.10566000000E+00 0. -1.
         -4    1    4    4    0  501 -0.19504240019E+03 -0.53677530382E+03  0.48977186044E+02  0.57320853920E+03  0.00000000000E+00 0. -1.
<mgrwt>
<rscale>  2 0.10016412E+04</rscale>
<asrwt>0</asrwt>
<pdfrwt beam="1">  1        2 0.14952850E+00 0.10016412E+04</pdfrwt>
<pdfrwt beam="2">  1       -2 0.16396586E+00 0.10016412E+04</pdfrwt>
<totfact> 0.81180087E+00</totfact>
</mgrwt>
</event>
<event>
 8    1  0.1449514E-005  0.1501795E+04  0.7818608E-02  0.8408467E-01
          1   -1    0    0  502    0  0.00000000000E+00  0.00000000000E+00  0.23644479404E+04  0.23644479404E+04  0.00000000000E+00 0. -1.
         -1   -1    0    0    0  501 -0.00000000000E+00 -0.00000000000E+00 -0.95513797631E+03  0.95513797631E+03  0.00000000000E+00 0.  1.
    9000010    2    1    2  502    0  0.10538940865E+04 -0.20866128734E+03  0.64395769487E+03  0.16333428537E+04  0.10482819689E+04 0.  0.
   -9000010    2    1    2    0  501 -0.10538940865E+04  0.20866128734E+03  0.76535226918E+03  0.16862430630E+04  0.10504376674E+04 0.  0.
        -13    1    3    3    0    0  0.93894906739E+02 -0.48786925461E+03  0.15526132093E+03  0.52051777303E+03  0.10566000000E+00 0.  1.
          4    1    3    3  502    0  0.95999917979E+03  0.27920796726E+03  0.48869637394E+03  0.11128250806E+04  0.00000000000E+00 0.  1.
         13    1    4    4    0    0 -0.11516114118E+04  0.16667503627E+02  0.32610291322E+03  0.11970086761E+04  0.10566000000E+00 0. -1.
         -4    1    4    4    0  501  0.97717325252E+02  0.19199378372E+03  0.43924935596E+03  0.48923438693E+03  0.00000000000E+00 0. -1.
<mgrwt>
<rscale>  2 0.15017950E+04</rscale>
<asrwt>0</asrwt>
<pdfrwt beam="1">  1        1 0.36376122E+00 0.15017950E+04</pdfrwt>
<pdfrwt beam="2">  1       -1 0.14694430E+00 0.15017950E+04</pdfrwt>
<totfact> 0.70435279E-01</totfact>
</mgrwt>
</event>
<event>
 8    1  0.1449514E-005  0.1934595E+04  0.7818608E-02  0.8195554E-01
         -2   -1    0    0    0  501 -0.00000000000E+00  0.00000000000E+00  0.12342380687E+04  0.12342380687E+04  0.00000000000E+00 0. -1.
          2   -1    0    0  502    0  0.00000000000E+00 -0.00000000000E+00 -0.31048651093E+04  0.31048651093E+04  0.00000000000E+00 0.  1.
    9000010    2    1    2  502    0  0.13041544102E+04 -0.10260269611E+04 -0.12653089254E+04  0.23089469886E+04  0.98827094915E+03 0.  0.
   -9000010    2    1    2    0  501 -0.13041544102E+04  0.10260269611E+04 -0.60531811516E+03  0.20301561893E+04  0.10007867314E+04 0.  0.
        -13    1    3    3    0    0  0.13333099410E+04 -0.11740399600E+04 -0.12040963905E+04  0.21461438337E+04  0.10566000000E+00 0.  1.
          4    1    3    3  502    0 -0.29155530779E+02  0.14801299887E+03 -0.61212534995E+02  0.16280315491E+03  0.00000000000E+00 0.  1.
         13    1    4    4    0    0 -0.10675941986E+04  0.50068310418E+03  0.20718260757E+02  0.11793516021E+04  0.10566000000E+00 0. -1.
         -4    1    4    4    0  501 -0.23656021156E+03  0.52534385691E+03 -0.62603637591E+03  0.85080458723E+03  0.00000000000E+00 0. -1.
<mgrwt>
<rscale>  2 0.19345946E+04</rscale>
<asrwt>0</asrwt>
<pdfrwt beam="2">  1        2 0.47767155E+00 0.19345946E+04</pdfrwt>
<pdfrwt beam="1">  1       -2 0.18988278E+00 0.19345946E+04</pdfrwt>
<totfact> 0.27287133E-01</totfact>
</mgrwt>
</event>
<event>
 8    1  0.1449514E-005  0.1139363E+04  0.7818608E-02  0.8653678E-01
         -2   -1    0    0    0  501 -0.00000000000E+00  0.00000000000E+00  0.43844909926E+03  0.43844909926E+03  0.00000000000E+00 0. -1.
          2   -1    0    0  502    0  0.00000000000E+00 -0.00000000000E+00 -0.31951757037E+04  0.31951757037E+04  0.00000000000E+00 0.  1.
    9000010    2    1    2  502    0 -0.25039446104E+03 -0.59190521565E+03 -0.95089164850E+03  0.15248201312E+04  0.10039085291E+04 0.  0.
   -9000010    2    1    2    0  501  0.25039446104E+03  0.59190521565E+03 -0.18058349560E+04  0.21088046718E+04  0.87918603570E+03 0.  0.
        -13    1    3    3    0    0  0.17053233658E+03  0.79781317007E+02 -0.65038968147E+03  0.67709163729E+03  0.10566000000E+00 0.  1.
          4    1    3    3  502    0 -0.42092679762E+03 -0.67168653266E+03 -0.30050196703E+03  0.84772849386E+03  0.00000000000E+00 0.  1.
         13    1    4    4    0    0  0.13198630837E+03  0.68057097373E+03 -0.67245524749E+03  0.96581225242E+03  0.10566000000E+00 0. -1.
         -4    1    4    4    0  501  0.11840815267E+03 -0.88665758086E+02 -0.11333797085E+04  0.11429924194E+04  0.00000000000E+00 0. -1.
<mgrwt>
<rscale>  2 0.11393633E+04</rscale>
<asrwt>0</asrwt>
<pdfrwt beam="2">  1        2 0.49156552E+00 0.11393633E+04</pdfrwt>
<pdfrwt beam="1">  1       -2 0.67453704E-01 0.11393633E+04</pdfrwt>
<totfact> 0.41132336E+00</totfact>
</mgrwt>
</event>
<event>
 8    1  0.1449514E-005  0.1033365E+04  0.7818608E-02  0.8743859E-01
         -2   -1    0    0    0  501 -0.00000000000E+00  0.00000000000E+00  0.43562397065E+03  0.43562397065E+03  0.00000000000E+00 0. -1.
          2   -1    0    0  502    0  0.00000000000E+00 -0.00000000000E+00 -0.26947820880E+04  0.26947820880E+04  0.00000000000E+00 0.  1.
    9000010    2    1    2  502    0  0.26786679794E+03 -0.39561907531E+02 -0.15888798339E+04  0.18894390684E+04  0.98596303214E+03 0.  0.
   -9000010    2    1    2    0  501 -0.26786679794E+03  0.39561907531E+02 -0.67027828350E+03  0.12409669903E+04  0.10086666088E+04 0.  0.
        -13    1    3    3    0    0  0.23757873420E+03 -0.29097592970E+03 -0.11340593127E+03  0.39239210366E+03  0.10566000000E+00 0.  1.
          4    1    3    3  502    0  0.30288063740E+02  0.25141402217E+03 -0.14754739026E+04  0.14970469648E+04  0.00000000000E+00 0.  1.
         13    1    4    4    0    0 -0.60526075395E+03  0.16776512112E+03 -0.60903646128E+03  0.87487778488E+03  0.10566000000E+00 0. -1.
         -4    1    4    4    0  501  0.33739395601E+03 -0.12820321359E+03 -0.61241822217E+02  0.36608920541E+03  0.00000000000E+00 0. -1.
<mgrwt>
<rscale>  2 0.10333651E+04</rscale>
<asrwt>0</asrwt>
<pdfrwt beam="2">  1        2 0.41458185E+00 0.10333651E+04</pdfrwt>
<pdfrwt beam="1">  1       -2 0.67019074E-01 0.10333651E+04</pdfrwt>
<totfact> 0.85369308E+00</totfact>
</mgrwt>
</event>
<event>
 8    1  0.1449514E-005  0.1225559E+04  0.7818608E-02  0.8587561E-01
         -1   -1    0    0    0  501 -0.00000000000E+00  0.00000000000E+00  0.10519882523E+04  0.10519882523E+04  0.00000000000E+00 0. -1.
          1   -1    0    0  502    0  0.00000000000E+00 -0.00000000000E+00 -0.14813995123E+04  0.14813995123E+04  0.00000000000E+00 0.  1.
    9000010    2    1    2  502    0 -0.65568620127E+03  0.28370711731E+03  0.26013766114E+02  0.12275666221E+04  0.99791230715E+03 0.  0.
   -9000010    2    1    2    0  501  0.65568620127E+03 -0.28370711731E+03 -0.45542502610E+03  0.13058211425E+04  0.99365123601E+03 0.  0.
        -13    1    3    3    0    0 -0.97179526485E+01 -0.25473182857E+03 -0.23534302924E+03  0.34694249620E+03  0.10566000000E+00 0.  1.
          4    1    3    3  502    0 -0.64596824862E+03  0.53843894588E+03  0.26135679535E+03  0.88062412592E+03  0.00000000000E+00 0.  1.
         13    1    4    4    0    0  0.38004913844E+03 -0.20760431262E+03 -0.76831121396E+03  0.88195183027E+03  0.10566000000E+00 0. -1.
         -4    1    4    4    0  501  0.27563706283E+03 -0.76102804686E+02  0.31288618786E+03  0.42386931222E+03  0.00000000000E+00 0. -1.
<mgrwt>
<rscale>  2 0.12255587E+04</rscale>
<asrwt>0</asrwt>
<pdfrwt beam="2">  1        1 0.22790762E+00 0.12255587E+04</pdfrwt>
<pdfrwt beam="1">  1       -1 0.16184435E+00 0.12255587E+04</pdfrwt>
<totfact> 0.26140319E+00</totfact>
</mgrwt>
</event>
<event>
 8    1  0.1449514E-005  0.9296457E+03  0.7818608E-02  0.8843660E-01
          2   -1    0    0  502    0  0.00000000000E+00  0.00000000000E+00  0.90254857772E+03  0.90254857772E+03  0.00000000000E+00 0.  1.
         -2   -1    0    0    0  501 -0.00000000000E+00 -0.00000000000E+00 -0.99773770287E+03  0.99773770287E+03  0.00000000000E+00 0. -1.
    9000010    2    1    2  502    0 -0.55075738592E+02 -0.16097536450E+03  0.11990021329E+03  0.10221300134E+04  0.10007133946E+04 0.  0.
   -9000010    2    1    2    0  501  0.55075738592E+02  0.16097536450E+03 -0.21508933843E+03  0.87815626718E+03  0.83423533917E+03 0.  0.
        -13    1    3    3    0    0 -0.12478883730E+03  0.30029745383E+03 -0.26329171584E+03  0.41841767827E+03  0.10566000000E+00 0.  1.
          4    1    3    3  502    0  0.69713098710E+02 -0.46127281833E+03  0.38319192913E+03  0.60371233515E+03  0.00000000000E+00 0.  1.
         13    1    4    4    0    0 -0.95037413164E+02  0.11466164900E+03  0.30254247502E+03  0.33721115641E+03  0.10566000000E+00 0. -1.
         -4    1    4    4    0  501  0.15011315176E+03  0.46313715495E+02 -0.51763181345E+03  0.54094511077E+03  0.00000000000E+00 0. -1.
<mgrwt>
<rscale>  2 0.92964571E+03</rscale>
<asrwt>0</asrwt>
<pdfrwt beam="1">  1        2 0.13885363E+00 0.92964571E+03</pdfrwt>
<pdfrwt beam="2">  1       -2 0.15349811E+00 0.92964571E+03</pdfrwt>
<totfact> 0.11138417E+01</totfact>
</mgrwt>
</event>
<event>
 8    1  0.1449514E-005  0.1347926E+04  0.7818608E-02  0.8502787E-01
          2   -1    0    0  502    0  0.00000000000E+00  0.00000000000E+00  0.21150609288E+04  0.21150609288E+04  0.00000000000E+00 0. -1.
         -2   -1    0    0    0  501 -0.00000000000E+00 -0.00000000000E+00 -0.87656532110E+03  0.87656532110E+03  0.00000000000E+00 0.  1.
    9000010    2    1    2  502    0  0.28872603608E+03 -0.86160113549E+03  0.82840796753E+03  0.15777654483E+04  0.98861762502E+03 0.  0.
   -9000010    2    1    2    0  501 -0.28872603608E+03  0.86160113549E+03  0.41008764019E+03  0.14138608016E+04  0.10025523693E+04 0.  0.
        -13    1    3    3    0    0  0.32318630411E+03 -0.10582571288E+04  0.82127128840E+03  0.13779855145E+04  0.10566000000E+00 0.  1.
          4    1    3    3  502    0 -0.34460268034E+02  0.19665599327E+03  0.71366791267E+01  0.19977993381E+03  0.00000000000E+00 0.  1.
         13    1    4    4    0    0 -0.50313638587E+03  0.95374271948E+03  0.19364231240E+03  0.10955677770E+04  0.10566000000E+00 0. -1.
         -4    1    4    4    0  501  0.21441034979E+03 -0.92141583997E+02  0.21644532779E+03  0.31829302462E+03  0.00000000000E+00 0. -1.
<mgrwt>
<rscale>  2 0.13479259E+04</rscale>
<asrwt>0</asrwt>
<pdfrwt beam="1">  1        2 0.32539399E+00 0.13479259E+04</pdfrwt>
<pdfrwt beam="2">  1       -2 0.13485620E+00 0.13479259E+04</pdfrwt>
<totfact> 0.32709891E+00</totfact>
</mgrwt>
</event>
<event>
 8    1  0.1449514E-005  0.1185590E+04  0.7818608E-02  0.8617493E-01
          2   -1    0    0  502    0  0.00000000000E+00  0.00000000000E+00  0.18590272774E+04  0.18590272774E+04  0.00000000000E+00 0.  1.
         -2   -1    0    0    0  501 -0.00000000000E+00 -0.00000000000E+00 -0.75766150508E+03  0.75766150508E+03  0.00000000000E+00 0. -1.
    9000010    2    1    2  502    0  0.61285851327E+03 -0.23179186652E+03  0.61463189122E+03  0.13493972435E+04  0.10068652007E+04 0.  0.
   -9000010    2    1    2    0  501 -0.61285851327E+03  0.23179186652E+03  0.48673388114E+03  0.12672915391E+04  0.96943021784E+03 0.  0.
        -13    1    3    3    0    0 -0.89661085294E+02 -0.15169541914E+03  0.61767638566E+03  0.64231981051E+03  0.10566000000E+00 0.  1.
          4    1    3    3  502    0  0.70251959856E+03 -0.80096447381E+02 -0.30444944383E+01  0.70707743296E+03  0.00000000000E+00 0.  1.
         13    1    4    4    0    0  0.66502270615E+01  0.23908827981E+03  0.59233717279E+03  0.63880417069E+03  0.10566000000E+00 0. -1.
         -4    1    4    4    0  501 -0.61950874033E+03 -0.72964132859E+01 -0.10560329165E+03  0.62848736837E+03  0.00000000000E+00 0. -1.
<mgrwt>
<rscale>  2 0.11855896E+04</rscale>
<asrwt>0</asrwt>
<pdfrwt beam="1">  1        2 0.28600420E+00 0.11855896E+04</pdfrwt>
<pdfrwt beam="2">  1       -2 0.11656331E+00 0.11855896E+04</pdfrwt>
<totfact> 0.68231039E+00</totfact>
</mgrwt>
</event>
<event>
 8    1  0.1449514E-005  0.1217917E+04  0.7818608E-02  0.8593191E-01
         -2   -1    0    0    0  501 -0.00000000000E+00  0.00000000000E+00  0.23198018745E+04  0.23198018745E+04  0.00000000000E+00 0. -1.
          2   -1    0    0  502    0  0.00000000000E+00 -0.00000000000E+00 -0.77239417845E+03  0.77239417845E+03  0.00000000000E+00 0.  1.
    9000010    2    1    2  502    0  0.64779619858E+03  0.22695218970E+03  0.13820880741E+03  0.12368682635E+04  0.10196049311E+04 0.  0.
   -9000010    2    1    2    0  501 -0.64779619858E+03 -0.22695218970E+03  0.14091988887E+04  0.18553277895E+04  0.99259885511E+03 0.  0.
        -13    1    3    3    0    0  0.66409971575E+03 -0.28079228154E+03  0.88614253048E+02  0.72644699382E+03  0.10566000000E+00 0.  1.
          4    1    3    3  502    0 -0.16303517165E+02  0.50774447124E+03  0.49594554367E+02  0.51042126971E+03  0.00000000000E+00 0.  1.
         13    1    4    4    0    0  0.24402503330E+03  0.82218381377E+02  0.23342702578E+03  0.34755757313E+03  0.10566000000E+00 0. -1.
         -4    1    4    4    0  501 -0.89182123188E+03 -0.30917057108E+03  0.11757718629E+04  0.15077702163E+04  0.00000000000E+00 0. -1.
<mgrwt>
<rscale>  2 0.12179170E+04</rscale>
<asrwt>0</asrwt>
<pdfrwt beam="2">  1        2 0.11882988E+00 0.12179170E+04</pdfrwt>
<pdfrwt beam="1">  1       -2 0.35689259E+00 0.12179170E+04</pdfrwt>
<totfact> 0.38086792E-01</totfact>
</mgrwt>
</event>
<event>
 8    1  0.1449514E-005  0.1611033E+04  0.7818608E-02  0.8348317E-01
          2   -1    0    0  502    0  0.00000000000E+00  0.00000000000E+00  0.24795973526E+04  0.24795973526E+04  0.00000000000E+00 0. -1.
         -2   -1    0    0    0  501 -0.00000000000E+00 -0.00000000000E+00 -0.11735496072E+04  0.11735496072E+04  0.00000000000E+00 0.  1.
    9000010    2    1    2  502    0  0.46069471642E+03 -0.11556664948E+04  0.12501267289E+04  0.20319924126E+04  0.10091440222E+04 0.  0.
   -9000010    2    1    2    0  501 -0.46069471642E+03  0.11556664948E+04  0.55921016403E+02  0.16211545472E+04  0.10378873912E+04 0.  0.
        -13    1    3    3    0    0  0.59770502577E+03 -0.47324583377E+03  0.22866306259E+03  0.79592695919E+03  0.10566000000E+00 0.  1.
          4    1    3    3  502    0 -0.13701030934E+03 -0.68242066104E+03  0.10214636663E+04  0.12360654534E+04  0.00000000000E+00 0.  1.
         13    1    4    4    0    0 -0.74367580468E+03  0.57195112987E+03 -0.12805205450E+03  0.94687862857E+03  0.10566000000E+00 0. -1.
         -4    1    4    4    0  501  0.28298108825E+03  0.58371536495E+03  0.18397307090E+03  0.67427591860E+03  0.00000000000E+00 0. -1.
<mgrwt>
<rscale>  2 0.16110335E+04</rscale>
<asrwt>0</asrwt>
<pdfrwt beam="1">  1        2 0.38147651E+00 0.16110335E+04</pdfrwt>
<pdfrwt beam="2">  1       -2 0.18054609E+00 0.16110335E+04</pdfrwt>
<totfact> 0.80051334E-01</totfact>
</mgrwt>
</event>
<event>
 8    1  0.1449514E-005  0.1263994E+04  0.7818608E-02  0.8559871E-01
          2   -1    0    0  502    0  0.00000000000E+00  0.00000000000E+00  0.18210465530E+04  0.18210465530E+04  0.00000000000E+00 0.  1.
         -2   -1    0    0    0  501 -0.00000000000E+00 -0.00000000000E+00 -0.88694697054E+03  0.88694697054E+03  0.00000000000E+00 0. -1.
    9000010    2    1    2  502    0 -0.58604529293E+03 -0.48962687959E+03  0.60769555267E+03  0.14018602491E+04  0.10063472097E+04 0.  0.
   -9000010    2    1    2    0  501  0.58604529293E+03  0.48962687959E+03  0.32640402976E+03  0.13061332745E+04  0.10080977003E+04 0.  0.
        -13    1    3    3    0    0  0.10837374431E+03 -0.35674160687E+03  0.58594343036E+03  0.69450641269E+03  0.10566000000E+00 0.  1.
          4    1    3    3  502    0 -0.69441903724E+03 -0.13288527273E+03  0.21752122309E+02  0.70735383636E+03  0.00000000000E+00 0.  1.
         13    1    4    4    0    0  0.80936750854E+03  0.33199586120E+03 -0.71999944281E+01  0.87484219538E+03  0.10566000000E+00 0. -1.
         -4    1    4    4    0  501 -0.22332221561E+03  0.15763101839E+03  0.33360402419E+03  0.43129107909E+03  0.00000000000E+00 0. -1.
<mgrwt>
<rscale>  2 0.12639938E+04</rscale>
<asrwt>0</asrwt>
<pdfrwt beam="1">  1        2 0.28016101E+00 0.12639938E+04</pdfrwt>
<pdfrwt beam="2">  1       -2 0.13645338E+00 0.12639938E+04</pdfrwt>
<totfact> 0.46178679E+00</totfact>
</mgrwt>
</event>
<event>
 8    1  0.1449514E-005  0.2112870E+04  0.7818608E-02  0.8123922E-01
         -2   -1    0    0    0  501 -0.00000000000E+00  0.00000000000E+00  0.38505101925E+04  0.38505101925E+04  0.00000000000E+00 0.  1.
          2   -1    0    0  502    0  0.00000000000E+00 -0.00000000000E+00 -0.11602218457E+04  0.11602218457E+04  0.00000000000E+00 0. -1.
    9000010    2    1    2  502    0  0.28027826819E+03  0.18229701621E+04  0.14213737500E+04  0.25717936033E+04  0.10918071629E+04 0.  0.
   -9000010    2    1    2    0  501 -0.28027826819E+03 -0.18229701621E+04  0.12689145967E+04  0.24389384349E+04  0.96772946410E+03 0.  0.
        -13    1    3    3    0    0  0.35318537981E+03  0.19571948406E+04  0.12920662149E+04  0.23716632711E+04  0.10566000000E+00 0.  1.
          4    1    3    3  502    0 -0.72907111617E+02 -0.13422467846E+03  0.12930753515E+03  0.20013033223E+03  0.00000000000E+00 0.  1.
         13    1    4    4    0    0  0.20372409941E+03 -0.76351113213E+03  0.11355816973E+03  0.79834092131E+03  0.10566000000E+00 0. -1.
         -4    1    4    4    0  501 -0.48400236761E+03 -0.10594590300E+04  0.11553564270E+04  0.16405975136E+04  0.00000000000E+00 0. -1.
<mgrwt>
<rscale>  2 0.21128700E+04</rscale>
<asrwt>0</asrwt>
<pdfrwt beam="2">  1        2 0.17849567E+00 0.21128700E+04</pdfrwt>
<pdfrwt beam="1">  1       -2 0.59238618E+00 0.21128700E+04</pdfrwt>
<totfact> 0.13145161E-01</totfact>
</mgrwt>
</event>
<event>
 8    1  0.1449514E-005  0.1218866E+04  0.7818608E-02  0.8592489E-01
         -2   -1    0    0    0  501 -0.00000000000E+00  0.00000000000E+00  0.44395535339E+03  0.44395535339E+03  0.00000000000E+00 0.  1.
          2   -1    0    0  502    0  0.00000000000E+00 -0.00000000000E+00 -0.33469940068E+04  0.33469940068E+04  0.00000000000E+00 0. -1.
    9000010    2    1    2  502    0  0.42215480565E+03 -0.53980544105E+03 -0.14842865149E+04  0.19267088488E+04  0.10195567348E+04 0.  0.
   -9000010    2    1    2    0  501 -0.42215480565E+03  0.53980544105E+03 -0.14187521385E+04  0.18642405114E+04  0.99645896038E+03 0.  0.
        -13    1    3    3    0    0  0.43087128254E+03 -0.35030126912E+02 -0.86925570083E+02  0.44094584453E+03  0.10566000000E+00 0.  1.
          4    1    3    3  502    0 -0.87164768910E+01 -0.50477531414E+03 -0.13973609448E+04  0.14857630042E+04  0.00000000000E+00 0.  1.
         13    1    4    4    0    0  0.24722688522E+03  0.29010603974E+03 -0.91166080234E+03  0.98813363305E+03  0.10566000000E+00 0. -1.
         -4    1    4    4    0  501 -0.66938169088E+03  0.24969940131E+03 -0.50709133620E+03  0.87610687838E+03  0.00000000000E+00 0. -1.
<mgrwt>
<rscale>  2 0.12188664E+04</rscale>
<asrwt>0</asrwt>
<pdfrwt beam="2">  1        2 0.51492216E+00 0.12188664E+04</pdfrwt>
<pdfrwt beam="1">  1       -2 0.68300823E-01 0.12188664E+04</pdfrwt>
<totfact> 0.31409021E+00</totfact>
</mgrwt>
</event>
<event>
 8    1  0.1449514E-005  0.1051643E+04  0.7818608E-02  0.8727525E-01
          2   -1    0    0  502    0  0.00000000000E+00  0.00000000000E+00  0.23514075741E+04  0.23514075741E+04  0.00000000000E+00 0.  1.
         -2   -1    0    0    0  501 -0.00000000000E+00 -0.00000000000E+00 -0.47431457472E+03  0.47431457472E+03  0.00000000000E+00 0. -1.
    9000010    2    1    2  502    0  0.26262674507E+03  0.32240599216E+03  0.79279286848E+03  0.12992516918E+04  0.94160288617E+03 0.  0.
   -9000010    2    1    2    0  501 -0.26262674507E+03 -0.32240599216E+03  0.10843001309E+04  0.15264704570E+04  0.99070018239E+03 0.  0.
        -13    1    3    3    0    0  0.16500616620E+03 -0.31645931075E+03  0.42744848384E+03  0.55685343471E+03  0.10566000000E+00 0.  1.
          4    1    3    3  502    0  0.97620578867E+02  0.63886530292E+03  0.36534438464E+03  0.74239825705E+03  0.00000000000E+00 0.  1.
         13    1    4    4    0    0  0.87811848293E+02 -0.69111673524E+02 -0.16791699248E+03  0.20170144185E+03  0.10566000000E+00 0. -1.
         -4    1    4    4    0  501 -0.35043859336E+03 -0.25329431864E+03  0.12522171234E+04  0.13247690152E+04  0.00000000000E+00 0. -1.
<mgrwt>
<rscale>  2 0.10516430E+04</rscale>
<asrwt>0</asrwt>
<pdfrwt beam="1">  1        2 0.36175501E+00 0.10516430E+04</pdfrwt>
<pdfrwt beam="2">  1       -2 0.72971474E-01 0.10516430E+04</pdfrwt>
<totfact> 0.11113878E+01</totfact>
</mgrwt>
</event>
<event>
 8    1  0.1449514E-005  0.1083594E+04  0.7818608E-02  0.8699785E-01
          1   -1    0    0  502    0  0.00000000000E+00  0.00000000000E+00  0.14533453811E+04  0.14533453811E+04  0.00000000000E+00 0.  1.
         -1   -1    0    0    0  501 -0.00000000000E+00 -0.00000000000E+00 -0.94868822423E+03  0.94868822423E+03  0.00000000000E+00 0. -1.
    9000010    2    1    2  502    0 -0.36492899891E+03  0.19789131279E+03  0.71412229942E+03  0.12942528907E+04  0.99638634112E+03 0.  0.
   -9000010    2    1    2    0  501  0.36492899891E+03 -0.19789131279E+03 -0.20946514257E+03  0.11077807146E+04  0.10054692037E+04 0.  0.
        -13    1    3    3    0    0  0.27401662120E+03 -0.55374627929E+02 -0.30142033734E+02  0.28117612180E+03  0.10566000000E+00 0.  1.
          4    1    3    3  502    0 -0.63894562010E+03  0.25326594072E+03  0.74426433315E+03  0.10130767689E+04  0.00000000000E+00 0.  1.
         13    1    4    4    0    0  0.47666821865E+03  0.15275655239E+03  0.21606017748E+03  0.54518727647E+03  0.10566000000E+00 0. -1.
         -4    1    4    4    0  501 -0.11173921975E+03 -0.35064786518E+03 -0.42552532005E+03  0.56259343809E+03  0.00000000000E+00 0. -1.
<mgrwt>
<rscale>  2 0.10835940E+04</rscale>
<asrwt>0</asrwt>
<pdfrwt beam="1">  1        1 0.22359160E+00 0.10835940E+04</pdfrwt>
<pdfrwt beam="2">  1       -1 0.14595203E+00 0.10835940E+04</pdfrwt>
<totfact> 0.38300856E+00</totfact>
</mgrwt>
</event>
<event>
 8    1  0.1449514E-005  0.1420471E+04  0.7818608E-02  0.8456791E-01
         -2   -1    0    0    0  501 -0.00000000000E+00  0.00000000000E+00  0.18506101370E+04  0.18506101370E+04  0.00000000000E+00 0. -1.
          2   -1    0    0  502    0  0.00000000000E+00 -0.00000000000E+00 -0.11200489785E+04  0.11200489785E+04  0.00000000000E+00 0.  1.
    9000010    2    1    2  502    0 -0.11827050272E+02  0.88954025081E+03  0.61147970894E+03  0.16291368090E+04  0.12201465368E+04 0.  0.
   -9000010    2    1    2    0  501  0.11827050272E+02 -0.88954025081E+03  0.11908144956E+03  0.13415223064E+04  0.99703559113E+03 0.  0.
        -13    1    3    3    0    0  0.53181018872E+03  0.74118872868E+03  0.20685304103E+03  0.93539884546E+03  0.10566000000E+00 0.  1.
          4    1    3    3  502    0 -0.54363723899E+03  0.14835152213E+03  0.40462666792E+03  0.69373796359E+03  0.00000000000E+00 0.  1.
         13    1    4    4    0    0 -0.10921545066E+01  0.38535021342E+02  0.37638387805E+03  0.37835297738E+03  0.10566000000E+00 0. -1.
         -4    1    4    4    0  501  0.12919204778E+02 -0.92807527215E+03 -0.25730242849E+03  0.96316932901E+03  0.00000000000E+00 0. -1.
<mgrwt>
<rscale>  2 0.14204708E+04</rscale>
<asrwt>0</asrwt>
<pdfrwt beam="2">  1        2 0.17231523E+00 0.14204708E+04</pdfrwt>
<pdfrwt beam="1">  1       -2 0.28470925E+00 0.14204708E+04</pdfrwt>
<totfact> 0.68677741E-01</totfact>
</mgrwt>
</event>
<event>
 8    1  0.1449514E-005  0.1741362E+04  0.7818608E-02  0.8282695E-01
          1   -1    0    0  502    0  0.00000000000E+00  0.00000000000E+00  0.83392738417E+03  0.83392738417E+03  0.00000000000E+00 0.  1.
         -1   -1    0    0    0  501 -0.00000000000E+00 -0.00000000000E+00 -0.38773107711E+04  0.38773107711E+04  0.00000000000E+00 0. -1.
    9000010    2    1    2  502    0  0.28489209351E+03 -0.13796602969E+04 -0.21105765087E+04  0.27373739210E+04  0.10266726569E+04 0.  0.
   -9000010    2    1    2    0  501 -0.28489209351E+03  0.13796602969E+04 -0.93280687827E+03  0.19738642343E+04  0.10204828775E+04 0.  0.
        -13    1    3    3    0    0 -0.35203494387E+03 -0.43641650611E+03 -0.42522017641E+03  0.70370460997E+03  0.10566000000E+00 0.  1.
          4    1    3    3  502    0  0.63692703739E+03 -0.94324379083E+03 -0.16853563323E+04  0.20336693110E+04  0.00000000000E+00 0.  1.
         13    1    4    4    0    0 -0.10859446623E+03  0.57758611614E+03 -0.98930147677E+03  0.11507023519E+04  0.10566000000E+00 0. -1.
         -4    1    4    4    0  501 -0.17629762728E+03  0.80207418080E+03  0.56494598500E+02  0.82316188235E+03  0.00000000000E+00 0. -1.
<mgrwt>
<rscale>  2 0.17413617E+04</rscale>
<asrwt>0</asrwt>
<pdfrwt beam="1">  1        1 0.12829652E+00 0.17413617E+04</pdfrwt>
<pdfrwt beam="2">  1       -1 0.59650936E+00 0.17413617E+04</pdfrwt>
<totfact> 0.70411331E-02</totfact>
</mgrwt>
</event>
<event>
 8    1  0.1449514E-005  0.9514359E+03  0.7818608E-02  0.8821609E-01
         -2   -1    0    0    0  501 -0.00000000000E+00  0.00000000000E+00  0.77436717362E+03  0.77436717362E+03  0.00000000000E+00 0.  1.
          2   -1    0    0  502    0  0.00000000000E+00 -0.00000000000E+00 -0.14721937798E+04  0.14721937798E+04  0.00000000000E+00 0. -1.
    9000010    2    1    2  502    0 -0.12350829831E+03 -0.15538111524E+03  0.17594640646E+03  0.89092861489E+03  0.85052869919E+03 0.  0.
   -9000010    2    1    2    0  501  0.12350829831E+03  0.15538111524E+03 -0.87377301261E+03  0.13556323385E+04  0.10172817549E+04 0.  0.
        -13    1    3    3    0    0  0.19445556235E+03  0.52629436936E+02  0.40140003060E+03  0.44911559658E+03  0.10566000000E+00 0.  1.
          4    1    3    3  502    0 -0.31796386066E+03 -0.20801055218E+03 -0.22545362415E+03  0.44181301830E+03  0.00000000000E+00 0.  1.
         13    1    4    4    0    0  0.10535963672E+03  0.55407954722E+03 -0.25421762180E+03  0.61865289791E+03  0.10566000000E+00 0. -1.
         -4    1    4    4    0  501  0.18148661590E+02 -0.39869843198E+03 -0.61955539081E+03  0.73697944060E+03  0.00000000000E+00 0. -1.
<mgrwt>
<rscale>  2 0.95143587E+03</rscale>
<asrwt>0</asrwt>
<pdfrwt beam="2">  1        2 0.22649135E+00 0.95143587E+03</pdfrwt>
<pdfrwt beam="1">  1       -2 0.11913341E+00 0.95143587E+03</pdfrwt>
<totfact> 0.10733026E+01</totfact>
</mgrwt>
</event>
<event>
 8    1  0.1449514E-005  0.1198062E+04  0.7818608E-02  0.8608023E-01
         -1   -1    0    0    0  501 -0.00000000000E+00  0.00000000000E+00  0.72279457993E+03  0.72279457993E+03  0.00000000000E+00 0. -1.
          1   -1    0    0  502    0  0.00000000000E+00 -0.00000000000E+00 -0.19949774558E+04  0.19949774558E+04  0.00000000000E+00 0.  1.
    9000010    2    1    2  502    0  0.33335955174E+03  0.55459482136E+03 -0.71885589520E+03  0.13847609306E+04  0.99101212421E+03 0.  0.
   -9000010    2    1    2    0  501 -0.33335955174E+03 -0.55459482136E+03 -0.55332698067E+03  0.13330111051E+04  0.10256918895E+04 0.  0.
        -13    1    3    3    0    0 -0.56237795737E+02  0.73330583326E+03 -0.33028419729E+03  0.80621820675E+03  0.10566000000E+00 0.  1.
          4    1    3    3  502    0  0.38959734748E+03 -0.17871101190E+03 -0.38857169791E+03  0.57854272388E+03  0.00000000000E+00 0.  1.
         13    1    4    4    0    0 -0.28761852768E+03 -0.76189427794E+03 -0.84977952842E+02  0.81879702726E+03  0.10566000000E+00 0. -1.
         -4    1    4    4    0  501 -0.45741024066E+02  0.20729945658E+03 -0.46834902783E+03  0.51421407784E+03  0.00000000000E+00 0. -1.
<mgrwt>
<rscale>  2 0.11980620E+04</rscale>
<asrwt>0</asrwt>
<pdfrwt beam="2">  1        1 0.30691961E+00 0.11980620E+04</pdfrwt>
<pdfrwt beam="1">  1       -1 0.11119917E+00 0.11980620E+04</pdfrwt>
<totfact> 0.30087921E+00</totfact>
</mgrwt>
</event>
<event>
 8    1  0.1449514E-005  0.1189613E+04  0.7818608E-02  0.8614426E-01
          1   -1    0    0  502    0  0.00000000000E+00  0.00000000000E+00  0.33365501138E+04  0.33365501138E+04  0.00000000000E+00 0.  1.
         -1   -1    0    0    0  501 -0.00000000000E+00 -0.00000000000E+00 -0.57666210641E+03  0.57666210641E+03  0.00000000000E+00 0. -1.
    9000010    2    1    2  502    0  0.28586468054E+03  0.56361982735E+03  0.36106609739E+03  0.12288101605E+04  0.99006048230E+03 0.  0.
   -9000010    2    1    2    0  501 -0.28586468054E+03 -0.56361982735E+03  0.23988219100E+04  0.26844020596E+04  0.10258079434E+04 0.  0.
        -13    1    3    3    0    0 -0.73149718566E+02  0.24208808431E+03 -0.31159921506E+03  0.40131235202E+03  0.10566000000E+00 0.  1.
          4    1    3    3  502    0  0.35901439910E+03  0.32153174304E+03  0.67266531245E+03  0.82749780853E+03  0.00000000000E+00 0.  1.
         13    1    4    4    0    0 -0.59550287258E+03 -0.60119599012E+03  0.20424789364E+04  0.22108325370E+04  0.10566000000E+00 0. -1.
         -4    1    4    4    0  501  0.30963819204E+03  0.37576162764E+02  0.35634297359E+03  0.47356952267E+03  0.00000000000E+00 0. -1.
<mgrwt>
<rscale>  2 0.11896126E+04</rscale>
<asrwt>0</asrwt>
<pdfrwt beam="1">  1        1 0.51331539E+00 0.11896126E+04</pdfrwt>
<pdfrwt beam="2">  1       -1 0.88717249E-01 0.11896126E+04</pdfrwt>
<totfact> 0.24429788E-01</totfact>
</mgrwt>
</event>
<event>
 8    1  0.1449514E-005  0.1583933E+04  0.7818608E-02  0.8362769E-01
         -2   -1    0    0    0  501 -0.00000000000E+00  0.00000000000E+00  0.14633985236E+04  0.14633985236E+04  0.00000000000E+00 0. -1.
          2   -1    0    0  502    0  0.00000000000E+00 -0.00000000000E+00 -0.17556415825E+04  0.17556415825E+04  0.00000000000E+00 0.  1.
    9000010    2    1    2  502    0  0.66942473590E+03  0.10592717530E+04 -0.39251676515E+03  0.16287798521E+04  0.96367435988E+03 0.  0.
   -9000010    2    1    2    0  501 -0.66942473590E+03 -0.10592717530E+04  0.10027370628E+03  0.15902602540E+04  0.97400551094E+03 0.  0.
        -13    1    3    3    0    0  0.58637598239E+03  0.92930700178E+03  0.10885807588E+03  0.11042184513E+04  0.10566000000E+00 0.  1.
          4    1    3    3  502    0  0.83048753511E+02  0.12996475125E+03 -0.50137484102E+03  0.52456140083E+03  0.00000000000E+00 0.  1.
         13    1    4    4    0    0 -0.72845626524E+02 -0.58718329630E+03 -0.36812587965E+03  0.69685535313E+03  0.10566000000E+00 0. -1.
         -4    1    4    4    0  501 -0.59657910938E+03 -0.47208845673E+03  0.46839958593E+03  0.89340490082E+03  0.00000000000E+00 0. -1.
<mgrwt>
<rscale>  2 0.15839330E+04</rscale>
<asrwt>0</asrwt>
<pdfrwt beam="2">  1        2 0.27009870E+00 0.15839330E+04</pdfrwt>
<pdfrwt beam="1">  1       -2 0.22513824E+00 0.15839330E+04</pdfrwt>
<totfact> 0.86095550E-01</totfact>
</mgrwt>
</event>
<event>
 8    1  0.1449514E-005  0.1066176E+04  0.7818608E-02  0.8714782E-01
          2   -1    0    0  502    0  0.00000000000E+00  0.00000000000E+00  0.28765097169E+04  0.28765097169E+04  0.00000000000E+00 0. -1.
         -2   -1    0    0    0  501 -0.00000000000E+00 -0.00000000000E+00 -0.60807735946E+03  0.60807735946E+03  0.00000000000E+00 0.  1.
    9000010    2    1    2  502    0 -0.22723990785E+03  0.30203004509E+03  0.98625737699E+02  0.10639634194E+04  0.98966206245E+03 0.  0.
   -9000010    2    1    2    0  501  0.22723990785E+03 -0.30203004509E+03  0.21698066198E+04  0.24206236570E+04  0.10042400100E+04 0.  0.
        -13    1    3    3    0    0  0.17482726529E+03 -0.24166070660E+03  0.22807438509E+03  0.37547623906E+03  0.10566000000E+00 0.  1.
          4    1    3    3  502    0 -0.40206717314E+03  0.54369075169E+03 -0.12944864739E+03  0.68848718035E+03  0.00000000000E+00 0.  1.
         13    1    4    4    0    0 -0.16982632032E+03 -0.52442717799E+03  0.15943392917E+04  0.16869447626E+04  0.10566000000E+00 0. -1.
         -4    1    4    4    0  501  0.39706622817E+03  0.22239713289E+03  0.57546732812E+03  0.73367889434E+03  0.00000000000E+00 0. -1.
<mgrwt>
<rscale>  2 0.10661762E+04</rscale>
<asrwt>0</asrwt>
<pdfrwt beam="1">  1        2 0.44253995E+00 0.10661762E+04</pdfrwt>
<pdfrwt beam="2">  1       -2 0.93550364E-01 0.10661762E+04</pdfrwt>
<totfact> 0.32016742E+00</totfact>
</mgrwt>
</event>
<event>
 8    1  0.1449514E-005  0.1086550E+04  0.7818608E-02  0.8697269E-01
          2   -1    0    0  502    0  0.00000000000E+00  0.00000000000E+00  0.16800230265E+04  0.16800230265E+04  0.00000000000E+00 0.  1.
         -2   -1    0    0    0  501 -0.00000000000E+00 -0.00000000000E+00 -0.89148540677E+03  0.89148540677E+03  0.00000000000E+00 0. -1.
    9000010    2    1    2  502    0 -0.31546963920E+03 -0.27321057380E+03 -0.19880663768E+03  0.10995640748E+04  0.99767327546E+03 0.  0.
   -9000010    2    1    2    0  501  0.31546963920E+03  0.27321057380E+03  0.98734425743E+03  0.14719443585E+04  0.10087647896E+04 0.  0.
        -13    1    3    3    0    0 -0.38129470611E+03 -0.60335554009E+03 -0.25567525097E+03  0.75815130797E+03  0.10566000000E+00 0.  1.
          4    1    3    3  502    0  0.65825066903E+02  0.33014496628E+03  0.56868613291E+02  0.34141276685E+03  0.00000000000E+00 0.  1.
         13    1    4    4    0    0 -0.26770002893E+03 -0.18801070067E+03  0.44194410088E+03  0.54984173043E+03  0.10566000000E+00 0. -1.
         -4    1    4    4    0  501  0.58316966813E+03  0.46122127447E+03  0.54540015655E+03  0.92210262803E+03  0.00000000000E+00 0. -1.
<mgrwt>
<rscale>  2 0.10865504E+04</rscale>
<asrwt>0</asrwt>
<pdfrwt beam="1">  1        2 0.25846508E+00 0.10865504E+04</pdfrwt>
<pdfrwt beam="2">  1       -2 0.13715160E+00 0.10865504E+04</pdfrwt>
<totfact> 0.55370712E+00</totfact>
</mgrwt>
</event>
<event>
 8    1  0.1449514E-005  0.1508412E+04  0.7818608E-02  0.8404674E-01
         -2   -1    0    0    0  501 -0.00000000000E+00  0.00000000000E+00  0.57880027582E+03  0.57880027582E+03  0.00000000000E+00 0.  1.
          2   -1    0    0  502    0  0.00000000000E+00 -0.00000000000E+00 -0.43535480130E+04  0.43535480130E+04  0.00000000000E+00 0. -1.
    9000010    2    1    2  502    0 -0.91542750835E+03  0.65507961805E+03 -0.11182732801E+04  0.18771158463E+04  0.10029416445E+04 0.  0.
   -9000010    2    1    2    0  501  0.91542750835E+03 -0.65507961805E+03 -0.26564744570E+04  0.30552324425E+04  0.10052123695E+04 0.  0.
        -13    1    3    3    0    0 -0.33097764326E+03 -0.30903338488E+01  0.12499050483E+03  0.35380557933E+03  0.10566000000E+00 0.  1.
          4    1    3    3  502    0 -0.58444986509E+03  0.65816995190E+03 -0.12432637850E+04  0.15233102669E+04  0.00000000000E+00 0.  1.
         13    1    4    4    0    0  0.82902720072E+03 -0.39734776583E+02 -0.10900621130E+04  0.13700731271E+04  0.10566000000E+00 0. -1.
         -4    1    4    4    0  501  0.86400307629E+02 -0.61534484147E+03 -0.15664123440E+04  0.16851593155E+04  0.00000000000E+00 0. -1.
<mgrwt>
<rscale>  2 0.15084123E+04</rscale>
<asrwt>0</asrwt>
<pdfrwt beam="2">  1        2 0.66977663E+00 0.15084123E+04</pdfrwt>
<pdfrwt beam="1">  1       -2 0.89046194E-01 0.15084123E+04</pdfrwt>
<totfact> 0.24573041E-01</totfact>
</mgrwt>
</event>
<event>
 8    1  0.1449514E-005  0.1064627E+04  0.7818608E-02  0.8716130E-01
         -1   -1    0    0    0  501 -0.00000000000E+00  0.00000000000E+00  0.11537475296E+04  0.11537475296E+04  0.00000000000E+00 0. -1.
          1   -1    0    0  502    0  0.00000000000E+00 -0.00000000000E+00 -0.10736807519E+04  0.10736807519E+04  0.00000000000E+00 0.  1.
    9000010    2    1    2  502    0 -0.30983569856E+03  0.68979276034E+02  0.36418406788E+03  0.11146078823E+04  0.10044721974E+04 0.  0.
   -9000010    2    1    2    0  501  0.30983569856E+03 -0.68979276034E+02 -0.28411729016E+03  0.11128203992E+04  0.10280517038E+04 0.  0.
        -13    1    3    3    0    0 -0.54013386347E+03 -0.27871095147E+03  0.34098671593E+03  0.69691917504E+03  0.10566000000E+00 0.  1.
          4    1    3    3  502    0  0.23029816491E+03  0.34769022750E+03  0.23197351952E+02  0.41768870729E+03  0.00000000000E+00 0.  1.
         13    1    4    4    0    0 -0.34238650263E+03 -0.21918371765E+03 -0.11512547557E+03  0.42252089363E+03  0.10566000000E+00 0. -1.
         -4    1    4    4    0  501  0.65222220119E+03  0.15020444161E+03 -0.16899181459E+03  0.69029950558E+03  0.00000000000E+00 0. -1.
<mgrwt>
<rscale>  2 0.10646269E+04</rscale>
<asrwt>0</asrwt>
<pdfrwt beam="2">  1        1 0.16518165E+00 0.10646269E+04</pdfrwt>
<pdfrwt beam="1">  1       -1 0.17749962E+00 0.10646269E+04</pdfrwt>
<totfact> 0.39843769E+00</totfact>
</mgrwt>
</event>
<event>
 8    1  0.1449514E-005  0.1140265E+04  0.7818608E-02  0.8652955E-01
          2   -1    0    0  502    0  0.00000000000E+00  0.00000000000E+00  0.87989528173E+03  0.87989528173E+03  0.00000000000E+00 0.  1.
         -2   -1    0    0    0  501 -0.00000000000E+00 -0.00000000000E+00 -0.14941759387E+04  0.14941759387E+04  0.00000000000E+00 0. -1.
    9000010    2    1    2  502    0 -0.52538580386E+03  0.19466676635E+03 -0.43333709615E+03  0.12255825483E+04  0.10001730605E+04 0.  0.
   -9000010    2    1    2    0  501  0.52538580386E+03 -0.19466676635E+03 -0.18094356082E+03  0.11484886721E+04  0.98608329517E+03 0.  0.
        -13    1    3    3    0    0 -0.18652907685E+03 -0.29339854553E+03  0.16280916539E+03  0.38390446536E+03  0.10566000000E+00 0.  1.
          4    1    3    3  502    0 -0.33885672702E+03  0.48806531188E+03 -0.59614626154E+03  0.84167808291E+03  0.00000000000E+00 0.  1.
         13    1    4    4    0    0  0.33759280565E+03 -0.38054234844E+03  0.30659397582E+03  0.59395391956E+03  0.10566000000E+00 0. -1.
         -4    1    4    4    0  501  0.18779299821E+03  0.18587558209E+03 -0.48753753664E+03  0.55453475259E+03  0.00000000000E+00 0. -1.
<mgrwt>
<rscale>  2 0.11402646E+04</rscale>
<asrwt>0</asrwt>
<pdfrwt beam="1">  1        2 0.13536851E+00 0.11402646E+04</pdfrwt>
<pdfrwt beam="2">  1       -2 0.22987322E+00 0.11402646E+04</pdfrwt>
<totfact> 0.26165416E+00</totfact>
</mgrwt>
</event>
<event>
 8    1  0.1449514E-005  0.1267720E+04  0.7818608E-02  0.8557241E-01
          1   -1    0    0  502    0  0.00000000000E+00  0.00000000000E+00  0.12798301213E+04  0.12798301213E+04  0.00000000000E+00 0. -1.
         -1   -1    0    0    0  501 -0.00000000000E+00 -0.00000000000E+00 -0.13008818942E+04  0.13008818942E+04  0.00000000000E+00 0.  1.
    9000010    2    1    2  502    0 -0.55859605667E+03  0.47439698801E+03  0.22797124341E+03  0.13158996807E+04  0.10688961713E+04 0.  0.
   -9000010    2    1    2    0  501  0.55859605667E+03 -0.47439698801E+03 -0.24902301631E+03  0.12648123349E+04  0.10003278078E+04 0.  0.
        -13    1    3    3    0    0  0.13454474850E+03  0.54434759179E+03 -0.56140953264E+02  0.56353208235E+03  0.10566000000E+00 0.  1.
          4    1    3    3  502    0 -0.69314080517E+03 -0.69950603779E+02  0.28411219667E+03  0.75236759835E+03  0.00000000000E+00 0.  1.
         13    1    4    4    0    0 -0.10106475787E+03  0.21738357143E+03  0.81800265373E+02  0.25330021119E+03  0.10566000000E+00 0. -1.
         -4    1    4    4    0  501  0.65966081454E+03 -0.69178055944E+03 -0.33082328169E+03  0.10115121237E+04  0.00000000000E+00 0. -1.
<mgrwt>
<rscale>  2 0.12677202E+04</rscale>
<asrwt>0</asrwt>
<pdfrwt beam="1">  1        1 0.19689694E+00 0.12677202E+04</pdfrwt>
<pdfrwt beam="2">  1       -1 0.20013568E+00 0.12677202E+04</pdfrwt>
<totfact> 0.16999728E+00</totfact>
</mgrwt>
</event>
<event>
 8    1  0.1449514E-005  0.1690700E+04  0.7818608E-02  0.8307478E-01
         -2   -1    0    0    0  501 -0.00000000000E+00  0.00000000000E+00  0.16306556456E+04  0.16306556456E+04  0.00000000000E+00 0.  1.
          2   -1    0    0  502    0  0.00000000000E+00 -0.00000000000E+00 -0.19740311069E+04  0.19740311069E+04  0.00000000000E+00 0. -1.
    9000010    2    1    2  502    0 -0.61721229027E+03  0.12345675815E+04  0.43007256393E+03  0.17577833834E+04  0.99986593509E+03 0.  0.
   -9000010    2    1    2    0  501  0.61721229027E+03 -0.12345675815E+04 -0.77344802529E+03  0.18469033691E+04  0.95274450008E+03 0.  0.
        -13    1    3    3    0    0  0.15815908992E+03  0.72497080793E+02 -0.16457589864E+03  0.23948979524E+03  0.10566000000E+00 0.  1.
          4    1    3    3  502    0 -0.77537138018E+03  0.11620705007E+04  0.59464846257E+03  0.15182935882E+04  0.00000000000E+00 0.  1.
         13    1    4    4    0    0  0.65314005192E+02 -0.75722505748E+03 -0.81706846495E+03  0.11159106571E+04  0.10566000000E+00 0. -1.
         -4    1    4    4    0  501  0.55189828507E+03 -0.47734252400E+03  0.43620439663E+02  0.73099271203E+03  0.00000000000E+00 0. -1.
<mgrwt>
<rscale>  2 0.16906995E+04</rscale>
<asrwt>0</asrwt>
<pdfrwt beam="2">  1        2 0.30369709E+00 0.16906995E+04</pdfrwt>
<pdfrwt beam="1">  1       -2 0.25087010E+00 0.16906995E+04</pdfrwt>
<totfact> 0.40521477E-01</totfact>
</mgrwt>
</event>
<event>
 8    1  0.1449514E-005  0.1355892E+04  0.7818608E-02  0.8497593E-01
         -1   -1    0    0    0  501 -0.00000000000E+00  0.00000000000E+00  0.32978230270E+04  0.32978230270E+04  0.00000000000E+00 0. -1.
          1   -1    0    0  502    0  0.00000000000E+00 -0.00000000000E+00 -0.88373422843E+03  0.88373422843E+03  0.00000000000E+00 0.  1.
    9000010    2    1    2  502    0  0.37861165715E+03  0.84136611183E+03 -0.65664606136E+02  0.13533044510E+04  0.98786505938E+03 0.  0.
   -9000010    2    1    2    0  501 -0.37861165715E+03 -0.84136611183E+03  0.24797534047E+04  0.28282528045E+04  0.99929638071E+03 0.  0.
        -13    1    3    3    0    0  0.60732498645E+03  0.92337453288E+03 -0.91411280651E+02  0.11089725878E+04  0.10566000000E+00 0.  1.
          4    1    3    3  502    0 -0.22871332930E+03 -0.82008421047E+02  0.25746674516E+02  0.24433186319E+03  0.00000000000E+00 0.  1.
         13    1    4    4    0    0 -0.38689108826E+03 -0.36968987493E+03  0.22322987164E+04  0.22955419596E+04  0.10566000000E+00 0. -1.
         -4    1    4    4    0  501  0.82794311033E+01 -0.47167623690E+03  0.24745468830E+03  0.53271084483E+03  0.00000000000E+00 0. -1.
<mgrwt>
<rscale>  2 0.13558923E+04</rscale>
<asrwt>0</asrwt>
<pdfrwt beam="2">  1        1 0.13595911E+00 0.13558923E+04</pdfrwt>
<pdfrwt beam="1">  1       -1 0.50735738E+00 0.13558923E+04</pdfrwt>
<totfact> 0.22262701E-01</totfact>
</mgrwt>
</event>
<event>
 8    1  0.1449514E-005  0.1063876E+04  0.7818608E-02  0.8716784E-01
         -2   -1    0    0    0  501 -0.00000000000E+00  0.00000000000E+00  0.16249721495E+04  0.16249721495E+04  0.00000000000E+00 0. -1.
          2   -1    0    0  502    0  0.00000000000E+00 -0.00000000000E+00 -0.71291616772E+03  0.71291616772E+03  0.00000000000E+00 0.  1.
    9000010    2    1    2  502    0 -0.10516949101E+03  0.37219408211E+03  0.28402951346E+03  0.11122821727E+04  0.10034489577E+04 0.  0.
   -9000010    2    1    2    0  501  0.10516949101E+03 -0.37219408211E+03  0.62802646834E+03  0.12256061445E+04  0.97882793175E+03 0.  0.
        -13    1    3    3    0    0  0.22448324516E+03  0.60227155649E+03  0.44404060852E+02  0.64427904428E+03  0.10566000000E+00 0.  1.
          4    1    3    3  502    0 -0.32965273617E+03 -0.23007747438E+03  0.23962545261E+03  0.46800312843E+03  0.00000000000E+00 0.  1.
         13    1    4    4    0    0 -0.33951716302E+03 -0.37955947040E+03  0.58978132866E+03  0.77921712145E+03  0.10566000000E+00 0. -1.
         -4    1    4    4    0  501  0.44468665403E+03  0.73653882929E+01  0.38245139680E+02  0.44638902308E+03  0.00000000000E+00 0. -1.
<mgrwt>
<rscale>  2 0.10638764E+04</rscale>
<asrwt>0</asrwt>
<pdfrwt beam="2">  1        2 0.10967941E+00 0.10638764E+04</pdfrwt>
<pdfrwt beam="1">  1       -2 0.24999571E+00 0.10638764E+04</pdfrwt>
<totfact> 0.23936410E+00</totfact>
</mgrwt>
</event>
<event>
 8    1  0.1449514E-005  0.1432193E+04  0.7818608E-02  0.8449624E-01
          2   -1    0    0  502    0  0.00000000000E+00  0.00000000000E+00  0.18303303553E+04  0.18303303553E+04  0.00000000000E+00 0.  1.
         -2   -1    0    0    0  501 -0.00000000000E+00 -0.00000000000E+00 -0.13474237297E+04  0.13474237297E+04  0.00000000000E+00 0. -1.
    9000010    2    1    2  502    0  0.10162131695E+04 -0.67487750057E+02 -0.41023102660E+03  0.14906863939E+04  0.10082721000E+04 0.  0.
   -9000010    2    1    2    0  501 -0.10162131695E+04  0.67487750057E+02  0.89313765216E+03  0.16870676911E+04  0.10056136069E+04 0.  0.
        -13    1    3    3    0    0  0.73516466964E+03 -0.20458757483E+03  0.21397527344E+03  0.79253302523E+03  0.10566000000E+00 0.  1.
          4    1    3    3  502    0  0.28104849981E+03  0.13709982478E+03 -0.62420630004E+03  0.69815336869E+03  0.00000000000E+00 0.  1.
         13    1    4    4    0    0 -0.58813395969E+03  0.52505068772E+03  0.62247885581E+03  0.10045196446E+04  0.10566000000E+00 0. -1.
         -4    1    4    4    0  501 -0.42807920976E+03 -0.45756293766E+03  0.27065879635E+03  0.68254804651E+03  0.00000000000E+00 0. -1.
<mgrwt>
<rscale>  2 0.14321933E+04</rscale>
<asrwt>0</asrwt>
<pdfrwt beam="1">  1        2 0.28158929E+00 0.14321933E+04</pdfrwt>
<pdfrwt beam="2">  1       -2 0.20729596E+00 0.14321933E+04</pdfrwt>
<totfact> 0.11139964E+00</totfact>
</mgrwt>
</event>
<event>
 8    1  0.1449514E-005  0.1104375E+04  0.7818608E-02  0.8682273E-01
          2   -1    0    0  502    0  0.00000000000E+00  0.00000000000E+00  0.27626534569E+04  0.27626534569E+04  0.00000000000E+00 0. -1.
         -2   -1    0    0    0  501 -0.00000000000E+00 -0.00000000000E+00 -0.51364844933E+03  0.51364844933E+03  0.00000000000E+00 0.  1.
    9000010    2    1    2  502    0 -0.18329787435E+03  0.46148522111E+03  0.17316407851E+04  0.20496719610E+04  0.97775693242E+03 0.  0.
   -9000010    2    1    2    0  501  0.18329787435E+03 -0.46148522111E+03  0.51736422245E+03  0.12266299453E+04  0.99518267864E+03 0.  0.
        -13    1    3    3    0    0 -0.45689104460E+03 -0.93943359232E+02  0.60298600294E+03  0.76234304109E+03  0.10566000000E+00 0.  1.
          4    1    3    3  502    0  0.27359317025E+03  0.55542858035E+03  0.11286547822E+04  0.12873289199E+04  0.00000000000E+00 0.  1.
         13    1    4    4    0    0 -0.40029806801E+03 -0.77496765596E+02  0.13069005037E+03  0.42816374480E+03  0.10566000000E+00 0. -1.
         -4    1    4    4    0  501  0.58359594236E+03 -0.38398845552E+03  0.38667417208E+03  0.79846620046E+03  0.00000000000E+00 0. -1.
<mgrwt>
<rscale>  2 0.11043750E+04</rscale>
<asrwt>0</asrwt>
<pdfrwt beam="1">  1        2 0.42502360E+00 0.11043750E+04</pdfrwt>
<pdfrwt beam="2">  1       -2 0.79022840E-01 0.11043750E+04</pdfrwt>
<totfact> 0.54500279E+00</totfact>
</mgrwt>
</event>
<event>
 8    1  0.1449514E-005  0.1285245E+04  0.7818608E-02  0.8544994E-01
          2   -1    0    0  502    0  0.00000000000E+00  0.00000000000E+00  0.17224180810E+04  0.17224180810E+04  0.00000000000E+00 0.  1.
         -2   -1    0    0    0  501 -0.00000000000E+00 -0.00000000000E+00 -0.95932776525E+03  0.95932776525E+03  0.00000000000E+00 0. -1.
    9000010    2    1    2  502    0 -0.79414560039E+03  0.11068944402E+03  0.40543684288E+03  0.13490329596E+04  0.10062760580E+04 0.  0.
   -9000010    2    1    2    0  501  0.79414560039E+03 -0.11068944402E+03  0.35765347288E+03  0.13327128866E+04  0.10026406354E+04 0.  0.
        -13    1    3    3    0    0 -0.57068425776E+03 -0.41863398732E+03  0.16857921962E+03  0.72756711158E+03  0.10566000000E+00 0.  1.
          4    1    3    3  502    0 -0.22346134263E+03  0.52932343134E+03  0.23685762326E+03  0.62146584807E+03  0.00000000000E+00 0.  1.
         13    1    4    4    0    0  0.10230081269E+04 -0.17845813814E+03  0.34276653443E+03  0.10935638267E+04  0.10566000000E+00 0. -1.
         -4    1    4    4    0  501 -0.22886252649E+03  0.67768694116E+02  0.14886938450E+02  0.23914905994E+03  0.00000000000E+00 0. -1.
<mgrwt>
<rscale>  2 0.12852452E+04</rscale>
<asrwt>0</asrwt>
<pdfrwt beam="1">  1        2 0.26498740E+00 0.12852452E+04</pdfrwt>
<pdfrwt beam="2">  1       -2 0.14758889E+00 0.12852452E+04</pdfrwt>
<totfact> 0.41423111E+00</totfact>
</mgrwt>
</event>
<event>
 8    1  0.1449514E-005  0.2323763E+04  0.7818608E-02  0.8048010E-01
         -2   -1    0    0    0  501 -0.00000000000E+00  0.00000000000E+00  0.36672919931E+04  0.36672919931E+04  0.00000000000E+00 0.  1.
          2   -1    0    0  502    0  0.00000000000E+00 -0.00000000000E+00 -0.23151771482E+04  0.23151771482E+04  0.00000000000E+00 0. -1.
    9000010    2    1    2  502    0 -0.19503063068E+04  0.73605627434E+03 -0.11263265197E+04  0.25933293564E+04  0.10541689582E+04 0.  0.
   -9000010    2    1    2    0  501  0.19503063068E+04 -0.73605627434E+03  0.24784413646E+04  0.33891397848E+04  0.99906123645E+03 0.  0.
        -13    1    3    3    0    0 -0.92635213740E+03 -0.54485477243E+02 -0.87519528367E+03  0.12755640891E+04  0.10566000000E+00 0.  1.
          4    1    3    3  502    0 -0.10239541694E+04  0.79054175158E+03 -0.25113123605E+03  0.13177652673E+04  0.00000000000E+00 0.  1.
         13    1    4    4    0    0  0.19831354648E+04 -0.64325632662E+03  0.25297408706E+04  0.32781387793E+04  0.10566000000E+00 0. -1.
         -4    1    4    4    0  501 -0.32829158008E+02 -0.92799947714E+02 -0.51299505937E+02  0.11100100549E+03  0.00000000000E+00 0. -1.
<mgrwt>
<rscale>  2 0.23237631E+04</rscale>
<asrwt>0</asrwt>
<pdfrwt beam="2">  1        2 0.35618110E+00 0.23237631E+04</pdfrwt>
<pdfrwt beam="1">  1       -2 0.56419877E+00 0.23237631E+04</pdfrwt>
<totfact> 0.26888335E-02</totfact>
</mgrwt>
</event>
<event>
 8    1  0.1449514E-005  0.1752825E+04  0.7818608E-02  0.8277208E-01
         -2   -1    0    0    0  501 -0.00000000000E+00  0.00000000000E+00  0.87093898071E+03  0.87093898071E+03  0.00000000000E+00 0. -1.
          2   -1    0    0  502    0  0.00000000000E+00 -0.00000000000E+00 -0.36409730769E+04  0.36409730769E+04  0.00000000000E+00 0.  1.
    9000010    2    1    2  502    0 -0.58188223907E+03  0.13089218740E+04 -0.96422912800E+03  0.19721618637E+04  0.95279651176E+03 0.  0.
   -9000010    2    1    2    0  501  0.58188223907E+03 -0.13089218740E+04 -0.18058049682E+04  0.25397501939E+04  0.10665533516E+04 0.  0.
        -13    1    3    3    0    0 -0.75021419844E+03  0.11737956728E+04 -0.53602785009E+03  0.14926297238E+04  0.10566000000E+00 0.  1.
          4    1    3    3  502    0  0.16833195937E+03  0.13512620122E+03 -0.42820127792E+03  0.47953213991E+03  0.00000000000E+00 0.  1.
         13    1    4    4    0    0 -0.22039444320E+03 -0.45819505678E+03 -0.18479402101E+03  0.54098545453E+03  0.10566000000E+00 0. -1.
         -4    1    4    4    0  501  0.80227668227E+03 -0.85072681727E+03 -0.16210109472E+04  0.19987647394E+04  0.00000000000E+00 0. -1.
<mgrwt>
<rscale>  2 0.17528251E+04</rscale>
<asrwt>0</asrwt>
<pdfrwt beam="2">  1        2 0.56014970E+00 0.17528251E+04</pdfrwt>
<pdfrwt beam="1">  1       -2 0.13399061E+00 0.17528251E+04</pdfrwt>
<totfact> 0.35521834E-01</totfact>
</mgrwt>
</event>
<event>
 8    1  0.1449514E-005  0.1254547E+04  0.7818608E-02  0.8566581E-01
          2   -1    0    0  502    0  0.00000000000E+00  0.00000000000E+00  0.25212420378E+04  0.25212420378E+04  0.00000000000E+00 0.  1.
         -2   -1    0    0    0  501 -0.00000000000E+00 -0.00000000000E+00 -0.83698947689E+03  0.83698947689E+03  0.00000000000E+00 0. -1.
    9000010    2    1    2  502    0  0.29429449914E+03  0.69693771561E+03 -0.43811348061E+01  0.12546031523E+04  0.10008388701E+04 0.  0.
   -9000010    2    1    2    0  501 -0.29429449914E+03 -0.69693771561E+03  0.16886336957E+04  0.21036283624E+04  0.10007182905E+04 0.  0.
        -13    1    3    3    0    0 -0.78639371507E+02 -0.14836738665E+03 -0.24763691505E+03  0.29920074370E+03  0.10566000000E+00 0.  1.
          4    1    3    3  502    0  0.37293387065E+03  0.84530510226E+03  0.24325578024E+03  0.95540240862E+03  0.00000000000E+00 0.  1.
         13    1    4    4    0    0 -0.47399066664E+03 -0.54442639909E+03  0.46762882670E+03  0.86008370919E+03  0.10566000000E+00 0. -1.
         -4    1    4    4    0  501  0.17969616750E+03 -0.15251131651E+03  0.12210048690E+04  0.12435446532E+04  0.00000000000E+00 0. -1.
<mgrwt>
<rscale>  2 0.12545474E+04</rscale>
<asrwt>0</asrwt>
<pdfrwt beam="1">  1        2 0.38788339E+00 0.12545474E+04</pdfrwt>
<pdfrwt beam="2">  1       -2 0.12876761E+00 0.12545474E+04</pdfrwt>
<totfact> 0.22451619E+00</totfact>
</mgrwt>
</event>
<event>
 8    1  0.1449514E-005  0.1454248E+04  0.7818608E-02  0.8436327E-01
          1   -1    0    0  502    0  0.00000000000E+00  0.00000000000E+00  0.79002203716E+03  0.79002203716E+03  0.00000000000E+00 0. -1.
         -1   -1    0    0    0  501 -0.00000000000E+00 -0.00000000000E+00 -0.26828493476E+04  0.26828493476E+04  0.00000000000E+00 0.  1.
    9000010    2    1    2  502    0  0.62773709170E+03 -0.82476922415E+03 -0.85671049962E+03  0.16740152806E+04  0.99703367552E+03 0.  0.
   -9000010    2    1    2    0  501 -0.62773709170E+03  0.82476922415E+03 -0.10361168108E+04  0.17988561041E+04  0.10430949661E+04 0.  0.
        -13    1    3    3    0    0  0.81854002955E+03 -0.83884401539E+03 -0.90016138221E+03  0.14778219065E+04  0.10566000000E+00 0.  1.
          4    1    3    3  502    0 -0.19080293785E+03  0.14074791247E+02  0.43450882593E+02  0.19619337410E+03  0.00000000000E+00 0.  1.
         13    1    4    4    0    0 -0.32422436873E+03  0.95771119994E+03 -0.10621840963E+04  0.14664812475E+04  0.10566000000E+00 0. -1.
         -4    1    4    4    0  501 -0.30351272297E+03 -0.13294197579E+03  0.26067285503E+02  0.33237485661E+03  0.00000000000E+00 0. -1.
<mgrwt>
<rscale>  2 0.14542482E+04</rscale>
<asrwt>0</asrwt>
<pdfrwt beam="1">  1        1 0.12154185E+00 0.14542482E+04</pdfrwt>
<pdfrwt beam="2">  1       -1 0.41274605E+00 0.14542482E+04</pdfrwt>
<totfact> 0.34525873E-01</totfact>
</mgrwt>
</event>
<event>
 8    1  0.1449514E-005  0.1385028E+04  0.7818608E-02  0.8478902E-01
          2   -1    0    0  502    0  0.00000000000E+00  0.00000000000E+00  0.16490707255E+04  0.16490707255E+04  0.00000000000E+00 0. -1.
         -2   -1    0    0    0  501 -0.00000000000E+00 -0.00000000000E+00 -0.11700074040E+04  0.11700074040E+04  0.00000000000E+00 0.  1.
    9000010    2    1    2  502    0 -0.10448735326E+04  0.16444400228E+03  0.32942560392E+03  0.13819420087E+04  0.82609924222E+03 0.  0.
   -9000010    2    1    2    0  501  0.10448735326E+04 -0.16444400228E+03  0.14963771755E+03  0.14371361209E+04  0.96133566170E+03 0.  0.
        -13    1    3    3    0    0 -0.11696457259E+04  0.76401659894E+02  0.21637570566E+03  0.11919424461E+04  0.10566000000E+00 0.  1.
          4    1    3    3  502    0  0.12477219333E+03  0.88042342390E+02  0.11304989827E+03  0.18999956258E+03  0.00000000000E+00 0.  1.
         13    1    4    4    0    0  0.24038081936E+03  0.20909457888E+03 -0.30445093549E+03  0.44067432932E+03  0.10566000000E+00 0. -1.
         -4    1    4    4    0  501  0.80449271319E+03 -0.37353858117E+03  0.45408865303E+03  0.99646179155E+03  0.00000000000E+00 0. -1.
<mgrwt>
<rscale>  2 0.13850278E+04</rscale>
<asrwt>0</asrwt>
<pdfrwt beam="1">  1        2 0.25370319E+00 0.13850278E+04</pdfrwt>
<pdfrwt beam="2">  1       -2 0.18000114E+00 0.13850278E+04</pdfrwt>
<totfact> 0.23704172E+00</totfact>
</mgrwt>
</event>
<event>
 8    1  0.1449514E-005  0.1076511E+04  0.7818608E-02  0.8705848E-01
          1   -1    0    0  502    0  0.00000000000E+00  0.00000000000E+00  0.31530233989E+04  0.31530233989E+04  0.00000000000E+00 0.  1.
         -1   -1    0    0    0  501 -0.00000000000E+00 -0.00000000000E+00 -0.38953246838E+03  0.38953246838E+03  0.00000000000E+00 0. -1.
    9000010    2    1    2  502    0  0.17341915462E+02  0.38321686330E+03  0.94297751533E+03  0.14196192508E+04  0.98942221348E+03 0.  0.
   -9000010    2    1    2    0  501 -0.17341915462E+02 -0.38321686330E+03  0.18205134152E+04  0.21229366165E+04  0.10224650978E+04 0.  0.
        -13    1    3    3    0    0  0.28832690757E+03  0.60353706656E+03  0.41687315919E+03  0.78814506175E+03  0.10566000000E+00 0.  1.
          4    1    3    3  502    0 -0.27098499211E+03 -0.22032020326E+03  0.52610435614E+03  0.63147418907E+03  0.00000000000E+00 0.  1.
         13    1    4    4    0    0  0.33952627887E+03 -0.49816564978E+03  0.15426675848E+04  0.16562821007E+04  0.10566000000E+00 0. -1.
         -4    1    4    4    0  501 -0.35686819433E+03  0.11494878648E+03  0.27784583041E+03  0.46665451580E+03  0.00000000000E+00 0. -1.
<mgrwt>
<rscale>  2 0.10765105E+04</rscale>
<asrwt>0</asrwt>
<pdfrwt beam="1">  1        1 0.48508051E+00 0.10765105E+04</pdfrwt>
<pdfrwt beam="2">  1       -1 0.59928074E-01 0.10765105E+04</pdfrwt>
<totfact> 0.87301903E-01</totfact>
</mgrwt>
</event>
<event>
 8    1  0.1449514E-005  0.1070738E+04  0.7818608E-02  0.8710826E-01
         -2   -1    0    0    0  501 -0.00000000000E+00  0.00000000000E+00  0.15501623712E+04  0.15501623712E+04  0.00000000000E+00 0. -1.
          2   -1    0    0  502    0  0.00000000000E+00 -0.00000000000E+00 -0.73981517394E+03  0.73981517394E+03  0.00000000000E+00 0.  1.
    9000010    2    1    2  502    0  0.33417271818E+03  0.16993072176E+03  0.42546078661E+03  0.11525732664E+04  0.10034243358E+04 0.  0.
   -9000010    2    1    2    0  501 -0.33417271818E+03 -0.16993072176E+03  0.38488641061E+03  0.11374042787E+04  0.10024984232E+04 0.  0.
        -13    1    3    3    0    0  0.39423071663E+03  0.17945200877E+03  0.72629725210E+03  0.84565276028E+03  0.10566000000E+00 0.  1.
          4    1    3    3  502    0 -0.60057998444E+02 -0.95212870087E+01 -0.30083646550E+03  0.30692050609E+03  0.00000000000E+00 0.  1.
         13    1    4    4    0    0 -0.34050421283E+03  0.28273377899E+03  0.50254923978E+03  0.66965458134E+03  0.10566000000E+00 0. -1.
         -4    1    4    4    0  501  0.63314946512E+01 -0.45266450075E+03 -0.11766282917E+03  0.46774969741E+03  0.00000000000E+00 0. -1.
<mgrwt>
<rscale>  2 0.10707377E+04</rscale>
<asrwt>0</asrwt>
<pdfrwt beam="2">  1        2 0.11381772E+00 0.10707377E+04</pdfrwt>
<pdfrwt beam="1">  1       -2 0.23848652E+00 0.10707377E+04</pdfrwt>
<totfact> 0.28089933E+00</totfact>
</mgrwt>
</event>
<event>
 8    1  0.1449514E-005  0.1429855E+04  0.7818608E-02  0.8451048E-01
         -1   -1    0    0    0  501 -0.00000000000E+00  0.00000000000E+00  0.86188865310E+03  0.86188865310E+03  0.00000000000E+00 0. -1.
          1   -1    0    0  502    0  0.00000000000E+00 -0.00000000000E+00 -0.24184492572E+04  0.24184492572E+04  0.00000000000E+00 0.  1.
    9000010    2    1    2  502    0 -0.70728631984E+03  0.74270099933E+03 -0.10025637394E+04  0.17421790606E+04  0.98903746896E+03 0.  0.
   -9000010    2    1    2    0  501  0.70728631984E+03 -0.74270099933E+03 -0.55399686468E+03  0.15381588497E+04  0.10035743162E+04 0.  0.
        -13    1    3    3    0    0 -0.67291747114E+03  0.88040474504E+03 -0.11067235154E+04  0.15661313447E+04  0.10566000000E+00 0.  1.
          4    1    3    3  502    0 -0.34368848698E+02 -0.13770374571E+03  0.10415977601E+03  0.17604771592E+03  0.00000000000E+00 0.  1.
         13    1    4    4    0    0  0.12677810648E+02  0.22127033980E+03  0.12243584793E+02  0.22197118437E+03  0.10566000000E+00 0. -1.
         -4    1    4    4    0  501  0.69460850919E+03 -0.96397133912E+03 -0.56624044947E+03  0.13161876653E+04  0.00000000000E+00 0. -1.
<mgrwt>
<rscale>  2 0.14298551E+04</rscale>
<asrwt>0</asrwt>
<pdfrwt beam="2">  1        1 0.37206911E+00 0.14298551E+04</pdfrwt>
<pdfrwt beam="1">  1       -1 0.13259826E+00 0.14298551E+04</pdfrwt>
<totfact> 0.85041589E-01</totfact>
</mgrwt>
</event>
<event>
 8    1  0.1449514E-005  0.1180687E+04  0.7818608E-02  0.8621249E-01
         -1   -1    0    0    0  501 -0.00000000000E+00  0.00000000000E+00  0.79800892570E+03  0.79800892570E+03  0.00000000000E+00 0.  1.
          1   -1    0    0  502    0  0.00000000000E+00 -0.00000000000E+00 -0.19515526324E+04  0.19515526324E+04  0.00000000000E+00 0. -1.
    9000010    2    1    2  502    0 -0.78567797290E+02 -0.61469818494E+03 -0.12689491490E+03  0.11765379437E+04  0.99202442317E+03 0.  0.
   -9000010    2    1    2    0  501  0.78567797290E+02  0.61469818494E+03 -0.10266487918E+04  0.15730236144E+04  0.10180220000E+04 0.  0.
        -13    1    3    3    0    0 -0.10314215738E+03  0.24134909648E+03  0.11511593654E+03  0.28659968773E+03  0.10566000000E+00 0.  1.
          4    1    3    3  502    0  0.24574360090E+02 -0.85604728141E+03 -0.24201085144E+03  0.88993825595E+03  0.00000000000E+00 0.  1.
         13    1    4    4    0    0  0.16998846652E+03  0.72753241391E+03 -0.11574106328E+04  0.13776062122E+04  0.10566000000E+00 0. -1.
         -4    1    4    4    0  501 -0.91420669227E+02 -0.11283422897E+03  0.13076184100E+03  0.19541740212E+03  0.00000000000E+00 0. -1.
<mgrwt>
<rscale>  2 0.11806873E+04</rscale>
<asrwt>0</asrwt>
<pdfrwt beam="2">  1        1 0.30023887E+00 0.11806873E+04</pdfrwt>
<pdfrwt beam="1">  1       -1 0.12277060E+00 0.11806873E+04</pdfrwt>
<totfact> 0.25639976E+00</totfact>
</mgrwt>
</event>
<event>
 8    1  0.1449514E-005  0.1025540E+04  0.7818608E-02  0.8750958E-01
         -1   -1    0    0    0  501 -0.00000000000E+00  0.00000000000E+00  0.63056275363E+03  0.63056275363E+03  0.00000000000E+00 0. -1.
          1   -1    0    0  502    0  0.00000000000E+00 -0.00000000000E+00 -0.24933425307E+04  0.24933425307E+04  0.00000000000E+00 0.  1.
    9000010    2    1    2  502    0  0.20038110329E+03  0.14250158636E+03 -0.36646547847E+02  0.10326406676E+04  0.10022696694E+04 0.  0.
   -9000010    2    1    2    0  501 -0.20038110329E+03 -0.14250158636E+03 -0.18261332292E+04  0.20912646167E+04  0.98902266789E+03 0.  0.
        -13    1    3    3    0    0 -0.32788750913E+02  0.46924033973E+03  0.25632587569E+03  0.53569073571E+03  0.10566000000E+00 0.  1.
          4    1    3    3  502    0  0.23316985420E+03 -0.32673875337E+03 -0.29297242353E+03  0.49694993189E+03  0.00000000000E+00 0.  1.
         13    1    4    4    0    0 -0.44886345342E+03 -0.44065120713E+03 -0.11921068401E+04  0.13478763354E+04  0.10566000000E+00 0. -1.
         -4    1    4    4    0  501  0.24848235014E+03  0.29814962077E+03 -0.63402638914E+03  0.74338828133E+03  0.00000000000E+00 0. -1.
<mgrwt>
<rscale>  2 0.10255397E+04</rscale>
<asrwt>0</asrwt>
<pdfrwt beam="2">  1        1 0.38359117E+00 0.10255397E+04</pdfrwt>
<pdfrwt beam="1">  1       -1 0.97009653E-01 0.10255397E+04</pdfrwt>
<totfact> 0.16223794E+00</totfact>
</mgrwt>
</event>
<event>
 8    1  0.1449514E-005  0.1128816E+04  0.7818608E-02  0.8662184E-01
         -1   -1    0    0    0  501 -0.00000000000E+00  0.00000000000E+00  0.11906572970E+04  0.11906572970E+04  0.00000000000E+00 0.  1.
          1   -1    0    0  502    0  0.00000000000E+00 -0.00000000000E+00 -0.11436492131E+04  0.11436492131E+04  0.00000000000E+00 0. -1.
    9000010    2    1    2  502    0  0.48123177272E+03 -0.34044977864E+02  0.31909966765E+03  0.11665551790E+04  0.10130564190E+04 0.  0.
   -9000010    2    1    2    0  501 -0.48123177272E+03  0.34044977864E+02 -0.27209158373E+03  0.11677513311E+04  0.10280400098E+04 0.  0.
        -13    1    3    3    0    0  0.40144227891E+03  0.38135723873E+03  0.46089507465E+03  0.72042593501E+03  0.10566000000E+00 0.  1.
          4    1    3    3  502    0  0.79789493808E+02 -0.41540221659E+03 -0.14179540700E+03  0.44612924396E+03  0.00000000000E+00 0.  1.
         13    1    4    4    0    0 -0.24835910950E+03  0.21869093625E+03  0.34793780598E+03  0.48017569791E+03  0.10566000000E+00 0. -1.
         -4    1    4    4    0  501 -0.23287266322E+03 -0.18464595839E+03 -0.62002938970E+03  0.68757563316E+03  0.00000000000E+00 0. -1.
<mgrwt>
<rscale>  2 0.11288162E+04</rscale>
<asrwt>0</asrwt>
<pdfrwt beam="2">  1        1 0.17594603E+00 0.11288162E+04</pdfrwt>
<pdfrwt beam="1">  1       -1 0.18317805E+00 0.11288162E+04</pdfrwt>
<totfact> 0.31078673E+00</totfact>
</mgrwt>
</event>
<event>
 8    1  0.1449514E-005  0.1033498E+04  0.7818608E-02  0.8743738E-01
          1   -1    0    0  502    0  0.00000000000E+00  0.00000000000E+00  0.38183056748E+03  0.38183056748E+03  0.00000000000E+00 0.  1.
         -1   -1    0    0    0  501 -0.00000000000E+00 -0.00000000000E+00 -0.28848007311E+04  0.28848007311E+04  0.00000000000E+00 0. -1.
    9000010    2    1    2  502    0  0.53567048191E+03 -0.21550467648E+03 -0.89708369993E+03  0.12999355568E+04  0.74275713145E+03 0.  0.
   -9000010    2    1    2    0  501 -0.53567048191E+03  0.21550467648E+03 -0.16058864637E+04  0.19666957418E+04  0.97756620019E+03 0.  0.
        -13    1    3    3    0    0  0.51763587831E+03 -0.14268390992E+03 -0.16173614338E+03  0.56077106906E+03  0.10566000000E+00 0.  1.
          4    1    3    3  502    0  0.18034603598E+02 -0.72820766560E+02 -0.73534755655E+03  0.73916448771E+03  0.00000000000E+00 0.  1.
         13    1    4    4    0    0 -0.40050452720E+03 -0.30500897670E+03 -0.38876256430E+03  0.63605871957E+03  0.10566000000E+00 0. -1.
         -4    1    4    4    0  501 -0.13516595471E+03  0.52051365317E+03 -0.12171238994E+04  0.13306370222E+04  0.00000000000E+00 0. -1.
<mgrwt>
<rscale>  2 0.10334984E+04</rscale>
<asrwt>0</asrwt>
<pdfrwt beam="1">  1        1 0.58743161E-01 0.10334984E+04</pdfrwt>
<pdfrwt beam="2">  1       -1 0.44381552E+00 0.10334984E+04</pdfrwt>
<totfact> 0.10163740E+00</totfact>
</mgrwt>
</event>
<event>
 8    1  0.1449514E-005  0.1655424E+04  0.7818608E-02  0.8325269E-01
          1   -1    0    0  502    0  0.00000000000E+00  0.00000000000E+00  0.99571627817E+03  0.99571627817E+03  0.00000000000E+00 0. -1.
         -1   -1    0    0    0  501 -0.00000000000E+00 -0.00000000000E+00 -0.27526517113E+04  0.27526517113E+04  0.00000000000E+00 0.  1.
    9000010    2    1    2  502    0  0.49065800639E+02 -0.13183133302E+04 -0.90426055288E+03  0.18961998386E+04  0.10185917687E+04 0.  0.
   -9000010    2    1    2    0  501 -0.49065800639E+02  0.13183133302E+04 -0.85267488027E+03  0.18521681508E+04  0.98138418486E+03 0.  0.
        -13    1    3    3    0    0  0.45650225547E+03 -0.59761514731E+03 -0.13098917608E+03  0.76334549776E+03  0.10566000000E+00 0.  1.
          4    1    3    3  502    0 -0.40743645483E+03 -0.72069818284E+03 -0.77327137680E+03  0.11328543409E+04  0.00000000000E+00 0.  1.
         13    1    4    4    0    0  0.37229477911E+03  0.95514568244E+03 -0.30026010335E+03  0.10682054194E+04  0.10566000000E+00 0. -1.
         -4    1    4    4    0  501 -0.42136057975E+03  0.36316764771E+03 -0.55241477692E+03  0.78396273143E+03  0.00000000000E+00 0. -1.
<mgrwt>
<rscale>  2 0.16554235E+04</rscale>
<asrwt>0</asrwt>
<pdfrwt beam="1">  1        1 0.15318712E+00 0.16554235E+04</pdfrwt>
<pdfrwt beam="2">  1       -1 0.42348488E+00 0.16554235E+04</pdfrwt>
<totfact> 0.22814151E-01</totfact>
</mgrwt>
</event>
<event>
 8    1  0.1449514E-005  0.1144395E+04  0.7818608E-02  0.8649653E-01
          2   -1    0    0  502    0  0.00000000000E+00  0.00000000000E+00  0.58572378967E+03  0.58572378967E+03  0.00000000000E+00 0.  1.
         -2   -1    0    0    0  501 -0.00000000000E+00 -0.00000000000E+00 -0.23592214145E+04  0.23592214145E+04  0.00000000000E+00 0. -1.
    9000010    2    1    2  502    0  0.57276181038E+03  0.56958307096E+01 -0.54770360814E+03  0.12656841807E+04  0.98685797817E+03 0.  0.
   -9000010    2    1    2    0  501 -0.57276181038E+03 -0.56958307096E+01 -0.12257940167E+04  0.16792610234E+04  0.99461453817E+03 0.  0.
        -13    1    3    3    0    0 -0.12288796520E+03  0.34160643627E+03 -0.23397452657E+03  0.43190334513E+03  0.10566000000E+00 0.  1.
          4    1    3    3  502    0  0.69564977558E+03 -0.33591060556E+03 -0.31372908157E+03  0.83378083560E+03  0.00000000000E+00 0.  1.
         13    1    4    4    0    0  0.23675668664E+02  0.35055610461E+03 -0.11610952063E+03  0.37004263499E+03  0.10566000000E+00 0. -1.
         -4    1    4    4    0  501 -0.59643747905E+03 -0.35625193532E+03 -0.11096844961E+04  0.13092183884E+04  0.00000000000E+00 0. -1.
<mgrwt>
<rscale>  2 0.11443948E+04</rscale>
<asrwt>0</asrwt>
<pdfrwt beam="1">  1        2 0.90111350E-01 0.11443948E+04</pdfrwt>
<pdfrwt beam="2">  1       -2 0.36295715E+00 0.11443948E+04</pdfrwt>
<totfact> 0.47378233E-01</totfact>
</mgrwt>
</event>
<event>
 8    1  0.1449514E-005  0.1132642E+04  0.7818608E-02  0.8659087E-01
         -2   -1    0    0    0  501 -0.00000000000E+00  0.00000000000E+00  0.68071447111E+03  0.68071447111E+03  0.00000000000E+00 0. -1.
          2   -1    0    0  502    0  0.00000000000E+00 -0.00000000000E+00 -0.20082853140E+04  0.20082853140E+04  0.00000000000E+00 0.  1.
    9000010    2    1    2  502    0 -0.45289253185E+03 -0.21070827479E+03 -0.10032791862E+04  0.15214500503E+04  0.10289467953E+04 0.  0.
   -9000010    2    1    2    0  501  0.45289253185E+03  0.21070827479E+03 -0.32429165667E+03  0.11675497348E+04  0.10042398529E+04 0.  0.
        -13    1    3    3    0    0 -0.76317555663E+03  0.38016887241E+01 -0.72547071008E+03  0.10529763271E+04  0.10566000000E+00 0.  1.
          4    1    3    3  502    0  0.31028302477E+03 -0.21450996351E+03 -0.27780847610E+03  0.46847372317E+03  0.00000000000E+00 0.  1.
         13    1    4    4    0    0  0.57394614356E+02 -0.30533655621E+03  0.16691683217E+03  0.35268370297E+03  0.10566000000E+00 0. -1.
         -4    1    4    4    0  501  0.39549791750E+03  0.51604483099E+03 -0.49120848884E+03  0.81486603184E+03  0.00000000000E+00 0. -1.
<mgrwt>
<rscale>  2 0.11326422E+04</rscale>
<asrwt>0</asrwt>
<pdfrwt beam="2">  1        2 0.30896697E+00 0.11326422E+04</pdfrwt>
<pdfrwt beam="1">  1       -2 0.10472531E+00 0.11326422E+04</pdfrwt>
<totfact> 0.74544907E+00</totfact>
</mgrwt>
</event>
<event>
 8    1  0.1449514E-005  0.1044581E+04  0.7818608E-02  0.8733795E-01
          2   -1    0    0  502    0  0.00000000000E+00  0.00000000000E+00  0.24329491265E+04  0.24329491265E+04  0.00000000000E+00 0.  1.
         -2   -1    0    0    0  501 -0.00000000000E+00 -0.00000000000E+00 -0.44998175577E+03  0.44998175577E+03  0.00000000000E+00 0. -1.
    9000010    2    1    2  502    0 -0.81068275118E+02  0.29511992427E+03  0.10699010150E+04  0.14920500977E+04  0.99391019568E+03 0.  0.
   -9000010    2    1    2    0  501  0.81068275118E+02 -0.29511992427E+03  0.91306635570E+03  0.13908807846E+04  0.10035892348E+04 0.  0.
        -13    1    3    3    0    0 -0.38790583472E+03  0.17574627965E+03  0.60285344174E+02  0.43010699286E+03  0.10566000000E+00 0.  1.
          4    1    3    3  502    0  0.30683755961E+03  0.11937364463E+03  0.10096156709E+04  0.10619431048E+04  0.00000000000E+00 0.  1.
         13    1    4    4    0    0  0.47009924890E+03 -0.32685067610E+03  0.80136149111E+03  0.98488827736E+03  0.10566000000E+00 0. -1.
         -4    1    4    4    0  501 -0.38903097378E+03  0.31730751828E+02  0.11170486459E+03  0.40599250725E+03  0.00000000000E+00 0. -1.
<mgrwt>
<rscale>  2 0.10445810E+04</rscale>
<asrwt>0</asrwt>
<pdfrwt beam="1">  1        2 0.37429986E+00 0.10445810E+04</pdfrwt>
<pdfrwt beam="2">  1       -2 0.69227964E-01 0.10445810E+04</pdfrwt>
<totfact> 0.11211044E+01</totfact>
</mgrwt>
</event>
<event>
 8    1  0.1449514E-005  0.1081118E+04  0.7818608E-02  0.8701899E-01
         -1   -1    0    0    0  501 -0.00000000000E+00  0.00000000000E+00  0.11638600280E+04  0.11638600280E+04  0.00000000000E+00 0. -1.
          1   -1    0    0  502    0  0.00000000000E+00 -0.00000000000E+00 -0.12135772150E+04  0.12135772150E+04  0.00000000000E+00 0.  1.
    9000010    2    1    2  502    0 -0.36768002952E+03  0.18613707943E+03  0.46876790860E+03  0.11614615351E+04  0.97949677328E+03 0.  0.
   -9000010    2    1    2    0  501  0.36768002952E+03 -0.18613707943E+03 -0.51848509558E+03  0.12159757079E+04  0.10197717938E+04 0.  0.
        -13    1    3    3    0    0 -0.52535560236E+03 -0.11008364372E+02  0.66081368671E+03  0.84427153968E+03  0.10566000000E+00 0.  1.
          4    1    3    3  502    0  0.15767557283E+03  0.19714544380E+03 -0.19204577811E+03  0.31718999538E+03  0.00000000000E+00 0.  1.
         13    1    4    4    0    0  0.35620413626E+03  0.30070601945E+03 -0.55835368018E+03  0.72736809124E+03  0.10566000000E+00 0. -1.
         -4    1    4    4    0  501  0.11475893260E+02 -0.48684309888E+03  0.39868584598E+02  0.48860761669E+03  0.00000000000E+00 0. -1.
<mgrwt>
<rscale>  2 0.10811182E+04</rscale>
<asrwt>0</asrwt>
<pdfrwt beam="2">  1        1 0.18670419E+00 0.10811182E+04</pdfrwt>
<pdfrwt beam="1">  1       -1 0.17905539E+00 0.10811182E+04</pdfrwt>
<totfact> 0.30003282E+00</totfact>
</mgrwt>
</event>
<event>
 8    1  0.1449514E-005  0.1296086E+04  0.7818608E-02  0.8537519E-01
         -2   -1    0    0    0  501 -0.00000000000E+00  0.00000000000E+00  0.62114777767E+03  0.62114777767E+03  0.00000000000E+00 0. -1.
          2   -1    0    0  502    0  0.00000000000E+00 -0.00000000000E+00 -0.31267483403E+04  0.31267483403E+04  0.00000000000E+00 0.  1.
    9000010    2    1    2  502    0 -0.62498090368E+03  0.57516111109E+03 -0.19534410689E+04  0.23524800736E+04  0.99840825987E+03 0.  0.
   -9000010    2    1    2    0  501  0.62498090368E+03 -0.57516111109E+03 -0.55215949364E+03  0.13954160443E+04  0.95963242782E+03 0.  0.
        -13    1    3    3    0    0 -0.44018710651E+03  0.58962635919E+02 -0.16839876445E+04  0.17415670183E+04  0.10566000000E+00 0.  1.
          4    1    3    3  502    0 -0.18479379718E+03  0.51619847517E+03 -0.26945342441E+03  0.61091305533E+03  0.00000000000E+00 0.  1.
         13    1    4    4    0    0  0.32335117803E+03 -0.58679984713E+03  0.99405077120E+02  0.67732667557E+03  0.10566000000E+00 0. -1.
         -4    1    4    4    0  501  0.30162972565E+03  0.11638736035E+02 -0.65156457076E+03  0.71808936870E+03  0.00000000000E+00 0. -1.
<mgrwt>
<rscale>  2 0.12960861E+04</rscale>
<asrwt>0</asrwt>
<pdfrwt beam="2">  1        2 0.48103822E+00 0.12960861E+04</pdfrwt>
<pdfrwt beam="1">  1       -2 0.95561195E-01 0.12960861E+04</pdfrwt>
<totfact> 0.20680925E+00</totfact>
</mgrwt>
</event>
<event>
 8    1  0.1449514E-005  0.1355459E+04  0.7818608E-02  0.8497874E-01
         -1   -1    0    0    0  501 -0.00000000000E+00  0.00000000000E+00  0.11272669800E+04  0.11272669800E+04  0.00000000000E+00 0. -1.
          1   -1    0    0  502    0  0.00000000000E+00 -0.00000000000E+00 -0.16530045925E+04  0.16530045925E+04  0.00000000000E+00 0.  1.
    9000010    2    1    2  502    0 -0.57909221845E+03  0.71998937868E+03 -0.98644454398E+02  0.13607070812E+04  0.99401233871E+03 0.  0.
   -9000010    2    1    2    0  501  0.57909221845E+03 -0.71998937868E+03 -0.42709315816E+03  0.14195644913E+04  0.98945554543E+03 0.  0.
        -13    1    3    3    0    0 -0.25749828646E+03 -0.20704911288E+03 -0.17971564750E+03  0.37612820659E+03  0.10566000000E+00 0.  1.
          4    1    3    3  502    0 -0.32159393199E+03  0.92703849157E+03  0.81071193101E+02  0.98457887459E+03  0.00000000000E+00 0.  1.
         13    1    4    4    0    0  0.85395124458E+03 -0.54663110585E+03 -0.41145087599E+03  0.10942258124E+04  0.10566000000E+00 0. -1.
         -4    1    4    4    0  501 -0.27485902614E+03 -0.17335827283E+03 -0.15642282173E+02  0.32533867892E+03  0.00000000000E+00 0. -1.
<mgrwt>
<rscale>  2 0.13554587E+04</rscale>
<asrwt>0</asrwt>
<pdfrwt beam="2">  1        1 0.25430840E+00 0.13554587E+04</pdfrwt>
<pdfrwt beam="1">  1       -1 0.17342569E+00 0.13554587E+04</pdfrwt>
<totfact> 0.15190449E+00</totfact>
</mgrwt>
</event>
<event>
 8    1  0.1449514E-005  0.1272242E+04  0.7818608E-02  0.8554061E-01
         -2   -1    0    0    0  501 -0.00000000000E+00  0.00000000000E+00  0.11193943538E+04  0.11193943538E+04  0.00000000000E+00 0. -1.
          2   -1    0    0  502    0  0.00000000000E+00 -0.00000000000E+00 -0.20160769397E+04  0.20160769397E+04  0.00000000000E+00 0.  1.
    9000010    2    1    2  502    0 -0.78556480481E+02  0.78598002132E+03 -0.12818969983E+04  0.18057069908E+04  0.99668556105E+03 0.  0.
   -9000010    2    1    2    0  501  0.78556480481E+02 -0.78598002132E+03  0.38521441249E+03  0.13297643027E+04  0.99797156402E+03 0.  0.
        -13    1    3    3    0    0 -0.25466161457E+03  0.28152976634E+03 -0.12080859359E+04  0.12663266510E+04  0.10566000000E+00 0.  1.
          4    1    3    3  502    0  0.17610513408E+03  0.50445025498E+03 -0.73811062420E+02  0.53938033978E+03  0.00000000000E+00 0.  1.
         13    1    4    4    0    0 -0.37921986864E+03 -0.68912932168E+03  0.34877996419E+03  0.86043849597E+03  0.10566000000E+00 0. -1.
         -4    1    4    4    0  501  0.45777634912E+03 -0.96850699644E+02  0.36434448304E+02  0.46932580673E+03  0.00000000000E+00 0. -1.
<mgrwt>
<rscale>  2 0.12722421E+04</rscale>
<asrwt>0</asrwt>
<pdfrwt beam="2">  1        2 0.31016568E+00 0.12722421E+04</pdfrwt>
<pdfrwt beam="1">  1       -2 0.17221452E+00 0.12722421E+04</pdfrwt>
<totfact> 0.17572290E+00</totfact>
</mgrwt>
</event>
<event>
 8    1  0.1449514E-005  0.1137279E+04  0.7818608E-02  0.8655351E-01
          2   -1    0    0  502    0  0.00000000000E+00  0.00000000000E+00  0.13641837556E+04  0.13641837556E+04  0.00000000000E+00 0. -1.
         -2   -1    0    0    0  501 -0.00000000000E+00 -0.00000000000E+00 -0.98858530043E+03  0.98858530043E+03  0.00000000000E+00 0.  1.
    9000010    2    1    2  502    0 -0.14578823256E+03 -0.48485057678E+03  0.42848751445E+03  0.12419194552E+04  0.10499657579E+04 0.  0.
   -9000010    2    1    2    0  501  0.14578823256E+03  0.48485057678E+03 -0.52889059304E+02  0.11108496008E+04  0.98734760463E+03 0.  0.
        -13    1    3    3    0    0 -0.36163155083E+03 -0.13468283559E+03 -0.24185995713E+03  0.45542627811E+03  0.10566000000E+00 0.  1.
          4    1    3    3  502    0  0.21584331827E+03 -0.35016774119E+03  0.67034747158E+03  0.78649317713E+03  0.00000000000E+00 0.  1.
         13    1    4    4    0    0  0.18418720552E+03  0.45381783428E+03 -0.47712106937E+03  0.68375439991E+03  0.10566000000E+00 0. -1.
         -4    1    4    4    0  501 -0.38398972954E+02  0.31032742500E+02  0.42423201007E+03  0.42709520086E+03  0.00000000000E+00 0. -1.
<mgrwt>
<rscale>  2 0.11372792E+04</rscale>
<asrwt>0</asrwt>
<pdfrwt beam="1">  1        2 0.20987442E+00 0.11372792E+04</pdfrwt>
<pdfrwt beam="2">  1       -2 0.15209005E+00 0.11372792E+04</pdfrwt>
<totfact> 0.60300044E+00</totfact>
</mgrwt>
</event>
<event>
 8    1  0.1449514E-005  0.1284321E+04  0.7818608E-02  0.8545635E-01
          1   -1    0    0  502    0  0.00000000000E+00  0.00000000000E+00  0.11664292695E+04  0.11664292695E+04  0.00000000000E+00 0. -1.
         -1   -1    0    0    0  501 -0.00000000000E+00 -0.00000000000E+00 -0.14814770962E+04  0.14814770962E+04  0.00000000000E+00 0.  1.
    9000010    2    1    2  502    0  0.92463681360E+02  0.77620034949E+03 -0.44092077795E+03  0.13690083032E+04  0.10337969273E+04 0.  0.
   -9000010    2    1    2    0  501 -0.92463681360E+02 -0.77620034949E+03  0.12587295126E+03  0.12788980626E+04  0.10043404501E+04 0.  0.
        -13    1    3    3    0    0  0.21050449437E+03  0.54935945121E+03 -0.75936819901E+03  0.96059774184E+03  0.10566000000E+00 0.  1.
          4    1    3    3  502    0 -0.11804081301E+03  0.22684089827E+03  0.31844742106E+03  0.40841056138E+03  0.00000000000E+00 0.  1.
         13    1    4    4    0    0  0.38916084585E+03 -0.65938444567E+03 -0.74274755381E+01  0.76569523291E+03  0.10566000000E+00 0. -1.
         -4    1    4    4    0  501 -0.48162452721E+03 -0.11681590381E+03  0.13330042680E+03  0.51320282967E+03  0.00000000000E+00 0. -1.
<mgrwt>
<rscale>  2 0.12843213E+04</rscale>
<asrwt>0</asrwt>
<pdfrwt beam="1">  1        1 0.17945066E+00 0.12843213E+04</pdfrwt>
<pdfrwt beam="2">  1       -1 0.22791955E+00 0.12843213E+04</pdfrwt>
<totfact> 0.11522911E+00</totfact>
</mgrwt>
</event>
<event>
 8    1  0.1449514E-005  0.1204003E+04  0.7818608E-02  0.8603554E-01
          2   -1    0    0  502    0  0.00000000000E+00  0.00000000000E+00  0.12323950693E+04  0.12323950693E+04  0.00000000000E+00 0. -1.
         -2   -1    0    0    0  501 -0.00000000000E+00 -0.00000000000E+00 -0.12364824348E+04  0.12364824348E+04  0.00000000000E+00 0.  1.
    9000010    2    1    2  502    0  0.53427186207E+03 -0.52939237659E+03 -0.27441832097E+03  0.12306932161E+04  0.93466446720E+03 0.  0.
   -9000010    2    1    2    0  501 -0.53427186207E+03  0.52939237659E+03  0.27033095546E+03  0.12381842879E+04  0.94568429957E+03 0.  0.
        -13    1    3    3    0    0 -0.14226684627E+03 -0.47658118607E+03 -0.23732552456E+03  0.55108338592E+03  0.10566000000E+00 0.  1.
          4    1    3    3  502    0  0.67653870834E+03 -0.52811190520E+02 -0.37092796414E+02  0.67960983017E+03  0.00000000000E+00 0.  1.
         13    1    4    4    0    0 -0.15187515901E+03 -0.27129772846E+03  0.14136280983E+03  0.34154352074E+03  0.10566000000E+00 0. -1.
         -4    1    4    4    0  501 -0.38239670306E+03  0.80069010505E+03  0.12896814563E+03  0.89664076721E+03  0.00000000000E+00 0. -1.
<mgrwt>
<rscale>  2 0.12040033E+04</rscale>
<asrwt>0</asrwt>
<pdfrwt beam="1">  1        2 0.18959924E+00 0.12040033E+04</pdfrwt>
<pdfrwt beam="2">  1       -2 0.19022807E+00 0.12040033E+04</pdfrwt>
<totfact> 0.33753056E+00</totfact>
</mgrwt>
</event>
<event>
 8    1  0.1449514E-005  0.1653112E+04  0.7818608E-02  0.8326450E-01
         -2   -1    0    0    0  501 -0.00000000000E+00  0.00000000000E+00  0.11906930718E+04  0.11906930718E+04  0.00000000000E+00 0. -1.
          2   -1    0    0  502    0  0.00000000000E+00 -0.00000000000E+00 -0.24672158875E+04  0.24672158875E+04  0.00000000000E+00 0.  1.
    9000010    2    1    2  502    0 -0.37650987051E+03  0.12824089929E+04 -0.11170656923E+04  0.19857836731E+04  0.95350329201E+03 0.  0.
   -9000010    2    1    2    0  501  0.37650987051E+03 -0.12824089929E+04 -0.15945712343E+03  0.16721252862E+04  0.99209066664E+03 0.  0.
        -13    1    3    3    0    0  0.81755810133E+02  0.77885971119E+03 -0.10380884091E+04  0.13003591883E+04  0.10566000000E+00 0.  1.
          4    1    3    3  502    0 -0.45826568064E+03  0.50354928169E+03 -0.78977283161E+02  0.68542448482E+03  0.00000000000E+00 0.  1.
         13    1    4    4    0    0  0.19926203933E+03  0.10858122300E+03 -0.14597630442E+03  0.26982278429E+03  0.10566000000E+00 0. -1.
         -4    1    4    4    0  501  0.17724783118E+03 -0.13909902159E+04 -0.13480819013E+02  0.14023025019E+04  0.00000000000E+00 0. -1.
<mgrwt>
<rscale>  2 0.16531125E+04</rscale>
<asrwt>0</asrwt>
<pdfrwt beam="2">  1        2 0.37957167E+00 0.16531125E+04</pdfrwt>
<pdfrwt beam="1">  1       -2 0.18318355E+00 0.16531125E+04</pdfrwt>
<totfact> 0.77003176E-01</totfact>
</mgrwt>
</event>
<event>
 8    1  0.1449514E-005  0.1363446E+04  0.7818608E-02  0.8492701E-01
         -2   -1    0    0    0  501 -0.00000000000E+00  0.00000000000E+00  0.61174202018E+03  0.61174202018E+03  0.00000000000E+00 0. -1.
          2   -1    0    0  502    0  0.00000000000E+00 -0.00000000000E+00 -0.33282555184E+04  0.33282555184E+04  0.00000000000E+00 0.  1.
    9000010    2    1    2  502    0 -0.50457294797E+03  0.75909218999E+03 -0.19416743656E+04  0.23741537188E+04  0.10176894054E+04 0.  0.
   -9000010    2    1    2    0  501  0.50457294797E+03 -0.75909218999E+03 -0.77483913267E+03  0.15658438198E+04  0.10102852932E+04 0.  0.
        -13    1    3    3    0    0 -0.57026387375E+03  0.11537978332E+02 -0.54635479717E+03  0.78983389786E+03  0.10566000000E+00 0.  1.
          4    1    3    3  502    0  0.65690925785E+02  0.74755421165E+03 -0.13953195684E+04  0.15843198209E+04  0.00000000000E+00 0.  1.
         13    1    4    4    0    0  0.31719363509E+02 -0.73920433180E+03 -0.80279675528E+03  0.10917471336E+04  0.10566000000E+00 0. -1.
         -4    1    4    4    0  501  0.47285358446E+03 -0.19887858191E+02  0.27957622608E+02  0.47409668624E+03  0.00000000000E+00 0. -1.
<mgrwt>
<rscale>  2 0.13634455E+04</rscale>
<asrwt>0</asrwt>
<pdfrwt beam="2">  1        2 0.51203931E+00 0.13634455E+04</pdfrwt>
<pdfrwt beam="1">  1       -2 0.94114157E-01 0.13634455E+04</pdfrwt>
<totfact> 0.15666989E+00</totfact>
</mgrwt>
</event>
<event>
 8    1  0.1449514E-005  0.1023315E+04  0.7818608E-02  0.8752989E-01
         -2   -1    0    0    0  501 -0.00000000000E+00  0.00000000000E+00  0.10057776748E+04  0.10057776748E+04  0.00000000000E+00 0.  1.
          2   -1    0    0  502    0  0.00000000000E+00 -0.00000000000E+00 -0.12233196077E+04  0.12233196077E+04  0.00000000000E+00 0. -1.
    9000010    2    1    2  502    0  0.64874163375E+02 -0.23685712335E+03 -0.53879750720E+03  0.11558881891E+04  0.99270579634E+03 0.  0.
   -9000010    2    1    2    0  501 -0.64874163375E+02  0.23685712335E+03  0.32125557432E+03  0.10732090934E+04  0.99411400768E+03 0.  0.
        -13    1    3    3    0    0  0.40334814563E+03 -0.46041456828E+03 -0.37881171748E+03  0.71984000287E+03  0.10566000000E+00 0.  1.
          4    1    3    3  502    0 -0.33847398225E+03  0.22355744493E+03 -0.15998578972E+03  0.43604818628E+03  0.00000000000E+00 0.  1.
         13    1    4    4    0    0 -0.35528670574E+03  0.27836840254E+03 -0.18524291518E+03  0.48788580590E+03  0.10566000000E+00 0. -1.
         -4    1    4    4    0  501  0.29041254237E+03 -0.41511279198E+02  0.50649848950E+03  0.58532328754E+03  0.00000000000E+00 0. -1.
<mgrwt>
<rscale>  2 0.10233146E+04</rscale>
<asrwt>0</asrwt>
<pdfrwt beam="2">  1        2 0.18820302E+00 0.10233146E+04</pdfrwt>
<pdfrwt beam="1">  1       -2 0.15473503E+00 0.10233146E+04</pdfrwt>
<totfact> 0.69380309E+00</totfact>
</mgrwt>
</event>
<event>
 8    1  0.1449514E-005  0.1388148E+04  0.7818608E-02  0.8476928E-01
         -1   -1    0    0    0  501 -0.00000000000E+00  0.00000000000E+00  0.10346224851E+04  0.10346224851E+04  0.00000000000E+00 0. -1.
          1   -1    0    0  502    0  0.00000000000E+00 -0.00000000000E+00 -0.18943437795E+04  0.18943437795E+04  0.00000000000E+00 0.  1.
    9000010    2    1    2  502    0  0.77355279288E+03  0.18321553343E+03 -0.32426852992E+03  0.15474923274E+04  0.12874900266E+04 0.  0.
   -9000010    2    1    2    0  501 -0.77355279288E+03 -0.18321553343E+03 -0.53545276454E+03  0.13814739372E+04  0.99489131124E+03 0.  0.
        -13    1    3    3    0    0  0.17713705369E+03  0.12555809970E+03 -0.77042591166E+03  0.80043642390E+03  0.10566000000E+00 0.  1.
          4    1    3    3  502    0  0.59641573919E+03  0.57657433730E+02  0.44615738174E+03  0.74705590347E+03  0.00000000000E+00 0.  1.
         13    1    4    4    0    0  0.12638364756E+03  0.36109555986E+02 -0.42949329190E+03  0.44915612581E+03  0.10566000000E+00 0. -1.
         -4    1    4    4    0  501 -0.89993644044E+03 -0.21932508941E+03 -0.10595947264E+03  0.93231781144E+03  0.00000000000E+00 0. -1.
<mgrwt>
<rscale>  2 0.13881479E+04</rscale>
<asrwt>0</asrwt>
<pdfrwt beam="2">  1        1 0.29143750E+00 0.13881479E+04</pdfrwt>
<pdfrwt beam="1">  1       -1 0.15917269E+00 0.13881479E+04</pdfrwt>
<totfact> 0.13273501E+00</totfact>
</mgrwt>
</event>
<event>
 8    1  0.1449514E-005  0.1191765E+04  0.7818608E-02  0.8612790E-01
         -1   -1    0    0    0  501 -0.00000000000E+00  0.00000000000E+00  0.12611996803E+04  0.12611996803E+04  0.00000000000E+00 0. -1.
          1   -1    0    0  502    0  0.00000000000E+00 -0.00000000000E+00 -0.17265712968E+04  0.17265712968E+04  0.00000000000E+00 0.  1.
    9000010    2    1    2  502    0  0.16977978169E+03  0.57586255065E+03  0.65029995054E+03  0.13420296729E+04  0.10088165174E+04 0.  0.
   -9000010    2    1    2    0  501 -0.16977978169E+03 -0.57586255065E+03 -0.11156715670E+04  0.16457413042E+04  0.10503801899E+04 0.  0.
        -13    1    3    3    0    0  0.21784565090E+03  0.61073809802E+03 -0.39546384036E+02  0.64963195707E+03  0.10566000000E+00 0.  1.
          4    1    3    3  502    0 -0.48065869215E+02 -0.34875547369E+02  0.68984633457E+03  0.69239771585E+03  0.00000000000E+00 0.  1.
         13    1    4    4    0    0 -0.38403011750E+03 -0.52522742994E+03 -0.12345720002E+04  0.13955325217E+04  0.10566000000E+00 0. -1.
         -4    1    4    4    0  501  0.21425033581E+03 -0.50635120719E+02  0.11890043314E+03  0.25020878252E+03  0.00000000000E+00 0. -1.
<mgrwt>
<rscale>  2 0.11917646E+04</rscale>
<asrwt>0</asrwt>
<pdfrwt beam="2">  1        1 0.26562636E+00 0.11917646E+04</pdfrwt>
<pdfrwt beam="1">  1       -1 0.19403072E+00 0.11917646E+04</pdfrwt>
<totfact> 0.90269364E-01</totfact>
</mgrwt>
</event>
<event>
 8    1  0.1449514E-005  0.1465227E+04  0.7818608E-02  0.8429797E-01
          2   -1    0    0  502    0  0.00000000000E+00  0.00000000000E+00  0.28418242555E+04  0.28418242555E+04  0.00000000000E+00 0. -1.
         -2   -1    0    0    0  501 -0.00000000000E+00 -0.00000000000E+00 -0.76967402155E+03  0.76967402155E+03  0.00000000000E+00 0.  1.
    9000010    2    1    2  502    0 -0.55617838166E+01 -0.89826572175E+03  0.11680194398E+04  0.17939813792E+04  0.10233218149E+04 0.  0.
   -9000010    2    1    2    0  501  0.55617838166E+01  0.89826572175E+03  0.90413079415E+03  0.18175168979E+04  0.12957634587E+04 0.  0.
        -13    1    3    3    0    0  0.21727161855E+03 -0.46825735800E+03 -0.14199209873E+02  0.51640443285E+03  0.10566000000E+00 0.  1.
          4    1    3    3  502    0 -0.22283340237E+03 -0.43000836376E+03  0.11822186497E+04  0.12775769464E+04  0.00000000000E+00 0.  1.
         13    1    4    4    0    0 -0.88727825326E+02  0.11484396095E+04  0.35263082496E+03  0.12046305132E+04  0.10566000000E+00 0. -1.
         -4    1    4    4    0  501  0.94289609143E+02 -0.25017388770E+03  0.55149996919E+03  0.61288638465E+03  0.00000000000E+00 0. -1.
<mgrwt>
<rscale>  2 0.14652268E+04</rscale>
<asrwt>0</asrwt>
<pdfrwt beam="1">  1        2 0.43720373E+00 0.14652268E+04</pdfrwt>
<pdfrwt beam="2">  1       -2 0.11841139E+00 0.14652268E+04</pdfrwt>
<totfact> 0.17875140E+00</totfact>
</mgrwt>
</event>
<event>
 8    1  0.1449514E-005  0.1358555E+04  0.7818608E-02  0.8495864E-01
         -2   -1    0    0    0  501 -0.00000000000E+00  0.00000000000E+00  0.17116609817E+04  0.17116609817E+04  0.00000000000E+00 0.  1.
          2   -1    0    0  502    0  0.00000000000E+00 -0.00000000000E+00 -0.12250301580E+04  0.12250301580E+04  0.00000000000E+00 0. -1.
    9000010    2    1    2  502    0  0.84666664667E+03 -0.36120991422E+03  0.75133679792E+03  0.15515581814E+04  0.99775186978E+03 0.  0.
   -9000010    2    1    2    0  501 -0.84666664667E+03  0.36120991422E+03 -0.26470597419E+03  0.13851329582E+04  0.10006033412E+04 0.  0.
        -13    1    3    3    0    0 -0.17850928661E+03  0.46194989193E+02 -0.46451351527E+02  0.19015068145E+03  0.10566000000E+00 0.  1.
          4    1    3    3  502    0  0.10251759333E+04 -0.40740490341E+03  0.79778814944E+03  0.13614074999E+04  0.00000000000E+00 0.  1.
         13    1    4    4    0    0 -0.81496379182E+03  0.24918828338E+02 -0.51531204297E+03  0.96453794263E+03  0.10566000000E+00 0. -1.
         -4    1    4    4    0  501 -0.31702854851E+02  0.33629108588E+03  0.25060606877E+03  0.42059501561E+03  0.00000000000E+00 0. -1.
<mgrwt>
<rscale>  2 0.13585554E+04</rscale>
<asrwt>0</asrwt>
<pdfrwt beam="2">  1        2 0.18846618E+00 0.13585554E+04</pdfrwt>
<pdfrwt beam="1">  1       -2 0.26333246E+00 0.13585554E+04</pdfrwt>
<totfact> 0.87117395E-01</totfact>
</mgrwt>
</event>
<event>
 8    1  0.1449514E-005  0.1093868E+04  0.7818608E-02  0.8691076E-01
         -2   -1    0    0    0  501 -0.00000000000E+00  0.00000000000E+00  0.69299581594E+03  0.69299581594E+03  0.00000000000E+00 0.  1.
          2   -1    0    0  502    0  0.00000000000E+00 -0.00000000000E+00 -0.17548762234E+04  0.17548762234E+04  0.00000000000E+00 0. -1.
    9000010    2    1    2  502    0 -0.38740392918E+03  0.19072976366E+03 -0.37669728684E+03  0.11589267104E+04  0.10073483147E+04 0.  0.
   -9000010    2    1    2    0  501  0.38740392918E+03 -0.19072976366E+03 -0.68518312065E+03  0.12889453290E+04  0.10027185573E+04 0.  0.
        -13    1    3    3    0    0 -0.65724781516E+03 -0.13515064076E+03 -0.26407791566E+03  0.72109468375E+03  0.10566000000E+00 0.  1.
          4    1    3    3  502    0  0.26984388598E+03  0.32588040442E+03 -0.11261937118E+03  0.43783202664E+03  0.00000000000E+00 0.  1.
         13    1    4    4    0    0 -0.79895954243E+02 -0.31545358740E+03 -0.73392962694E+03  0.80283686871E+03  0.10566000000E+00 0. -1.
         -4    1    4    4    0  501  0.46729988342E+03  0.12472382374E+03  0.48746506290E+02  0.48610846025E+03  0.00000000000E+00 0. -1.
<mgrwt>
<rscale>  2 0.10938684E+04</rscale>
<asrwt>0</asrwt>
<pdfrwt beam="2">  1        2 0.26998095E+00 0.10938684E+04</pdfrwt>
<pdfrwt beam="1">  1       -2 0.10661474E+00 0.10938684E+04</pdfrwt>
<totfact> 0.98309163E+00</totfact>
</mgrwt>
</event>
<event>
 8    1  0.1449514E-005  0.1253596E+04  0.7818608E-02  0.8567260E-01
         -2   -1    0    0    0  501 -0.00000000000E+00  0.00000000000E+00  0.10530175152E+04  0.10530175152E+04  0.00000000000E+00 0.  1.
          2   -1    0    0  502    0  0.00000000000E+00 -0.00000000000E+00 -0.15722805880E+04  0.15722805880E+04  0.00000000000E+00 0. -1.
    9000010    2    1    2  502    0 -0.32831400505E+03 -0.66741294804E+03 -0.55399226518E+03  0.13638362804E+04  0.99995591943E+03 0.  0.
   -9000010    2    1    2    0  501  0.32831400505E+03  0.66741294804E+03  0.34729192414E+02  0.12614618227E+04  0.10182581619E+04 0.  0.
        -13    1    3    3    0    0  0.27377418040E+02 -0.73276405366E+03 -0.38691816888E+02  0.73429541005E+03  0.10566000000E+00 0.  1.
          4    1    3    3  502    0 -0.35569142309E+03  0.65351105624E+02 -0.51530044829E+03  0.62954087038E+03  0.00000000000E+00 0.  1.
         13    1    4    4    0    0  0.39142408405E+03 -0.79161796737E+02  0.26305972127E+03  0.47820480106E+03  0.10566000000E+00 0. -1.
         -4    1    4    4    0  501 -0.63110079004E+02  0.74657474477E+03 -0.22833052885E+03  0.78325702168E+03  0.00000000000E+00 0. -1.
<mgrwt>
<rscale>  2 0.12535958E+04</rscale>
<asrwt>0</asrwt>
<pdfrwt beam="2">  1        2 0.24188932E+00 0.12535958E+04</pdfrwt>
<pdfrwt beam="1">  1       -2 0.16200270E+00 0.12535958E+04</pdfrwt>
<totfact> 0.37500388E+00</totfact>
</mgrwt>
</event>
<event>
 8    1  0.1449514E-005  0.1353860E+04  0.7818608E-02  0.8498915E-01
         -2   -1    0    0    0  501 -0.00000000000E+00  0.00000000000E+00  0.14761892268E+04  0.14761892268E+04  0.00000000000E+00 0. -1.
          2   -1    0    0  502    0  0.00000000000E+00 -0.00000000000E+00 -0.18864831687E+04  0.18864831687E+04  0.00000000000E+00 0.  1.
    9000010    2    1    2  502    0  0.89049124574E+03 -0.96273106510E+02 -0.11880679122E+04  0.18007676047E+04  0.10144039788E+04 0.  0.
   -9000010    2    1    2    0  501 -0.89049124574E+03  0.96273106510E+02  0.77777397022E+03  0.15619047908E+04  0.10160566210E+04 0.  0.
        -13    1    3    3    0    0  0.34152346956E+03 -0.44641764740E+03 -0.16097157578E+03  0.58466986886E+03  0.10566000000E+00 0.  1.
          4    1    3    3  502    0  0.54896777618E+03  0.35014454089E+03 -0.10270963364E+04  0.12160977358E+04  0.00000000000E+00 0.  1.
         13    1    4    4    0    0 -0.74237125869E+03  0.29230430097E+03  0.96564632642E+03  0.12526091685E+04  0.10566000000E+00 0. -1.
         -4    1    4    4    0  501 -0.14811998705E+03 -0.19603119446E+03 -0.18787235620E+03  0.30929562232E+03  0.00000000000E+00 0. -1.
<mgrwt>
<rscale>  2 0.13538595E+04</rscale>
<asrwt>0</asrwt>
<pdfrwt beam="2">  1        2 0.29022818E+00 0.13538595E+04</pdfrwt>
<pdfrwt beam="1">  1       -2 0.22710603E+00 0.13538595E+04</pdfrwt>
<totfact> 0.72164431E-01</totfact>
</mgrwt>
</event>
<event>
 8    1  0.1449514E-005  0.1223851E+04  0.7818608E-02  0.8588815E-01
          2   -1    0    0  502    0  0.00000000000E+00  0.00000000000E+00  0.26909835295E+04  0.26909835295E+04  0.00000000000E+00 0. -1.
         -2   -1    0    0    0  501 -0.00000000000E+00 -0.00000000000E+00 -0.55950083779E+03  0.55950083779E+03  0.00000000000E+00 0.  1.
    9000010    2    1    2  502    0 -0.64462050789E+03  0.33252451383E+03  0.94226746739E+03  0.15381770005E+04  0.97571120378E+03 0.  0.
   -9000010    2    1    2    0  501  0.64462050789E+03 -0.33252451383E+03  0.11892152244E+04  0.17123073668E+04  0.99581901830E+03 0.  0.
        -13    1    3    3    0    0 -0.24255094256E+02  0.52137302155E+03  0.63093996257E+03  0.81884271061E+03  0.10566000000E+00 0.  1.
          4    1    3    3  502    0 -0.62036541364E+03 -0.18884850772E+03  0.31132750482E+03  0.71933428986E+03  0.00000000000E+00 0.  1.
         13    1    4    4    0    0 -0.17658838338E+03 -0.35984299664E+03  0.29345488045E+03  0.49677582208E+03  0.10566000000E+00 0. -1.
         -4    1    4    4    0  501  0.82120889127E+03  0.27318482814E+02  0.89576034390E+03  0.12155315448E+04  0.00000000000E+00 0. -1.
<mgrwt>
<rscale>  2 0.12238509E+04</rscale>
<asrwt>0</asrwt>
<pdfrwt beam="1">  1        2 0.41399746E+00 0.12238509E+04</pdfrwt>
<pdfrwt beam="2">  1       -2 0.86077054E-01 0.12238509E+04</pdfrwt>
<totfact> 0.48931818E+00</totfact>
</mgrwt>
</event>
<event>
 8    1  0.1449514E-005  0.1215701E+04  0.7818608E-02  0.8594832E-01
         -1   -1    0    0    0  501 -0.00000000000E+00  0.00000000000E+00  0.80264709578E+03  0.80264709578E+03  0.00000000000E+00 0.  1.
          1   -1    0    0  502    0  0.00000000000E+00 -0.00000000000E+00 -0.18423142638E+04  0.18423142638E+04  0.00000000000E+00 0. -1.
    9000010    2    1    2  502    0  0.66922149947E+03  0.16268600329E+03 -0.48847269031E+03  0.13086809251E+04  0.99985801166E+03 0.  0.
   -9000010    2    1    2    0  501 -0.66922149947E+03 -0.16268600329E+03 -0.55119447768E+03  0.13362804345E+04  0.10037459321E+04 0.  0.
        -13    1    3    3    0    0  0.82326860286E+02 -0.38504266592E+03 -0.26759895854E+03  0.47607224271E+03  0.10566000000E+00 0.  1.
          4    1    3    3  502    0  0.58689463919E+03  0.54772866921E+03 -0.22087373176E+03  0.83260868237E+03  0.00000000000E+00 0.  1.
         13    1    4    4    0    0 -0.75906872144E+03  0.18169386288E+03 -0.14089390025E+03  0.79312614758E+03  0.10566000000E+00 0. -1.
         -4    1    4    4    0  501  0.89847221967E+02 -0.34437986617E+03 -0.41030057743E+03  0.54315428688E+03  0.00000000000E+00 0. -1.
<mgrwt>
<rscale>  2 0.12157014E+04</rscale>
<asrwt>0</asrwt>
<pdfrwt beam="2">  1        1 0.28343296E+00 0.12157014E+04</pdfrwt>
<pdfrwt beam="1">  1       -1 0.12348417E+00 0.12157014E+04</pdfrwt>
<totfact> 0.30404781E+00</totfact>
</mgrwt>
</event>
<event>
 8    1  0.1449514E-005  0.1103362E+04  0.7818608E-02  0.8683118E-01
         -2   -1    0    0    0  501 -0.00000000000E+00  0.00000000000E+00  0.91549833883E+03  0.91549833883E+03  0.00000000000E+00 0.  1.
          2   -1    0    0  502    0  0.00000000000E+00 -0.00000000000E+00 -0.15834984817E+04  0.15834984817E+04  0.00000000000E+00 0. -1.
    9000010    2    1    2  502    0  0.17642959303E+03 -0.39365565352E+03 -0.83654391059E+03  0.13925479002E+04  0.10263000366E+04 0.  0.
   -9000010    2    1    2    0  501 -0.17642959303E+03  0.39365565352E+03  0.16854376769E+03  0.11064489204E+04  0.10048532415E+04 0.  0.
        -13    1    3    3    0    0  0.19439782816E+03  0.32771306881E+03 -0.38301841164E+03  0.54026797599E+03  0.10566000000E+00 0.  1.
          4    1    3    3  502    0 -0.17968235129E+02 -0.72136872233E+03 -0.45352549895E+03  0.85227992422E+03  0.00000000000E+00 0.  1.
         13    1    4    4    0    0 -0.20017424258E+03  0.62954190204E+03 -0.18021368372E+03  0.68474062007E+03  0.10566000000E+00 0. -1.
         -4    1    4    4    0  501  0.23744649545E+02 -0.23588624852E+03  0.34875745140E+03  0.42170830029E+03  0.00000000000E+00 0. -1.
<mgrwt>
<rscale>  2 0.11033622E+04</rscale>
<asrwt>0</asrwt>
<pdfrwt beam="2">  1        2 0.24361515E+00 0.11033622E+04</pdfrwt>
<pdfrwt beam="1">  1       -2 0.14084590E+00 0.11033622E+04</pdfrwt>
<totfact> 0.57738970E+00</totfact>
</mgrwt>
</event>
<event>
 8    1  0.1449514E-005  0.1085856E+04  0.7818608E-02  0.8697859E-01
         -2   -1    0    0    0  501 -0.00000000000E+00  0.00000000000E+00  0.58704101269E+03  0.58704101269E+03  0.00000000000E+00 0. -1.
          2   -1    0    0  502    0  0.00000000000E+00 -0.00000000000E+00 -0.37086114304E+04  0.37086114304E+04  0.00000000000E+00 0.  1.
    9000010    2    1    2  502    0  0.41643089814E+03 -0.16509484055E+03 -0.10322256826E+03  0.10864579034E+04  0.98441092937E+03 0.  0.
   -9000010    2    1    2    0  501 -0.41643089814E+03  0.16509484055E+03 -0.30183478495E+04  0.32091945398E+04  0.99389881494E+03 0.  0.
        -13    1    3    3    0    0  0.31468174692E+03 -0.30038814250E+03  0.37800679741E+03  0.57632177475E+03  0.10566000000E+00 0.  1.
          4    1    3    3  502    0  0.10174915122E+03  0.13529330195E+03 -0.48122936567E+03  0.51013612860E+03  0.00000000000E+00 0.  1.
         13    1    4    4    0    0 -0.71719628668E+03  0.19794473358E+03 -0.16849769216E+04  0.18419283017E+04  0.10566000000E+00 0. -1.
         -4    1    4    4    0  501  0.30076538854E+03 -0.32849893027E+02 -0.13333709278E+04  0.13672662380E+04  0.00000000000E+00 0. -1.
<mgrwt>
<rscale>  2 0.10858561E+04</rscale>
<asrwt>0</asrwt>
<pdfrwt beam="2">  1        2 0.57055559E+00 0.10858561E+04</pdfrwt>
<pdfrwt beam="1">  1       -2 0.90314004E-01 0.10858561E+04</pdfrwt>
<totfact> 0.93158350E-01</totfact>
</mgrwt>
</event>
<event>
 8    1  0.1449514E-005  0.1087952E+04  0.7818608E-02  0.8696079E-01
          2   -1    0    0  502    0  0.00000000000E+00  0.00000000000E+00  0.13902781170E+04  0.13902781170E+04  0.00000000000E+00 0.  1.
         -2   -1    0    0    0  501 -0.00000000000E+00 -0.00000000000E+00 -0.12109975875E+04  0.12109975875E+04  0.00000000000E+00 0. -1.
    9000010    2    1    2  502    0  0.37422289419E+03  0.25309823370E+03  0.79909432116E+03  0.13624099947E+04  0.10067312298E+04 0.  0.
   -9000010    2    1    2    0  501 -0.37422289419E+03 -0.25309823370E+03 -0.61981379171E+03  0.12388657099E+04  0.97289137124E+03 0.  0.
        -13    1    3    3    0    0  0.15732880606E+03  0.51322656332E+03  0.86436709737E+03  0.10174892376E+04  0.10566000000E+00 0.  1.
          4    1    3    3  502    0  0.21689408813E+03 -0.26012832962E+03 -0.65272776205E+02  0.34492075705E+03  0.00000000000E+00 0.  1.
         13    1    4    4    0    0 -0.34865559382E+03  0.32694477794E+03 -0.38026990957E+03  0.61078541749E+03  0.10566000000E+00 0. -1.
         -4    1    4    4    0  501 -0.25567300370E+02 -0.58004301164E+03 -0.23954388213E+03  0.62808029238E+03  0.00000000000E+00 0. -1.
<mgrwt>
<rscale>  2 0.10879524E+04</rscale>
<asrwt>0</asrwt>
<pdfrwt beam="1">  1        2 0.21388894E+00 0.10879524E+04</pdfrwt>
<pdfrwt beam="2">  1       -2 0.18630732E+00 0.10879524E+04</pdfrwt>
<totfact> 0.30085831E+00</totfact>
</mgrwt>
</event>
<event>
 8    1  0.1449514E-005  0.1044079E+04  0.7818608E-02  0.8734243E-01
         -2   -1    0    0    0  501 -0.00000000000E+00  0.00000000000E+00  0.61427296963E+03  0.61427296963E+03  0.00000000000E+00 0.  1.
          2   -1    0    0  502    0  0.00000000000E+00 -0.00000000000E+00 -0.19501664739E+04  0.19501664739E+04  0.00000000000E+00 0. -1.
    9000010    2    1    2  502    0 -0.26834522604E+03  0.13216567721E+03 -0.28301811362E+03  0.10813808680E+04  0.99990419667E+03 0.  0.
   -9000010    2    1    2    0  501  0.26834522604E+03 -0.13216567721E+03 -0.10528753906E+04  0.14830585755E+04  0.10007193531E+04 0.  0.
        -13    1    3    3    0    0 -0.30633966840E+03  0.29014881019E+03  0.27270325007E+03  0.50239167813E+03  0.10566000000E+00 0.  1.
          4    1    3    3  502    0  0.37994442367E+02 -0.15798313297E+03 -0.55572136368E+03  0.57898918989E+03  0.00000000000E+00 0.  1.
         13    1    4    4    0    0  0.23271256316E+03 -0.24122238498E+03 -0.12284316363E+04  0.12733372186E+04  0.10566000000E+00 0. -1.
         -4    1    4    4    0  501  0.35632662878E+02  0.10905670777E+03  0.17555624563E+03  0.20972135693E+03  0.00000000000E+00 0. -1.
<mgrwt>
<rscale>  2 0.10440787E+04</rscale>
<asrwt>0</asrwt>
<pdfrwt beam="2">  1        2 0.30002561E+00 0.10440787E+04</pdfrwt>
<pdfrwt beam="1">  1       -2 0.94503535E-01 0.10440787E+04</pdfrwt>
<totfact> 0.10356876E+01</totfact>
</mgrwt>
</event>
<event>
 8    1  0.1449514E-005  0.1014691E+04  0.7818608E-02  0.8760909E-01
          2   -1    0    0  502    0  0.00000000000E+00  0.00000000000E+00  0.22695615088E+04  0.22695615088E+04  0.00000000000E+00 0.  1.
         -2   -1    0    0    0  501 -0.00000000000E+00 -0.00000000000E+00 -0.56712793667E+03  0.56712793667E+03  0.00000000000E+00 0. -1.
    9000010    2    1    2  502    0  0.13546550293E+03 -0.84263595198E+02  0.21400379691E+03  0.10329340413E+04  0.99784961428E+03 0.  0.
   -9000010    2    1    2    0  501 -0.13546550293E+03  0.84263595198E+02  0.14884297753E+04  0.18037554042E+04  0.10063096473E+04 0.  0.
        -13    1    3    3    0    0 -0.33388398732E+03  0.18212382407E+03  0.30261826828E+03  0.48603027863E+03  0.10566000000E+00 0.  1.
          4    1    3    3  502    0  0.46934949025E+03 -0.26638741926E+03 -0.88614471367E+02  0.54690376272E+03  0.00000000000E+00 0.  1.
         13    1    4    4    0    0  0.41531808730E+03  0.16228633655E+03  0.82655022436E+03  0.93915454171E+03  0.10566000000E+00 0. -1.
         -4    1    4    4    0  501 -0.55078359023E+03 -0.78022741349E+02  0.66187955090E+03  0.86460086244E+03  0.00000000000E+00 0. -1.
<mgrwt>
<rscale>  2 0.10146910E+04</rscale>
<asrwt>0</asrwt>
<pdfrwt beam="1">  1        2 0.34916330E+00 0.10146910E+04</pdfrwt>
<pdfrwt beam="2">  1       -2 0.87250453E-01 0.10146910E+04</pdfrwt>
<totfact> 0.83752833E+00</totfact>
</mgrwt>
</event>
<event>
 8    1  0.1449514E-005  0.1154436E+04  0.7818608E-02  0.8641687E-01
         -1   -1    0    0    0  501 -0.00000000000E+00  0.00000000000E+00  0.46513848383E+03  0.46513848383E+03  0.00000000000E+00 0. -1.
          1   -1    0    0  502    0  0.00000000000E+00 -0.00000000000E+00 -0.29391301010E+04  0.29391301010E+04  0.00000000000E+00 0.  1.
    9000010    2    1    2  502    0  0.43984650334E+03 -0.35763256680E+03 -0.14949928568E+04  0.18821948416E+04  0.99312022466E+03 0.  0.
   -9000010    2    1    2    0  501 -0.43984650334E+03  0.35763256680E+03 -0.97899876032E+03  0.15220737432E+04  0.10182847871E+04 0.  0.
        -13    1    3    3    0    0  0.49247261218E+03 -0.52097146204E+02 -0.14921134856E+04  0.15721469560E+04  0.10566000000E+00 0.  1.
          4    1    3    3  502    0 -0.52626108842E+02 -0.30553542060E+03 -0.28793712143E+01  0.31004788558E+03  0.00000000000E+00 0.  1.
         13    1    4    4    0    0 -0.17441532796E+02  0.27224170489E+03 -0.10504023894E+04  0.10852487935E+04  0.10566000000E+00 0. -1.
         -4    1    4    4    0  501 -0.42240497055E+03  0.85390861917E+02  0.71403629048E+02  0.43682494970E+03  0.00000000000E+00 0. -1.
<mgrwt>
<rscale>  2 0.11544356E+04</rscale>
<asrwt>0</asrwt>
<pdfrwt beam="2">  1        1 0.45217386E+00 0.11544356E+04</pdfrwt>
<pdfrwt beam="1">  1       -1 0.71559767E-01 0.11544356E+04</pdfrwt>
<totfact> 0.10790661E+00</totfact>
</mgrwt>
</event>
<event>
 8    1  0.1449514E-005  0.1031326E+04  0.7818608E-02  0.8745702E-01
         -2   -1    0    0    0  501 -0.00000000000E+00  0.00000000000E+00  0.52619360586E+03  0.52619360586E+03  0.00000000000E+00 0. -1.
          2   -1    0    0  502    0  0.00000000000E+00 -0.00000000000E+00 -0.21011147983E+04  0.21011147983E+04  0.00000000000E+00 0.  1.
    9000010    2    1    2  502    0 -0.13586491283E+03 -0.28538383901E+03 -0.53375120832E+03  0.11639009100E+04  0.98482067700E+03 0.  0.
   -9000010    2    1    2    0  501  0.13586491283E+03  0.28538383901E+03 -0.10411699841E+04  0.14634074942E+04  0.97858231540E+03 0.  0.
        -13    1    3    3    0    0  0.29186533743E+02  0.11222340602E+03  0.24669764162E+03  0.27259068978E+03  0.10566000000E+00 0.  1.
          4    1    3    3  502    0 -0.16505144657E+03 -0.39760724503E+03 -0.78044884994E+03  0.89131022023E+03  0.00000000000E+00 0.  1.
         13    1    4    4    0    0 -0.30888211279E+03  0.44100349646E+03 -0.69281521756E+03  0.87743101173E+03  0.10566000000E+00 0. -1.
         -4    1    4    4    0  501  0.44474702561E+03 -0.15561965746E+03 -0.34835476657E+03  0.58597648244E+03  0.00000000000E+00 0. -1.
<mgrwt>
<rscale>  2 0.10313259E+04</rscale>
<asrwt>0</asrwt>
<pdfrwt beam="2">  1        2 0.32324844E+00 0.10313259E+04</pdfrwt>
<pdfrwt beam="1">  1       -2 0.80952861E-01 0.10313259E+04</pdfrwt>
<totfact> 0.12208441E+01</totfact>
</mgrwt>
</event>
<event>
 8    1  0.1449514E-005  0.1595391E+04  0.7818608E-02  0.8356622E-01
         -2   -1    0    0    0  501 -0.00000000000E+00  0.00000000000E+00  0.83406630649E+03  0.83406630649E+03  0.00000000000E+00 0.  1.
          2   -1    0    0  502    0  0.00000000000E+00 -0.00000000000E+00 -0.31708575788E+04  0.31708575788E+04  0.00000000000E+00 0. -1.
    9000010    2    1    2  502    0 -0.12456892218E+04  0.51029373893E+02 -0.78363338275E+03  0.17818753865E+04  0.10033209756E+04 0.  0.
   -9000010    2    1    2    0  501  0.12456892218E+04 -0.51029373893E+02 -0.15531578895E+04  0.22230484987E+04  0.98757256115E+03 0.  0.
        -13    1    3    3    0    0 -0.76774491097E+03  0.12801838419E+03 -0.98683977574E+03  0.12568507108E+04  0.10566000000E+00 0.  1.
          4    1    3    3  502    0 -0.47794431087E+03 -0.76989010295E+02  0.20320639299E+03  0.52502467575E+03  0.00000000000E+00 0.  1.
         13    1    4    4    0    0  0.51884388960E+03 -0.28156095732E+03 -0.12861000602E+04  0.14151073919E+04  0.10566000000E+00 0. -1.
         -4    1    4    4    0  501  0.72684533224E+03  0.23053158343E+03 -0.26705782929E+03  0.80794110686E+03  0.00000000000E+00 0. -1.
<mgrwt>
<rscale>  2 0.15953914E+04</rscale>
<asrwt>0</asrwt>
<pdfrwt beam="2">  1        2 0.48782424E+00 0.15953914E+04</pdfrwt>
<pdfrwt beam="1">  1       -2 0.12831789E+00 0.15953914E+04</pdfrwt>
<totfact> 0.88477163E-01</totfact>
</mgrwt>
</event>
<event>
 8    1  0.1449514E-005  0.1151265E+04  0.7818608E-02  0.8644193E-01
          4   -1    0    0  502    0  0.00000000000E+00  0.00000000000E+00  0.16639296040E+04  0.16639296040E+04  0.00000000000E+00 0.  1.
         -4   -1    0    0    0  501 -0.00000000000E+00 -0.00000000000E+00 -0.10897573673E+04  0.10897573673E+04  0.00000000000E+00 0. -1.
    9000010    2    1    2  502    0 -0.41365889636E+03 -0.41536890521E+03 -0.43129794121E+03  0.12046884865E+04  0.96000595074E+03 0.  0.
   -9000010    2    1    2    0  501  0.41365889636E+03  0.41536890521E+03  0.10054701778E+04  0.15489984848E+04  0.10221453015E+04 0.  0.
        -13    1    3    3    0    0 -0.26538329307E+03  0.29447468659E+03 -0.10899209888E+03  0.41112397409E+03  0.10566000000E+00 0.  1.
          4    1    3    3  502    0 -0.14827560328E+03 -0.70984359180E+03 -0.32230584232E+03  0.79356451241E+03  0.00000000000E+00 0.  1.
         13    1    4    4    0    0  0.28427509455E+03  0.22764632906E+03 -0.13315654334E+03  0.38777036596E+03  0.10566000000E+00 0. -1.
         -4    1    4    4    0  501  0.12938380180E+03  0.18772257615E+03  0.11386267212E+04  0.11612281188E+04  0.00000000000E+00 0. -1.
<mgrwt>
<rscale>  2 0.11512651E+04</rscale>
<asrwt>0</asrwt>
<pdfrwt beam="1">  1        4 0.25598917E+00 0.11512651E+04</pdfrwt>
<pdfrwt beam="2">  1       -4 0.16765498E+00 0.11512651E+04</pdfrwt>
<totfact> 0.16672959E-01</totfact>
</mgrwt>
</event>
<event>
 8    1  0.1449514E-005  0.1392471E+04  0.7818608E-02  0.8474203E-01
          2   -1    0    0  502    0  0.00000000000E+00  0.00000000000E+00  0.48826536475E+03  0.48826536475E+03  0.00000000000E+00 0. -1.
         -2   -1    0    0    0  501 -0.00000000000E+00 -0.00000000000E+00 -0.39859150521E+04  0.39859150521E+04  0.00000000000E+00 0.  1.
    9000010    2    1    2  502    0 -0.65968368989E+03  0.69977636380E+03 -0.18858996503E+04  0.23447037583E+04  0.10080420095E+04 0.  0.
   -9000010    2    1    2    0  501  0.65968368989E+03 -0.69977636380E+03 -0.16117500370E+04  0.21294766586E+04  0.10060134828E+04 0.  0.
        -13    1    3    3    0    0 -0.29997213217E+03 -0.17741735059E+03 -0.95248972804E+03  0.10142469569E+04  0.10566000000E+00 0.  1.
          4    1    3    3  502    0 -0.35971155772E+03  0.87719371439E+03 -0.93340992231E+03  0.13304568014E+04  0.00000000000E+00 0.  1.
         13    1    4    4    0    0  0.29099990417E+03 -0.77561509342E+03 -0.52835489898E+03  0.98255718805E+03  0.10566000000E+00 0. -1.
         -4    1    4    4    0  501  0.36868378572E+03  0.75838729621E+02 -0.10833951381E+04  0.11469194706E+04  0.00000000000E+00 0. -1.
<mgrwt>
<rscale>  2 0.13924706E+04</rscale>
<asrwt>0</asrwt>
<pdfrwt beam="1">  1        2 0.75117744E-01 0.13924706E+04</pdfrwt>
<pdfrwt beam="2">  1       -2 0.61321773E+00 0.13924706E+04</pdfrwt>
<totfact> 0.39217076E-01</totfact>
</mgrwt>
</event>
<event>
 8    1  0.1449514E-005  0.1406529E+04  0.7818608E-02  0.8465409E-01
          2   -1    0    0  502    0  0.00000000000E+00  0.00000000000E+00  0.18794610599E+04  0.18794610599E+04  0.00000000000E+00 0.  1.
         -2   -1    0    0    0  501 -0.00000000000E+00 -0.00000000000E+00 -0.11832182790E+04  0.11832182790E+04  0.00000000000E+00 0. -1.
    9000010    2    1    2  502    0 -0.60332969000E+03 -0.79616263101E+03 -0.16195357670E+03  0.14098538170E+04  0.98161966891E+03 0.  0.
   -9000010    2    1    2    0  501  0.60332969000E+03  0.79616263101E+03  0.85819635760E+03  0.16528255220E+04  0.99872396986E+03 0.  0.
        -13    1    3    3    0    0 -0.59515518523E+03 -0.27349833849E+02 -0.22855477677E+03  0.63811833155E+03  0.10566000000E+00 0.  1.
          4    1    3    3  502    0 -0.81745047686E+01 -0.76881279716E+03  0.66601200070E+02  0.77173548542E+03  0.00000000000E+00 0.  1.
         13    1    4    4    0    0  0.37993957058E+03 -0.53017892367E+01  0.71343110057E+03  0.80831066595E+03  0.10566000000E+00 0. -1.
         -4    1    4    4    0  501  0.22339011942E+03  0.80146442025E+03  0.14476525704E+03  0.84451485601E+03  0.00000000000E+00 0. -1.
<mgrwt>
<rscale>  2 0.14065285E+04</rscale>
<asrwt>0</asrwt>
<pdfrwt beam="1">  1        2 0.28914785E+00 0.14065285E+04</pdfrwt>
<pdfrwt beam="2">  1       -2 0.18203358E+00 0.14065285E+04</pdfrwt>
<totfact> 0.17024286E+00</totfact>
</mgrwt>
</event>
<event>
 8    1  0.1449514E-005  0.1389340E+04  0.7818608E-02  0.8476176E-01
          2   -1    0    0  502    0  0.00000000000E+00  0.00000000000E+00  0.26582539030E+04  0.26582539030E+04  0.00000000000E+00 0. -1.
         -2   -1    0    0    0  501 -0.00000000000E+00 -0.00000000000E+00 -0.81239124106E+03  0.81239124106E+03  0.00000000000E+00 0.  1.
    9000010    2    1    2  502    0  0.97257840360E+03  0.12190366806E+03  0.14969186906E+04  0.20525451459E+04  0.10056872051E+04 0.  0.
   -9000010    2    1    2    0  501 -0.97257840360E+03 -0.12190366806E+03  0.34894397142E+03  0.14180999982E+04  0.96357483063E+03 0.  0.
        -13    1    3    3    0    0  0.14305131350E+03  0.30122549303E+03  0.19480133020E+01  0.33347306018E+03  0.10566000000E+00 0.  1.
          4    1    3    3  502    0  0.82952709010E+03 -0.17932182497E+03  0.14949706773E+04  0.17190720857E+04  0.00000000000E+00 0.  1.
         13    1    4    4    0    0 -0.18657675747E+03 -0.47578860979E+03  0.98586137643E+02  0.52048527869E+03  0.10566000000E+00 0. -1.
         -4    1    4    4    0  501 -0.78600164613E+03  0.35388494173E+03  0.25035783378E+03  0.89761471949E+03  0.00000000000E+00 0. -1.
<mgrwt>
<rscale>  2 0.13893400E+04</rscale>
<asrwt>0</asrwt>
<pdfrwt beam="1">  1        2 0.40896214E+00 0.13893400E+04</pdfrwt>
<pdfrwt beam="2">  1       -2 0.12498327E+00 0.13893400E+04</pdfrwt>
<totfact> 0.20022057E+00</totfact>
</mgrwt>
</event>
<event>
 8    1  0.1449514E-005  0.1882031E+04  0.7818608E-02  0.8218189E-01
         -2   -1    0    0    0  501 -0.00000000000E+00  0.00000000000E+00  0.38454829612E+04  0.38454829612E+04  0.00000000000E+00 0. -1.
          2   -1    0    0  502    0  0.00000000000E+00 -0.00000000000E+00 -0.92412546793E+03  0.92412546793E+03  0.00000000000E+00 0.  1.
    9000010    2    1    2  502    0  0.48262887895E+03  0.15223535550E+04  0.13247534642E+04  0.23022805011E+04  0.99751329998E+03 0.  0.
   -9000010    2    1    2    0  501 -0.48262887895E+03 -0.15223535550E+04  0.15966040291E+04  0.24673279280E+04  0.99401795629E+03 0.  0.
        -13    1    3    3    0    0 -0.24039641292E+02  0.16437319822E+03 -0.15766151565E+03  0.22902754709E+03  0.10566000000E+00 0.  1.
          4    1    3    3  502    0  0.50666852024E+03  0.13579803568E+04  0.14824149799E+04  0.20732529540E+04  0.00000000000E+00 0.  1.
         13    1    4    4    0    0  0.13385723152E+03 -0.84103013063E+03  0.11880676133E+04  0.14617640385E+04  0.10566000000E+00 0. -1.
         -4    1    4    4    0  501 -0.61648611047E+03 -0.68132342439E+03  0.40853641573E+03  0.10055638896E+04  0.00000000000E+00 0. -1.
<mgrwt>
<rscale>  2 0.18820312E+04</rscale>
<asrwt>0</asrwt>
<pdfrwt beam="2">  1        2 0.14217315E+00 0.18820312E+04</pdfrwt>
<pdfrwt beam="1">  1       -2 0.59161276E+00 0.18820312E+04</pdfrwt>
<totfact> 0.18688538E-01</totfact>
</mgrwt>
</event>
<event>
 8    1  0.1449514E-005  0.1059991E+04  0.7818608E-02  0.8720179E-01
          1   -1    0    0  502    0  0.00000000000E+00  0.00000000000E+00  0.26080798851E+04  0.26080798851E+04  0.00000000000E+00 0. -1.
         -1   -1    0    0    0  501 -0.00000000000E+00 -0.00000000000E+00 -0.48081267741E+03  0.48081267741E+03  0.00000000000E+00 0.  1.
    9000010    2    1    2  502    0  0.33017390195E+03 -0.73184417641E+02  0.15708557003E+04  0.19009207896E+04  0.10156482918E+04 0.  0.
   -9000010    2    1    2    0  501 -0.33017390195E+03  0.73184417641E+02  0.55641150741E+03  0.11879717729E+04  0.99363595105E+03 0.  0.
        -13    1    3    3    0    0  0.60927819167E+03 -0.31135867117E+03  0.84229966915E+03  0.10851879472E+04  0.10566000000E+00 0.  1.
          4    1    3    3  502    0 -0.27910428972E+03  0.23817425353E+03  0.72855603115E+03  0.81573284236E+03  0.00000000000E+00 0.  1.
         13    1    4    4    0    0  0.23371527208E+03  0.27215121161E+03  0.45831709368E+03  0.58201690689E+03  0.10566000000E+00 0. -1.
         -4    1    4    4    0  501 -0.56388917403E+03 -0.19896679397E+03  0.98094413732E+02  0.60595486606E+03  0.00000000000E+00 0. -1.
<mgrwt>
<rscale>  2 0.10599906E+04</rscale>
<asrwt>0</asrwt>
<pdfrwt beam="1">  1        1 0.40124305E+00 0.10599906E+04</pdfrwt>
<pdfrwt beam="2">  1       -1 0.73971183E-01 0.10599906E+04</pdfrwt>
<totfact> 0.21841602E+00</totfact>
</mgrwt>
</event>
<event>
 8    1  0.1449514E-005  0.1145797E+04  0.7818608E-02  0.8648536E-01
          2   -1    0    0  502    0  0.00000000000E+00  0.00000000000E+00  0.27110382891E+04  0.27110382891E+04  0.00000000000E+00 0.  1.
         -2   -1    0    0    0  501 -0.00000000000E+00 -0.00000000000E+00 -0.50143423516E+03  0.50143423516E+03  0.00000000000E+00 0. -1.
    9000010    2    1    2  502    0 -0.11518428530E+03  0.51755164724E+03  0.14176177066E+04  0.18341252516E+04  0.10359770023E+04 0.  0.
   -9000010    2    1    2    0  501  0.11518428530E+03 -0.51755164724E+03  0.79198634737E+03  0.13783472727E+04  0.99572672086E+03 0.  0.
        -13    1    3    3    0    0 -0.27056430120E+03  0.75256345372E+03  0.13053485957E+04  0.15308467463E+04  0.10566000000E+00 0.  1.
          4    1    3    3  502    0  0.15538001591E+03 -0.23501180648E+03  0.11226911084E+03  0.30327850530E+03  0.00000000000E+00 0.  1.
         13    1    4    4    0    0  0.38331453694E+02  0.30222848309E+03  0.22078302233E+03  0.37623996391E+03  0.10566000000E+00 0. -1.
         -4    1    4    4    0  501  0.76852831603E+02 -0.81978013033E+03  0.57120332504E+03  0.10021073088E+04  0.00000000000E+00 0. -1.
<mgrwt>
<rscale>  2 0.11457969E+04</rscale>
<asrwt>0</asrwt>
<pdfrwt beam="1">  1        2 0.41708281E+00 0.11457969E+04</pdfrwt>
<pdfrwt beam="2">  1       -2 0.77143730E-01 0.11457969E+04</pdfrwt>
<totfact> 0.61217594E+00</totfact>
</mgrwt>
</event>
<event>
 8    1  0.1449514E-005  0.1077029E+04  0.7818608E-02  0.8705403E-01
         -2   -1    0    0    0  501 -0.00000000000E+00  0.00000000000E+00  0.15744811612E+04  0.15744811612E+04  0.00000000000E+00 0. -1.
          2   -1    0    0  502    0  0.00000000000E+00 -0.00000000000E+00 -0.83743287977E+03  0.83743287977E+03  0.00000000000E+00 0.  1.
    9000010    2    1    2  502    0 -0.94658304626E+01 -0.40043218791E+03 -0.52222426770E+02  0.10693650593E+04  0.99014085313E+03 0.  0.
   -9000010    2    1    2    0  501  0.94658304626E+01  0.40043218791E+03  0.78927070823E+03  0.13425489817E+04  0.10094820347E+04 0.  0.
        -13    1    3    3    0    0  0.20049529616E+03 -0.59421173273E+03  0.22980142934E+03  0.66790317800E+03  0.10566000000E+00 0.  1.
          4    1    3    3  502    0 -0.20996112662E+03  0.19377954482E+03 -0.28202385611E+03  0.40146188125E+03  0.00000000000E+00 0.  1.
         13    1    4    4    0    0  0.22427589818E+03  0.11476160712E+03  0.92615664410E+03  0.95981042167E+03  0.10566000000E+00 0. -1.
         -4    1    4    4    0  501 -0.21481006772E+03  0.28567058079E+03 -0.13688593588E+03  0.38273856007E+03  0.00000000000E+00 0. -1.
<mgrwt>
<rscale>  2 0.10770287E+04</rscale>
<asrwt>0</asrwt>
<pdfrwt beam="2">  1        2 0.12883583E+00 0.10770287E+04</pdfrwt>
<pdfrwt beam="1">  1       -2 0.24222787E+00 0.10770287E+04</pdfrwt>
<totfact> 0.22418294E+00</totfact>
</mgrwt>
</event>
<event>
 8    1  0.1449514E-005  0.1266753E+04  0.7818608E-02  0.8557923E-01
          4   -1    0    0  502    0  0.00000000000E+00  0.00000000000E+00  0.92376350652E+03  0.92376350652E+03  0.00000000000E+00 0.  1.
         -4   -1    0    0    0  501 -0.00000000000E+00 -0.00000000000E+00 -0.19062676207E+04  0.19062676207E+04  0.00000000000E+00 0. -1.
    9000010    2    1    2  502    0 -0.36392821309E+03  0.67934266851E+03 -0.68617429180E+02  0.12654757518E+04  0.10013842026E+04 0.  0.
   -9000010    2    1    2    0  501  0.36392821309E+03 -0.67934266851E+03 -0.91388668498E+03  0.15645553754E+04  0.10093039404E+04 0.  0.
        -13    1    3    3    0    0  0.29357167669E+03  0.84049253419E+02  0.16661290200E+03  0.34786272670E+03  0.10566000000E+00 0.  1.
          4    1    3    3  502    0 -0.65749988978E+03  0.59529341510E+03 -0.23523033118E+03  0.91761302509E+03  0.00000000000E+00 0.  1.
         13    1    4    4    0    0  0.55378647860E+03 -0.56751620417E+01 -0.52867244017E+03  0.76564105918E+03  0.10566000000E+00 0. -1.
         -4    1    4    4    0  501 -0.18985826551E+03 -0.67366750647E+03 -0.38521424481E+03  0.79891431622E+03  0.00000000000E+00 0. -1.
<mgrwt>
<rscale>  2 0.12667529E+04</rscale>
<asrwt>0</asrwt>
<pdfrwt beam="1">  1        4 0.14211746E+00 0.12667529E+04</pdfrwt>
<pdfrwt beam="2">  1       -4 0.29327194E+00 0.12667529E+04</pdfrwt>
<totfact> 0.17031342E-01</totfact>
</mgrwt>
</event>
<event>
 8    1  0.1449514E-005  0.1278627E+04  0.7818608E-02  0.8549595E-01
         -2   -1    0    0    0  501 -0.00000000000E+00  0.00000000000E+00  0.52541108088E+03  0.52541108088E+03  0.00000000000E+00 0.  1.
          2   -1    0    0  502    0  0.00000000000E+00 -0.00000000000E+00 -0.31873034781E+04  0.31873034781E+04  0.00000000000E+00 0. -1.
    9000010    2    1    2  502    0  0.66449012164E+03  0.42563727380E+03 -0.10533093412E+04  0.16628311876E+04  0.10162838086E+04 0.  0.
   -9000010    2    1    2    0  501 -0.66449012164E+03 -0.42563727380E+03 -0.16085830560E+04  0.20498833714E+04  0.99587558342E+03 0.  0.
        -13    1    3    3    0    0 -0.25659883257E+03  0.18427876732E+02 -0.35040730094E+03  0.43470430782E+03  0.10566000000E+00 0.  1.
          4    1    3    3  502    0  0.92108895421E+03  0.40720939707E+03 -0.70290204030E+03  0.12281268798E+04  0.00000000000E+00 0.  1.
         13    1    4    4    0    0 -0.21015735696E+03 -0.69609991645E+03 -0.10822126307E+04  0.13038042021E+04  0.10566000000E+00 0. -1.
         -4    1    4    4    0  501 -0.45433276468E+03  0.27046264266E+03 -0.52637042534E+03  0.74607916926E+03  0.00000000000E+00 0. -1.
<mgrwt>
<rscale>  2 0.12786265E+04</rscale>
<asrwt>0</asrwt>
<pdfrwt beam="2">  1        2 0.49035438E+00 0.12786265E+04</pdfrwt>
<pdfrwt beam="1">  1       -2 0.80832474E-01 0.12786265E+04</pdfrwt>
<totfact> 0.27802052E+00</totfact>
</mgrwt>
</event>
<event>
 8    1  0.1449514E-005  0.1198441E+04  0.7818608E-02  0.8607737E-01
         -2   -1    0    0    0  501 -0.00000000000E+00  0.00000000000E+00  0.83795286098E+03  0.83795286098E+03  0.00000000000E+00 0.  1.
          2   -1    0    0  502    0  0.00000000000E+00 -0.00000000000E+00 -0.17318432315E+04  0.17318432315E+04  0.00000000000E+00 0. -1.
    9000010    2    1    2  502    0 -0.38843692281E+03 -0.59253922126E+03 -0.31162072571E+03  0.12221919861E+04  0.94586457929E+03 0.  0.
   -9000010    2    1    2    0  501  0.38843692281E+03  0.59253922126E+03 -0.58226964477E+03  0.13476041064E+04  0.98742742347E+03 0.  0.
        -13    1    3    3    0    0  0.21659354311E+03 -0.50295766832E+03 -0.26618878672E+03  0.60888066185E+03  0.10566000000E+00 0.  1.
          4    1    3    3  502    0 -0.60503046592E+03 -0.89581552935E+02 -0.45431938992E+02  0.61331132420E+03  0.00000000000E+00 0.  1.
         13    1    4    4    0    0  0.40056776465E+03  0.77966867425E+03 -0.70381084404E+03  0.11241385551E+04  0.10566000000E+00 0. -1.
         -4    1    4    4    0  501 -0.12130841846E+02 -0.18712945299E+03  0.12154119927E+03  0.22346555130E+03  0.00000000000E+00 0. -1.
<mgrwt>
<rscale>  2 0.11984409E+04</rscale>
<asrwt>0</asrwt>
<pdfrwt beam="2">  1        2 0.26643742E+00 0.11984409E+04</pdfrwt>
<pdfrwt beam="1">  1       -2 0.12891583E+00 0.11984409E+04</pdfrwt>
<totfact> 0.61004285E+00</totfact>
</mgrwt>
</event>
<event>
 8    1  0.1449514E-005  0.1592353E+04  0.7818608E-02  0.8358247E-01
          2   -1    0    0  502    0  0.00000000000E+00  0.00000000000E+00  0.27977913057E+04  0.27977913057E+04  0.00000000000E+00 0.  1.
         -2   -1    0    0    0  501 -0.00000000000E+00 -0.00000000000E+00 -0.92407644559E+03  0.92407644559E+03  0.00000000000E+00 0. -1.
    9000010    2    1    2  502    0  0.66954058574E+03  0.10107605790E+04  0.11964551777E+04  0.19936637770E+04  0.10359868336E+04 0.  0.
   -9000010    2    1    2    0  501 -0.66954058574E+03 -0.10107605790E+04  0.67725968238E+03  0.17282039743E+04  0.10286334407E+04 0.  0.
        -13    1    3    3    0    0  0.37660929563E+03  0.28834068722E+03 -0.96360431496E+02  0.48400439810E+03  0.10566000000E+00 0.  1.
          4    1    3    3  502    0  0.29293129011E+03  0.72241989179E+03  0.12928156092E+04  0.15096593789E+04  0.00000000000E+00 0.  1.
         13    1    4    4    0    0 -0.67001098324E+02  0.19338591324E+03 -0.30685765183E+02  0.20695140967E+03  0.10566000000E+00 0. -1.
         -4    1    4    4    0  501 -0.60253948742E+03 -0.12041464922E+04  0.70794544757E+03  0.15212525646E+04  0.00000000000E+00 0. -1.
<mgrwt>
<rscale>  2 0.15923530E+04</rscale>
<asrwt>0</asrwt>
<pdfrwt beam="1">  1        2 0.43042943E+00 0.15923530E+04</pdfrwt>
<pdfrwt beam="2">  1       -2 0.14216561E+00 0.15923530E+04</pdfrwt>
<totfact> 0.11263180E+00</totfact>
</mgrwt>
</event>
<event>
 8    1  0.1449514E-005  0.1147869E+04  0.7818608E-02  0.8646887E-01
          1   -1    0    0  502    0  0.00000000000E+00  0.00000000000E+00  0.14800698188E+04  0.14800698188E+04  0.00000000000E+00 0.  1.
         -1   -1    0    0    0  501 -0.00000000000E+00 -0.00000000000E+00 -0.89599686097E+03  0.89599686097E+03  0.00000000000E+00 0. -1.
    9000010    2    1    2  502    0  0.52684885690E+03 -0.22941102995E+03  0.20051000717E+03  0.11769710603E+04  0.10074013475E+04 0.  0.
   -9000010    2    1    2    0  501 -0.52684885690E+03  0.22941102995E+03  0.38356295066E+03  0.11990956195E+04  0.98005644170E+03 0.  0.
        -13    1    3    3    0    0  0.11853436956E+03 -0.32368110879E+02 -0.40346884846E+03  0.42176440605E+03  0.10566000000E+00 0.  1.
          4    1    3    3  502    0  0.40831448734E+03 -0.19704291907E+03  0.60397885563E+03  0.75520665421E+03  0.00000000000E+00 0.  1.
         13    1    4    4    0    0 -0.23935792268E+03  0.48296443885E+03  0.55986197903E+03  0.77716942237E+03  0.10566000000E+00 0. -1.
         -4    1    4    4    0  501 -0.28749093421E+03 -0.25355340890E+03 -0.17629902837E+03  0.42192619713E+03  0.00000000000E+00 0. -1.
<mgrwt>
<rscale>  2 0.11478689E+04</rscale>
<asrwt>0</asrwt>
<pdfrwt beam="1">  1        1 0.22770305E+00 0.11478689E+04</pdfrwt>
<pdfrwt beam="2">  1       -1 0.13784567E+00 0.11478689E+04</pdfrwt>
<totfact> 0.42668551E+00</totfact>
</mgrwt>
</event>
<event>
 8    1  0.1449514E-005  0.1079630E+04  0.7818608E-02  0.8703172E-01
         -2   -1    0    0    0  501 -0.00000000000E+00  0.00000000000E+00  0.10020649219E+04  0.10020649219E+04  0.00000000000E+00 0. -1.
          2   -1    0    0  502    0  0.00000000000E+00 -0.00000000000E+00 -0.13738948818E+04  0.13738948818E+04  0.00000000000E+00 0.  1.
    9000010    2    1    2  502    0 -0.29410018201E+01 -0.37974757265E+03 -0.65041291841E+03  0.12563357025E+04  0.10055473955E+04 0.  0.
   -9000010    2    1    2    0  501  0.29410018201E+01  0.37974757265E+03  0.27858295853E+03  0.11196241013E+04  0.10157424846E+04 0.  0.
        -13    1    3    3    0    0 -0.13447130741E+03  0.19879950998E+03  0.13238574144E+03  0.27409810905E+03  0.10566000000E+00 0.  1.
          4    1    3    3  502    0  0.13153030559E+03 -0.57854708263E+03 -0.78279865986E+03  0.98223759345E+03  0.00000000000E+00 0.  1.
         13    1    4    4    0    0  0.34048758584E+03  0.57867524925E+03  0.68090519892E+02  0.67485788895E+03  0.10566000000E+00 0. -1.
         -4    1    4    4    0  501 -0.33754658402E+03 -0.19892767660E+03  0.21049243863E+03  0.44476621232E+03  0.00000000000E+00 0. -1.
<mgrwt>
<rscale>  2 0.10796298E+04</rscale>
<asrwt>0</asrwt>
<pdfrwt beam="2">  1        2 0.21136844E+00 0.10796298E+04</pdfrwt>
<pdfrwt beam="1">  1       -2 0.15416383E+00 0.10796298E+04</pdfrwt>
<totfact> 0.57462274E+00</totfact>
</mgrwt>
</event>
<event>
 8    1  0.1449514E-005  0.1316961E+04  0.7818608E-02  0.8523335E-01
          2   -1    0    0  502    0  0.00000000000E+00  0.00000000000E+00  0.32487386976E+04  0.32487386976E+04  0.00000000000E+00 0. -1.
         -2   -1    0    0    0  501 -0.00000000000E+00 -0.00000000000E+00 -0.53810244470E+03  0.53810244470E+03  0.00000000000E+00 0.  1.
    9000010    2    1    2  502    0  0.48983977072E+03  0.64594182567E+03  0.15469323748E+04  0.20499327558E+04  0.10733315834E+04 0.  0.
   -9000010    2    1    2    0  501 -0.48983977072E+03 -0.64594182567E+03  0.11637038781E+04  0.17369083864E+04  0.10027263754E+04 0.  0.
        -13    1    3    3    0    0  0.72346320201E+03  0.20648239677E+03  0.53799511653E+03  0.92491769440E+03  0.10566000000E+00 0.  1.
          4    1    3    3  502    0 -0.23362343129E+03  0.43945942890E+03  0.10089372583E+04  0.11250150614E+04  0.00000000000E+00 0.  1.
         13    1    4    4    0    0 -0.42827956977E+03  0.17680422938E+03  0.38512436805E+03  0.60249806260E+03  0.10566000000E+00 0. -1.
         -4    1    4    4    0  501 -0.61560200954E+02 -0.82274605505E+03  0.77857951002E+03  0.11344103238E+04  0.00000000000E+00 0. -1.
<mgrwt>
<rscale>  2 0.13169611E+04</rscale>
<asrwt>0</asrwt>
<pdfrwt beam="1">  1        2 0.49980594E+00 0.13169611E+04</pdfrwt>
<pdfrwt beam="2">  1       -2 0.82784994E-01 0.13169611E+04</pdfrwt>
<totfact> 0.23939573E+00</totfact>
</mgrwt>
</event>
<event>
 8    1  0.1449514E-005  0.1093324E+04  0.7818608E-02  0.8691535E-01
          1   -1    0    0  502    0  0.00000000000E+00  0.00000000000E+00  0.94816881933E+03  0.94816881933E+03  0.00000000000E+00 0.  1.
         -1   -1    0    0    0  501 -0.00000000000E+00 -0.00000000000E+00 -0.14373660816E+04  0.14373660816E+04  0.00000000000E+00 0. -1.
    9000010    2    1    2  502    0 -0.21893264838E+03  0.41019720296E+03 -0.66413961165E+03  0.12855890336E+04  0.99772966765E+03 0.  0.
   -9000010    2    1    2    0  501  0.21893264838E+03 -0.41019720296E+03  0.17494234942E+03  0.10999458673E+04  0.98136783906E+03 0.  0.
        -13    1    3    3    0    0  0.19269507451E+03  0.51514521336E+02  0.18763882285E+03  0.27384936855E+03  0.10566000000E+00 0.  1.
          4    1    3    3  502    0 -0.41162772289E+03  0.35868268162E+03 -0.85177843450E+03  0.10117396650E+04  0.00000000000E+00 0.  1.
         13    1    4    4    0    0 -0.55789783565E+02 -0.56257452302E+03 -0.21000554635E+03  0.60307954248E+03  0.10566000000E+00 0. -1.
         -4    1    4    4    0  501  0.27472243194E+03  0.15237732006E+03  0.38494789577E+03  0.49686632482E+03  0.00000000000E+00 0. -1.
<mgrwt>
<rscale>  2 0.10933240E+04</rscale>
<asrwt>0</asrwt>
<pdfrwt beam="1">  1        1 0.14587213E+00 0.10933240E+04</pdfrwt>
<pdfrwt beam="2">  1       -1 0.22113324E+00 0.10933240E+04</pdfrwt>
<totfact> 0.20422230E+00</totfact>
</mgrwt>
</event>
<event>
 8    1  0.1449514E-005  0.1288320E+04  0.7818608E-02  0.8542867E-01
          4   -1    0    0  502    0  0.00000000000E+00  0.00000000000E+00  0.19406310098E+04  0.19406310098E+04  0.00000000000E+00 0.  1.
         -4   -1    0    0    0  501 -0.00000000000E+00 -0.00000000000E+00 -0.85558657163E+03  0.85558657163E+03  0.00000000000E+00 0. -1.
    9000010    2    1    2  502    0  0.60846051540E+03  0.49835118274E+03  0.56961993941E+03  0.14234947827E+04  0.10408133459E+04 0.  0.
   -9000010    2    1    2    0  501 -0.60846051540E+03 -0.49835118274E+03  0.51542449880E+03  0.13727227987E+04  0.10000636820E+04 0.  0.
        -13    1    3    3    0    0  0.74413723119E+03  0.65616592850E+03  0.66519568240E+03  0.11944786526E+04  0.10566000000E+00 0.  1.
          4    1    3    3  502    0 -0.13567671580E+03 -0.15781474576E+03 -0.95575742988E+02  0.22901613008E+03  0.00000000000E+00 0.  1.
         13    1    4    4    0    0 -0.86119482011E+03 -0.36001991130E+03  0.21780908954E+03  0.95849447853E+03  0.10566000000E+00 0. -1.
         -4    1    4    4    0  501  0.25273430471E+03 -0.13833127144E+03  0.29761540926E+03  0.41422832021E+03  0.00000000000E+00 0. -1.
<mgrwt>
<rscale>  2 0.12883195E+04</rscale>
<asrwt>0</asrwt>
<pdfrwt beam="1">  1        4 0.29855861E+00 0.12883195E+04</pdfrwt>
<pdfrwt beam="2">  1       -4 0.13162870E+00 0.12883195E+04</pdfrwt>
<totfact> 0.18546036E-01</totfact>
</mgrwt>
</event>
<event>
 8    1  0.1449514E-005  0.1116333E+04  0.7818608E-02  0.8672378E-01
          1   -1    0    0  502    0  0.00000000000E+00  0.00000000000E+00  0.14704006384E+04  0.14704006384E+04  0.00000000000E+00 0.  1.
         -1   -1    0    0    0  501 -0.00000000000E+00 -0.00000000000E+00 -0.12879990283E+04  0.12879990283E+04  0.00000000000E+00 0. -1.
    9000010    2    1    2  502    0  0.17884922641E+03  0.48002836375E+03 -0.71429915938E+03  0.13386298863E+04  0.10096001226E+04 0.  0.
   -9000010    2    1    2    0  501 -0.17884922641E+03 -0.48002836375E+03  0.89670076949E+03  0.14197697804E+04  0.97429958614E+03 0.  0.
        -13    1    3    3    0    0  0.52942889525E+03  0.45658078473E+03 -0.22143630178E+03  0.73334508591E+03  0.10566000000E+00 0.  1.
          4    1    3    3  502    0 -0.35057966884E+03  0.23447579022E+02 -0.49286285760E+03  0.60528480038E+03  0.00000000000E+00 0.  1.
         13    1    4    4    0    0 -0.10513291764E+03  0.17301962802E+03 -0.10007514301E+03  0.22584013696E+03  0.10566000000E+00 0. -1.
         -4    1    4    4    0  501 -0.73716308774E+02 -0.65304799177E+03  0.99677591251E+03  0.11939296434E+04  0.00000000000E+00 0. -1.
<mgrwt>
<rscale>  2 0.11163326E+04</rscale>
<asrwt>0</asrwt>
<pdfrwt beam="1">  1        1 0.22621548E+00 0.11163326E+04</pdfrwt>
<pdfrwt beam="2">  1       -1 0.19815370E+00 0.11163326E+04</pdfrwt>
<totfact> 0.13008458E+00</totfact>
</mgrwt>
</event>
<event>
 8    1  0.1449514E-005  0.1303492E+04  0.7818608E-02  0.8532456E-01
          2   -1    0    0  502    0  0.00000000000E+00  0.00000000000E+00  0.27333916872E+04  0.27333916872E+04  0.00000000000E+00 0. -1.
         -2   -1    0    0    0  501 -0.00000000000E+00 -0.00000000000E+00 -0.62289203700E+03  0.62289203700E+03  0.00000000000E+00 0.  1.
    9000010    2    1    2  502    0  0.44180435692E+03  0.77972118055E+03  0.96771233225E+03  0.16084691727E+04  0.92062463167E+03 0.  0.
   -9000010    2    1    2    0  501 -0.44180435692E+03 -0.77972118055E+03  0.11427873180E+04  0.17478145515E+04  0.97248991928E+03 0.  0.
        -13    1    3    3    0    0  0.16585992743E+03 -0.20384389793E+03  0.18083058304E+03  0.31900087959E+03  0.10566000000E+00 0.  1.
          4    1    3    3  502    0  0.27594442948E+03  0.98356507849E+03  0.78688174921E+03  0.12894682931E+04  0.00000000000E+00 0.  1.
         13    1    4    4    0    0  0.60968702058E+01 -0.22185419090E+03 -0.15166899411E+03  0.26881210684E+03  0.10566000000E+00 0. -1.
         -4    1    4    4    0  501 -0.44790122713E+03 -0.55786698965E+03  0.12944563121E+04  0.14790024447E+04  0.00000000000E+00 0. -1.
<mgrwt>
<rscale>  2 0.13034916E+04</rscale>
<asrwt>0</asrwt>
<pdfrwt beam="1">  1        2 0.42052179E+00 0.13034916E+04</pdfrwt>
<pdfrwt beam="2">  1       -2 0.95829545E-01 0.13034916E+04</pdfrwt>
<totfact> 0.35714567E+00</totfact>
</mgrwt>
</event>
<event>
 8    1  0.1449514E-005  0.1030076E+04  0.7818608E-02  0.8746835E-01
          2   -1    0    0  502    0  0.00000000000E+00  0.00000000000E+00  0.12647948696E+04  0.12647948696E+04  0.00000000000E+00 0. -1.
         -2   -1    0    0    0  501 -0.00000000000E+00 -0.00000000000E+00 -0.83896043265E+03  0.83896043265E+03  0.00000000000E+00 0.  1.
    9000010    2    1    2  502    0  0.25862902205E+02 -0.31484642136E+03  0.21662466691E+03  0.10597210054E+04  0.98807145708E+03 0.  0.
   -9000010    2    1    2    0  501 -0.25862902205E+02  0.31484642136E+03  0.20920977007E+03  0.10440342968E+04  0.97285236616E+03 0.  0.
        -13    1    3    3    0    0  0.39158560811E+03  0.39182910011E+01  0.38209983697E+03  0.54713338233E+03  0.10566000000E+00 0.  1.
          4    1    3    3  502    0 -0.36572270591E+03 -0.31876471236E+03 -0.16547517006E+03  0.51258762311E+03  0.00000000000E+00 0.  1.
         13    1    4    4    0    0  0.24204209485E+03  0.57954087358E+03  0.34853136415E+02  0.62902047035E+03  0.10566000000E+00 0. -1.
         -4    1    4    4    0  501 -0.26790499705E+03 -0.26469445223E+03  0.17435663365E+03  0.41501382650E+03  0.00000000000E+00 0. -1.
<mgrwt>
<rscale>  2 0.10300756E+04</rscale>
<asrwt>0</asrwt>
<pdfrwt beam="1">  1        2 0.19458383E+00 0.10300756E+04</pdfrwt>
<pdfrwt beam="2">  1       -2 0.12907084E+00 0.10300756E+04</pdfrwt>
<totfact> 0.11167741E+01</totfact>
</mgrwt>
</event>
<event>
 8    1  0.1449514E-005  0.1097672E+04  0.7818608E-02  0.8687878E-01
         -1   -1    0    0    0  501 -0.00000000000E+00  0.00000000000E+00  0.82469139439E+03  0.82469139439E+03  0.00000000000E+00 0. -1.
          1   -1    0    0  502    0  0.00000000000E+00 -0.00000000000E+00 -0.20874469590E+04  0.20874469590E+04  0.00000000000E+00 0.  1.
    9000010    2    1    2  502    0 -0.42088221974E+01  0.39175602584E+03  0.16057793165E+03  0.11229749220E+04  0.10400946617E+04 0.  0.
   -9000010    2    1    2    0  501  0.42088221974E+01 -0.39175602584E+03 -0.14233334963E+04  0.17891634314E+04  0.10108100933E+04 0.  0.
        -13    1    3    3    0    0 -0.44020813936E+03  0.11185348421E+03  0.34780760316E+03  0.57207040464E+03  0.10566000000E+00 0.  1.
          4    1    3    3  502    0  0.43599931716E+03  0.27990254163E+03 -0.18722967151E+03  0.55090451738E+03  0.00000000000E+00 0.  1.
         13    1    4    4    0    0 -0.17517675146E+03  0.28433756659E+03 -0.73727888848E+03  0.80939169540E+03  0.10566000000E+00 0. -1.
         -4    1    4    4    0  501  0.17938557366E+03 -0.67609359243E+03 -0.68605460782E+03  0.97977173600E+03  0.00000000000E+00 0. -1.
<mgrwt>
<rscale>  2 0.10976718E+04</rscale>
<asrwt>0</asrwt>
<pdfrwt beam="2">  1        1 0.32114568E+00 0.10976718E+04</pdfrwt>
<pdfrwt beam="1">  1       -1 0.12687560E+00 0.10976718E+04</pdfrwt>
<totfact> 0.18787778E+00</totfact>
</mgrwt>
</event>
<event>
 8    1  0.1449514E-005  0.1085024E+04  0.7818608E-02  0.8698567E-01
          2   -1    0    0  502    0  0.00000000000E+00  0.00000000000E+00  0.16761622114E+04  0.16761622114E+04  0.00000000000E+00 0. -1.
         -2   -1    0    0    0  501 -0.00000000000E+00 -0.00000000000E+00 -0.75979020555E+03  0.75979020555E+03  0.00000000000E+00 0.  1.
    9000010    2    1    2  502    0 -0.46834648607E+03 -0.49946873056E+02  0.12198102146E+03  0.10883446850E+04  0.97353565038E+03 0.  0.
   -9000010    2    1    2    0  501  0.46834648607E+03  0.49946873056E+02  0.79439098440E+03  0.13476077320E+04  0.98140024563E+03 0.  0.
        -13    1    3    3    0    0  0.35628452103E+02 -0.30160624724E+03  0.36501573329E+03  0.47483914296E+03  0.10566000000E+00 0.  1.
          4    1    3    3  502    0 -0.50397493817E+03  0.25165937418E+03 -0.24303471183E+03  0.61350554201E+03  0.00000000000E+00 0.  1.
         13    1    4    4    0    0 -0.23857772863E+02  0.22253265556E+03 -0.14953109417E+03  0.26916451364E+03  0.10566000000E+00 0. -1.
         -4    1    4    4    0  501  0.49220425893E+03 -0.17258578250E+03  0.94392207857E+03  0.10784432184E+04  0.00000000000E+00 0. -1.
<mgrwt>
<rscale>  2 0.10850240E+04</rscale>
<asrwt>0</asrwt>
<pdfrwt beam="1">  1        2 0.25787111E+00 0.10850240E+04</pdfrwt>
<pdfrwt beam="2">  1       -2 0.11689080E+00 0.10850240E+04</pdfrwt>
<totfact> 0.86068867E+00</totfact>
</mgrwt>
</event>
<event>
 8    1  0.1449514E-005  0.1995420E+04  0.7818608E-02  0.8170259E-01
         -2   -1    0    0    0  501 -0.00000000000E+00  0.00000000000E+00  0.18447988823E+04  0.18447988823E+04  0.00000000000E+00 0. -1.
          2   -1    0    0  502    0  0.00000000000E+00 -0.00000000000E+00 -0.21583872224E+04  0.21583872224E+04  0.00000000000E+00 0.  1.
    9000010    2    1    2  502    0 -0.17099436882E+04  0.25577223481E+03 -0.14825365918E+03  0.20042668167E+04  0.10028855729E+04 0.  0.
   -9000010    2    1    2    0  501  0.17099436882E+04 -0.25577223481E+03 -0.16533468097E+03  0.19989192879E+04  0.98945232836E+03 0.  0.
        -13    1    3    3    0    0 -0.23251413440E+03 -0.26556185543E+03 -0.25266365973E+03  0.43407932209E+03  0.10566000000E+00 0.  1.
          4    1    3    3  502    0 -0.14774295538E+04  0.52133409025E+03  0.10441000055E+03  0.15701874946E+04  0.00000000000E+00 0.  1.
         13    1    4    4    0    0  0.24464141750E+03  0.16243165949E+02  0.34533360225E+03  0.42351926946E+03  0.10566000000E+00 0. -1.
         -4    1    4    4    0  501  0.14653022707E+04 -0.27201540076E+03 -0.51066828323E+03  0.15754000185E+04  0.00000000000E+00 0. -1.
<mgrwt>
<rscale>  2 0.19954203E+04</rscale>
<asrwt>0</asrwt>
<pdfrwt beam="2">  1        2 0.33205957E+00 0.19954203E+04</pdfrwt>
<pdfrwt beam="1">  1       -2 0.28381521E+00 0.19954203E+04</pdfrwt>
<totfact> 0.17527106E-01</totfact>
</mgrwt>
</event>
<event>
 8    1  0.1449514E-005  0.2150335E+04  0.7818608E-02  0.8109787E-01
          4   -1    0    0  502    0  0.00000000000E+00  0.00000000000E+00  0.30870446608E+04  0.30870446608E+04  0.00000000000E+00 0. -1.
         -4   -1    0    0    0  501 -0.00000000000E+00 -0.00000000000E+00 -0.15558779339E+04  0.15558779339E+04  0.00000000000E+00 0.  1.
    9000010    2    1    2  502    0 -0.18583027694E+04  0.39205205427E+03  0.12134664532E+04  0.24680115511E+04  0.10057764103E+04 0.  0.
   -9000010    2    1    2    0  501  0.18583027694E+04 -0.39205205427E+03  0.31770027362E+03  0.21749110436E+04  0.10110937581E+04 0.  0.
        -13    1    3    3    0    0 -0.48481952763E+03 -0.23746483765E+03  0.67437220399E+03  0.86383876051E+03  0.10566000000E+00 0.  1.
          4    1    3    3  502    0 -0.13734832418E+04  0.62951689193E+03  0.53909424926E+03  0.16041727906E+04  0.00000000000E+00 0.  1.
         13    1    4    4    0    0  0.18650923836E+04 -0.41899457004E+03  0.56680878011E+02  0.19124170001E+04  0.10566000000E+00 0. -1.
         -4    1    4    4    0  501 -0.67896141793E+01  0.26942515768E+02  0.26101939561E+03  0.26249404355E+03  0.00000000000E+00 0. -1.
<mgrwt>
<rscale>  2 0.21503347E+04</rscale>
<asrwt>0</asrwt>
<pdfrwt beam="1">  1        4 0.47492995E+00 0.21503347E+04</pdfrwt>
<pdfrwt beam="2">  1       -4 0.23936584E+00 0.21503347E+04</pdfrwt>
<totfact> 0.15852303E-02</totfact>
</mgrwt>
</event>
<event>
 8    1  0.1449514E-005  0.1818528E+04  0.7818608E-02  0.8246568E-01
          2   -1    0    0  502    0  0.00000000000E+00  0.00000000000E+00  0.22846601020E+04  0.22846601020E+04  0.00000000000E+00 0. -1.
         -2   -1    0    0    0  501 -0.00000000000E+00 -0.00000000000E+00 -0.17940574769E+04  0.17940574769E+04  0.00000000000E+00 0.  1.
    9000010    2    1    2  502    0  0.56303468546E+03  0.14105939226E+04  0.11420242293E+04  0.21505865843E+04  0.10069856228E+04 0.  0.
   -9000010    2    1    2    0  501 -0.56303468546E+03 -0.14105939226E+04 -0.65142160418E+03  0.19281309946E+04  0.99325513051E+03 0.  0.
        -13    1    3    3    0    0  0.60129767280E+03  0.70160112211E+03  0.11038391306E+04  0.14395359889E+04  0.10566000000E+00 0.  1.
          4    1    3    3  502    0 -0.38262987345E+02  0.70899280052E+03  0.38185098641E+02  0.71105059535E+03  0.00000000000E+00 0.  1.
         13    1    4    4    0    0 -0.27824653335E+03 -0.43705607169E+03  0.24622127302E+03  0.57364106336E+03  0.10566000000E+00 0. -1.
         -4    1    4    4    0  501 -0.28478815211E+03 -0.97353785094E+03 -0.89764287720E+03  0.13544899312E+04  0.00000000000E+00 0. -1.
<mgrwt>
<rscale>  2 0.18185276E+04</rscale>
<asrwt>0</asrwt>
<pdfrwt beam="1">  1        2 0.35148617E+00 0.18185276E+04</pdfrwt>
<pdfrwt beam="2">  1       -2 0.27600884E+00 0.18185276E+04</pdfrwt>
<totfact> 0.17287053E-01</totfact>
</mgrwt>
</event>
<event>
 8    1  0.1449514E-005  0.1138049E+04  0.7818608E-02  0.8654732E-01
         -2   -1    0    0    0  501 -0.00000000000E+00  0.00000000000E+00  0.43521981259E+03  0.43521981259E+03  0.00000000000E+00 0. -1.
          2   -1    0    0  502    0  0.00000000000E+00 -0.00000000000E+00 -0.35233834231E+04  0.35233834231E+04  0.00000000000E+00 0.  1.
    9000010    2    1    2  502    0  0.55286154762E+03 -0.26763566416E+02 -0.23267584709E+04  0.25911035261E+04  0.99681508908E+03 0.  0.
   -9000010    2    1    2    0  501 -0.55286154762E+03  0.26763566416E+02 -0.76140513961E+03  0.13674997096E+04  0.99194026520E+03 0.  0.
        -13    1    3    3    0    0 -0.34697755803E+01  0.41334540710E+03 -0.10840553385E+04  0.11601906968E+04  0.10566000000E+00 0.  1.
          4    1    3    3  502    0  0.55633132320E+03 -0.44010897352E+03 -0.12427031324E+04  0.14309128293E+04  0.00000000000E+00 0.  1.
         13    1    4    4    0    0 -0.82407006603E+03  0.23980392473E+02 -0.71715090408E+03  0.10926902413E+04  0.10566000000E+00 0. -1.
         -4    1    4    4    0  501  0.27120851840E+03  0.27831739431E+01 -0.44254235527E+02  0.27480946831E+03  0.00000000000E+00 0. -1.
<mgrwt>
<rscale>  2 0.11380492E+04</rscale>
<asrwt>0</asrwt>
<pdfrwt beam="2">  1        2 0.54205898E+00 0.11380492E+04</pdfrwt>
<pdfrwt beam="1">  1       -2 0.66956895E-01 0.11380492E+04</pdfrwt>
<totfact> 0.24800511E+00</totfact>
</mgrwt>
</event>
<event>
 8    1  0.1449514E-005  0.1123772E+04  0.7818608E-02  0.8666286E-01
          1   -1    0    0  502    0  0.00000000000E+00  0.00000000000E+00  0.19310684209E+04  0.19310684209E+04  0.00000000000E+00 0. -1.
         -1   -1    0    0    0  501 -0.00000000000E+00 -0.00000000000E+00 -0.10155749986E+04  0.10155749986E+04  0.00000000000E+00 0.  1.
    9000010    2    1    2  502    0  0.12508829010E+03 -0.53037070144E+03 -0.42039407164E+03  0.12033604384E+04  0.98711955095E+03 0.  0.
   -9000010    2    1    2    0  501 -0.12508829010E+03  0.53037070144E+03  0.13358874939E+04  0.17432829812E+04  0.97851928691E+03 0.  0.
        -13    1    3    3    0    0  0.46424962649E+03  0.18637621314E+02 -0.28154329633E+03  0.54326946859E+03  0.10566000000E+00 0.  1.
          4    1    3    3  502    0 -0.33916133640E+03 -0.54900832276E+03 -0.13885077531E+03  0.66009096976E+03  0.00000000000E+00 0.  1.
         13    1    4    4    0    0  0.24950454744E+03 -0.17915757737E+01 -0.85100729719E+01  0.24965608633E+03  0.10566000000E+00 0. -1.
         -4    1    4    4    0  501 -0.37459283754E+03  0.53216227721E+03  0.13443975668E+04  0.14936268948E+04  0.00000000000E+00 0. -1.
<mgrwt>
<rscale>  2 0.11237724E+04</rscale>
<asrwt>0</asrwt>
<pdfrwt beam="1">  1        1 0.29708745E+00 0.11237724E+04</pdfrwt>
<pdfrwt beam="2">  1       -1 0.15624231E+00 0.11237724E+04</pdfrwt>
<totfact> 0.13679792E+00</totfact>
</mgrwt>
</event>
<event>
 8    1  0.1449514E-005  0.1350795E+04  0.7818608E-02  0.8500912E-01
          1   -1    0    0  502    0  0.00000000000E+00  0.00000000000E+00  0.44647266082E+03  0.44647266082E+03  0.00000000000E+00 0. -1.
         -1   -1    0    0    0  501 -0.00000000000E+00 -0.00000000000E+00 -0.40875794591E+04  0.40875794591E+04  0.00000000000E+00 0.  1.
    9000010    2    1    2  502    0 -0.40579489798E+03 -0.81438239352E+03 -0.18560373729E+04  0.22976672777E+04  0.10032507200E+04 0.  0.
   -9000010    2    1    2    0  501  0.40579489798E+03  0.81438239352E+03 -0.17850694254E+04  0.22363848423E+04  0.99350698392E+03 0.  0.
        -13    1    3    3    0    0 -0.31355032252E+03  0.45684420237E+02 -0.11133954868E+04  0.11576054562E+04  0.10566000000E+00 0.  1.
          4    1    3    3  502    0 -0.92244575462E+02 -0.86006681376E+03 -0.74264188612E+03  0.11400618215E+04  0.00000000000E+00 0.  1.
         13    1    4    4    0    0  0.19551596406E+03  0.94924574696E+03 -0.92121552419E+03  0.13371357573E+04  0.10566000000E+00 0. -1.
         -4    1    4    4    0  501  0.21027893392E+03 -0.13486335344E+03 -0.86385390119E+03  0.89924908494E+03  0.00000000000E+00 0. -1.
<mgrwt>
<rscale>  2 0.13507947E+04</rscale>
<asrwt>0</asrwt>
<pdfrwt beam="1">  1        1 0.68688108E-01 0.13507947E+04</pdfrwt>
<pdfrwt beam="2">  1       -1 0.62885832E+00 0.13507947E+04</pdfrwt>
<totfact> 0.11284770E-01</totfact>
</mgrwt>
</event>
<event>
 8    1  0.1449514E-005  0.1481694E+04  0.7818608E-02  0.8420113E-01
         -2   -1    0    0    0  501 -0.00000000000E+00  0.00000000000E+00  0.16017390228E+04  0.16017390228E+04  0.00000000000E+00 0. -1.
          2   -1    0    0  502    0  0.00000000000E+00 -0.00000000000E+00 -0.13772656595E+04  0.13772656595E+04  0.00000000000E+00 0.  1.
    9000010    2    1    2  502    0  0.10555347955E+04  0.26346751328E+03  0.92221510274E+01  0.14845893928E+04  0.10101246369E+04 0.  0.
   -9000010    2    1    2    0  501 -0.10555347955E+04 -0.26346751328E+03  0.21525121230E+03  0.14944152895E+04  0.10016861474E+04 0.  0.
        -13    1    3    3    0    0  0.11575468612E+04  0.47146529739E+03 -0.26649399482E+02  0.12501617752E+04  0.10566000000E+00 0.  1.
          4    1    3    3  502    0 -0.10201206569E+03 -0.20799778411E+03  0.35871550509E+02  0.23442761757E+03  0.00000000000E+00 0.  1.
         13    1    4    4    0    0 -0.38557541578E+03  0.31626549416E+03 -0.17199219908E+03  0.52751643743E+03  0.10566000000E+00 0. -1.
         -4    1    4    4    0  501 -0.66995937974E+03 -0.57973300744E+03  0.38724341138E+03  0.96689885204E+03  0.00000000000E+00 0. -1.
<mgrwt>
<rscale>  2 0.14816936E+04</rscale>
<asrwt>0</asrwt>
<pdfrwt beam="2">  1        2 0.21188702E+00 0.14816936E+04</pdfrwt>
<pdfrwt beam="1">  1       -2 0.24642139E+00 0.14816936E+04</pdfrwt>
<totfact> 0.95226468E-01</totfact>
</mgrwt>
</event>
<event>
 8    1  0.1449514E-005  0.1506119E+04  0.7818608E-02  0.8405986E-01
         -1   -1    0    0    0  501 -0.00000000000E+00  0.00000000000E+00  0.14434769295E+04  0.14434769295E+04  0.00000000000E+00 0.  1.
          1   -1    0    0  502    0  0.00000000000E+00 -0.00000000000E+00 -0.16455753579E+04  0.16455753579E+04  0.00000000000E+00 0. -1.
    9000010    2    1    2  502    0 -0.73219152719E+03  0.86555957584E+03  0.22676134921E+03  0.15220459804E+04  0.98990173517E+03 0.  0.
   -9000010    2    1    2    0  501  0.73219152719E+03 -0.86555957584E+03 -0.42885977765E+03  0.15670063069E+04  0.99312146550E+03 0.  0.
        -13    1    3    3    0    0 -0.49020839021E+03  0.10539648506E+04  0.40209046145E+02  0.11630833808E+04  0.10566000000E+00 0.  1.
          4    1    3    3  502    0 -0.24198313699E+03 -0.18840527479E+03  0.18655230306E+03  0.35896259963E+03  0.00000000000E+00 0.  1.
         13    1    4    4    0    0 -0.13153895508E+03 -0.42720265239E+03 -0.39706506474E+03  0.59788400189E+03  0.10566000000E+00 0. -1.
         -4    1    4    4    0  501  0.86373048228E+03 -0.43835692345E+03 -0.31794712906E+02  0.96912230504E+03  0.00000000000E+00 0. -1.
<mgrwt>
<rscale>  2 0.15061187E+04</rscale>
<asrwt>0</asrwt>
<pdfrwt beam="2">  1        1 0.25316544E+00 0.15061187E+04</pdfrwt>
<pdfrwt beam="1">  1       -1 0.22207338E+00 0.15061187E+04</pdfrwt>
<totfact> 0.55339373E-01</totfact>
</mgrwt>
</event>
<event>
 8    1  0.1449514E-005  0.1043656E+04  0.7818608E-02  0.8734620E-01
          2   -1    0    0  502    0  0.00000000000E+00  0.00000000000E+00  0.13384878487E+04  0.13384878487E+04  0.00000000000E+00 0. -1.
         -2   -1    0    0    0  501 -0.00000000000E+00 -0.00000000000E+00 -0.10034711864E+04  0.10034711864E+04  0.00000000000E+00 0.  1.
    9000010    2    1    2  502    0  0.30714248814E+03 -0.25716417965E+02  0.67661644977E+03  0.12436151473E+04  0.99688062092E+03 0.  0.
   -9000010    2    1    2    0  501 -0.30714248814E+03  0.25716417965E+02 -0.34159978746E+03  0.10983438877E+04  0.99733196013E+03 0.  0.
        -13    1    3    3    0    0 -0.27161682877E+03 -0.21699245965E+03  0.20805412732E+02  0.34827332022E+03  0.10566000000E+00 0.  1.
          4    1    3    3  502    0  0.57875931692E+03  0.19127604168E+03  0.65581103704E+03  0.89534182709E+03  0.00000000000E+00 0.  1.
         13    1    4    4    0    0 -0.34415873969E+03  0.23401363704E+03  0.23933023850E+03  0.48009019429E+03  0.10566000000E+00 0. -1.
         -4    1    4    4    0  501  0.37016251550E+02 -0.20829721908E+03 -0.58093002597E+03  0.61825369342E+03  0.00000000000E+00 0. -1.
<mgrwt>
<rscale>  2 0.10436564E+04</rscale>
<asrwt>0</asrwt>
<pdfrwt beam="1">  1        2 0.20592121E+00 0.10436564E+04</pdfrwt>
<pdfrwt beam="2">  1       -2 0.15438018E+00 0.10436564E+04</pdfrwt>
<totfact> 0.60097156E+00</totfact>
</mgrwt>
</event>
<event>
 8    1  0.1449514E-005  0.1235932E+04  0.7818608E-02  0.8579985E-01
         -2   -1    0    0    0  501 -0.00000000000E+00  0.00000000000E+00  0.69508079870E+03  0.69508079870E+03  0.00000000000E+00 0. -1.
          2   -1    0    0  502    0  0.00000000000E+00 -0.00000000000E+00 -0.22188279185E+04  0.22188279185E+04  0.00000000000E+00 0.  1.
    9000010    2    1    2  502    0 -0.69620088832E+03  0.32629396966E+03 -0.61251912571E+03  0.13681246006E+04  0.95153655306E+03 0.  0.
   -9000010    2    1    2    0  501  0.69620088832E+03 -0.32629396966E+03 -0.91122799405E+03  0.15457841166E+04  0.98384381201E+03 0.  0.
        -13    1    3    3    0    0 -0.20759732981E+03 -0.68945798160E+02  0.22975406239E+03  0.31723353351E+03  0.10566000000E+00 0.  1.
          4    1    3    3  502    0 -0.48860355850E+03  0.39523976782E+03 -0.84227318810E+03  0.10508910671E+04  0.00000000000E+00 0.  1.
         13    1    4    4    0    0  0.40770762304E+03  0.22549751656E+03 -0.30138976846E+02  0.46688650114E+03  0.10566000000E+00 0. -1.
         -4    1    4    4    0  501  0.28849326528E+03 -0.55179148623E+03 -0.88108901721E+03  0.10788976154E+04  0.00000000000E+00 0. -1.
<mgrwt>
<rscale>  2 0.12359323E+04</rscale>
<asrwt>0</asrwt>
<pdfrwt beam="2">  1        2 0.34135814E+00 0.12359323E+04</pdfrwt>
<pdfrwt beam="1">  1       -2 0.10693551E+00 0.12359323E+04</pdfrwt>
<totfact> 0.53720476E+00</totfact>
</mgrwt>
</event>
<event>
 8    1  0.1449514E-005  0.1731650E+04  0.7818608E-02  0.8287378E-01
          2   -1    0    0  502    0  0.00000000000E+00  0.00000000000E+00  0.24826065350E+04  0.24826065350E+04  0.00000000000E+00 0. -1.
         -2   -1    0    0    0  501 -0.00000000000E+00 -0.00000000000E+00 -0.12127539852E+04  0.12127539852E+04  0.00000000000E+00 0.  1.
    9000010    2    1    2  502    0  0.65468683976E+03  0.12511521351E+04  0.51777790552E+03  0.18083571936E+04  0.10040245301E+04 0.  0.
   -9000010    2    1    2    0  501 -0.65468683976E+03 -0.12511521351E+04  0.75207464426E+03  0.18870033265E+04  0.10005842095E+04 0.  0.
        -13    1    3    3    0    0  0.38013569419E+03  0.12495046402E+04  0.10189214937E+03  0.13100179438E+04  0.10566000000E+00 0.  1.
          4    1    3    3  502    0  0.27455114557E+03  0.16474949505E+01  0.41588575614E+03  0.49833924985E+03  0.00000000000E+00 0.  1.
         13    1    4    4    0    0 -0.91189476712E+03 -0.10822468728E+04  0.54711242079E+03  0.15172812436E+04  0.10566000000E+00 0. -1.
         -4    1    4    4    0  501  0.25720792735E+03 -0.16890526228E+03  0.20496222347E+03  0.36972208288E+03  0.00000000000E+00 0. -1.
<mgrwt>
<rscale>  2 0.17316499E+04</rscale>
<asrwt>0</asrwt>
<pdfrwt beam="1">  1        2 0.38193947E+00 0.17316499E+04</pdfrwt>
<pdfrwt beam="2">  1       -2 0.18657754E+00 0.17316499E+04</pdfrwt>
<totfact> 0.70164474E-01</totfact>
</mgrwt>
</event>
<event>
 8    1  0.1449514E-005  0.1076780E+04  0.7818608E-02  0.8705617E-01
          2   -1    0    0  502    0  0.00000000000E+00  0.00000000000E+00  0.24566370806E+04  0.24566370806E+04  0.00000000000E+00 0.  1.
         -2   -1    0    0    0  501 -0.00000000000E+00 -0.00000000000E+00 -0.47765132162E+03  0.47765132162E+03  0.00000000000E+00 0. -1.
    9000010    2    1    2  502    0  0.28078562532E+03 -0.38485365862E+03  0.81190946111E+03  0.13307660207E+04  0.94063187421E+03 0.  0.
   -9000010    2    1    2    0  501 -0.28078562532E+03  0.38485365862E+03  0.11670762979E+04  0.16035223816E+04  0.99109234543E+03 0.  0.
        -13    1    3    3    0    0  0.20445630160E+03  0.17044977387E+03 -0.79469587415E+02  0.27779656435E+03  0.10566000000E+00 0.  1.
          4    1    3    3  502    0  0.76329323717E+02 -0.55530343248E+03  0.89137904853E+03  0.10529694563E+04  0.00000000000E+00 0.  1.
         13    1    4    4    0    0  0.18278116159E+03  0.24057421378E+03  0.10655016805E+04  0.11075101569E+04  0.10566000000E+00 0. -1.
         -4    1    4    4    0  501 -0.46356678691E+03  0.14427944483E+03  0.10157461741E+03  0.49601222467E+03  0.00000000000E+00 0. -1.
<mgrwt>
<rscale>  2 0.10767800E+04</rscale>
<asrwt>0</asrwt>
<pdfrwt beam="1">  1        2 0.37794416E+00 0.10767800E+04</pdfrwt>
<pdfrwt beam="2">  1       -2 0.73484820E-01 0.10767800E+04</pdfrwt>
<totfact> 0.95576289E+00</totfact>
</mgrwt>
</event>
<event>
 8    1  0.1449514E-005  0.2143672E+04  0.7818608E-02  0.8112279E-01
         -2   -1    0    0    0  501 -0.00000000000E+00  0.00000000000E+00  0.19750402775E+04  0.19750402775E+04  0.00000000000E+00 0.  1.
          2   -1    0    0  502    0  0.00000000000E+00 -0.00000000000E+00 -0.24262843121E+04  0.24262843121E+04  0.00000000000E+00 0. -1.
    9000010    2    1    2  502    0  0.86990613724E+03 -0.16855742639E+04  0.22053289448E+03  0.21517131039E+04  0.99163362061E+03 0.  0.
   -9000010    2    1    2    0  501 -0.86990613724E+03  0.16855742639E+04 -0.67177692918E+03  0.22496114857E+04  0.10057685157E+04 0.  0.
        -13    1    3    3    0    0  0.81465654511E+03 -0.17310040826E+04 -0.70687715675E+01  0.19131362730E+04  0.10566000000E+00 0.  1.
          4    1    3    3  502    0  0.55249592126E+02  0.45429818738E+02  0.22760166605E+03  0.23857683092E+03  0.00000000000E+00 0.  1.
         13    1    4    4    0    0 -0.82405269058E+03  0.92823308257E+03 -0.80478940146E+03  0.14793125039E+04  0.10566000000E+00 0. -1.
         -4    1    4    4    0  501 -0.45853446655E+02  0.75734118130E+03  0.13301247228E+03  0.77029898172E+03  0.00000000000E+00 0. -1.
<mgrwt>
<rscale>  2 0.21436719E+04</rscale>
<asrwt>0</asrwt>
<pdfrwt beam="2">  1        2 0.37327451E+00 0.21436719E+04</pdfrwt>
<pdfrwt beam="1">  1       -2 0.30385235E+00 0.21436719E+04</pdfrwt>
<totfact> 0.89656780E-02</totfact>
</mgrwt>
</event>
<event>
 8    1  0.1449514E-005  0.1276518E+04  0.7818608E-02  0.8551067E-01
          4   -1    0    0  502    0  0.00000000000E+00  0.00000000000E+00  0.10115789236E+04  0.10115789236E+04  0.00000000000E+00 0. -1.
         -4   -1    0    0    0  501 -0.00000000000E+00 -0.00000000000E+00 -0.16146993283E+04  0.16146993283E+04  0.00000000000E+00 0.  1.
    9000010    2    1    2  502    0  0.24079781610E+03  0.79793961564E+03 -0.24483456135E+03  0.13183893709E+04  0.99172342532E+03 0.  0.
   -9000010    2    1    2    0  501 -0.24079781610E+03 -0.79793961564E+03 -0.35828584331E+03  0.13078888810E+04  0.94207927541E+03 0.  0.
        -13    1    3    3    0    0 -0.33942855307E+03  0.28075752454E+03 -0.30962767947E+03  0.53842904944E+03  0.10566000000E+00 0.  1.
          4    1    3    3  502    0  0.58022636917E+03  0.51718209110E+03  0.64793118116E+02  0.77996032142E+03  0.00000000000E+00 0.  1.
         13    1    4    4    0    0 -0.70704663249E+02 -0.69112628305E+03 -0.65153883460E+03  0.95244818898E+03  0.10566000000E+00 0. -1.
         -4    1    4    4    0  501 -0.17009315285E+03 -0.10681333259E+03  0.29325299129E+03  0.35544069205E+03  0.00000000000E+00 0. -1.
<mgrwt>
<rscale>  2 0.12765182E+04</rscale>
<asrwt>0</asrwt>
<pdfrwt beam="1">  1        4 0.15562753E+00 0.12765182E+04</pdfrwt>
<pdfrwt beam="2">  1       -4 0.24841528E+00 0.12765182E+04</pdfrwt>
<totfact> 0.19233471E-01</totfact>
</mgrwt>
</event>
<event>
 8    1  0.1449514E-005  0.1184963E+04  0.7818608E-02  0.8617972E-01
         -2   -1    0    0    0  501 -0.00000000000E+00  0.00000000000E+00  0.21880791933E+04  0.21880791933E+04  0.00000000000E+00 0.  1.
          2   -1    0    0  502    0  0.00000000000E+00 -0.00000000000E+00 -0.83925877655E+03  0.83925877655E+03  0.00000000000E+00 0. -1.
    9000010    2    1    2  502    0 -0.15774799703E+03  0.58807172398E+03 -0.64557901822E+02  0.11759066010E+04  0.10039301911E+04 0.  0.
   -9000010    2    1    2    0  501  0.15774799703E+03 -0.58807172398E+03  0.14133783186E+04  0.18514313688E+04  0.10292944471E+04 0.  0.
        -13    1    3    3    0    0  0.18797049700E+03 -0.13488464461E+03 -0.26305713583E+03  0.35032248425E+03  0.10566000000E+00 0.  1.
          4    1    3    3  502    0 -0.34571849404E+03  0.72295636859E+03  0.19849923401E+03  0.82558411680E+03  0.00000000000E+00 0.  1.
         13    1    4    4    0    0  0.12844466106E+02 -0.73618485553E+03  0.44324786117E+03  0.85941945488E+03  0.10566000000E+00 0. -1.
         -4    1    4    4    0  501  0.14490353093E+03  0.14811313155E+03  0.97013045742E+03  0.99201191395E+03  0.00000000000E+00 0. -1.
<mgrwt>
<rscale>  2 0.11849631E+04</rscale>
<asrwt>0</asrwt>
<pdfrwt beam="2">  1        2 0.12911674E+00 0.11849631E+04</pdfrwt>
<pdfrwt beam="1">  1       -2 0.33662757E+00 0.11849631E+04</pdfrwt>
<totfact> 0.47293440E-01</totfact>
</mgrwt>
</event>
<event>
 8    1  0.1449514E-005  0.1219062E+04  0.7818608E-02  0.8592345E-01
          1   -1    0    0  502    0  0.00000000000E+00  0.00000000000E+00  0.25971746192E+04  0.25971746192E+04  0.00000000000E+00 0.  1.
         -1   -1    0    0    0  501 -0.00000000000E+00 -0.00000000000E+00 -0.60783439765E+03  0.60783439765E+03  0.00000000000E+00 0. -1.
    9000010    2    1    2  502    0  0.62221485045E+03  0.27908607273E+03  0.13889810979E+04  0.18536689725E+04  0.10206761549E+04 0.  0.
   -9000010    2    1    2    0  501 -0.62221485045E+03 -0.27908607273E+03  0.60035912368E+03  0.13513400444E+04  0.10003241885E+04 0.  0.
        -13    1    3    3    0    0 -0.17258178915E+03  0.38647343360E+03  0.53395753579E+03  0.68136396295E+03  0.10566000000E+00 0.  1.
          4    1    3    3  502    0  0.79479663960E+03 -0.10738736087E+03  0.85502356210E+03  0.11723050095E+04  0.00000000000E+00 0.  1.
         13    1    4    4    0    0  0.95037656099E+02 -0.16922443003E+03  0.59483894149E+03  0.62570155927E+03  0.10566000000E+00 0. -1.
         -4    1    4    4    0  501 -0.71725250655E+03 -0.10986164270E+03  0.55201821914E+01  0.72563848513E+03  0.00000000000E+00 0. -1.
<mgrwt>
<rscale>  2 0.12190620E+04</rscale>
<asrwt>0</asrwt>
<pdfrwt beam="1">  1        1 0.39956532E+00 0.12190620E+04</pdfrwt>
<pdfrwt beam="2">  1       -1 0.93512986E-01 0.12190620E+04</pdfrwt>
<totfact> 0.13706062E+00</totfact>
</mgrwt>
</event>
<event>
 8    1  0.1449514E-005  0.1199253E+04  0.7818608E-02  0.8607125E-01
          2   -1    0    0  502    0  0.00000000000E+00  0.00000000000E+00  0.26979711096E+04  0.26979711096E+04  0.00000000000E+00 0. -1.
         -2   -1    0    0    0  501 -0.00000000000E+00 -0.00000000000E+00 -0.53339144677E+03  0.53339144677E+03  0.00000000000E+00 0.  1.
    9000010    2    1    2  502    0 -0.62251383424E+03  0.30437897640E+03  0.11177702348E+04  0.16606301624E+04  0.10139586793E+04 0.  0.
   -9000010    2    1    2    0  501  0.62251383424E+03 -0.30437897640E+03  0.10468094280E+04  0.15707323939E+04  0.94404461747E+03 0.  0.
        -13    1    3    3    0    0 -0.75925616405E+03  0.47155523919E+03  0.54101821310E+03  0.10447655164E+04  0.10566000000E+00 0.  1.
          4    1    3    3  502    0  0.13674232981E+03 -0.16717626279E+03  0.57675202173E+03  0.61586464598E+03  0.00000000000E+00 0.  1.
         13    1    4    4    0    0  0.56609590903E+03 -0.31525653817E+03  0.12237440346E+04  0.13847024000E+04  0.10566000000E+00 0. -1.
         -4    1    4    4    0  501  0.56417925206E+02  0.10877561765E+02 -0.17693460663E+03  0.18602999397E+03  0.00000000000E+00 0. -1.
<mgrwt>
<rscale>  2 0.11992533E+04</rscale>
<asrwt>0</asrwt>
<pdfrwt beam="1">  1        2 0.41507247E+00 0.11992533E+04</pdfrwt>
<pdfrwt beam="2">  1       -2 0.82060224E-01 0.11992533E+04</pdfrwt>
<totfact> 0.54102093E+00</totfact>
</mgrwt>
</event>
<event>
 8    1  0.1449514E-005  0.1179488E+04  0.7818608E-02  0.8622170E-01
         -2   -1    0    0    0  501 -0.00000000000E+00  0.00000000000E+00  0.61491094240E+03  0.61491094240E+03  0.00000000000E+00 0. -1.
          2   -1    0    0  502    0  0.00000000000E+00 -0.00000000000E+00 -0.22762000897E+04  0.22762000897E+04  0.00000000000E+00 0.  1.
    9000010    2    1    2  502    0  0.55844908730E+03 -0.23868919120E+03 -0.93744254146E+03  0.15007950581E+04  0.10023718745E+04 0.  0.
   -9000010    2    1    2    0  501 -0.55844908730E+03  0.23868919120E+03 -0.72384660584E+03  0.13903159740E+04  0.10198954288E+04 0.  0.
        -13    1    3    3    0    0  0.68905906326E+03 -0.46330226602E+03 -0.44029964188E+03  0.93984848150E+03  0.10566000000E+00 0.  1.
          4    1    3    3  502    0 -0.13060997596E+03  0.22461307482E+03 -0.49714289958E+03  0.56094657660E+03  0.00000000000E+00 0.  1.
         13    1    4    4    0    0  0.23853684858E+03 -0.10413026995E+02  0.58761575638E+02  0.24588857882E+03  0.10566000000E+00 0. -1.
         -4    1    4    4    0  501 -0.79698593588E+03  0.24910221820E+03 -0.78260818148E+03  0.11444273952E+04  0.00000000000E+00 0. -1.
<mgrwt>
<rscale>  2 0.11794885E+04</rscale>
<asrwt>0</asrwt>
<pdfrwt beam="2">  1        2 0.35018463E+00 0.11794885E+04</pdfrwt>
<pdfrwt beam="1">  1       -2 0.94601684E-01 0.11794885E+04</pdfrwt>
<totfact> 0.67553659E+00</totfact>
</mgrwt>
</event>
<event>
 8    1  0.1449514E-005  0.1027198E+04  0.7818608E-02  0.8749448E-01
          2   -1    0    0  502    0  0.00000000000E+00  0.00000000000E+00  0.12669616545E+04  0.12669616545E+04  0.00000000000E+00 0.  1.
         -2   -1    0    0    0  501 -0.00000000000E+00 -0.00000000000E+00 -0.12336810422E+04  0.12336810422E+04  0.00000000000E+00 0. -1.
    9000010    2    1    2  502    0 -0.28188302006E+03  0.43941707256E+02 -0.69611848527E+03  0.12369423612E+04  0.98186381379E+03 0.  0.
   -9000010    2    1    2    0  501  0.28188302006E+03 -0.43941707256E+02  0.72939909753E+03  0.12637003355E+04  0.99172908793E+03 0.  0.
        -13    1    3    3    0    0  0.36138769049E+03 -0.72488309422E+02 -0.26157535948E+03  0.45197046109E+03  0.10566000000E+00 0.  1.
          4    1    3    3  502    0 -0.64327071055E+03  0.11643001668E+03 -0.43454312579E+03  0.78497190014E+03  0.00000000000E+00 0.  1.
         13    1    4    4    0    0 -0.16557329075E+03 -0.62660110648E+02  0.79195862844E+03  0.81150433418E+03  0.10566000000E+00 0. -1.
         -4    1    4    4    0  501  0.44745631080E+03  0.18718403392E+02 -0.62559530906E+02  0.45219600132E+03  0.00000000000E+00 0. -1.
<mgrwt>
<rscale>  2 0.10271979E+04</rscale>
<asrwt>0</asrwt>
<pdfrwt beam="1">  1        2 0.19491718E+00 0.10271979E+04</pdfrwt>
<pdfrwt beam="2">  1       -2 0.18979708E+00 0.10271979E+04</pdfrwt>
<totfact> 0.33201451E+00</totfact>
</mgrwt>
</event>
<event>
 8    1  0.1449514E-005  0.1187206E+04  0.7818608E-02  0.8616259E-01
         -2   -1    0    0    0  501 -0.00000000000E+00  0.00000000000E+00  0.10806764378E+04  0.10806764378E+04  0.00000000000E+00 0. -1.
          2   -1    0    0  502    0  0.00000000000E+00 -0.00000000000E+00 -0.13329644192E+04  0.13329644192E+04  0.00000000000E+00 0.  1.
    9000010    2    1    2  502    0  0.54080350466E+03  0.39157377291E+03  0.51125381697E+02  0.11872798286E+04  0.98041885771E+03 0.  0.
   -9000010    2    1    2    0  501 -0.54080350466E+03 -0.39157377291E+03 -0.30341336300E+03  0.12263610284E+04  0.98290551569E+03 0.  0.
        -13    1    3    3    0    0  0.11090164406E+03  0.31104736949E+03  0.47479972194E+03  0.57834628713E+03  0.10566000000E+00 0.  1.
          4    1    3    3  502    0  0.42990186060E+03  0.80526403420E+02 -0.42367434024E+03  0.60893354150E+03  0.00000000000E+00 0.  1.
         13    1    4    4    0    0 -0.35720910030E+03 -0.35978789808E+03  0.30390428099E+03  0.59110362553E+03  0.10566000000E+00 0. -1.
         -4    1    4    4    0  501 -0.18359440436E+03 -0.31785874825E+02 -0.60731764400E+03  0.63525740284E+03  0.00000000000E+00 0. -1.
<mgrwt>
<rscale>  2 0.11872062E+04</rscale>
<asrwt>0</asrwt>
<pdfrwt beam="2">  1        2 0.20507145E+00 0.11872062E+04</pdfrwt>
<pdfrwt beam="1">  1       -2 0.16625791E+00 0.11872062E+04</pdfrwt>
<totfact> 0.47057780E+00</totfact>
</mgrwt>
</event>
<event>
 8    1  0.1449514E-005  0.1174202E+04  0.7818608E-02  0.8626246E-01
         -2   -1    0    0    0  501 -0.00000000000E+00  0.00000000000E+00  0.17229756600E+04  0.17229756600E+04  0.00000000000E+00 0.  1.
          2   -1    0    0  502    0  0.00000000000E+00 -0.00000000000E+00 -0.89258650192E+03  0.89258650192E+03  0.00000000000E+00 0. -1.
    9000010    2    1    2  502    0 -0.51201990403E+03 -0.31268743134E+03  0.83474352820E+03  0.14377524222E+04  0.10051852853E+04 0.  0.
   -9000010    2    1    2    0  501  0.51201990403E+03  0.31268743134E+03 -0.43543701106E+01  0.11778097397E+04  0.10135477347E+04 0.  0.
        -13    1    3    3    0    0  0.17562589692E+02 -0.42865834100E+02 -0.22121544059E+03  0.22601373101E+03  0.10566000000E+00 0.  1.
          4    1    3    3  502    0 -0.52958249372E+03 -0.26982159724E+03  0.10559589688E+04  0.12117386912E+04  0.00000000000E+00 0.  1.
         13    1    4    4    0    0  0.44288317019E+03 -0.28534341247E+03 -0.16970027392E+03  0.55350208637E+03  0.10566000000E+00 0. -1.
         -4    1    4    4    0  501  0.69136733839E+02  0.59803084381E+03  0.16534590380E+03  0.62430765334E+03  0.00000000000E+00 0. -1.
<mgrwt>
<rscale>  2 0.11742019E+04</rscale>
<asrwt>0</asrwt>
<pdfrwt beam="2">  1        2 0.13732100E+00 0.11742019E+04</pdfrwt>
<pdfrwt beam="1">  1       -2 0.26507318E+00 0.11742019E+04</pdfrwt>
<totfact> 0.13610200E+00</totfact>
</mgrwt>
</event>
<event>
 8    1  0.1449514E-005  0.1240456E+04  0.7818608E-02  0.8576705E-01
          1   -1    0    0  502    0  0.00000000000E+00  0.00000000000E+00  0.22254740526E+04  0.22254740526E+04  0.00000000000E+00 0.  1.
         -1   -1    0    0    0  501 -0.00000000000E+00 -0.00000000000E+00 -0.69311091337E+03  0.69311091337E+03  0.00000000000E+00 0. -1.
    9000010    2    1    2  502    0 -0.66733215446E+03 -0.29035730346E+03  0.69665359977E+03  0.14261790912E+04  0.10094656973E+04 0.  0.
   -9000010    2    1    2    0  501  0.66733215446E+03  0.29035730346E+03  0.83570953945E+03  0.14924058748E+04  0.99961257132E+03 0.  0.
        -13    1    3    3    0    0 -0.73153107627E+03 -0.54154334328E+03  0.31170165716E+03  0.96206280588E+03  0.10566000000E+00 0.  1.
          4    1    3    3  502    0  0.64198921811E+02  0.25118603982E+03  0.38495194260E+03  0.46411628529E+03  0.00000000000E+00 0.  1.
         13    1    4    4    0    0  0.11853377070E+03 -0.34390641856E+03  0.42216114780E+03  0.55726288715E+03  0.10566000000E+00 0. -1.
         -4    1    4    4    0  501  0.54879838377E+03  0.63426372202E+03  0.41354839165E+03  0.93514298764E+03  0.00000000000E+00 0. -1.
<mgrwt>
<rscale>  2 0.12404559E+04</rscale>
<asrwt>0</asrwt>
<pdfrwt beam="1">  1        1 0.34238062E+00 0.12404559E+04</pdfrwt>
<pdfrwt beam="2">  1       -1 0.10663245E+00 0.12404559E+04</pdfrwt>
<totfact> 0.21709736E+00</totfact>
</mgrwt>
</event>
<event>
 8    1  0.1449514E-005  0.1268695E+04  0.7818608E-02  0.8556554E-01
          2   -1    0    0  502    0  0.00000000000E+00  0.00000000000E+00  0.22554094905E+04  0.22554094905E+04  0.00000000000E+00 0.  1.
         -2   -1    0    0    0  501 -0.00000000000E+00 -0.00000000000E+00 -0.10135283196E+04  0.10135283196E+04  0.00000000000E+00 0. -1.
    9000010    2    1    2  502    0 -0.75422487680E+03  0.80219700127E+02 -0.26554912107E+03  0.13033558260E+04  0.10261236321E+04 0.  0.
   -9000010    2    1    2    0  501  0.75422487680E+03 -0.80219700127E+02  0.15074302920E+04  0.19655819841E+04  0.10079067844E+04 0.  0.
        -13    1    3    3    0    0 -0.98949428119E+03 -0.70559174161E+02 -0.16093331988E+03  0.10049761560E+04  0.10566000000E+00 0.  1.
          4    1    3    3  502    0  0.23526940439E+03  0.15077887429E+03 -0.10461580120E+03  0.29837966994E+03  0.00000000000E+00 0.  1.
         13    1    4    4    0    0  0.91739087343E+03  0.79056077799E+02  0.79150439391E+03  0.12142220122E+04  0.10566000000E+00 0. -1.
         -4    1    4    4    0  501 -0.16316599663E+03 -0.15927577793E+03  0.71592589806E+03  0.75135997192E+03  0.00000000000E+00 0. -1.
<mgrwt>
<rscale>  2 0.12686949E+04</rscale>
<asrwt>0</asrwt>
<pdfrwt beam="1">  1        2 0.34698607E+00 0.12686949E+04</pdfrwt>
<pdfrwt beam="2">  1       -2 0.15592743E+00 0.12686949E+04</pdfrwt>
<totfact> 0.17911569E+00</totfact>
</mgrwt>
</event>
<event>
 8    1  0.1449514E-005  0.1218883E+04  0.7818608E-02  0.8592477E-01
          2   -1    0    0  502    0  0.00000000000E+00  0.00000000000E+00  0.11560268713E+04  0.11560268713E+04  0.00000000000E+00 0.  1.
         -2   -1    0    0    0  501 -0.00000000000E+00 -0.00000000000E+00 -0.14572473759E+04  0.14572473759E+04  0.00000000000E+00 0. -1.
    9000010    2    1    2  502    0  0.50545723708E+03  0.42762263283E+03  0.29825280268E+03  0.12562275221E+04  0.10250876637E+04 0.  0.
   -9000010    2    1    2    0  501 -0.50545723708E+03 -0.42762263283E+03 -0.59947330731E+03  0.13570467251E+04  0.10216943934E+04 0.  0.
        -13    1    3    3    0    0 -0.22995857015E+03  0.24837017965E+03 -0.15679305846E+03  0.37303185450E+03  0.10566000000E+00 0.  1.
          4    1    3    3  502    0  0.73541580723E+03  0.17925245319E+03  0.45504586114E+03  0.88319566759E+03  0.00000000000E+00 0.  1.
         13    1    4    4    0    0  0.99036613041E+02  0.10471707838E+01  0.22659233201E+03  0.24729222264E+03  0.10566000000E+00 0. -1.
         -4    1    4    4    0  501 -0.60449385012E+03 -0.42866980362E+03 -0.82606563931E+03  0.11097545025E+04  0.00000000000E+00 0. -1.
<mgrwt>
<rscale>  2 0.12188832E+04</rscale>
<asrwt>0</asrwt>
<pdfrwt beam="1">  1        2 0.17785029E+00 0.12188832E+04</pdfrwt>
<pdfrwt beam="2">  1       -2 0.22419190E+00 0.12188832E+04</pdfrwt>
<totfact> 0.19590158E+00</totfact>
</mgrwt>
</event>
<event>
 8    1  0.1449514E-005  0.1230315E+04  0.7818608E-02  0.8584077E-01
         -2   -1    0    0    0  501 -0.00000000000E+00  0.00000000000E+00  0.58759339877E+03  0.58759339877E+03  0.00000000000E+00 0. -1.
          2   -1    0    0  502    0  0.00000000000E+00 -0.00000000000E+00 -0.26850639892E+04  0.26850639892E+04  0.00000000000E+00 0.  1.
    9000010    2    1    2  502    0  0.58024132627E+03 -0.42020197972E+03 -0.71567299441E+03  0.14197300791E+04  0.99508590686E+03 0.  0.
   -9000010    2    1    2    0  501 -0.58024132627E+03  0.42020197972E+03 -0.13817975960E+04  0.18529273089E+04  0.10053483551E+04 0.  0.
        -13    1    3    3    0    0  0.79746896295E+03 -0.33547297942E+03 -0.25262039795E+03  0.90128571686E+03  0.10566000000E+00 0.  1.
          4    1    3    3  502    0 -0.21722763668E+03 -0.84729000296E+02 -0.46305259645E+03  0.51844436221E+03  0.00000000000E+00 0.  1.
         13    1    4    4    0    0 -0.30157110820E+03  0.55902524774E+03 -0.25592375415E+03  0.68480021906E+03  0.10566000000E+00 0. -1.
         -4    1    4    4    0  501 -0.27867021806E+03 -0.13882326803E+03 -0.11258738419E+04  0.11681270898E+04  0.00000000000E+00 0. -1.
<mgrwt>
<rscale>  2 0.12303152E+04</rscale>
<asrwt>0</asrwt>
<pdfrwt beam="2">  1        2 0.41308676E+00 0.12303152E+04</pdfrwt>
<pdfrwt beam="1">  1       -2 0.90398985E-01 0.12303152E+04</pdfrwt>
<totfact> 0.44038382E+00</totfact>
</mgrwt>
</event>
<event>
 8    1  0.1449514E-005  0.1270332E+04  0.7818608E-02  0.8555403E-01
         -1   -1    0    0    0  501 -0.00000000000E+00  0.00000000000E+00  0.12439109963E+04  0.12439109963E+04  0.00000000000E+00 0. -1.
          1   -1    0    0  502    0  0.00000000000E+00 -0.00000000000E+00 -0.13488451919E+04  0.13488451919E+04  0.00000000000E+00 0.  1.
    9000010    2    1    2  502    0 -0.49589182383E+03 -0.62965597094E+03  0.20028789251E+03  0.12963220295E+04  0.99897959014E+03 0.  0.
   -9000010    2    1    2    0  501  0.49589182383E+03  0.62965597094E+03 -0.30522208815E+03  0.12964341587E+04  0.97221688016E+03 0.  0.
        -13    1    3    3    0    0 -0.43426092791E+03 -0.12949093249E+03  0.52753448492E+03  0.69544453341E+03  0.10566000000E+00 0.  1.
          4    1    3    3  502    0 -0.61630895925E+02 -0.50016503845E+03 -0.32724659241E+03  0.60087749606E+03  0.00000000000E+00 0.  1.
         13    1    4    4    0    0  0.73312361237E+03  0.22920686156E+03 -0.31670600406E+03  0.83084819346E+03  0.10566000000E+00 0. -1.
         -4    1    4    4    0  501 -0.23723178854E+03  0.40044910939E+03  0.11483915907E+02  0.46558596524E+03  0.00000000000E+00 0. -1.
<mgrwt>
<rscale>  2 0.12703317E+04</rscale>
<asrwt>0</asrwt>
<pdfrwt beam="2">  1        1 0.20751464E+00 0.12703317E+04</pdfrwt>
<pdfrwt beam="1">  1       -1 0.19137092E+00 0.12703317E+04</pdfrwt>
<totfact> 0.18036127E+00</totfact>
</mgrwt>
</event>
<event>
 8    1  0.1449514E-005  0.1431486E+04  0.7818608E-02  0.8450054E-01
         -1   -1    0    0    0  501 -0.00000000000E+00  0.00000000000E+00  0.94659189025E+03  0.94659189025E+03  0.00000000000E+00 0.  1.
          1   -1    0    0  502    0  0.00000000000E+00 -0.00000000000E+00 -0.27131070772E+04  0.27131070772E+04  0.00000000000E+00 0. -1.
    9000010    2    1    2  502    0  0.65303089318E+03 -0.77451177387E+03 -0.61806118317E+02  0.14352082047E+04  0.10147338367E+04 0.  0.
   -9000010    2    1    2    0  501 -0.65303089318E+03  0.77451177387E+03 -0.17047090686E+04  0.22244907627E+04  0.10079723753E+04 0.  0.
        -13    1    3    3    0    0  0.58751138989E+03  0.37677796062E+02  0.11884645343E+03  0.60059448900E+03  0.10566000000E+00 0.  1.
          4    1    3    3  502    0  0.65519503290E+02 -0.81218956993E+03 -0.18065257174E+03  0.83461371574E+03  0.00000000000E+00 0.  1.
         13    1    4    4    0    0 -0.43974393372E+03  0.97197464954E+03 -0.10001434599E+04  0.14623256813E+04  0.10566000000E+00 0. -1.
         -4    1    4    4    0  501 -0.21328695946E+03 -0.19746287567E+03 -0.70456560873E+03  0.76216508143E+03  0.00000000000E+00 0. -1.
<mgrwt>
<rscale>  2 0.14314863E+04</rscale>
<asrwt>0</asrwt>
<pdfrwt beam="2">  1        1 0.41740109E+00 0.14314863E+04</pdfrwt>
<pdfrwt beam="1">  1       -1 0.14562952E+00 0.14314863E+04</pdfrwt>
<totfact> 0.34961892E-01</totfact>
</mgrwt>
</event>
<event>
 8    1  0.1449514E-005  0.1064405E+04  0.7818608E-02  0.8716323E-01
          2   -1    0    0  502    0  0.00000000000E+00  0.00000000000E+00  0.22005104650E+04  0.22005104650E+04  0.00000000000E+00 0. -1.
         -2   -1    0    0    0  501 -0.00000000000E+00 -0.00000000000E+00 -0.67773770499E+03  0.67773770499E+03  0.00000000000E+00 0.  1.
    9000010    2    1    2  502    0 -0.16286900366E+03  0.27755284199E+03  0.55141606464E+02  0.10644571182E+04  0.10131468142E+04 0.  0.
   -9000010    2    1    2    0  501  0.16286900366E+03 -0.27755284199E+03  0.14676311535E+04  0.18137910518E+04  0.10160388203E+04 0.  0.
        -13    1    3    3    0    0 -0.44545341780E+02 -0.38418921178E+03 -0.24390941427E+02  0.38753137565E+03  0.10566000000E+00 0.  1.
          4    1    3    3  502    0 -0.11832366188E+03  0.66174205378E+03  0.79532547891E+02  0.67692574251E+03  0.00000000000E+00 0.  1.
         13    1    4    4    0    0 -0.78744692372E+02  0.34119643898E+03  0.79379062763E+03  0.86759397659E+03  0.10566000000E+00 0. -1.
         -4    1    4    4    0  501  0.24161369603E+03 -0.61874928097E+03  0.67384052592E+03  0.94619707523E+03  0.00000000000E+00 0. -1.
<mgrwt>
<rscale>  2 0.10644054E+04</rscale>
<asrwt>0</asrwt>
<pdfrwt beam="1">  1        2 0.33854007E+00 0.10644054E+04</pdfrwt>
<pdfrwt beam="2">  1       -2 0.10426734E+00 0.10644054E+04</pdfrwt>
<totfact> 0.59668176E+00</totfact>
</mgrwt>
</event>
<event>
 8    1  0.1449514E-005  0.1103920E+04  0.7818608E-02  0.8682653E-01
         -2   -1    0    0    0  501 -0.00000000000E+00  0.00000000000E+00  0.11031460934E+04  0.11031460934E+04  0.00000000000E+00 0.  1.
          2   -1    0    0  502    0  0.00000000000E+00 -0.00000000000E+00 -0.11112672778E+04  0.11112672778E+04  0.00000000000E+00 0. -1.
    9000010    2    1    2  502    0  0.99221262967E+02  0.47091476395E+03  0.80776820461E+02  0.11139241329E+04  0.10013473449E+04 0.  0.
   -9000010    2    1    2    0  501 -0.99221262967E+02 -0.47091476395E+03 -0.88898004818E+02  0.11004892383E+04  0.98568155835E+03 0.  0.
        -13    1    3    3    0    0  0.48041383211E+03 -0.22933127586E+02 -0.22939600297E+02  0.48150764776E+03  0.10566000000E+00 0.  1.
          4    1    3    3  502    0 -0.38119256914E+03  0.49384789154E+03  0.10371642076E+03  0.63241648514E+03  0.00000000000E+00 0.  1.
         13    1    4    4    0    0  0.52222474904E+02 -0.25516835052E+03  0.43899440489E+03  0.51044507313E+03  0.10566000000E+00 0. -1.
         -4    1    4    4    0  501 -0.15144373787E+03 -0.21574641343E+03 -0.52789240971E+03  0.59004416520E+03  0.00000000000E+00 0. -1.
<mgrwt>
<rscale>  2 0.11039196E+04</rscale>
<asrwt>0</asrwt>
<pdfrwt beam="2">  1        2 0.17096420E+00 0.11039196E+04</pdfrwt>
<pdfrwt beam="1">  1       -2 0.16971478E+00 0.11039196E+04</pdfrwt>
<totfact> 0.59335743E+00</totfact>
</mgrwt>
</event>
<event>
 8    1  0.1449514E-005  0.1178381E+04  0.7818608E-02  0.8623022E-01
          1   -1    0    0  502    0  0.00000000000E+00  0.00000000000E+00  0.36104468375E+04  0.36104468375E+04  0.00000000000E+00 0.  1.
         -1   -1    0    0    0  501 -0.00000000000E+00 -0.00000000000E+00 -0.42274114380E+03  0.42274114380E+03  0.00000000000E+00 0. -1.
    9000010    2    1    2  502    0  0.30811740938E+03  0.55595410924E+03  0.22073126186E+04  0.25051750924E+04  0.99982595391E+03 0.  0.
   -9000010    2    1    2    0  501 -0.30811740938E+03 -0.55595410924E+03  0.98039307515E+03  0.15280128889E+04  0.98469868348E+03 0.  0.
        -13    1    3    3    0    0 -0.31133245347E+01  0.79305582839E+03  0.15102331077E+04  0.17057993113E+04  0.10566000000E+00 0.  1.
          4    1    3    3  502    0  0.31123073391E+03 -0.23710171916E+03  0.69707951085E+03  0.79937578110E+03  0.00000000000E+00 0.  1.
         13    1    4    4    0    0 -0.59912531838E+03 -0.29268348475E+03  0.91186234731E+03  0.11296493797E+04  0.10566000000E+00 0. -1.
         -4    1    4    4    0  501  0.29100790900E+03 -0.26327062449E+03  0.68530727843E+02  0.39836350922E+03  0.00000000000E+00 0. -1.
<mgrwt>
<rscale>  2 0.11783811E+04</rscale>
<asrwt>0</asrwt>
<pdfrwt beam="1">  1        1 0.55545334E+00 0.11783811E+04</pdfrwt>
<pdfrwt beam="2">  1       -1 0.65037101E-01 0.11783811E+04</pdfrwt>
<totfact> 0.22707265E-01</totfact>
</mgrwt>
</event>
<event>
 8    1  0.1449514E-005  0.1198853E+04  0.7818608E-02  0.8607426E-01
         -1   -1    0    0    0  501 -0.00000000000E+00  0.00000000000E+00  0.92893343210E+03  0.92893343210E+03  0.00000000000E+00 0.  1.
          1   -1    0    0  502    0  0.00000000000E+00 -0.00000000000E+00 -0.18797172768E+04  0.18797172768E+04  0.00000000000E+00 0. -1.
    9000010    2    1    2  502    0 -0.53610826287E+03  0.40926892437E+03 -0.10641191139E+04  0.15987033195E+04  0.98416954497E+03 0.  0.
   -9000010    2    1    2    0  501  0.53610826287E+03 -0.40926892437E+03  0.11333526919E+03  0.12099473894E+04  0.99810554547E+03 0.  0.
        -13    1    3    3    0    0  0.28370493852E+03  0.83381618938E+02 -0.16311235255E+03  0.33770791705E+03  0.10566000000E+00 0.  1.
          4    1    3    3  502    0 -0.81981320139E+03  0.32588730543E+03 -0.90100676134E+03  0.12609954025E+04  0.00000000000E+00 0.  1.
         13    1    4    4    0    0 -0.18224598545E+02 -0.60133573879E+03 -0.41972409713E+02  0.60307420860E+03  0.10566000000E+00 0. -1.
         -4    1    4    4    0  501  0.55433286142E+03  0.19206681442E+03  0.15530767890E+03  0.60687318080E+03  0.00000000000E+00 0. -1.
<mgrwt>
<rscale>  2 0.11988532E+04</rscale>
<asrwt>0</asrwt>
<pdfrwt beam="2">  1        1 0.28918727E+00 0.11988532E+04</pdfrwt>
<pdfrwt beam="1">  1       -1 0.14291284E+00 0.11988532E+04</pdfrwt>
<totfact> 0.19283203E+00</totfact>
</mgrwt>
</event>
<event>
 8    1  0.1449514E-005  0.1008885E+04  0.7818608E-02  0.8766288E-01
         -2   -1    0    0    0  501 -0.00000000000E+00  0.00000000000E+00  0.25290742684E+03  0.25290742684E+03  0.00000000000E+00 0. -1.
          2   -1    0    0  502    0  0.00000000000E+00 -0.00000000000E+00 -0.40292805640E+04  0.40292805640E+04  0.00000000000E+00 0.  1.
    9000010    2    1    2  502    0 -0.18832666375E+03  0.79503774599E+01 -0.19608062223E+04  0.22050322571E+04  0.99089660048E+03 0.  0.
   -9000010    2    1    2    0  501  0.18832666375E+03 -0.79503774599E+01 -0.18155669149E+04  0.20771557337E+04  0.99134382479E+03 0.  0.
        -13    1    3    3    0    0  0.94454665083E+02 -0.41996926431E+03 -0.51653199027E+03  0.67238469262E+03  0.10566000000E+00 0.  1.
          4    1    3    3  502    0 -0.28278132883E+03  0.42791964177E+03 -0.14442742320E+04  0.15326475645E+04  0.00000000000E+00 0.  1.
         13    1    4    4    0    0  0.96889007752E+02 -0.48740033489E+03 -0.11410578534E+04  0.12445720558E+04  0.10566000000E+00 0. -1.
         -4    1    4    4    0  501  0.91437655998E+02  0.47944995743E+03 -0.67450906150E+03  0.83258367787E+03  0.00000000000E+00 0. -1.
<mgrwt>
<rscale>  2 0.10088852E+04</rscale>
<asrwt>0</asrwt>
<pdfrwt beam="2">  1        2 0.61988934E+00 0.10088852E+04</pdfrwt>
<pdfrwt beam="1">  1       -2 0.38908834E-01 0.10088852E+04</pdfrwt>
<totfact> 0.27828446E+00</totfact>
</mgrwt>
</event>
<event>
 8    1  0.1449514E-005  0.1449278E+04  0.7818608E-02  0.8439302E-01
         -1   -1    0    0    0  501 -0.00000000000E+00  0.00000000000E+00  0.85307474747E+03  0.85307474747E+03  0.00000000000E+00 0.  1.
          1   -1    0    0  502    0  0.00000000000E+00 -0.00000000000E+00 -0.26524398535E+04  0.26524398535E+04  0.00000000000E+00 0. -1.
    9000010    2    1    2  502    0 -0.40075817785E+03 -0.97596024094E+03 -0.13702093523E+04  0.19958211320E+04  0.99635476252E+03 0.  0.
   -9000010    2    1    2    0  501  0.40075817785E+03  0.97596024094E+03 -0.42915575382E+03  0.15096934690E+04  0.99090574750E+03 0.  0.
        -13    1    3    3    0    0 -0.46453598298E+02 -0.52356589900E+03 -0.13178641238E+04  0.14188181869E+04  0.10566000000E+00 0.  1.
          4    1    3    3  502    0 -0.35430457955E+03 -0.45239434194E+03 -0.52345228436E+02  0.57700294510E+03  0.00000000000E+00 0.  1.
         13    1    4    4    0    0 -0.39928869945E+02 -0.19352059614E+03 -0.53950698938E+02  0.20482974605E+03  0.10566000000E+00 0. -1.
         -4    1    4    4    0  501  0.44068704779E+03  0.11694808371E+04 -0.37520505489E+03  0.13048637230E+04  0.00000000000E+00 0. -1.
<mgrwt>
<rscale>  2 0.14492781E+04</rscale>
<asrwt>0</asrwt>
<pdfrwt beam="2">  1        1 0.40806766E+00 0.14492781E+04</pdfrwt>
<pdfrwt beam="1">  1       -1 0.13124227E+00 0.14492781E+04</pdfrwt>
<totfact> 0.53371745E-01</totfact>
</mgrwt>
</event>
<event>
 8    1  0.1449514E-005  0.1458653E+04  0.7818608E-02  0.8433700E-01
         -2   -1    0    0    0  501 -0.00000000000E+00  0.00000000000E+00  0.68843219170E+03  0.68843219170E+03  0.00000000000E+00 0.  1.
          2   -1    0    0  502    0  0.00000000000E+00 -0.00000000000E+00 -0.31256560798E+04  0.31256560798E+04  0.00000000000E+00 0. -1.
    9000010    2    1    2  502    0 -0.73702823682E+03 -0.71076891495E+03 -0.10391256508E+04  0.18108587280E+04  0.10728579320E+04 0.  0.
   -9000010    2    1    2    0  501  0.73702823682E+03  0.71076891495E+03 -0.13980982373E+04  0.20032295435E+04  0.10049113645E+04 0.  0.
        -13    1    3    3    0    0  0.10960846888E+02  0.24971339714E+03 -0.28386309032E+03  0.37822636884E+03  0.10566000000E+00 0.  1.
          4    1    3    3  502    0 -0.74798908370E+03 -0.96048231209E+03 -0.75526256051E+03  0.14326323591E+04  0.00000000000E+00 0.  1.
         13    1    4    4    0    0  0.43221352159E+02  0.60877177978E+03 -0.10636288397E+04  0.12262860535E+04  0.10566000000E+00 0. -1.
         -4    1    4    4    0  501  0.69380688466E+03  0.10199713517E+03 -0.33446939756E+03  0.77694349002E+03  0.00000000000E+00 0. -1.
<mgrwt>
<rscale>  2 0.14586528E+04</rscale>
<asrwt>0</asrwt>
<pdfrwt beam="2">  1        2 0.48087017E+00 0.14586528E+04</pdfrwt>
<pdfrwt beam="1">  1       -2 0.10591264E+00 0.14586528E+04</pdfrwt>
<totfact> 0.15847108E+00</totfact>
</mgrwt>
</event>
<event>
 8    1  0.1449514E-005  0.1258473E+04  0.7818608E-02  0.8563785E-01
          1   -1    0    0  502    0  0.00000000000E+00  0.00000000000E+00  0.13662596117E+04  0.13662596117E+04  0.00000000000E+00 0.  1.
         -1   -1    0    0    0  501 -0.00000000000E+00 -0.00000000000E+00 -0.12640513295E+04  0.12640513295E+04  0.00000000000E+00 0. -1.
    9000010    2    1    2  502    0 -0.12312394869E+03  0.75366040689E+03  0.42996687310E+03  0.13317727712E+04  0.10027879569E+04 0.  0.
   -9000010    2    1    2    0  501  0.12312394869E+03 -0.75366040689E+03 -0.32775859091E+03  0.12985381700E+04  0.99780367276E+03 0.  0.
        -13    1    3    3    0    0 -0.47802016401E+03  0.25954453663E+03  0.47445898508E+03  0.72178804602E+03  0.10566000000E+00 0.  1.
          4    1    3    3  502    0  0.35489621531E+03  0.49411587026E+03 -0.44492111987E+02  0.60998472515E+03  0.00000000000E+00 0.  1.
         13    1    4    4    0    0  0.34158565929E+03 -0.76176998804E+03 -0.53965676851E+03  0.99408436074E+03  0.10566000000E+00 0. -1.
         -4    1    4    4    0  501 -0.21846171059E+03  0.81095811464E+01  0.21189817760E+03  0.30445380926E+03  0.00000000000E+00 0. -1.
<mgrwt>
<rscale>  2 0.12584727E+04</rscale>
<asrwt>0</asrwt>
<pdfrwt beam="1">  1        1 0.21019379E+00 0.12584727E+04</pdfrwt>
<pdfrwt beam="2">  1       -1 0.19446943E+00 0.12584727E+04</pdfrwt>
<totfact> 0.16455068E+00</totfact>
</mgrwt>
</event>
<event>
 8    1  0.1449514E-005  0.1256829E+04  0.7818608E-02  0.8564955E-01
         -2   -1    0    0    0  501 -0.00000000000E+00  0.00000000000E+00  0.62088566853E+03  0.62088566853E+03  0.00000000000E+00 0.  1.
          2   -1    0    0  502    0  0.00000000000E+00 -0.00000000000E+00 -0.31155593432E+04  0.31155593432E+04  0.00000000000E+00 0. -1.
    9000010    2    1    2  502    0 -0.22957809747E+03  0.72154555902E+03 -0.20453201561E+04  0.23992632302E+04  0.99989769987E+03 0.  0.
   -9000010    2    1    2    0  501  0.22957809747E+03 -0.72154555902E+03 -0.44935351855E+03  0.13371817815E+04  0.10063808601E+04 0.  0.
        -13    1    3    3    0    0  0.33841628189E+03  0.16145514621E+03 -0.11011058168E+04  0.11631970491E+04  0.10566000000E+00 0.  1.
          4    1    3    3  502    0 -0.56799437936E+03  0.56009041281E+03 -0.94421433933E+03  0.12360661811E+04  0.00000000000E+00 0.  1.
         13    1    4    4    0    0  0.13336937595E+03 -0.89982580551E+03 -0.76524703628E+02  0.91286905531E+03  0.10566000000E+00 0. -1.
         -4    1    4    4    0  501  0.96208721524E+02  0.17828024650E+03 -0.37282881492E+03  0.42431272621E+03  0.00000000000E+00 0. -1.
<mgrwt>
<rscale>  2 0.12568292E+04</rscale>
<asrwt>0</asrwt>
<pdfrwt beam="2">  1        2 0.47931681E+00 0.12568292E+04</pdfrwt>
<pdfrwt beam="1">  1       -2 0.95520874E-01 0.12568292E+04</pdfrwt>
<totfact> 0.21145422E+00</totfact>
</mgrwt>
</event>
<event>
 8    1  0.1449514E-005  0.1983507E+04  0.7818608E-02  0.8175140E-01
          2   -1    0    0  502    0  0.00000000000E+00  0.00000000000E+00  0.26444897783E+04  0.26444897783E+04  0.00000000000E+00 0. -1.
         -2   -1    0    0    0  501 -0.00000000000E+00 -0.00000000000E+00 -0.15524155412E+04  0.15524155412E+04  0.00000000000E+00 0.  1.
    9000010    2    1    2  502    0  0.35984291582E+03 -0.16628445300E+04  0.11817214698E+03  0.19887853458E+04  0.10231146761E+04 0.  0.
   -9000010    2    1    2    0  501 -0.35984291582E+03  0.16628445300E+04  0.97390209012E+03  0.22081199736E+04  0.10162527647E+04 0.  0.
        -13    1    3    3    0    0 -0.61744953724E+02 -0.59037976663E+03  0.49864469045E+03  0.77524657151E+03  0.10566000000E+00 0.  1.
          4    1    3    3  502    0  0.42158786954E+03 -0.10724647634E+04 -0.38047254347E+03  0.12135387743E+04  0.00000000000E+00 0.  1.
         13    1    4    4    0    0 -0.35463107613E+03  0.15336212596E+04  0.40590004071E+03  0.16255805801E+04  0.10566000000E+00 0. -1.
         -4    1    4    4    0  501 -0.52118396881E+01  0.12922327038E+03  0.56800204941E+03  0.58253939353E+03  0.00000000000E+00 0. -1.
<mgrwt>
<rscale>  2 0.19835068E+04</rscale>
<asrwt>0</asrwt>
<pdfrwt beam="1">  1        2 0.40684458E+00 0.19835068E+04</pdfrwt>
<pdfrwt beam="2">  1       -2 0.23883316E+00 0.19835068E+04</pdfrwt>
<totfact> 0.20628777E-01</totfact>
</mgrwt>
</event>
<event>
 8    1  0.1449514E-005  0.1222332E+04  0.7818608E-02  0.8589933E-01
         -2   -1    0    0    0  501 -0.00000000000E+00  0.00000000000E+00  0.39204177334E+03  0.39204177334E+03  0.00000000000E+00 0. -1.
          2   -1    0    0  502    0  0.00000000000E+00 -0.00000000000E+00 -0.40314226334E+04  0.40314226334E+04  0.00000000000E+00 0.  1.
    9000010    2    1    2  502    0 -0.45098707303E+03  0.55214732784E+03 -0.23437548286E+04  0.26456713176E+04  0.99906657055E+03 0.  0.
   -9000010    2    1    2    0  501  0.45098707303E+03 -0.55214732784E+03 -0.12956260315E+04  0.17777930892E+04  0.98673473779E+03 0.  0.
        -13    1    3    3    0    0  0.12187109794E+03  0.29458088480E+03 -0.17585112053E+04  0.17871743430E+04  0.10566000000E+00 0.  1.
          4    1    3    3  502    0 -0.57285817097E+03  0.25756644304E+03 -0.58524362329E+03  0.85849697450E+03  0.00000000000E+00 0.  1.
         13    1    4    4    0    0 -0.21516874461E+03  0.13998842838E+03 -0.27450064536E+03  0.37582570988E+03  0.10566000000E+00 0. -1.
         -4    1    4    4    0  501  0.66615581764E+03 -0.69213575622E+03 -0.10211253861E+04  0.14019673793E+04  0.00000000000E+00 0. -1.
<mgrwt>
<rscale>  2 0.12223320E+04</rscale>
<asrwt>0</asrwt>
<pdfrwt beam="2">  1        2 0.62021886E+00 0.12223320E+04</pdfrwt>
<pdfrwt beam="1">  1       -2 0.60314119E-01 0.12223320E+04</pdfrwt>
<totfact> 0.11622983E+00</totfact>
</mgrwt>
</event>
<event>
 8    1  0.1449514E-005  0.1086911E+04  0.7818608E-02  0.8696963E-01
         -2   -1    0    0    0  501 -0.00000000000E+00  0.00000000000E+00  0.10988127110E+04  0.10988127110E+04  0.00000000000E+00 0. -1.
          2   -1    0    0  502    0  0.00000000000E+00 -0.00000000000E+00 -0.11848409371E+04  0.11848409371E+04  0.00000000000E+00 0.  1.
    9000010    2    1    2  502    0 -0.40355458955E+03  0.23043372153E+03  0.30327327586E+03  0.11458808555E+04  0.10025528657E+04 0.  0.
   -9000010    2    1    2    0  501  0.40355458955E+03 -0.23043372153E+03 -0.38930150194E+03  0.11377727926E+04  0.96281631759E+03 0.  0.
        -13    1    3    3    0    0  0.70082124044E+02  0.16156846450E+03  0.57095158280E+03  0.59749610366E+03  0.10566000000E+00 0.  1.
          4    1    3    3  502    0 -0.47363671360E+03  0.68865257022E+02 -0.26767830693E+03  0.54838475188E+03  0.00000000000E+00 0.  1.
         13    1    4    4    0    0  0.11760869308E+03  0.87507141712E+02  0.29582433992E+03  0.33015353366E+03  0.10566000000E+00 0. -1.
         -4    1    4    4    0  501  0.28594589648E+03 -0.31794086324E+03 -0.68512584186E+03  0.80761925894E+03  0.00000000000E+00 0. -1.
<mgrwt>
<rscale>  2 0.10869106E+04</rscale>
<asrwt>0</asrwt>
<pdfrwt beam="2">  1        2 0.18228322E+00 0.10869106E+04</pdfrwt>
<pdfrwt beam="1">  1       -2 0.16904811E+00 0.10869106E+04</pdfrwt>
<totfact> 0.54611710E+00</totfact>
</mgrwt>
</event>
<event>
 8    1  0.1449514E-005  0.1695230E+04  0.7818608E-02  0.8305226E-01
         -1   -1    0    0    0  501 -0.00000000000E+00  0.00000000000E+00  0.49400587945E+04  0.49400587945E+04  0.00000000000E+00 0.  1.
          1   -1    0    0  502    0  0.00000000000E+00 -0.00000000000E+00 -0.60005982227E+03  0.60005982227E+03  0.00000000000E+00 0. -1.
    9000010    2    1    2  502    0 -0.52144922608E+03 -0.12533516147E+04  0.16872749256E+04  0.23925701598E+04  0.10171999455E+04 0.  0.
   -9000010    2    1    2    0  501  0.52144922608E+03  0.12533516147E+04  0.26527240467E+04  0.31475484571E+04  0.10135664044E+04 0.  0.
        -13    1    3    3    0    0 -0.34959636722E+03 -0.87660354661E+02  0.33505077901E+02  0.36197314702E+03  0.10566000000E+00 0.  1.
          4    1    3    3  502    0 -0.17185285886E+03 -0.11656912601E+04  0.16537698477E+04  0.20305970127E+04  0.00000000000E+00 0.  1.
         13    1    4    4    0    0 -0.47279183045E+02  0.76447149499E+03  0.20401799334E+04  0.21792168685E+04  0.10566000000E+00 0. -1.
         -4    1    4    4    0  501  0.56872840912E+03  0.48888011975E+03  0.61254411322E+03  0.96833158860E+03  0.00000000000E+00 0. -1.
<mgrwt>
<rscale>  2 0.16952296E+04</rscale>
<asrwt>0</asrwt>
<pdfrwt beam="2">  1        1 0.92316899E-01 0.16952296E+04</pdfrwt>
<pdfrwt beam="1">  1       -1 0.76000902E+00 0.16952296E+04</pdfrwt>
<totfact> 0.22624864E-02</totfact>
</mgrwt>
</event>
<event>
 8    1  0.1449514E-005  0.1215212E+04  0.7818608E-02  0.8595194E-01
          2   -1    0    0  502    0  0.00000000000E+00  0.00000000000E+00  0.42725992982E+04  0.42725992982E+04  0.00000000000E+00 0.  1.
         -2   -1    0    0    0  501 -0.00000000000E+00 -0.00000000000E+00 -0.35766597629E+03  0.35766597629E+03  0.00000000000E+00 0. -1.
    9000010    2    1    2  502    0 -0.54326526178E+03  0.43088232381E+03  0.15225299863E+04  0.19438672923E+04  0.98981097640E+03 0.  0.
   -9000010    2    1    2    0  501  0.54326526178E+03 -0.43088232381E+03  0.23924033356E+04  0.26863979823E+04  0.10061529095E+04 0.  0.
        -13    1    3    3    0    0  0.34415090412E+02 -0.17532490595E+03 -0.28787903586E+02  0.18097506915E+03  0.10566000000E+00 0.  1.
          4    1    3    3  502    0 -0.57768035220E+03  0.60620722977E+03  0.15513178899E+04  0.17628922231E+04  0.00000000000E+00 0.  1.
         13    1    4    4    0    0 -0.82186972301E+02  0.26688983785E+03  0.44672376977E+03  0.52682731668E+03  0.10566000000E+00 0. -1.
         -4    1    4    4    0  501  0.62545223409E+03 -0.69777216166E+03  0.19456795658E+04  0.21595706656E+04  0.00000000000E+00 0. -1.
<mgrwt>
<rscale>  2 0.12152125E+04</rscale>
<asrwt>0</asrwt>
<pdfrwt beam="1">  1        2 0.65732293E+00 0.12152125E+04</pdfrwt>
<pdfrwt beam="2">  1       -2 0.55025538E-01 0.12152125E+04</pdfrwt>
<totfact> 0.84019754E-01</totfact>
</mgrwt>
</event>
<event>
 8    1  0.1449514E-005  0.1460553E+04  0.7818608E-02  0.8432570E-01
          1   -1    0    0  502    0  0.00000000000E+00  0.00000000000E+00  0.13728043674E+04  0.13728043674E+04  0.00000000000E+00 0.  1.
         -1   -1    0    0    0  501 -0.00000000000E+00 -0.00000000000E+00 -0.17513228087E+04  0.17513228087E+04  0.00000000000E+00 0. -1.
    9000010    2    1    2  502    0 -0.46491478938E+03  0.97027152242E+03 -0.71307769471E+03  0.16206351070E+04  0.98000294017E+03 0.  0.
   -9000010    2    1    2    0  501  0.46491478938E+03 -0.97027152242E+03  0.33455925344E+03  0.15034920691E+04  0.99548275685E+03 0.  0.
        -13    1    3    3    0    0 -0.20670576493E+03 -0.15157772562E+03 -0.30698073825E+03  0.39992532426E+03  0.10566000000E+00 0.  1.
          4    1    3    3  502    0 -0.25820902445E+03  0.11218492480E+04 -0.40609695646E+03  0.12207097827E+04  0.00000000000E+00 0.  1.
         13    1    4    4    0    0 -0.92954220428E+02 -0.67890554654E+03  0.50526430463E+03  0.85137844518E+03  0.10566000000E+00 0. -1.
         -4    1    4    4    0  501  0.55786900981E+03 -0.29136597587E+03 -0.17070505118E+03  0.65211362392E+03  0.00000000000E+00 0. -1.
<mgrwt>
<rscale>  2 0.14605525E+04</rscale>
<asrwt>0</asrwt>
<pdfrwt beam="1">  1        1 0.21120067E+00 0.14605525E+04</pdfrwt>
<pdfrwt beam="2">  1       -1 0.26943428E+00 0.14605525E+04</pdfrwt>
<totfact> 0.31020990E-01</totfact>
</mgrwt>
</event>
<event>
 8    1  0.1449514E-005  0.1196081E+04  0.7818608E-02  0.8609520E-01
         -4   -1    0    0    0  501 -0.00000000000E+00  0.00000000000E+00  0.79595840575E+03  0.79595840575E+03  0.00000000000E+00 0. -1.
          4   -1    0    0  502    0  0.00000000000E+00 -0.00000000000E+00 -0.24445081038E+04  0.24445081038E+04  0.00000000000E+00 0.  1.
    9000010    2    1    2  502    0  0.43514992769E+03  0.49085283098E+03 -0.16578771070E+04  0.20442319423E+04  0.10000178851E+04 0.  0.
   -9000010    2    1    2    0  501 -0.43514992769E+03 -0.49085283098E+03  0.93274089939E+01  0.11962345673E+04  0.10002990444E+04 0.  0.
        -13    1    3    3    0    0  0.22667442003E+03  0.78469474713E+03 -0.97305063007E+03  0.12704151600E+04  0.10566000000E+00 0.  1.
          4    1    3    3  502    0  0.20847550766E+03 -0.29384191615E+03 -0.68482647695E+03  0.77381678227E+03  0.00000000000E+00 0.  1.
         13    1    4    4    0    0 -0.18686037649E+03 -0.76614688869E+03  0.14431614530E+03  0.80170132612E+03  0.10566000000E+00 0. -1.
         -4    1    4    4    0  501 -0.24828955121E+03  0.27529405771E+03 -0.13498873631E+03  0.39453324115E+03  0.00000000000E+00 0. -1.
<mgrwt>
<rscale>  2 0.11960806E+04</rscale>
<asrwt>0</asrwt>
<pdfrwt beam="2">  1        4 0.37607816E+00 0.11960806E+04</pdfrwt>
<pdfrwt beam="1">  1       -4 0.12245514E+00 0.11960806E+04</pdfrwt>
<totfact> 0.11962194E-01</totfact>
</mgrwt>
</event>
<event>
 8    1  0.1449514E-005  0.1145066E+04  0.7818608E-02  0.8649118E-01
          2   -1    0    0  502    0  0.00000000000E+00  0.00000000000E+00  0.87518425279E+03  0.87518425279E+03  0.00000000000E+00 0.  1.
         -2   -1    0    0    0  501 -0.00000000000E+00 -0.00000000000E+00 -0.15058491053E+04  0.15058491053E+04  0.00000000000E+00 0. -1.
    9000010    2    1    2  502    0  0.48439161869E+03 -0.10894572996E+03 -0.40323695747E+03  0.12332780140E+04  0.10544525611E+04 0.  0.
   -9000010    2    1    2    0  501 -0.48439161869E+03  0.10894572996E+03 -0.22742789508E+03  0.11477553441E+04  0.10095119960E+04 0.  0.
        -13    1    3    3    0    0 -0.18304466608E+03  0.10777553110E+03 -0.48239055090E+03  0.52708781967E+03  0.10566000000E+00 0.  1.
          4    1    3    3  502    0  0.66743628477E+03 -0.21672126107E+03  0.79153593432E+02  0.70619019434E+03  0.00000000000E+00 0.  1.
         13    1    4    4    0    0 -0.48558056447E+03  0.46528678433E+03 -0.36570992018E+03  0.76552206575E+03  0.10566000000E+00 0. -1.
         -4    1    4    4    0  501  0.11889457851E+01 -0.35634105437E+03  0.13828202509E+03  0.38223327836E+03  0.00000000000E+00 0. -1.
<mgrwt>
<rscale>  2 0.11450663E+04</rscale>
<asrwt>0</asrwt>
<pdfrwt beam="1">  1        2 0.13464373E+00 0.11450663E+04</pdfrwt>
<pdfrwt beam="2">  1       -2 0.23166909E+00 0.11450663E+04</pdfrwt>
<totfact> 0.25485170E+00</totfact>
</mgrwt>
</event>
<event>
 8    1  0.1449514E-005  0.1444760E+04  0.7818608E-02  0.8442018E-01
          1   -1    0    0  502    0  0.00000000000E+00  0.00000000000E+00  0.23352456810E+04  0.23352456810E+04  0.00000000000E+00 0. -1.
         -1   -1    0    0    0  501 -0.00000000000E+00 -0.00000000000E+00 -0.89386577622E+03  0.89386577622E+03  0.00000000000E+00 0.  1.
    9000010    2    1    2  502    0 -0.77263732418E+03  0.71552932231E+03  0.72622587615E+03  0.16131631021E+04  0.98282273320E+03 0.  0.
   -9000010    2    1    2    0  501  0.77263732418E+03 -0.71552932231E+03  0.71515402860E+03  0.16159483551E+04  0.99543616370E+03 0.  0.
        -13    1    3    3    0    0 -0.80124377973E+03  0.92730227495E+03  0.64176475511E+03  0.13833810450E+04  0.10566000000E+00 0.  1.
          4    1    3    3  502    0  0.28606455544E+02 -0.21177295264E+03  0.84461121043E+02  0.22978205704E+03  0.00000000000E+00 0.  1.
         13    1    4    4    0    0  0.88697316000E+03 -0.32807227461E+03  0.20930852257E+03  0.96858808206E+03  0.10566000000E+00 0. -1.
         -4    1    4    4    0  501 -0.11433583582E+03 -0.38745704770E+03  0.50584550604E+03  0.64736027306E+03  0.00000000000E+00 0. -1.
<mgrwt>
<rscale>  2 0.14447596E+04</rscale>
<asrwt>0</asrwt>
<pdfrwt beam="1">  1        1 0.35926856E+00 0.14447596E+04</pdfrwt>
<pdfrwt beam="2">  1       -1 0.13751781E+00 0.14447596E+04</pdfrwt>
<totfact> 0.90944370E-01</totfact>
</mgrwt>
</event>
<event>
 8    1  0.1449514E-005  0.1190582E+04  0.7818608E-02  0.8613688E-01
         -2   -1    0    0    0  501 -0.00000000000E+00  0.00000000000E+00  0.65651332543E+03  0.65651332543E+03  0.00000000000E+00 0.  1.
          2   -1    0    0  502    0  0.00000000000E+00 -0.00000000000E+00 -0.21774806686E+04  0.21774806686E+04  0.00000000000E+00 0. -1.
    9000010    2    1    2  502    0  0.10836648478E+03  0.49920291748E+03 -0.61780801427E+03  0.12776427576E+04  0.99485547980E+03 0.  0.
   -9000010    2    1    2    0  501 -0.10836648478E+03 -0.49920291748E+03 -0.90315932895E+03  0.15563512365E+04  0.11599937715E+04 0.  0.
        -13    1    3    3    0    0 -0.16118206136E+03  0.42357852959E+03 -0.81684182856E+03  0.93414614043E+03  0.10566000000E+00 0.  1.
          4    1    3    3  502    0  0.26954854614E+03  0.75624387882E+02  0.19903381429E+03  0.34349661716E+03  0.00000000000E+00 0.  1.
         13    1    4    4    0    0  0.23887306525E+03 -0.59323843448E+03 -0.63254536147E+02  0.64264557024E+03  0.10566000000E+00 0. -1.
         -4    1    4    4    0  501 -0.34723955002E+03  0.94035517003E+02 -0.83990479280E+03  0.91370566624E+03  0.00000000000E+00 0. -1.
<mgrwt>
<rscale>  2 0.11905820E+04</rscale>
<asrwt>0</asrwt>
<pdfrwt beam="2">  1        2 0.33499702E+00 0.11905820E+04</pdfrwt>
<pdfrwt beam="1">  1       -2 0.10100205E+00 0.11905820E+04</pdfrwt>
<totfact> 0.65393998E+00</totfact>
</mgrwt>
</event>
<event>
 8    1  0.1449514E-005  0.1281973E+04  0.7818608E-02  0.8547265E-01
          2   -1    0    0  502    0  0.00000000000E+00  0.00000000000E+00  0.29592792813E+04  0.29592792813E+04  0.00000000000E+00 0. -1.
         -2   -1    0    0    0  501 -0.00000000000E+00 -0.00000000000E+00 -0.55748362375E+03  0.55748362375E+03  0.00000000000E+00 0.  1.
    9000010    2    1    2  502    0 -0.66505760610E+03 -0.41893077449E+03  0.13070798039E+04  0.18290456236E+04  0.10095274470E+04 0.  0.
   -9000010    2    1    2    0  501  0.66505760610E+03  0.41893077449E+03  0.10947158536E+04  0.16877172814E+04  0.10159636846E+04 0.  0.
        -13    1    3    3    0    0  0.13122442346E+03  0.23578076486E+01  0.76816007499E+03  0.77929155041E+03  0.10566000000E+00 0.  1.
          4    1    3    3  502    0 -0.79628202956E+03 -0.42128858214E+03  0.53891972893E+03  0.10497540732E+04  0.00000000000E+00 0.  1.
         13    1    4    4    0    0  0.27327785270E+03  0.69012902069E+03  0.39402975667E+03  0.84036796124E+03  0.10566000000E+00 0. -1.
         -4    1    4    4    0  501  0.39177975340E+03 -0.27119824620E+03  0.70068609692E+03  0.84734932014E+03  0.00000000000E+00 0. -1.
<mgrwt>
<rscale>  2 0.12819733E+04</rscale>
<asrwt>0</asrwt>
<pdfrwt beam="1">  1        2 0.45527373E+00 0.12819733E+04</pdfrwt>
<pdfrwt beam="2">  1       -2 0.85766713E-01 0.12819733E+04</pdfrwt>
<totfact> 0.33865858E+00</totfact>
</mgrwt>
</event>
<event>
 8    1  0.1449514E-005  0.1042476E+04  0.7818608E-02  0.8735674E-01
         -3   -1    0    0    0  501 -0.00000000000E+00  0.00000000000E+00  0.16269055406E+04  0.16269055406E+04  0.00000000000E+00 0. -1.
          3   -1    0    0  502    0  0.00000000000E+00 -0.00000000000E+00 -0.67502872513E+03  0.67502872513E+03  0.00000000000E+00 0.  1.
    9000010    2    1    2  502    0 -0.31274250849E+03 -0.39857659028E+02  0.36414812742E+03  0.11149320798E+04  0.10055213445E+04 0.  0.
   -9000010    2    1    2    0  501  0.31274250849E+03  0.39857659028E+02  0.58772868809E+03  0.11870021860E+04  0.98191276047E+03 0.  0.
        -13    1    3    3    0    0 -0.38591276287E+03 -0.42083564158E+03  0.43848802472E+03  0.71993267515E+03  0.10566000000E+00 0.  1.
          4    1    3    3  502    0  0.73170254381E+02  0.38097798255E+03 -0.74339897299E+02  0.39499940461E+03  0.00000000000E+00 0.  1.
         13    1    4    4    0    0 -0.27165978201E+03 -0.13544427097E+03  0.47926363297E+03  0.56730752573E+03  0.10566000000E+00 0. -1.
         -4    1    4    4    0  501  0.58440229049E+03  0.17530193000E+03  0.10846505513E+03  0.61969466028E+03  0.00000000000E+00 0. -1.
<mgrwt>
<rscale>  2 0.10424760E+04</rscale>
<asrwt>0</asrwt>
<pdfrwt beam="2">  1        3 0.10385057E+00 0.10424760E+04</pdfrwt>
<pdfrwt beam="1">  1       -3 0.25029316E+00 0.10424760E+04</pdfrwt>
<totfact> 0.58495099E-02</totfact>
</mgrwt>
</event>
<event>
 8    1  0.1449514E-005  0.1053318E+04  0.7818608E-02  0.8726045E-01
         -2   -1    0    0    0  501 -0.00000000000E+00  0.00000000000E+00  0.11558772360E+04  0.11558772360E+04  0.00000000000E+00 0.  1.
          2   -1    0    0  502    0  0.00000000000E+00 -0.00000000000E+00 -0.10067271411E+04  0.10067271411E+04  0.00000000000E+00 0. -1.
    9000010    2    1    2  502    0 -0.36540657249E+03 -0.33098950722E+02 -0.15921104974E+03  0.10540030256E+04  0.97517009584E+03 0.  0.
   -9000010    2    1    2    0  501  0.36540657249E+03  0.33098950722E+02  0.30836114471E+03  0.11086013515E+04  0.99964636612E+03 0.  0.
        -13    1    3    3    0    0  0.18982285889E+03  0.23974668903E+03 -0.29027061799E+03  0.42162570544E+03  0.10566000000E+00 0.  1.
          4    1    3    3  502    0 -0.55522943138E+03 -0.27284563976E+03  0.13105956825E+03  0.63237732014E+03  0.00000000000E+00 0.  1.
         13    1    4    4    0    0  0.22071130105E+03 -0.34230061830E+03 -0.20532653205E+03  0.45611641894E+03  0.10566000000E+00 0. -1.
         -4    1    4    4    0  501  0.14469527144E+03  0.37539956902E+03  0.51368767677E+03  0.65248493259E+03  0.00000000000E+00 0. -1.
<mgrwt>
<rscale>  2 0.10533181E+04</rscale>
<asrwt>0</asrwt>
<pdfrwt beam="2">  1        2 0.15488110E+00 0.10533181E+04</pdfrwt>
<pdfrwt beam="1">  1       -2 0.17782727E+00 0.10533181E+04</pdfrwt>
<totfact> 0.58852637E+00</totfact>
</mgrwt>
</event>
<event>
 8    1  0.1449514E-005  0.1317800E+04  0.7818608E-02  0.8522771E-01
         -1   -1    0    0    0  501 -0.00000000000E+00  0.00000000000E+00  0.13720954481E+04  0.13720954481E+04  0.00000000000E+00 0. -1.
          1   -1    0    0  502    0  0.00000000000E+00 -0.00000000000E+00 -0.12657074089E+04  0.12657074089E+04  0.00000000000E+00 0.  1.
    9000010    2    1    2  502    0  0.77735244441E+03 -0.40117061360E+03  0.60873311287E+02  0.13155864837E+04  0.98073826888E+03 0.  0.
   -9000010    2    1    2    0  501 -0.77735244441E+03  0.40117061360E+03  0.45514727913E+02  0.13222163733E+04  0.99043922745E+03 0.  0.
        -13    1    3    3    0    0  0.41315082174E+03 -0.62121702224E+02 -0.44195381133E+03  0.60817422660E+03  0.10566000000E+00 0.  1.
          4    1    3    3  502    0  0.36420162267E+03 -0.33904891137E+03  0.50282712262E+03  0.70741225710E+03  0.00000000000E+00 0.  1.
         13    1    4    4    0    0  0.12604848826E+03 -0.13333520322E+03  0.18824767656E+03  0.26287581993E+03  0.10566000000E+00 0. -1.
         -4    1    4    4    0  501 -0.90340093266E+03  0.53450581681E+03 -0.14273294864E+03  0.10593405534E+04  0.00000000000E+00 0. -1.
<mgrwt>
<rscale>  2 0.13178001E+04</rscale>
<asrwt>0</asrwt>
<pdfrwt beam="2">  1        1 0.19472422E+00 0.13178001E+04</pdfrwt>
<pdfrwt beam="1">  1       -1 0.21109161E+00 0.13178001E+04</pdfrwt>
<totfact> 0.13773429E+00</totfact>
</mgrwt>
</event>
<event>
 8    1  0.1449514E-005  0.1517187E+04  0.7818608E-02  0.8399676E-01
          1   -1    0    0  502    0  0.00000000000E+00  0.00000000000E+00  0.23636444554E+04  0.23636444554E+04  0.00000000000E+00 0.  1.
         -1   -1    0    0    0  501 -0.00000000000E+00 -0.00000000000E+00 -0.98477687457E+03  0.98477687457E+03  0.00000000000E+00 0. -1.
    9000010    2    1    2  502    0 -0.96330701501E+03  0.65222489614E+03  0.85734424312E+03  0.17283849571E+04  0.94811269821E+03 0.  0.
   -9000010    2    1    2    0  501  0.96330701501E+03 -0.65222489614E+03  0.52152333775E+03  0.16200363729E+04  0.99958668326E+03 0.  0.
        -13    1    3    3    0    0 -0.21331220839E+03 -0.23650476572E+02  0.66741228011E+03  0.70107104212E+03  0.10566000000E+00 0.  1.
          4    1    3    3  502    0 -0.74999480662E+03  0.67587537271E+03  0.18993196301E+03  0.10273139150E+04  0.00000000000E+00 0.  1.
         13    1    4    4    0    0  0.17424978496E+03 -0.53910207298E+03  0.59246435461E+03  0.81976097449E+03  0.10566000000E+00 0. -1.
         -4    1    4    4    0  501  0.78905723004E+03 -0.11312282315E+03 -0.70941016855E+02  0.80027539839E+03  0.00000000000E+00 0. -1.
<mgrwt>
<rscale>  2 0.15171874E+04</rscale>
<asrwt>0</asrwt>
<pdfrwt beam="1">  1        1 0.36363761E+00 0.15171874E+04</pdfrwt>
<pdfrwt beam="2">  1       -1 0.15150413E+00 0.15171874E+04</pdfrwt>
<totfact> 0.64282295E-01</totfact>
</mgrwt>
</event>
<event>
 8    1  0.1449514E-005  0.1485330E+04  0.7818608E-02  0.8417992E-01
          2   -1    0    0  502    0  0.00000000000E+00  0.00000000000E+00  0.18761088333E+04  0.18761088333E+04  0.00000000000E+00 0. -1.
         -2   -1    0    0    0  501 -0.00000000000E+00 -0.00000000000E+00 -0.11778037875E+04  0.11778037875E+04  0.00000000000E+00 0.  1.
    9000010    2    1    2  502    0  0.82633329829E+03  0.64841678026E+03  0.30963004323E+03  0.15529837814E+04  0.11011888216E+04 0.  0.
   -9000010    2    1    2    0  501 -0.82633329829E+03 -0.64841678026E+03  0.38867500252E+03  0.15009288394E+04  0.99922373996E+03 0.  0.
        -13    1    3    3    0    0  0.44582663891E+03  0.20469592258E+03 -0.40044966393E+03  0.63326278683E+03  0.10566000000E+00 0.  1.
          4    1    3    3  502    0  0.38050665938E+03  0.44372085769E+03  0.71007970715E+03  0.91972099459E+03  0.00000000000E+00 0.  1.
         13    1    4    4    0    0 -0.10286980856E+04 -0.46129153457E+03  0.45776111735E+03  0.12167805401E+04  0.10566000000E+00 0. -1.
         -4    1    4    4    0  501  0.20236478727E+03 -0.18712524569E+03 -0.69086114835E+02  0.28414829925E+03  0.00000000000E+00 0. -1.
<mgrwt>
<rscale>  2 0.14853303E+04</rscale>
<asrwt>0</asrwt>
<pdfrwt beam="1">  1        2 0.28863213E+00 0.14853303E+04</pdfrwt>
<pdfrwt beam="2">  1       -2 0.18120058E+00 0.14853303E+04</pdfrwt>
<totfact> 0.17234247E+00</totfact>
</mgrwt>
</event>
<event>
 8    1  0.1449514E-005  0.1558150E+04  0.7818608E-02  0.8376798E-01
         -2   -1    0    0    0  501 -0.00000000000E+00  0.00000000000E+00  0.10826680487E+04  0.10826680487E+04  0.00000000000E+00 0.  1.
          2   -1    0    0  502    0  0.00000000000E+00 -0.00000000000E+00 -0.24754986805E+04  0.24754986805E+04  0.00000000000E+00 0. -1.
    9000010    2    1    2  502    0 -0.10907303338E+04  0.30981858117E+03 -0.17137794134E+03  0.16133349785E+04  0.11348123808E+04 0.  0.
   -9000010    2    1    2    0  501  0.10907303338E+04 -0.30981858117E+03 -0.12214526904E+04  0.19448317507E+04  0.10023690184E+04 0.  0.
        -13    1    3    3    0    0 -0.60917817100E+03  0.10407971101E+03 -0.65498932044E+03  0.90052298767E+03  0.10566000000E+00 0.  1.
          4    1    3    3  502    0 -0.48155216284E+03  0.20573887017E+03  0.48361137910E+03  0.71281199080E+03  0.00000000000E+00 0.  1.
         13    1    4    4    0    0  0.26026676981E+03 -0.29493403089E+03 -0.10155890985E+04  0.10891033478E+04  0.10566000000E+00 0. -1.
         -4    1    4    4    0  501  0.83046356403E+03 -0.14884550285E+02 -0.20586359195E+03  0.85572840288E+03  0.00000000000E+00 0. -1.
<mgrwt>
<rscale>  2 0.15581495E+04</rscale>
<asrwt>0</asrwt>
<pdfrwt beam="2">  1        2 0.38084594E+00 0.15581495E+04</pdfrwt>
<pdfrwt beam="1">  1       -2 0.16656432E+00 0.15581495E+04</pdfrwt>
<totfact> 0.10607115E+00</totfact>
</mgrwt>
</event>
<event>
 8    1  0.1449514E-005  0.1293176E+04  0.7818608E-02  0.8539518E-01
          2   -1    0    0  502    0  0.00000000000E+00  0.00000000000E+00  0.24568588095E+04  0.24568588095E+04  0.00000000000E+00 0.  1.
         -2   -1    0    0    0  501 -0.00000000000E+00 -0.00000000000E+00 -0.69850805017E+03  0.69850805017E+03  0.00000000000E+00 0. -1.
    9000010    2    1    2  502    0 -0.62199935298E+03 -0.47589832067E+03  0.61273296775E+03  0.14093609903E+04  0.99874636642E+03 0.  0.
   -9000010    2    1    2    0  501  0.62199935298E+03  0.47589832067E+03  0.11456177916E+04  0.17460058694E+04  0.10595914141E+04 0.  0.
        -13    1    3    3    0    0 -0.12979561962E+03  0.19293457414E+03  0.52515487069E+03  0.57433291926E+03  0.10566000000E+00 0.  1.
          4    1    3    3  502    0 -0.49220373336E+03 -0.66883289480E+03  0.87578097058E+02  0.83502807102E+03  0.00000000000E+00 0.  1.
         13    1    4    4    0    0  0.75949731966E+03  0.30420275102E+03  0.29867762115E+03  0.87096717781E+03  0.10566000000E+00 0. -1.
         -4    1    4    4    0  501 -0.13749796667E+03  0.17169556965E+03  0.84694017043E+03  0.87503869158E+03  0.00000000000E+00 0. -1.
<mgrwt>
<rscale>  2 0.12931761E+04</rscale>
<asrwt>0</asrwt>
<pdfrwt beam="1">  1        2 0.37797827E+00 0.12931761E+04</pdfrwt>
<pdfrwt beam="2">  1       -2 0.10746278E+00 0.12931761E+04</pdfrwt>
<totfact> 0.38998206E+00</totfact>
</mgrwt>
</event>
<event>
 8    1  0.1449514E-005  0.1239379E+04  0.7818608E-02  0.8577485E-01
         -2   -1    0    0    0  501 -0.00000000000E+00  0.00000000000E+00  0.90111196221E+03  0.90111196221E+03  0.00000000000E+00 0.  1.
          2   -1    0    0  502    0  0.00000000000E+00 -0.00000000000E+00 -0.19655791821E+04  0.19655791821E+04  0.00000000000E+00 0. -1.
    9000010    2    1    2  502    0 -0.42813511067E+03  0.62212239255E+03 -0.10467223485E+04  0.16074660278E+04  0.95811450848E+03 0.  0.
   -9000010    2    1    2    0  501  0.42813511067E+03 -0.62212239255E+03 -0.17744871386E+02  0.12592251165E+04  0.10074706295E+04 0.  0.
        -13    1    3    3    0    0  0.12719999921E+02 -0.24584609730E+03 -0.19754628065E+03  0.31563688967E+03  0.10566000000E+00 0.  1.
          4    1    3    3  502    0 -0.44085511059E+03  0.86796848985E+03 -0.84917606784E+03  0.12918291381E+04  0.00000000000E+00 0.  1.
         13    1    4    4    0    0  0.99665406121E+02 -0.79059559022E+03 -0.23512953447E+03  0.83081916781E+03  0.10566000000E+00 0. -1.
         -4    1    4    4    0  501  0.32846970455E+03  0.16847319767E+03  0.21738466308E+03  0.42840594870E+03  0.00000000000E+00 0. -1.
<mgrwt>
<rscale>  2 0.12393791E+04</rscale>
<asrwt>0</asrwt>
<pdfrwt beam="2">  1        2 0.30239679E+00 0.12393791E+04</pdfrwt>
<pdfrwt beam="1">  1       -2 0.13863261E+00 0.12393791E+04</pdfrwt>
<totfact> 0.36900048E+00</totfact>
</mgrwt>
</event>
<event>
 8    1  0.1449514E-005  0.1145956E+04  0.7818608E-02  0.8648409E-01
          1   -1    0    0  502    0  0.00000000000E+00  0.00000000000E+00  0.64013985812E+03  0.64013985812E+03  0.00000000000E+00 0. -1.
         -1   -1    0    0    0  501 -0.00000000000E+00 -0.00000000000E+00 -0.34099897793E+04  0.34099897793E+04  0.00000000000E+00 0.  1.
    9000010    2    1    2  502    0  0.54572378479E+03  0.94489157093E+02 -0.26621524466E+04  0.28977954963E+04  0.10017087598E+04 0.  0.
   -9000010    2    1    2    0  501 -0.54572378479E+03 -0.94489157093E+02 -0.10769747462E+03  0.11523341411E+04  0.10047549834E+04 0.  0.
        -13    1    3    3    0    0  0.58889820918E+03  0.47156884321E+03 -0.19492234802E+04  0.20901316853E+04  0.10566000000E+00 0.  1.
          4    1    3    3  502    0 -0.43174424383E+02 -0.37707968611E+03 -0.71292896636E+03  0.80766381105E+03  0.00000000000E+00 0.  1.
         13    1    4    4    0    0  0.73662384814E+02  0.26291748714E+03 -0.30613193379E+03  0.41020546563E+03  0.10566000000E+00 0. -1.
         -4    1    4    4    0  501 -0.61938616961E+03 -0.35740664424E+03  0.19843445917E+03  0.74212867552E+03  0.00000000000E+00 0. -1.
<mgrwt>
<rscale>  2 0.11459562E+04</rscale>
<asrwt>0</asrwt>
<pdfrwt beam="1">  1        1 0.98483056E-01 0.11459562E+04</pdfrwt>
<pdfrwt beam="2">  1       -1 0.52461381E+00 0.11459562E+04</pdfrwt>
<totfact> 0.33626220E-01</totfact>
</mgrwt>
</event>
<event>
 8    1  0.1449514E-005  0.1149176E+04  0.7818608E-02  0.8645849E-01
          2   -1    0    0  502    0  0.00000000000E+00  0.00000000000E+00  0.24109134812E+04  0.24109134812E+04  0.00000000000E+00 0. -1.
         -2   -1    0    0    0  501 -0.00000000000E+00 -0.00000000000E+00 -0.59516141311E+03  0.59516141311E+03  0.00000000000E+00 0.  1.
    9000010    2    1    2  502    0  0.54064090117E+03 -0.16091407501E+03  0.49320425104E+03  0.12622161803E+04  0.10157525924E+04 0.  0.
   -9000010    2    1    2    0  501 -0.54064090117E+03  0.16091407501E+03  0.13225478170E+04  0.17438587140E+04  0.98677482867E+03 0.  0.
        -13    1    3    3    0    0  0.75394596402E+03 -0.21585159200E+02  0.56174232956E+02  0.75634383145E+03  0.10566000000E+00 0.  1.
          4    1    3    3  502    0 -0.21330506286E+03 -0.13932891581E+03  0.43703001808E+03  0.50587234885E+03  0.00000000000E+00 0.  1.
         13    1    4    4    0    0  0.27392245393E+03 -0.70465693430E+02  0.41904424071E+03  0.50556603085E+03  0.10566000000E+00 0. -1.
         -4    1    4    4    0  501 -0.81456335509E+03  0.23137976844E+03  0.90350357634E+03  0.12382926832E+04  0.00000000000E+00 0. -1.
<mgrwt>
<rscale>  2 0.11491763E+04</rscale>
<asrwt>0</asrwt>
<pdfrwt beam="1">  1        2 0.37090976E+00 0.11491763E+04</pdfrwt>
<pdfrwt beam="2">  1       -2 0.91563296E-01 0.11491763E+04</pdfrwt>
<totfact> 0.61714900E+00</totfact>
</mgrwt>
</event>
<event>
 8    1  0.1449514E-005  0.1332422E+04  0.7818608E-02  0.8513004E-01
          2   -1    0    0  502    0  0.00000000000E+00  0.00000000000E+00  0.13714197920E+04  0.13714197920E+04  0.00000000000E+00 0.  1.
         -2   -1    0    0    0  501 -0.00000000000E+00 -0.00000000000E+00 -0.13257946605E+04  0.13257946605E+04  0.00000000000E+00 0. -1.
    9000010    2    1    2  502    0 -0.76871453981E+03 -0.44225488695E+03 -0.18417316159E+03  0.13488619181E+04  0.99949852021E+03 0.  0.
   -9000010    2    1    2    0  501  0.76871453981E+03  0.44225488695E+03  0.22979829311E+03  0.13483525345E+04  0.98931080705E+03 0.  0.
        -13    1    3    3    0    0 -0.93902927250E+03 -0.43408080863E+03  0.76548396658E+02  0.10373339825E+04  0.10566000000E+00 0.  1.
          4    1    3    3  502    0  0.17031473269E+03 -0.81740783108E+01 -0.26072155825E+03  0.31152793561E+03  0.00000000000E+00 0.  1.
         13    1    4    4    0    0 -0.19958983655E+03  0.27110510355E+02 -0.12454108008E+03  0.23681548602E+03  0.10566000000E+00 0. -1.
         -4    1    4    4    0  501  0.96830437636E+03  0.41514437659E+03  0.35433937319E+03  0.11115370485E+04  0.00000000000E+00 0. -1.
<mgrwt>
<rscale>  2 0.13324223E+04</rscale>
<asrwt>0</asrwt>
<pdfrwt beam="1">  1        2 0.21098766E+00 0.13324223E+04</pdfrwt>
<pdfrwt beam="2">  1       -2 0.20396841E+00 0.13324223E+04</pdfrwt>
<totfact> 0.21409427E+00</totfact>
</mgrwt>
</event>
<event>
 8    1  0.1449514E-005  0.1162563E+04  0.7818608E-02  0.8635299E-01
          2   -1    0    0  502    0  0.00000000000E+00  0.00000000000E+00  0.44141932675E+04  0.44141932675E+04  0.00000000000E+00 0. -1.
         -2   -1    0    0    0  501 -0.00000000000E+00 -0.00000000000E+00 -0.32053632635E+03  0.32053632635E+03  0.00000000000E+00 0.  1.
    9000010    2    1    2  502    0  0.24582496241E+03  0.66945021947E+03  0.16760722151E+04  0.20794357462E+04  0.10031158675E+04 0.  0.
   -9000010    2    1    2    0  501 -0.24582496241E+03 -0.66945021947E+03  0.24175847260E+04  0.26552938477E+04  0.83503053927E+03 0.  0.
        -13    1    3    3    0    0  0.25828607879E+03  0.42674867138E+03  0.17545313549E+04  0.18240631605E+04  0.10566000000E+00 0.  1.
          4    1    3    3  502    0 -0.12461116382E+02  0.24270154809E+03 -0.78459139813E+02  0.25537258562E+03  0.00000000000E+00 0.  1.
         13    1    4    4    0    0 -0.68057818949E+02 -0.51031662631E+03  0.23522351264E+04  0.24079171553E+04  0.10566000000E+00 0. -1.
         -4    1    4    4    0  501 -0.17776714346E+03 -0.15913359316E+03  0.65349599656E+02  0.24737669240E+03  0.00000000000E+00 0. -1.
<mgrwt>
<rscale>  2 0.11625628E+04</rscale>
<asrwt>0</asrwt>
<pdfrwt beam="1">  1        2 0.67910661E+00 0.11625628E+04</pdfrwt>
<pdfrwt beam="2">  1       -2 0.49313284E-01 0.11625628E+04</pdfrwt>
<totfact> 0.77383762E-01</totfact>
</mgrwt>
</event>
<event>
 8    1  0.1449514E-005  0.1601168E+04  0.7818608E-02  0.8353544E-01
          4   -1    0    0  502    0  0.00000000000E+00  0.00000000000E+00  0.16001264675E+04  0.16001264675E+04  0.00000000000E+00 0.  1.
         -4   -1    0    0    0  501 -0.00000000000E+00 -0.00000000000E+00 -0.18830283754E+04  0.18830283754E+04  0.00000000000E+00 0. -1.
    9000010    2    1    2  502    0  0.32247700571E+03 -0.12103069390E+04  0.53101453686E+03  0.16880385332E+04  0.99933144926E+03 0.  0.
   -9000010    2    1    2    0  501 -0.32247700571E+03  0.12103069390E+04 -0.81391644469E+03  0.17951163097E+04  0.99556430252E+03 0.  0.
        -13    1    3    3    0    0  0.58764441500E+03 -0.90328061318E+03  0.78747966077E+02  0.10804827985E+04  0.10566000000E+00 0.  1.
          4    1    3    3  502    0 -0.26516740929E+03 -0.30702632584E+03  0.45226657078E+03  0.60755573469E+03  0.00000000000E+00 0.  1.
         13    1    4    4    0    0 -0.17743676030E+03  0.92096487166E+03 -0.20392061034E+02  0.93812363048E+03  0.10566000000E+00 0. -1.
         -4    1    4    4    0  501 -0.14504024540E+03  0.28934206735E+03 -0.79352438366E+03  0.85699267919E+03  0.00000000000E+00 0. -1.
<mgrwt>
<rscale>  2 0.16011675E+04</rscale>
<asrwt>0</asrwt>
<pdfrwt beam="1">  1        4 0.24617330E+00 0.16011675E+04</pdfrwt>
<pdfrwt beam="2">  1       -4 0.28969667E+00 0.16011675E+04</pdfrwt>
<totfact> 0.80218235E-02</totfact>
</mgrwt>
</event>
<event>
 8    1  0.1449514E-005  0.1732322E+04  0.7818608E-02  0.8287053E-01
         -1   -1    0    0    0  501 -0.00000000000E+00  0.00000000000E+00  0.10144337123E+04  0.10144337123E+04  0.00000000000E+00 0.  1.
          1   -1    0    0  502    0  0.00000000000E+00 -0.00000000000E+00 -0.29843846505E+04  0.29843846505E+04  0.00000000000E+00 0. -1.
    9000010    2    1    2  502    0  0.67977185074E+03 -0.12232957602E+04 -0.78998536345E+03  0.18899767647E+04  0.99468236677E+03 0.  0.
   -9000010    2    1    2    0  501 -0.67977185074E+03  0.12232957602E+04 -0.11799655747E+04  0.21088415981E+04  0.10470682130E+04 0.  0.
        -13    1    3    3    0    0  0.50241262689E+03 -0.12701073621E+04 -0.93576454888E+03  0.16556710002E+04  0.10566000000E+00 0.  1.
          4    1    3    3  502    0  0.17735922385E+03  0.46811601937E+02  0.14577918543E+03  0.23430576447E+03  0.00000000000E+00 0.  1.
         13    1    4    4    0    0 -0.83606497058E+03  0.43188559919E+03 -0.64679946306E+03  0.11418753708E+04  0.10566000000E+00 0. -1.
         -4    1    4    4    0  501  0.15629311984E+03  0.79141016098E+03 -0.53316611162E+03  0.96696622733E+03  0.00000000000E+00 0. -1.
<mgrwt>
<rscale>  2 0.17323216E+04</rscale>
<asrwt>0</asrwt>
<pdfrwt beam="2">  1        1 0.45913611E+00 0.17323216E+04</pdfrwt>
<pdfrwt beam="1">  1       -1 0.15606672E+00 0.17323216E+04</pdfrwt>
<totfact> 0.14424577E-01</totfact>
</mgrwt>
</event>
<event>
 8    1  0.1449514E-005  0.1149280E+04  0.7818608E-02  0.8645767E-01
         -2   -1    0    0    0  501 -0.00000000000E+00  0.00000000000E+00  0.60629358604E+03  0.60629358604E+03  0.00000000000E+00 0. -1.
          2   -1    0    0  502    0  0.00000000000E+00 -0.00000000000E+00 -0.22050589854E+04  0.22050589854E+04  0.00000000000E+00 0.  1.
    9000010    2    1    2  502    0 -0.44711944698E+03  0.29760948854E+03 -0.63804802074E+03  0.13045777370E+04  0.10031603000E+04 0.  0.
   -9000010    2    1    2    0  501  0.44711944698E+03 -0.29760948854E+03 -0.96071737857E+03  0.15067748344E+04  0.10290312496E+04 0.  0.
        -13    1    3    3    0    0  0.30844030355E+02 -0.33977960021E+03 -0.18666171610E+03  0.38890119356E+03  0.10566000000E+00 0.  1.
          4    1    3    3  502    0 -0.47796347734E+03  0.63738908875E+03 -0.45138630464E+03  0.91567654341E+03  0.00000000000E+00 0.  1.
         13    1    4    4    0    0  0.92812589050E+02  0.29862544295E+03 -0.69848591907E+03  0.76529335694E+03  0.10566000000E+00 0. -1.
         -4    1    4    4    0  501  0.35430685793E+03 -0.59623493149E+03 -0.26223145950E+03  0.74148147749E+03  0.00000000000E+00 0. -1.
<mgrwt>
<rscale>  2 0.11492796E+04</rscale>
<asrwt>0</asrwt>
<pdfrwt beam="2">  1        2 0.33923984E+00 0.11492796E+04</pdfrwt>
<pdfrwt beam="1">  1       -2 0.93275937E-01 0.11492796E+04</pdfrwt>
<totfact> 0.76646441E+00</totfact>
</mgrwt>
</event>
<event>
 8    1  0.1449514E-005  0.1540957E+04  0.7818608E-02  0.8386311E-01
          2   -1    0    0  502    0  0.00000000000E+00  0.00000000000E+00  0.18665196727E+04  0.18665196727E+04  0.00000000000E+00 0. -1.
         -2   -1    0    0    0  501 -0.00000000000E+00 -0.00000000000E+00 -0.13107492895E+04  0.13107492895E+04  0.00000000000E+00 0.  1.
    9000010    2    1    2  502    0  0.79201540400E+03  0.87183245225E+03  0.55017454766E+03  0.16350383081E+04  0.99160375717E+03 0.  0.
   -9000010    2    1    2    0  501 -0.79201540400E+03 -0.87183245225E+03  0.55958355900E+01  0.15422306541E+04  0.99552189933E+03 0.  0.
        -13    1    3    3    0    0  0.53380582094E+02  0.27324274579E+03 -0.26374236837E+03  0.38349854329E+03  0.10566000000E+00 0.  1.
          4    1    3    3  502    0  0.73863482191E+03  0.59858970646E+03  0.81391691603E+03  0.12515397649E+04  0.00000000000E+00 0.  1.
         13    1    4    4    0    0 -0.63175185399E+03 -0.36112156233E+03 -0.43601313061E+03  0.84830810972E+03  0.10566000000E+00 0. -1.
         -4    1    4    4    0  501 -0.16026355001E+03 -0.51071088992E+03  0.44160896620E+03  0.69392254436E+03  0.00000000000E+00 0. -1.
<mgrwt>
<rscale>  2 0.15409568E+04</rscale>
<asrwt>0</asrwt>
<pdfrwt beam="1">  1        2 0.28715687E+00 0.15409568E+04</pdfrwt>
<pdfrwt beam="2">  1       -2 0.20165374E+00 0.15409568E+04</pdfrwt>
<totfact> 0.11718361E+00</totfact>
</mgrwt>
</event>
<event>
 8    1  0.1449514E-005  0.1899915E+04  0.7818608E-02  0.8210404E-01
         -1   -1    0    0    0  501 -0.00000000000E+00  0.00000000000E+00  0.31949695558E+04  0.31949695558E+04  0.00000000000E+00 0.  1.
          1   -1    0    0  502    0  0.00000000000E+00 -0.00000000000E+00 -0.13271918762E+04  0.13271918762E+04  0.00000000000E+00 0. -1.
    9000010    2    1    2  502    0  0.89017340243E+03 -0.13575841199E+04  0.18070584319E+04  0.26240954750E+04  0.99245834005E+03 0.  0.
   -9000010    2    1    2    0  501 -0.89017340243E+03  0.13575841199E+04  0.60719247711E+02  0.18980659570E+04  0.98159269615E+03 0.  0.
        -13    1    3    3    0    0  0.10674960409E+04 -0.97334392342E+03  0.11685330644E+04  0.18580677394E+04  0.10566000000E+00 0.  1.
          4    1    3    3  502    0 -0.17732263849E+03 -0.38424019649E+03  0.63852536751E+03  0.76602773558E+03  0.00000000000E+00 0.  1.
         13    1    4    4    0    0 -0.94849584266E+03  0.14359788179E+04 -0.84509751397E+02  0.17230268246E+04  0.10566000000E+00 0. -1.
         -4    1    4    4    0  501  0.58322440237E+02 -0.78394697974E+02  0.14522899911E+03  0.17503913245E+03  0.00000000000E+00 0. -1.
<mgrwt>
<rscale>  2 0.18999148E+04</rscale>
<asrwt>0</asrwt>
<pdfrwt beam="2">  1        1 0.20418337E+00 0.18999148E+04</pdfrwt>
<pdfrwt beam="1">  1       -1 0.49153377E+00 0.18999148E+04</pdfrwt>
<totfact> 0.10200956E-01</totfact>
</mgrwt>
</event>
<event>
 8    1  0.1449514E-005  0.1323304E+04  0.7818608E-02  0.8519079E-01
          2   -1    0    0  502    0  0.00000000000E+00  0.00000000000E+00  0.19890619539E+04  0.19890619539E+04  0.00000000000E+00 0. -1.
         -2   -1    0    0    0  501 -0.00000000000E+00 -0.00000000000E+00 -0.94994098989E+03  0.94994098989E+03  0.00000000000E+00 0.  1.
    9000010    2    1    2  502    0  0.74169167542E+03  0.40602178070E+03  0.89470380597E+03  0.15563382593E+04  0.95222562926E+03 0.  0.
   -9000010    2    1    2    0  501 -0.74169167542E+03 -0.40602178070E+03  0.14441715799E+03  0.13826646845E+04  0.10844100177E+04 0.  0.
        -13    1    3    3    0    0  0.82241941401E+03  0.35794926571E+03  0.28747413826E+03  0.94188256205E+03  0.10566000000E+00 0.  1.
          4    1    3    3  502    0 -0.80727738593E+02  0.48072514982E+02  0.60722966771E+03  0.61445569720E+03  0.00000000000E+00 0.  1.
         13    1    4    4    0    0  0.19060443173E+03 -0.92712747348E+02 -0.24578487130E+03  0.32455495226E+03  0.10566000000E+00 0. -1.
         -4    1    4    4    0  501 -0.93229610715E+03 -0.31330903335E+03  0.39020202929E+03  0.10581097322E+04  0.00000000000E+00 0. -1.
<mgrwt>
<rscale>  2 0.13233041E+04</rscale>
<asrwt>0</asrwt>
<pdfrwt beam="1">  1        2 0.30600953E+00 0.13233041E+04</pdfrwt>
<pdfrwt beam="2">  1       -2 0.14614477E+00 0.13233041E+04</pdfrwt>
<totfact> 0.30408572E+00</totfact>
</mgrwt>
</event>
<event>
 8    1  0.1449514E-005  0.1141410E+04  0.7818608E-02  0.8652038E-01
          2   -1    0    0  502    0  0.00000000000E+00  0.00000000000E+00  0.86119660614E+03  0.86119660614E+03  0.00000000000E+00 0.  1.
         -2   -1    0    0    0  501 -0.00000000000E+00 -0.00000000000E+00 -0.15223164885E+04  0.15223164885E+04  0.00000000000E+00 0. -1.
    9000010    2    1    2  502    0  0.90433127082E+02  0.54746912075E+03 -0.23714447960E+03  0.11684207979E+04  0.10005343912E+04 0.  0.
   -9000010    2    1    2    0  501 -0.90433127082E+02 -0.54746912075E+03 -0.42397540280E+03  0.12150922968E+04  0.99438099283E+03 0.  0.
        -13    1    3    3    0    0  0.52081906717E+03  0.37962127832E+03  0.98802872705E+01  0.64456376482E+03  0.10566000000E+00 0.  1.
          4    1    3    3  502    0 -0.43038594009E+03  0.16784784243E+03 -0.24702476687E+03  0.52385703306E+03  0.00000000000E+00 0.  1.
         13    1    4    4    0    0 -0.42176509949E+03 -0.91277557680E+02  0.10266459292E+03  0.44357346797E+03  0.10566000000E+00 0. -1.
         -4    1    4    4    0  501  0.33133197240E+03 -0.45619156307E+03 -0.52663999572E+03  0.77151882883E+03  0.00000000000E+00 0. -1.
<mgrwt>
<rscale>  2 0.11414103E+04</rscale>
<asrwt>0</asrwt>
<pdfrwt beam="1">  1        2 0.13249179E+00 0.11414103E+04</pdfrwt>
<pdfrwt beam="2">  1       -2 0.23420253E+00 0.11414103E+04</pdfrwt>
<totfact> 0.24857483E+00</totfact>
</mgrwt>
</event>
<event>
 8    1  0.1449514E-005  0.1251312E+04  0.7818608E-02  0.8568893E-01
         -2   -1    0    0    0  501 -0.00000000000E+00  0.00000000000E+00  0.10249553282E+04  0.10249553282E+04  0.00000000000E+00 0. -1.
          2   -1    0    0  502    0  0.00000000000E+00 -0.00000000000E+00 -0.16711290095E+04  0.16711290095E+04  0.00000000000E+00 0.  1.
    9000010    2    1    2  502    0 -0.38569476836E+03 -0.65577009554E+03 -0.72011754298E+03  0.14517360031E+04  0.10050737657E+04 0.  0.
   -9000010    2    1    2    0  501  0.38569476836E+03  0.65577009554E+03  0.73943861655E+02  0.12443483346E+04  0.98190641640E+03 0.  0.
        -13    1    3    3    0    0 -0.19310277490E+03 -0.31437941781E+03  0.22251589394E+03  0.43085546792E+03  0.10566000000E+00 0.  1.
          4    1    3    3  502    0 -0.19259199346E+03 -0.34139067773E+03 -0.94263343692E+03  0.10208805352E+04  0.00000000000E+00 0.  1.
         13    1    4    4    0    0  0.63333983534E+03  0.44409368262E+03 -0.22143492832E+03  0.80459429815E+03  0.10566000000E+00 0. -1.
         -4    1    4    4    0  501 -0.24764506699E+03  0.21167641292E+03  0.29537878998E+03  0.43975403643E+03  0.00000000000E+00 0. -1.
<mgrwt>
<rscale>  2 0.12513123E+04</rscale>
<asrwt>0</asrwt>
<pdfrwt beam="2">  1        2 0.25709677E+00 0.12513123E+04</pdfrwt>
<pdfrwt beam="1">  1       -2 0.15768544E+00 0.12513123E+04</pdfrwt>
<totfact> 0.36120105E+00</totfact>
</mgrwt>
</event>
<event>
 8    1  0.1449514E-005  0.1239704E+04  0.7818608E-02  0.8577250E-01
          2   -1    0    0  502    0  0.00000000000E+00  0.00000000000E+00  0.14133728780E+04  0.14133728780E+04  0.00000000000E+00 0. -1.
         -2   -1    0    0    0  501 -0.00000000000E+00 -0.00000000000E+00 -0.11125051085E+04  0.11125051085E+04  0.00000000000E+00 0.  1.
    9000010    2    1    2  502    0  0.63933061686E+03  0.24955796300E+03 -0.33883093121E+02  0.12685676477E+04  0.10663456280E+04 0.  0.
   -9000010    2    1    2    0  501 -0.63933061686E+03 -0.24955796300E+03  0.33475086261E+03  0.12573103387E+04  0.99887353219E+03 0.  0.
        -13    1    3    3    0    0 -0.11675138105E+03 -0.16211713399E+03 -0.30621851574E+03  0.36562636757E+03  0.10566000000E+00 0.  1.
          4    1    3    3  502    0  0.75608199790E+03  0.41167509699E+03  0.27233542262E+03  0.90294128018E+03  0.00000000000E+00 0.  1.
         13    1    4    4    0    0 -0.39110746130E+03 -0.57149499532E+03  0.46066699550E+03  0.83173653754E+03  0.10566000000E+00 0. -1.
         -4    1    4    4    0  501 -0.24822315555E+03  0.32193703232E+03 -0.12591613290E+03  0.42557380119E+03  0.00000000000E+00 0. -1.
<mgrwt>
<rscale>  2 0.12397036E+04</rscale>
<asrwt>0</asrwt>
<pdfrwt beam="1">  1        2 0.21744198E+00 0.12397036E+04</pdfrwt>
<pdfrwt beam="2">  1       -2 0.17115463E+00 0.12397036E+04</pdfrwt>
<totfact> 0.38411605E+00</totfact>
</mgrwt>
</event>
<event>
 8    1  0.1449514E-005  0.1896605E+04  0.7818608E-02  0.8211838E-01
          1   -1    0    0  502    0  0.00000000000E+00  0.00000000000E+00  0.15773560564E+04  0.15773560564E+04  0.00000000000E+00 0.  1.
         -1   -1    0    0    0  501 -0.00000000000E+00 -0.00000000000E+00 -0.23984764816E+04  0.23984764816E+04  0.00000000000E+00 0. -1.
    9000010    2    1    2  502    0 -0.37816766897E+03  0.15571989163E+04 -0.85207825858E+03  0.20818022232E+04  0.10197960026E+04 0.  0.
   -9000010    2    1    2    0  501  0.37816766897E+03 -0.15571989163E+04  0.30957833414E+02  0.18940303148E+04  0.10092141474E+04 0.  0.
        -13    1    3    3    0    0 -0.93974377246E+02  0.49579542318E+02  0.19659507241E+03  0.22347024020E+03  0.10566000000E+00 0.  1.
          4    1    3    3  502    0 -0.28419329172E+03  0.15076193740E+04 -0.10486733310E+04  0.18583319830E+04  0.00000000000E+00 0.  1.
         13    1    4    4    0    0  0.56588616008E+03 -0.37273272370E+03 -0.11015934110E+03  0.68650704372E+03  0.10566000000E+00 0. -1.
         -4    1    4    4    0  501 -0.18771849111E+03 -0.11844661926E+04  0.14111717452E+03  0.12075232711E+04  0.00000000000E+00 0. -1.
<mgrwt>
<rscale>  2 0.18966053E+04</rscale>
<asrwt>0</asrwt>
<pdfrwt beam="1">  1        1 0.24267016E+00 0.18966053E+04</pdfrwt>
<pdfrwt beam="2">  1       -1 0.36899638E+00 0.18966053E+04</pdfrwt>
<totfact> 0.72466996E-02</totfact>
</mgrwt>
</event>
<event>
 8    1  0.1449514E-005  0.1202633E+04  0.7818608E-02  0.8604583E-01
         -2   -1    0    0    0  501 -0.00000000000E+00  0.00000000000E+00  0.13087197883E+04  0.13087197883E+04  0.00000000000E+00 0. -1.
          2   -1    0    0  502    0  0.00000000000E+00 -0.00000000000E+00 -0.11140650492E+04  0.11140650492E+04  0.00000000000E+00 0.  1.
    9000010    2    1    2  502    0 -0.25159316394E+02 -0.66063595399E+03  0.20549604350E+03  0.12176333684E+04  0.10016633871E+04 0.  0.
   -9000010    2    1    2    0  501  0.25159316394E+02  0.66063595399E+03 -0.10841304387E+02  0.12051514691E+04  0.10075711760E+04 0.  0.
        -13    1    3    3    0    0  0.84345818935E+02  0.15541086313E+03  0.34012033891E+03  0.38333876617E+03  0.10566000000E+00 0.  1.
          4    1    3    3  502    0 -0.10950513533E+03 -0.81604681712E+03 -0.13462429540E+03  0.83429460223E+03  0.00000000000E+00 0.  1.
         13    1    4    4    0    0  0.35586769587E+03  0.67203298622E+03  0.23161176091E+03  0.79493029285E+03  0.10566000000E+00 0. -1.
         -4    1    4    4    0  501 -0.33070837948E+03 -0.11397032231E+02 -0.24245306529E+03  0.41022117628E+03  0.00000000000E+00 0. -1.
<mgrwt>
<rscale>  2 0.12026326E+04</rscale>
<asrwt>0</asrwt>
<pdfrwt beam="2">  1        2 0.17139462E+00 0.12026326E+04</pdfrwt>
<pdfrwt beam="1">  1       -2 0.20134151E+00 0.12026326E+04</pdfrwt>
<totfact> 0.31930409E+00</totfact>
</mgrwt>
</event>
<event>
 8    1  0.1449514E-005  0.1274912E+04  0.7818608E-02  0.8552190E-01
         -1   -1    0    0    0  501 -0.00000000000E+00  0.00000000000E+00  0.96943603998E+03  0.96943603998E+03  0.00000000000E+00 0. -1.
          1   -1    0    0  502    0  0.00000000000E+00 -0.00000000000E+00 -0.16970474817E+04  0.16970474817E+04  0.00000000000E+00 0.  1.
    9000010    2    1    2  502    0 -0.10554440973E+03 -0.75751997410E+03 -0.51082786285E+03  0.13763362901E+04  0.10239044605E+04 0.  0.
   -9000010    2    1    2    0  501  0.10554440973E+03  0.75751997410E+03 -0.21678357886E+03  0.12901472316E+04  0.10161243160E+04 0.  0.
        -13    1    3    3    0    0  0.43794341196E+03 -0.15841517223E+03 -0.13853294066E+03  0.48588186392E+03  0.10566000000E+00 0.  1.
          4    1    3    3  502    0 -0.54348782169E+03 -0.59910480188E+03 -0.37229492219E+03  0.89045442615E+03  0.00000000000E+00 0.  1.
         13    1    4    4    0    0  0.29890304162E+03  0.12875889126E+03 -0.48140556651E+03  0.58109655910E+03  0.10566000000E+00 0. -1.
         -4    1    4    4    0  501 -0.19335863190E+03  0.62876108284E+03  0.26462198765E+03  0.70905067250E+03  0.00000000000E+00 0. -1.
<mgrwt>
<rscale>  2 0.12749123E+04</rscale>
<asrwt>0</asrwt>
<pdfrwt beam="2">  1        1 0.26108422E+00 0.12749123E+04</pdfrwt>
<pdfrwt beam="1">  1       -1 0.14914401E+00 0.12749123E+04</pdfrwt>
<totfact> 0.23114494E+00</totfact>
</mgrwt>
</event>
<event>
 8    1  0.1449514E-005  0.1638500E+04  0.7818608E-02  0.8333967E-01
         -1   -1    0    0    0  501 -0.00000000000E+00  0.00000000000E+00  0.18487763298E+04  0.18487763298E+04  0.00000000000E+00 0.  1.
          1   -1    0    0  502    0  0.00000000000E+00 -0.00000000000E+00 -0.14571760543E+04  0.14571760543E+04  0.00000000000E+00 0. -1.
    9000010    2    1    2  502    0 -0.96783913197E+03 -0.67087433001E+03  0.24706996409E+03  0.15840035831E+04  0.10301644684E+04 0.  0.
   -9000010    2    1    2    0  501  0.96783913197E+03  0.67087433001E+03  0.14453031136E+03  0.17219488010E+04  0.12479718388E+04 0.  0.
        -13    1    3    3    0    0 -0.47108452202E+03 -0.19717454904E+03 -0.39382983461E+03  0.64490338770E+03  0.10566000000E+00 0.  1.
          4    1    3    3  502    0 -0.49675460995E+03 -0.47369978098E+03  0.64089979871E+03  0.93910019539E+03  0.00000000000E+00 0.  1.
         13    1    4    4    0    0  0.63084750095E+03  0.96987277028E+03  0.37455810798E+03  0.12161067171E+04  0.10566000000E+00 0. -1.
         -4    1    4    4    0  501  0.33699163102E+03 -0.29899844026E+03 -0.23002779662E+03  0.50584208393E+03  0.00000000000E+00 0. -1.
<mgrwt>
<rscale>  2 0.16384999E+04</rscale>
<asrwt>0</asrwt>
<pdfrwt beam="2">  1        1 0.22418093E+00 0.16384999E+04</pdfrwt>
<pdfrwt beam="1">  1       -1 0.28442713E+00 0.16384999E+04</pdfrwt>
<totfact> 0.18940909E-01</totfact>
</mgrwt>
</event>
<event>
 8    1  0.1449514E-005  0.1120126E+04  0.7818608E-02  0.8669266E-01
          2   -1    0    0  502    0  0.00000000000E+00  0.00000000000E+00  0.20299993603E+04  0.20299993603E+04  0.00000000000E+00 0. -1.
         -2   -1    0    0    0  501 -0.00000000000E+00 -0.00000000000E+00 -0.12089737310E+04  0.12089737310E+04  0.00000000000E+00 0.  1.
    9000010    2    1    2  502    0  0.12158272211E+03 -0.49326557248E+03  0.15425262798E+04  0.19057087597E+04  0.99711848326E+03 0.  0.
   -9000010    2    1    2    0  501 -0.12158272211E+03  0.49326557248E+03 -0.72150065050E+03  0.13332643315E+04  0.99946851160E+03 0.  0.
        -13    1    3    3    0    0  0.15507788177E+03 -0.76945338026E+03  0.83777512919E+03  0.11480308498E+04  0.10566000000E+00 0.  1.
          4    1    3    3  502    0 -0.33495159660E+02  0.27618780779E+03  0.70475115065E+03  0.75767790996E+03  0.00000000000E+00 0.  1.
         13    1    4    4    0    0  0.85513583832E+02  0.15451793470E+03  0.23712902884E+03  0.29566628595E+03  0.10566000000E+00 0. -1.
         -4    1    4    4    0  501 -0.20709630595E+03  0.33874763777E+03 -0.95862967934E+03  0.10375980456E+04  0.00000000000E+00 0. -1.
<mgrwt>
<rscale>  2 0.11201261E+04</rscale>
<asrwt>0</asrwt>
<pdfrwt beam="1">  1        2 0.31230759E+00 0.11201261E+04</pdfrwt>
<pdfrwt beam="2">  1       -2 0.18599596E+00 0.11201261E+04</pdfrwt>
<totfact> 0.13517175E+00</totfact>
</mgrwt>
</event>
<event>
 8    1  0.1449514E-005  0.1077661E+04  0.7818608E-02  0.8704861E-01
         -2   -1    0    0    0  501 -0.00000000000E+00  0.00000000000E+00  0.53261500557E+03  0.53261500557E+03  0.00000000000E+00 0. -1.
          2   -1    0    0  502    0  0.00000000000E+00 -0.00000000000E+00 -0.26555978394E+04  0.26555978394E+04  0.00000000000E+00 0.  1.
    9000010    2    1    2  502    0  0.35787885484E+03  0.22170873110E+03 -0.17347772553E+04  0.20416084151E+04  0.99069710755E+03 0.  0.
   -9000010    2    1    2    0  501 -0.35787885484E+03 -0.22170873110E+03 -0.38820557852E+03  0.11466044299E+04  0.99336101755E+03 0.  0.
        -13    1    3    3    0    0  0.73019941880E+02  0.46409579983E+03 -0.29661625748E+03  0.55560601031E+03  0.10566000000E+00 0.  1.
          4    1    3    3  502    0  0.28485891296E+03 -0.24238706873E+03 -0.14381609978E+04  0.14860024048E+04  0.00000000000E+00 0.  1.
         13    1    4    4    0    0 -0.32480362230E+03 -0.54634697387E+03  0.50085267826E+01  0.63562371370E+03  0.10566000000E+00 0. -1.
         -4    1    4    4    0  501 -0.33075232544E+02  0.32463824277E+03 -0.39321410530E+03  0.51098071616E+03  0.00000000000E+00 0. -1.
<mgrwt>
<rscale>  2 0.10776606E+04</rscale>
<asrwt>0</asrwt>
<pdfrwt beam="2">  1        2 0.40855352E+00 0.10776606E+04</pdfrwt>
<pdfrwt beam="1">  1       -2 0.81940770E-01 0.10776606E+04</pdfrwt>
<totfact> 0.58278976E+00</totfact>
</mgrwt>
</event>
<event>
 8    1  0.1449514E-005  0.1095411E+04  0.7818608E-02  0.8689777E-01
         -2   -1    0    0    0  501 -0.00000000000E+00  0.00000000000E+00  0.11691286227E+04  0.11691286227E+04  0.00000000000E+00 0. -1.
          2   -1    0    0  502    0  0.00000000000E+00 -0.00000000000E+00 -0.12417393731E+04  0.12417393731E+04  0.00000000000E+00 0.  1.
    9000010    2    1    2  502    0  0.39442025293E+03 -0.39051134196E+03  0.46210734774E+03  0.12315789620E+04  0.99758563282E+03 0.  0.
   -9000010    2    1    2    0  501 -0.39442025293E+03  0.39051134196E+03 -0.53471809812E+03  0.11792890337E+04  0.89259886649E+03 0.  0.
        -13    1    3    3    0    0 -0.33086991189E+03 -0.21642938951E+03  0.14584963729E+03  0.42141275146E+03  0.10566000000E+00 0.  1.
          4    1    3    3  502    0  0.72529016482E+03 -0.17408195244E+03  0.31625771046E+03  0.81016621058E+03  0.00000000000E+00 0.  1.
         13    1    4    4    0    0 -0.31924060635E+03 -0.12925465830E+03  0.96968389296E+02  0.35780471087E+03  0.10566000000E+00 0. -1.
         -4    1    4    4    0  501 -0.75179646579E+02  0.51976600026E+03 -0.63168648742E+03  0.82148432284E+03  0.00000000000E+00 0. -1.
<mgrwt>
<rscale>  2 0.10954113E+04</rscale>
<asrwt>0</asrwt>
<pdfrwt beam="2">  1        2 0.19103683E+00 0.10954113E+04</pdfrwt>
<pdfrwt beam="1">  1       -2 0.17986594E+00 0.10954113E+04</pdfrwt>
<totfact> 0.41139356E+00</totfact>
</mgrwt>
</event>
<event>
 8    1  0.1449514E-005  0.1190871E+04  0.7818608E-02  0.8613469E-01
         -2   -1    0    0    0  501 -0.00000000000E+00  0.00000000000E+00  0.33393498805E+04  0.33393498805E+04  0.00000000000E+00 0.  1.
          2   -1    0    0  502    0  0.00000000000E+00 -0.00000000000E+00 -0.43111169825E+03  0.43111169825E+03  0.00000000000E+00 0. -1.
    9000010    2    1    2  502    0 -0.49359091122E+03  0.42737756034E+03  0.12248055288E+04  0.17088032191E+04  0.99678297104E+03 0.  0.
   -9000010    2    1    2    0  501  0.49359091122E+03 -0.42737756034E+03  0.16834326535E+04  0.20616583597E+04  0.99509101426E+03 0.  0.
        -13    1    3    3    0    0  0.15559262652E+02  0.42629711061E+03  0.51363162373E+02  0.42966207976E+03  0.10566000000E+00 0.  1.
          4    1    3    3  502    0 -0.50915017387E+03  0.10804497326E+01  0.11734423664E+04  0.12791411393E+04  0.00000000000E+00 0.  1.
         13    1    4    4    0    0  0.27933692629E+03 -0.46991736561E+02 -0.37935159489E+02  0.28579088366E+03  0.10566000000E+00 0. -1.
         -4    1    4    4    0  501  0.21425398493E+03 -0.38038582378E+03  0.17213678130E+04  0.17758674761E+04  0.00000000000E+00 0. -1.
<mgrwt>
<rscale>  2 0.11908710E+04</rscale>
<asrwt>0</asrwt>
<pdfrwt beam="2">  1        2 0.66324879E-01 0.11908710E+04</pdfrwt>
<pdfrwt beam="1">  1       -2 0.51374612E+00 0.11908710E+04</pdfrwt>
<totfact> 0.29599782E-01</totfact>
</mgrwt>
</event>
<event>
 8    1  0.1449514E-005  0.1177293E+04  0.7818608E-02  0.8623860E-01
          2   -1    0    0  502    0  0.00000000000E+00  0.00000000000E+00  0.16284354409E+04  0.16284354409E+04  0.00000000000E+00 0. -1.
         -2   -1    0    0    0  501 -0.00000000000E+00 -0.00000000000E+00 -0.94396599691E+03  0.94396599691E+03  0.00000000000E+00 0.  1.
    9000010    2    1    2  502    0  0.45304419475E+03 -0.16096140617E+03  0.75707072996E+03  0.14676884197E+04  0.11618070367E+04 0.  0.
   -9000010    2    1    2    0  501 -0.45304419475E+03  0.16096140617E+03 -0.72601285967E+02  0.11047130181E+04  0.99194873307E+03 0.  0.
        -13    1    3    3    0    0  0.10596191833E+03  0.23958366111E+03  0.88458615492E+03  0.92256215804E+03  0.10566000000E+00 0.  1.
          4    1    3    3  502    0  0.34708227642E+03 -0.40054506728E+03 -0.12751542496E+03  0.54512626164E+03  0.00000000000E+00 0.  1.
         13    1    4    4    0    0  0.49999538880E+02 -0.25318577841E+03  0.26581001484E+03  0.37048342396E+03  0.10566000000E+00 0. -1.
         -4    1    4    4    0  501 -0.50304373363E+03  0.41414718459E+03 -0.33841130081E+03  0.73422959417E+03  0.00000000000E+00 0. -1.
<mgrwt>
<rscale>  2 0.11772929E+04</rscale>
<asrwt>0</asrwt>
<pdfrwt beam="1">  1        2 0.25052853E+00 0.11772929E+04</pdfrwt>
<pdfrwt beam="2">  1       -2 0.14522554E+00 0.11772929E+04</pdfrwt>
<totfact> 0.49482537E+00</totfact>
</mgrwt>
</event>
<event>
 8    1  0.1449514E-005  0.1451985E+04  0.7818608E-02  0.8437680E-01
         -2   -1    0    0    0  501 -0.00000000000E+00  0.00000000000E+00  0.87101274219E+03  0.87101274219E+03  0.00000000000E+00 0.  1.
          2   -1    0    0  502    0  0.00000000000E+00 -0.00000000000E+00 -0.24214671484E+04  0.24214671484E+04  0.00000000000E+00 0. -1.
    9000010    2    1    2  502    0 -0.39102593326E+03  0.98693377829E+03 -0.81034511416E+03  0.16660112802E+04  0.99598936672E+03 0.  0.
   -9000010    2    1    2    0  501  0.39102593326E+03 -0.98693377829E+03 -0.74010929202E+03  0.16264686103E+04  0.98524048488E+03 0.  0.
        -13    1    3    3    0    0 -0.18788689294E+03  0.63197000758E+01  0.17807341060E+03  0.25894318658E+03  0.10566000000E+00 0.  1.
          4    1    3    3  502    0 -0.20313904032E+03  0.98061407822E+03 -0.98841852476E+03  0.14070680937E+04  0.00000000000E+00 0.  1.
         13    1    4    4    0    0 -0.17918043564E+03 -0.31829603536E+03 -0.64674996271E+03  0.74276747376E+03  0.10566000000E+00 0. -1.
         -4    1    4    4    0  501  0.57020636890E+03 -0.66863774293E+03 -0.93359329309E+02  0.88370113657E+03  0.00000000000E+00 0. -1.
<mgrwt>
<rscale>  2 0.14519847E+04</rscale>
<asrwt>0</asrwt>
<pdfrwt beam="2">  1        2 0.37253341E+00 0.14519847E+04</pdfrwt>
<pdfrwt beam="1">  1       -2 0.13400196E+00 0.14519847E+04</pdfrwt>
<totfact> 0.22342748E+00</totfact>
</mgrwt>
</event>
<event>
 8    1  0.1449514E-005  0.1104415E+04  0.7818608E-02  0.8682240E-01
          2   -1    0    0  502    0  0.00000000000E+00  0.00000000000E+00  0.28597910302E+04  0.28597910302E+04  0.00000000000E+00 0.  1.
         -2   -1    0    0    0  501 -0.00000000000E+00 -0.00000000000E+00 -0.57163189198E+03  0.57163189198E+03  0.00000000000E+00 0. -1.
    9000010    2    1    2  502    0 -0.11350880133E+03  0.44310299961E+03  0.29464368675E+03  0.11614220162E+04  0.10260904840E+04 0.  0.
   -9000010    2    1    2    0  501  0.11350880133E+03 -0.44310299961E+03  0.19935154514E+04  0.22700009059E+04  0.98467037198E+03 0.  0.
        -13    1    3    3    0    0 -0.18592895995E+03  0.58283836922E+03  0.57521138641E+03  0.83972512943E+03  0.10566000000E+00 0.  1.
          4    1    3    3  502    0  0.72420158622E+02 -0.13973536961E+03 -0.28056769966E+03  0.32169688681E+03  0.00000000000E+00 0.  1.
         13    1    4    4    0    0 -0.37451215415E+03 -0.39587151025E+03  0.70299939689E+03  0.88948399054E+03  0.10566000000E+00 0. -1.
         -4    1    4    4    0  501  0.48802095548E+03 -0.47231489358E+02  0.12905160545E+04  0.13805169154E+04  0.00000000000E+00 0. -1.
<mgrwt>
<rscale>  2 0.11044150E+04</rscale>
<asrwt>0</asrwt>
<pdfrwt beam="1">  1        2 0.43996784E+00 0.11044150E+04</pdfrwt>
<pdfrwt beam="2">  1       -2 0.87943370E-01 0.11044150E+04</pdfrwt>
<totfact> 0.37604895E+00</totfact>
</mgrwt>
</event>
<event>
 8    1  0.1449514E-005  0.2864466E+04  0.7818608E-02  0.7886035E-01
         -4   -1    0    0    0  501 -0.00000000000E+00  0.00000000000E+00  0.37072944458E+04  0.37072944458E+04  0.00000000000E+00 0.  1.
          4   -1    0    0  502    0  0.00000000000E+00 -0.00000000000E+00 -0.25247117958E+04  0.25247117958E+04  0.00000000000E+00 0. -1.
    9000010    2    1    2  502    0 -0.16754405701E+04 -0.20939664099E+04 -0.50251294617E+03  0.29116847865E+04  0.10166575651E+04 0.  0.
   -9000010    2    1    2    0  501  0.16754405701E+04  0.20939664099E+04  0.16850955962E+04  0.33203214552E+04  0.99658966855E+03 0.  0.
        -13    1    3    3    0    0 -0.16173492855E+04 -0.13200909805E+04 -0.43644268900E+03  0.21328246857E+04  0.10566000000E+00 0.  1.
          4    1    3    3  502    0 -0.58091284613E+02 -0.77387542945E+03 -0.66070257168E+02  0.77886010075E+03  0.00000000000E+00 0.  1.
         13    1    4    4    0    0  0.85349770877E+03  0.78033383510E+03  0.12667926412E+04  0.17152675710E+04  0.10566000000E+00 0. -1.
         -4    1    4    4    0  501  0.82194286133E+03  0.13136325748E+04  0.41830295498E+03  0.16050538842E+04  0.00000000000E+00 0. -1.
<mgrwt>
<rscale>  2 0.28644656E+04</rscale>
<asrwt>0</asrwt>
<pdfrwt beam="2">  1        4 0.38841720E+00 0.28644656E+04</pdfrwt>
<pdfrwt beam="1">  1       -4 0.57035299E+00 0.28644656E+04</pdfrwt>
<totfact> 0.17722472E-03</totfact>
</mgrwt>
</event>
<event>
 8    1  0.1449514E-005  0.1363592E+04  0.7818608E-02  0.8492606E-01
         -2   -1    0    0    0  501 -0.00000000000E+00  0.00000000000E+00  0.79897980268E+03  0.79897980268E+03  0.00000000000E+00 0.  1.
          2   -1    0    0  502    0  0.00000000000E+00 -0.00000000000E+00 -0.24820824979E+04  0.24820824979E+04  0.00000000000E+00 0. -1.
    9000010    2    1    2  502    0  0.87446926654E+02  0.91096256449E+03 -0.12496300382E+04  0.18474040780E+04  0.10068896843E+04 0.  0.
   -9000010    2    1    2    0  501 -0.87446926654E+02 -0.91096256449E+03 -0.43347265711E+03  0.14336582226E+04  0.10148781188E+04 0.  0.
        -13    1    3    3    0    0 -0.45553148922E+03  0.35069002221E+03 -0.44861035878E+03  0.72920757986E+03  0.10566000000E+00 0.  1.
          4    1    3    3  502    0  0.54297841587E+03  0.56027254228E+03 -0.80101967937E+03  0.11181964981E+04  0.00000000000E+00 0.  1.
         13    1    4    4    0    0 -0.35086714020E+03 -0.82405394482E+03 -0.62885934468E+03  0.10943659080E+04  0.10566000000E+00 0. -1.
         -4    1    4    4    0  501  0.26342021355E+03 -0.86908619666E+02  0.19538668756E+03  0.33929231461E+03  0.00000000000E+00 0. -1.
<mgrwt>
<rscale>  2 0.13635925E+04</rscale>
<asrwt>0</asrwt>
<pdfrwt beam="2">  1        2 0.38185885E+00 0.13635925E+04</pdfrwt>
<pdfrwt beam="1">  1       -2 0.12291997E+00 0.13635925E+04</pdfrwt>
<totfact> 0.26483636E+00</totfact>
</mgrwt>
</event>
<event>
 8    1  0.1449514E-005  0.1130010E+04  0.7818608E-02  0.8661217E-01
         -1   -1    0    0    0  501 -0.00000000000E+00  0.00000000000E+00  0.12174804273E+04  0.12174804273E+04  0.00000000000E+00 0.  1.
          1   -1    0    0  502    0  0.00000000000E+00 -0.00000000000E+00 -0.11153127082E+04  0.11153127082E+04  0.00000000000E+00 0. -1.
    9000010    2    1    2  502    0  0.36216229554E+03  0.37191256892E+03 -0.23388916936E+03  0.11483234142E+04  0.99722717213E+03 0.  0.
   -9000010    2    1    2    0  501 -0.36216229554E+03 -0.37191256892E+03  0.33605688848E+03  0.11844697214E+04  0.10102246291E+04 0.  0.
        -13    1    3    3    0    0 -0.31776383697E+03  0.24041746658E+03 -0.22106513675E+03  0.45567995366E+03  0.10566000000E+00 0.  1.
          4    1    3    3  502    0  0.67992613251E+03  0.13149510234E+03 -0.12824032601E+02  0.69264346054E+03  0.00000000000E+00 0.  1.
         13    1    4    4    0    0  0.29448766123E+01  0.27369029599E+03 -0.13565877181E+03  0.30548054594E+03  0.10566000000E+00 0. -1.
         -4    1    4    4    0  501 -0.36510717216E+03 -0.64560286491E+03  0.47171566029E+03  0.87898917542E+03  0.00000000000E+00 0. -1.
<mgrwt>
<rscale>  2 0.11300096E+04</rscale>
<asrwt>0</asrwt>
<pdfrwt beam="2">  1        1 0.17158657E+00 0.11300096E+04</pdfrwt>
<pdfrwt beam="1">  1       -1 0.18730468E+00 0.11300096E+04</pdfrwt>
<totfact> 0.30090057E+00</totfact>
</mgrwt>
</event>
<event>
 8    1  0.1449514E-005  0.1666399E+04  0.7818608E-02  0.8319685E-01
         -4   -1    0    0    0  501 -0.00000000000E+00  0.00000000000E+00  0.18266762598E+04  0.18266762598E+04  0.00000000000E+00 0. -1.
          4   -1    0    0  502    0  0.00000000000E+00 -0.00000000000E+00 -0.15307232373E+04  0.15307232373E+04  0.00000000000E+00 0.  1.
    9000010    2    1    2  502    0  0.44840764153E+03 -0.12545135716E+04  0.28726948974E+03  0.16910054392E+04  0.10010504090E+04 0.  0.
   -9000010    2    1    2    0  501 -0.44840764153E+03  0.12545135716E+04  0.86835327894E+01  0.16663940579E+04  0.10009595587E+04 0.  0.
        -13    1    3    3    0    0  0.65952662584E+03 -0.84883810142E+03 -0.11612036131E+03  0.10811963014E+04  0.10566000000E+00 0.  1.
          4    1    3    3  502    0 -0.21111898431E+03 -0.40567547021E+03  0.40338985105E+03  0.60980913785E+03  0.00000000000E+00 0.  1.
         13    1    4    4    0    0  0.10835132874E+02  0.97214169394E+03  0.34428377752E+03  0.10313623048E+04  0.10566000000E+00 0. -1.
         -4    1    4    4    0  501 -0.45924277440E+03  0.28237187769E+03 -0.33560024473E+03  0.63503175307E+03  0.00000000000E+00 0. -1.
<mgrwt>
<rscale>  2 0.16663987E+04</rscale>
<asrwt>0</asrwt>
<pdfrwt beam="2">  1        4 0.23549588E+00 0.16663987E+04</pdfrwt>
<pdfrwt beam="1">  1       -4 0.28102712E+00 0.16663987E+04</pdfrwt>
<totfact> 0.89437989E-02</totfact>
</mgrwt>
</event>
<event>
 8    1  0.1449514E-005  0.1484828E+04  0.7818608E-02  0.8418285E-01
         -1   -1    0    0    0  501 -0.00000000000E+00  0.00000000000E+00  0.32079424748E+04  0.32079424748E+04  0.00000000000E+00 0. -1.
          1   -1    0    0  502    0  0.00000000000E+00 -0.00000000000E+00 -0.83992446101E+03  0.83992446101E+03  0.00000000000E+00 0.  1.
    9000010    2    1    2  502    0  0.10662452266E+04  0.39651919368E+03  0.20696561225E+04  0.25692887038E+04  0.10117616438E+04 0.  0.
   -9000010    2    1    2    0  501 -0.10662452266E+04 -0.39651919368E+03  0.29836189122E+03  0.14785782320E+04  0.89614028802E+03 0.  0.
        -13    1    3    3    0    0  0.57569629091E+03 -0.30891826537E+03  0.10403165300E+04  0.12284605032E+04  0.10566000000E+00 0.  1.
          4    1    3    3  502    0  0.49054893565E+03  0.70543745905E+03  0.10293395925E+04  0.13408282006E+04  0.00000000000E+00 0.  1.
         13    1    4    4    0    0 -0.94946666599E+03 -0.46594593689E+02  0.48275283330E+03  0.10661652382E+04  0.10566000000E+00 0. -1.
         -4    1    4    4    0  501 -0.11677856057E+03 -0.34992459999E+03 -0.18439094208E+03  0.41241299374E+03  0.00000000000E+00 0. -1.
<mgrwt>
<rscale>  2 0.14848278E+04</rscale>
<asrwt>0</asrwt>
<pdfrwt beam="2">  1        1 0.12921915E+00 0.14848278E+04</pdfrwt>
<pdfrwt beam="1">  1       -1 0.49352960E+00 0.14848278E+04</pdfrwt>
<totfact> 0.26041718E-01</totfact>
</mgrwt>
</event>
<event>
 8    1  0.1449514E-005  0.1547866E+04  0.7818608E-02  0.8382472E-01
          2   -1    0    0  502    0  0.00000000000E+00  0.00000000000E+00  0.38083825943E+04  0.38083825943E+04  0.00000000000E+00 0.  1.
         -2   -1    0    0    0  501 -0.00000000000E+00 -0.00000000000E+00 -0.63295920690E+03  0.63295920690E+03  0.00000000000E+00 0. -1.
    9000010    2    1    2  502    0 -0.65441655203E+03 -0.97949769282E+03  0.14227300376E+04  0.21080787342E+04  0.10159519849E+04 0.  0.
   -9000010    2    1    2    0  501  0.65441655203E+03  0.97949769282E+03  0.17526933498E+04  0.23332630670E+04  0.99222266044E+03 0.  0.
        -13    1    3    3    0    0 -0.38452823556E+03 -0.84242636075E+03  0.34429868994E+03  0.98797051388E+03  0.10566000000E+00 0.  1.
          4    1    3    3  502    0 -0.26988831647E+03 -0.13707133206E+03  0.10784313477E+04  0.11201082203E+04  0.00000000000E+00 0.  1.
         13    1    4    4    0    0 -0.93346408425E+02  0.49099809927E+02  0.79759178076E+03  0.80453527158E+03  0.10566000000E+00 0. -1.
         -4    1    4    4    0  501  0.74776296046E+03  0.93039788289E+03  0.95510156901E+03  0.15287277955E+04  0.00000000000E+00 0. -1.
<mgrwt>
<rscale>  2 0.15478664E+04</rscale>
<asrwt>0</asrwt>
<pdfrwt beam="1">  1        2 0.58590500E+00 0.15478664E+04</pdfrwt>
<pdfrwt beam="2">  1       -2 0.97378342E-01 0.15478664E+04</pdfrwt>
<totfact> 0.60495680E-01</totfact>
</mgrwt>
</event>
<event>
 8    1  0.1449514E-005  0.2023511E+04  0.7818608E-02  0.8158887E-01
          4   -1    0    0  502    0  0.00000000000E+00  0.00000000000E+00  0.18866241570E+04  0.18866241570E+04  0.00000000000E+00 0.  1.
         -4   -1    0    0    0  501 -0.00000000000E+00 -0.00000000000E+00 -0.22180716513E+04  0.22180716513E+04  0.00000000000E+00 0. -1.
    9000010    2    1    2  502    0 -0.14408425875E+04 -0.10501237129E+04  0.13540963808E+03  0.20276701502E+04  0.95620253791E+03 0.  0.
   -9000010    2    1    2    0  501  0.14408425875E+04  0.10501237129E+04 -0.46685713242E+03  0.20770256581E+04  0.95775405388E+03 0.  0.
        -13    1    3    3    0    0 -0.11878986637E+02  0.63096087347E+02  0.20510860126E+03  0.21492272108E+03  0.10566000000E+00 0.  1.
          4    1    3    3  502    0 -0.14289636009E+04 -0.11132198003E+04 -0.69698963175E+02  0.18127474291E+04  0.00000000000E+00 0.  1.
         13    1    4    4    0    0  0.45670565020E+03  0.54295732928E+03  0.25660754756E+03  0.75447343026E+03  0.10566000000E+00 0. -1.
         -4    1    4    4    0  501  0.98413693730E+03  0.50716638364E+03 -0.72346467998E+03  0.13225522278E+04  0.00000000000E+00 0. -1.
<mgrwt>
<rscale>  2 0.20235106E+04</rscale>
<asrwt>0</asrwt>
<pdfrwt beam="1">  1        4 0.29024987E+00 0.20235106E+04</pdfrwt>
<pdfrwt beam="2">  1       -4 0.34124179E+00 0.20235106E+04</pdfrwt>
<totfact> 0.42868716E-02</totfact>
</mgrwt>
</event>
<event>
 8    1  0.1449514E-005  0.1270791E+04  0.7818608E-02  0.8555080E-01
          2   -1    0    0  502    0  0.00000000000E+00  0.00000000000E+00  0.17341303798E+04  0.17341303798E+04  0.00000000000E+00 0. -1.
         -2   -1    0    0    0  501 -0.00000000000E+00 -0.00000000000E+00 -0.10081326563E+04  0.10081326563E+04  0.00000000000E+00 0.  1.
    9000010    2    1    2  502    0 -0.71731944750E+03 -0.37637852591E+03 -0.13324400136E+02  0.12792822873E+04  0.99003921461E+03 0.  0.
   -9000010    2    1    2    0  501  0.71731944750E+03  0.37637852591E+03  0.73932212360E+03  0.14629807487E+04  0.96824970136E+03 0.  0.
        -13    1    3    3    0    0 -0.66511235511E+03 -0.38130091684E+03 -0.41665096205E+03  0.87256109783E+03  0.10566000000E+00 0.  1.
          4    1    3    3  502    0 -0.52207092393E+02  0.49223909292E+01  0.40332656191E+03  0.40672118948E+03  0.00000000000E+00 0.  1.
         13    1    4    4    0    0 -0.20967112013E+02 -0.13501533440E+03  0.52114093609E+03  0.53875471853E+03  0.10566000000E+00 0. -1.
         -4    1    4    4    0  501  0.73828655951E+03  0.51139386031E+03  0.21818118752E+03  0.92422603020E+03  0.00000000000E+00 0. -1.
<mgrwt>
<rscale>  2 0.12707909E+04</rscale>
<asrwt>0</asrwt>
<pdfrwt beam="1">  1        2 0.26678929E+00 0.12707909E+04</pdfrwt>
<pdfrwt beam="2">  1       -2 0.15509733E+00 0.12707909E+04</pdfrwt>
<totfact> 0.35076254E+00</totfact>
</mgrwt>
</event>
<event>
 8    1  0.1449514E-005  0.1106818E+04  0.7818608E-02  0.8680241E-01
         -2   -1    0    0    0  501 -0.00000000000E+00  0.00000000000E+00  0.73460275584E+03  0.73460275584E+03  0.00000000000E+00 0. -1.
          2   -1    0    0  502    0  0.00000000000E+00 -0.00000000000E+00 -0.19645498850E+04  0.19645498850E+04  0.00000000000E+00 0.  1.
    9000010    2    1    2  502    0 -0.87841511580E+02  0.49957442068E+03 -0.11427215781E+04  0.15955198273E+04  0.99125182541E+03 0.  0.
   -9000010    2    1    2    0  501  0.87841511580E+02 -0.49957442068E+03 -0.87225551085E+02  0.11036328135E+04  0.97627166169E+03 0.  0.
        -13    1    3    3    0    0 -0.52426402208E+03  0.41068386965E+03 -0.73282377509E+03  0.99022457157E+03  0.10566000000E+00 0.  1.
          4    1    3    3  502    0  0.43642251050E+03  0.88890551033E+02 -0.40989780299E+03  0.60529525575E+03  0.00000000000E+00 0.  1.
         13    1    4    4    0    0  0.36281434482E+03  0.15060484895E+03 -0.58041621291E+02  0.39709559341E+03  0.10566000000E+00 0. -1.
         -4    1    4    4    0  501 -0.27497283324E+03 -0.65017926963E+03 -0.29183929794E+02  0.70653722014E+03  0.00000000000E+00 0. -1.
<mgrwt>
<rscale>  2 0.11068177E+04</rscale>
<asrwt>0</asrwt>
<pdfrwt beam="2">  1        2 0.30223844E+00 0.11068177E+04</pdfrwt>
<pdfrwt beam="1">  1       -2 0.11301581E+00 0.11068177E+04</pdfrwt>
<totfact> 0.65282433E+00</totfact>
</mgrwt>
</event>
<event>
 8    1  0.1449514E-005  0.1494416E+04  0.7818608E-02  0.8412720E-01
         -4   -1    0    0    0  501 -0.00000000000E+00  0.00000000000E+00  0.89783198913E+03  0.89783198913E+03  0.00000000000E+00 0.  1.
          4   -1    0    0  502    0  0.00000000000E+00 -0.00000000000E+00 -0.25330314560E+04  0.25330314560E+04  0.00000000000E+00 0. -1.
    9000010    2    1    2  502    0  0.97226303566E+03 -0.54327208614E+03 -0.10497877328E+04  0.18293750845E+04  0.10020573565E+04 0.  0.
   -9000010    2    1    2    0  501 -0.97226303566E+03  0.54327208614E+03 -0.58541173403E+03  0.16014883606E+04  0.99076642089E+03 0.  0.
        -13    1    3    3    0    0  0.29553607923E+03 -0.57723024436E+03 -0.90282667994E+02  0.65474216332E+03  0.10566000000E+00 0.  1.
          4    1    3    3  502    0  0.67672695643E+03  0.33958158216E+02 -0.95950506483E+03  0.11746329212E+04  0.00000000000E+00 0.  1.
         13    1    4    4    0    0  0.11575820699E+03  0.21367055136E+02 -0.35363274882E+03  0.37270986804E+03  0.10566000000E+00 0. -1.
         -4    1    4    4    0  501 -0.10880212426E+04  0.52190503100E+03 -0.23177898521E+03  0.12287784926E+04  0.00000000000E+00 0. -1.
<mgrwt>
<rscale>  2 0.14944163E+04</rscale>
<asrwt>0</asrwt>
<pdfrwt beam="2">  1        4 0.38969715E+00 0.14944163E+04</pdfrwt>
<pdfrwt beam="1">  1       -4 0.13812800E+00 0.14944163E+04</pdfrwt>
<totfact> 0.85608142E-02</totfact>
</mgrwt>
</event>
<event>
 8    1  0.1449514E-005  0.1512224E+04  0.7818608E-02  0.8402499E-01
         -4   -1    0    0    0  501 -0.00000000000E+00  0.00000000000E+00  0.20967656260E+04  0.20967656260E+04  0.00000000000E+00 0. -1.
          4   -1    0    0  502    0  0.00000000000E+00 -0.00000000000E+00 -0.20702231000E+04  0.20702231000E+04  0.00000000000E+00 0.  1.
    9000010    2    1    2  502    0 -0.10340597567E+04 -0.37558891304E+03 -0.14197552656E+04  0.20577295962E+04  0.10040913628E+04 0.  0.
   -9000010    2    1    2    0  501  0.10340597567E+04  0.37558891304E+03  0.14462977917E+04  0.21092591297E+04  0.10709109030E+04 0.  0.
        -13    1    3    3    0    0 -0.56129994331E+03  0.21769062032E+02 -0.13168387250E+04  0.14316409317E+04  0.10566000000E+00 0.  1.
          4    1    3    3  502    0 -0.47275981339E+03 -0.39735797507E+03 -0.10291654060E+03  0.62608866452E+03  0.00000000000E+00 0.  1.
         13    1    4    4    0    0 -0.50379569071E+02  0.32222676290E+03  0.75416008084E+03  0.82166028649E+03  0.10566000000E+00 0. -1.
         -4    1    4    4    0  501  0.10844393258E+04  0.53362150144E+02  0.69213771083E+03  0.12875988432E+04  0.00000000000E+00 0. -1.
<mgrwt>
<rscale>  2 0.15122238E+04</rscale>
<asrwt>0</asrwt>
<pdfrwt beam="2">  1        4 0.31849586E+00 0.15122238E+04</pdfrwt>
<pdfrwt beam="1">  1       -4 0.32257933E+00 0.15122238E+04</pdfrwt>
<totfact> 0.42292663E-02</totfact>
</mgrwt>
</event>
<event>
 8    1  0.1449514E-005  0.1180242E+04  0.7818608E-02  0.8621591E-01
          1   -1    0    0  502    0  0.00000000000E+00  0.00000000000E+00  0.15308862903E+04  0.15308862903E+04  0.00000000000E+00 0.  1.
         -1   -1    0    0    0  501 -0.00000000000E+00 -0.00000000000E+00 -0.91125730228E+03  0.91125730228E+03  0.00000000000E+00 0. -1.
    9000010    2    1    2  502    0 -0.38545979423E+03  0.50703890463E+03  0.35818786413E+03  0.12425685718E+04  0.10049927392E+04 0.  0.
   -9000010    2    1    2    0  501  0.38545979423E+03 -0.50703890463E+03  0.26144112385E+03  0.11995750208E+04  0.98232431787E+03 0.  0.
        -13    1    3    3    0    0 -0.73026667445E+03  0.36788836288E+03  0.25907812572E+03  0.85776031020E+03  0.10566000000E+00 0.  1.
          4    1    3    3  502    0  0.34480688023E+03  0.13915054175E+03  0.99109738414E+02  0.38480826157E+03  0.00000000000E+00 0.  1.
         13    1    4    4    0    0 -0.26286409454E+03 -0.36709725614E+02  0.29638442861E+03  0.39785534663E+03  0.10566000000E+00 0. -1.
         -4    1    4    4    0  501  0.64832388877E+03 -0.47032917902E+03 -0.34943304763E+02  0.80171967416E+03  0.00000000000E+00 0. -1.
<mgrwt>
<rscale>  2 0.11802421E+04</rscale>
<asrwt>0</asrwt>
<pdfrwt beam="1">  1        1 0.23552097E+00 0.11802421E+04</pdfrwt>
<pdfrwt beam="2">  1       -1 0.14019343E+00 0.11802421E+04</pdfrwt>
<totfact> 0.37165333E+00</totfact>
</mgrwt>
</event>
<event>
 8    1  0.1449514E-005  0.1147167E+04  0.7818608E-02  0.8647446E-01
          2   -1    0    0  502    0  0.00000000000E+00  0.00000000000E+00  0.78493473582E+03  0.78493473582E+03  0.00000000000E+00 0. -1.
         -2   -1    0    0    0  501 -0.00000000000E+00 -0.00000000000E+00 -0.16776238942E+04  0.16776238942E+04  0.00000000000E+00 0.  1.
    9000010    2    1    2  502    0  0.55871580516E+03  0.16076609353E+03 -0.45522845295E+03  0.12126122014E+04  0.96186606081E+03 0.  0.
   -9000010    2    1    2    0  501 -0.55871580516E+03 -0.16076609353E+03 -0.43746070544E+03  0.12499464286E+04  0.10163587545E+04 0.  0.
        -13    1    3    3    0    0  0.60435856875E+03 -0.24123172329E+03 -0.47795655968E+03  0.80739365123E+03  0.10566000000E+00 0.  1.
          4    1    3    3  502    0 -0.45642763589E+02  0.40199781683E+03  0.22728106722E+02  0.40521855021E+03  0.00000000000E+00 0.  1.
         13    1    4    4    0    0 -0.75159901214E+03 -0.93930101300E+01 -0.36808970415E+01  0.75166672392E+03  0.10566000000E+00 0. -1.
         -4    1    4    4    0  501  0.19288320698E+03 -0.15137308340E+03 -0.43377980840E+03  0.49827970467E+03  0.00000000000E+00 0. -1.
<mgrwt>
<rscale>  2 0.11471667E+04</rscale>
<asrwt>0</asrwt>
<pdfrwt beam="1">  1        2 0.12075919E+00 0.11471667E+04</pdfrwt>
<pdfrwt beam="2">  1       -2 0.25809598E+00 0.11471667E+04</pdfrwt>
<totfact> 0.18272500E+00</totfact>
</mgrwt>
</event>
<event>
 8    1  0.1449514E-005  0.1362847E+04  0.7818608E-02  0.8493088E-01
         -2   -1    0    0    0  501 -0.00000000000E+00  0.00000000000E+00  0.67100972744E+03  0.67100972744E+03  0.00000000000E+00 0.  1.
          2   -1    0    0  502    0  0.00000000000E+00 -0.00000000000E+00 -0.42840143542E+04  0.42840143542E+04  0.00000000000E+00 0. -1.
    9000010    2    1    2  502    0 -0.41894733696E+03 -0.82245138931E+03 -0.32802772860E+04  0.35521045120E+04  0.10026386347E+04 0.  0.
   -9000010    2    1    2    0  501  0.41894733696E+03  0.82245138931E+03 -0.33272734074E+03  0.14029195697E+04  0.10027625226E+04 0.  0.
        -13    1    3    3    0    0 -0.58488882748E+03 -0.97223579611E+03 -0.28418696646E+04  0.30599935597E+04  0.10566000000E+00 0.  1.
          4    1    3    3  502    0  0.16594149052E+03  0.14978440680E+03 -0.43840762139E+03  0.49211095222E+03  0.00000000000E+00 0.  1.
         13    1    4    4    0    0  0.24341568681E+03  0.64895092530E+03  0.27602222325E+03  0.74604073544E+03  0.10566000000E+00 0. -1.
         -4    1    4    4    0  501  0.17553165015E+03  0.17350046400E+03 -0.60874956398E+03  0.65687883423E+03  0.00000000000E+00 0. -1.
<mgrwt>
<rscale>  2 0.13628469E+04</rscale>
<asrwt>0</asrwt>
<pdfrwt beam="2">  1        2 0.65907913E+00 0.13628469E+04</pdfrwt>
<pdfrwt beam="1">  1       -2 0.10323227E+00 0.13628469E+04</pdfrwt>
<totfact> 0.20451842E-01</totfact>
</mgrwt>
</event>
<event>
 8    1  0.1449514E-005  0.1195309E+04  0.7818608E-02  0.8610103E-01
          1   -1    0    0  502    0  0.00000000000E+00  0.00000000000E+00  0.27917822855E+04  0.27917822855E+04  0.00000000000E+00 0.  1.
         -1   -1    0    0    0  501 -0.00000000000E+00 -0.00000000000E+00 -0.51410358834E+03  0.51410358834E+03  0.00000000000E+00 0. -1.
    9000010    2    1    2  502    0 -0.29224657929E+03 -0.55305930665E+03  0.12526294014E+04  0.17333213308E+04  0.10217826378E+04 0.  0.
   -9000010    2    1    2    0  501  0.29224657929E+03  0.55305930665E+03  0.10250492958E+04  0.15725645431E+04  0.10153573379E+04 0.  0.
        -13    1    3    3    0    0 -0.34812383186E+03 -0.65997881629E+03  0.35266839749E+03  0.82531039616E+03  0.10566000000E+00 0.  1.
          4    1    3    3  502    0  0.55877252572E+02  0.10691950964E+03  0.89996100387E+03  0.90801093462E+03  0.00000000000E+00 0.  1.
         13    1    4    4    0    0 -0.36195911990E+02 -0.26521074584E+03  0.78447633457E+02  0.27892817375E+03  0.10566000000E+00 0. -1.
         -4    1    4    4    0  501  0.32844249128E+03  0.81827005249E+03  0.94660166239E+03  0.12936363694E+04  0.00000000000E+00 0. -1.
<mgrwt>
<rscale>  2 0.11953087E+04</rscale>
<asrwt>0</asrwt>
<pdfrwt beam="1">  1        1 0.42950496E+00 0.11953087E+04</pdfrwt>
<pdfrwt beam="2">  1       -1 0.79092861E-01 0.11953087E+04</pdfrwt>
<totfact> 0.12503191E+00</totfact>
</mgrwt>
</event>
<event>
 8    1  0.1449514E-005  0.1119723E+04  0.7818608E-02  0.8669596E-01
         -2   -1    0    0    0  501 -0.00000000000E+00  0.00000000000E+00  0.38556624883E+03  0.38556624883E+03  0.00000000000E+00 0. -1.
          2   -1    0    0  502    0  0.00000000000E+00 -0.00000000000E+00 -0.33085805151E+04  0.33085805151E+04  0.00000000000E+00 0.  1.
    9000010    2    1    2  502    0 -0.42688732180E+03  0.27570394015E+03 -0.17151616909E+04  0.20535270229E+04  0.10084384760E+04 0.  0.
   -9000010    2    1    2    0  501  0.42688732180E+03 -0.27570394015E+03 -0.12078525754E+04  0.16406197410E+04  0.98715745585E+03 0.  0.
        -13    1    3    3    0    0 -0.52725587699E+03  0.41693318241E+03 -0.53062187903E+03  0.85638287470E+03  0.10566000000E+00 0.  1.
          4    1    3    3  502    0  0.10036855519E+03 -0.14122924226E+03 -0.11845398119E+04  0.11971441482E+04  0.00000000000E+00 0.  1.
         13    1    4    4    0    0  0.24759309393E+03  0.25470110769E+03 -0.96873752626E+03  0.10318078311E+04  0.10566000000E+00 0. -1.
         -4    1    4    4    0  501  0.17929422786E+03 -0.53040504784E+03 -0.23911504913E+03  0.60881190990E+03  0.00000000000E+00 0. -1.
<mgrwt>
<rscale>  2 0.11197230E+04</rscale>
<asrwt>0</asrwt>
<pdfrwt beam="2">  1        2 0.50901238E+00 0.11197230E+04</pdfrwt>
<pdfrwt beam="1">  1       -2 0.59317885E-01 0.11197230E+04</pdfrwt>
<totfact> 0.45129441E+00</totfact>
</mgrwt>
</event>
<event>
 8    1  0.1449514E-005  0.1245546E+04  0.7818608E-02  0.8573032E-01
          2   -1    0    0  502    0  0.00000000000E+00  0.00000000000E+00  0.12428958551E+04  0.12428958551E+04  0.00000000000E+00 0.  1.
         -2   -1    0    0    0  501 -0.00000000000E+00 -0.00000000000E+00 -0.39239356151E+04  0.39239356151E+04  0.00000000000E+00 0. -1.
    9000010    2    1    2  502    0  0.55076610732E+03 -0.50139539450E+03  0.78931312643E+03  0.14830837960E+04  0.10108321759E+04 0.  0.
   -9000010    2    1    2    0  501 -0.55076610732E+03  0.50139539450E+03 -0.34703528865E+04  0.36837476741E+04  0.98585349998E+03 0.  0.
        -13    1    3    3    0    0  0.28213117711E+03 -0.69082609589E+03  0.14558194748E+03  0.76028469039E+03  0.10566000000E+00 0.  1.
          4    1    3    3  502    0  0.26863493022E+03  0.18943070138E+03  0.64373117896E+03  0.72279910565E+03  0.00000000000E+00 0.  1.
         13    1    4    4    0    0  0.11925159167E+03  0.52658836063E+03 -0.19232981236E+04  0.19976465972E+04  0.10566000000E+00 0. -1.
         -4    1    4    4    0  501 -0.67001769899E+03 -0.25192966124E+02 -0.15470547629E+04  0.16861010770E+04  0.00000000000E+00 0. -1.
<mgrwt>
<rscale>  2 0.12455459E+04</rscale>
<asrwt>0</asrwt>
<pdfrwt beam="1">  1        2 0.19121475E+00 0.12455459E+04</pdfrwt>
<pdfrwt beam="2">  1       -2 0.60368239E+00 0.12455459E+04</pdfrwt>
<totfact> 0.12259673E-01</totfact>
</mgrwt>
</event>
<event>
 8    1  0.1449514E-005  0.2015528E+04  0.7818608E-02  0.8162099E-01
         -2   -1    0    0    0  501 -0.00000000000E+00  0.00000000000E+00  0.42295115805E+04  0.42295115805E+04  0.00000000000E+00 0.  1.
          2   -1    0    0  502    0  0.00000000000E+00 -0.00000000000E+00 -0.97663394173E+03  0.97663394173E+03  0.00000000000E+00 0. -1.
    9000010    2    1    2  502    0  0.12402923175E+04  0.12335285605E+04  0.12954589883E+04  0.23999412909E+04  0.10107356069E+04 0.  0.
   -9000010    2    1    2    0  501 -0.12402923175E+04 -0.12335285605E+04  0.19574186505E+04  0.28062042313E+04  0.99165350397E+03 0.  0.
        -13    1    3    3    0    0  0.12258027914E+04  0.13880351383E+04  0.11135796137E+04  0.21608548299E+04  0.10566000000E+00 0.  1.
          4    1    3    3  502    0  0.14489526107E+02 -0.15450657782E+03  0.18187937457E+03  0.23908646104E+03  0.00000000000E+00 0.  1.
         13    1    4    4    0    0 -0.46619045923E+03 -0.11052023778E+04  0.95526614666E+03  0.15334077286E+04  0.10566000000E+00 0. -1.
         -4    1    4    4    0  501 -0.77410185831E+03 -0.12832618270E+03  0.10021525039E+04  0.12727965027E+04  0.00000000000E+00 0. -1.
<mgrwt>
<rscale>  2 0.20155283E+04</rscale>
<asrwt>0</asrwt>
<pdfrwt beam="2">  1        2 0.15025138E+00 0.20155283E+04</pdfrwt>
<pdfrwt beam="1">  1       -2 0.65069408E+00 0.20155283E+04</pdfrwt>
<totfact> 0.11660278E-01</totfact>
</mgrwt>
</event>
<event>
 8    1  0.1449514E-005  0.1187520E+04  0.7818608E-02  0.8616020E-01
          2   -1    0    0  502    0  0.00000000000E+00  0.00000000000E+00  0.12583783027E+04  0.12583783027E+04  0.00000000000E+00 0.  1.
         -2   -1    0    0    0  501 -0.00000000000E+00 -0.00000000000E+00 -0.13440952777E+04  0.13440952777E+04  0.00000000000E+00 0. -1.
    9000010    2    1    2  502    0 -0.72698483962E+03  0.98817999515E+01 -0.57060575271E+03  0.12833850932E+04  0.89043908567E+03 0.  0.
   -9000010    2    1    2    0  501  0.72698483962E+03 -0.98817999515E+01  0.48488877772E+03  0.13190884873E+04  0.98806513117E+03 0.  0.
        -13    1    3    3    0    0 -0.50896985662E+03  0.35211207177E+03 -0.46615373792E+02  0.62064984514E+03  0.10566000000E+00 0.  1.
          4    1    3    3  502    0 -0.21801498300E+03 -0.34223027182E+03 -0.52399037891E+03  0.66273524801E+03  0.00000000000E+00 0.  1.
         13    1    4    4    0    0 -0.18202375907E+03  0.21713285289E+03  0.17120764318E+03  0.33104590757E+03  0.10566000000E+00 0. -1.
         -4    1    4    4    0  501  0.90900859869E+03 -0.22701465284E+03  0.31368113454E+03  0.98804257968E+03  0.00000000000E+00 0. -1.
<mgrwt>
<rscale>  2 0.11875200E+04</rscale>
<asrwt>0</asrwt>
<pdfrwt beam="1">  1        2 0.19359666E+00 0.11875200E+04</pdfrwt>
<pdfrwt beam="2">  1       -2 0.20678389E+00 0.11875200E+04</pdfrwt>
<totfact> 0.23844031E+00</totfact>
</mgrwt>
</event>
<event>
 8    1  0.1449514E-005  0.1125404E+04  0.7818608E-02  0.8664957E-01
         -2   -1    0    0    0  501 -0.00000000000E+00  0.00000000000E+00  0.80557921638E+03  0.80557921638E+03  0.00000000000E+00 0. -1.
          2   -1    0    0  502    0  0.00000000000E+00 -0.00000000000E+00 -0.18153692098E+04  0.18153692098E+04  0.00000000000E+00 0.  1.
    9000010    2    1    2  502    0  0.53982490364E+03 -0.20474463016E+02 -0.25073063721E+02  0.11251631282E+04  0.98667789891E+03 0.  0.
   -9000010    2    1    2    0  501 -0.53982490364E+03  0.20474463016E+02 -0.98471692970E+03  0.14957852980E+04  0.98786441170E+03 0.  0.
        -13    1    3    3    0    0 -0.15182659896E+03  0.25694618402E+03 -0.20054301645E+03  0.35956942340E+03  0.10566000000E+00 0.  1.
          4    1    3    3  502    0  0.69165150260E+03 -0.27742064703E+03  0.17546995273E+03  0.76559370476E+03  0.00000000000E+00 0.  1.
         13    1    4    4    0    0  0.56196159232E+02  0.53549985048E+02  0.17500617041E+03  0.19144915789E+03  0.10566000000E+00 0. -1.
         -4    1    4    4    0  501 -0.59602106288E+03 -0.33075522032E+02 -0.11597231001E+04  0.13043361401E+04  0.00000000000E+00 0. -1.
<mgrwt>
<rscale>  2 0.11254040E+04</rscale>
<asrwt>0</asrwt>
<pdfrwt beam="2">  1        2 0.27928757E+00 0.11254040E+04</pdfrwt>
<pdfrwt beam="1">  1       -2 0.12393527E+00 0.11254040E+04</pdfrwt>
<totfact> 0.61692140E+00</totfact>
</mgrwt>
</event>
<event>
 8    1  0.1449514E-005  0.1664871E+04  0.7818608E-02  0.8320459E-01
         -2   -1    0    0    0  501 -0.00000000000E+00  0.00000000000E+00  0.11276661698E+04  0.11276661698E+04  0.00000000000E+00 0. -1.
          2   -1    0    0  502    0  0.00000000000E+00 -0.00000000000E+00 -0.25394776521E+04  0.25394776521E+04  0.00000000000E+00 0.  1.
    9000010    2    1    2  502    0  0.48410742056E+03 -0.12507677970E+04 -0.38157068353E+03  0.17174203493E+04  0.10025748815E+04 0.  0.
   -9000010    2    1    2    0  501 -0.48410742056E+03  0.12507677970E+04 -0.10302407988E+04  0.19497234726E+04  0.97017804523E+03 0.  0.
        -13    1    3    3    0    0  0.68638119719E+03 -0.12966205479E+04 -0.33541402181E+03  0.15049407199E+04  0.10566000000E+00 0.  1.
          4    1    3    3  502    0 -0.20227377663E+03  0.45852750942E+02 -0.46156661715E+02  0.21247962938E+03  0.00000000000E+00 0.  1.
         13    1    4    4    0    0 -0.49750890564E+03  0.10251811658E+04 -0.29012519205E+03  0.11758759170E+04  0.10566000000E+00 0. -1.
         -4    1    4    4    0  501  0.13401485084E+02  0.22558663119E+03 -0.74011560674E+03  0.77384755560E+03  0.00000000000E+00 0. -1.
<mgrwt>
<rscale>  2 0.16648714E+04</rscale>
<asrwt>0</asrwt>
<pdfrwt beam="2">  1        2 0.39068887E+00 0.16648714E+04</pdfrwt>
<pdfrwt beam="1">  1       -2 0.17348710E+00 0.16648714E+04</pdfrwt>
<totfact> 0.84349760E-01</totfact>
</mgrwt>
</event>
<event>
 8    1  0.1449514E-005  0.1184648E+04  0.7818608E-02  0.8618213E-01
          2   -1    0    0  502    0  0.00000000000E+00  0.00000000000E+00  0.17369375118E+04  0.17369375118E+04  0.00000000000E+00 0. -1.
         -2   -1    0    0    0  501 -0.00000000000E+00 -0.00000000000E+00 -0.92002461170E+03  0.92002461170E+03  0.00000000000E+00 0.  1.
    9000010    2    1    2  502    0  0.66231243369E+03  0.14902969632E+03 -0.48835748058E+02  0.12050879402E+04  0.99447694946E+03 0.  0.
   -9000010    2    1    2    0  501 -0.66231243369E+03 -0.14902969632E+03  0.86574864813E+03  0.14518741833E+04  0.94739131950E+03 0.  0.
        -13    1    3    3    0    0 -0.76869125657E+02  0.40575053202E+03  0.51587570521E+02  0.41617742047E+03  0.10566000000E+00 0.  1.
          4    1    3    3  502    0  0.73918155935E+03 -0.25672083569E+03 -0.10042331858E+03  0.78891051969E+03  0.00000000000E+00 0.  1.
         13    1    4    4    0    0 -0.38977321759E+03 -0.54041584036E+03  0.36251100893E+03  0.75854247371E+03  0.10566000000E+00 0. -1.
         -4    1    4    4    0  501 -0.27253921610E+03  0.39138614403E+03  0.50323763920E+03  0.69333170962E+03  0.00000000000E+00 0. -1.
<mgrwt>
<rscale>  2 0.11846478E+04</rscale>
<asrwt>0</asrwt>
<pdfrwt beam="1">  1        2 0.26722116E+00 0.11846478E+04</pdfrwt>
<pdfrwt beam="2">  1       -2 0.14154225E+00 0.11846478E+04</pdfrwt>
<totfact> 0.46532620E+00</totfact>
</mgrwt>
</event>
<event>
 8    1  0.1449514E-005  0.1353496E+04  0.7818608E-02  0.8499151E-01
         -2   -1    0    0    0  501 -0.00000000000E+00  0.00000000000E+00  0.62651604014E+03  0.62651604014E+03  0.00000000000E+00 0. -1.
          2   -1    0    0  502    0  0.00000000000E+00 -0.00000000000E+00 -0.30180528612E+04  0.30180528612E+04  0.00000000000E+00 0.  1.
    9000010    2    1    2  502    0 -0.33866677549E+03 -0.89065431497E+03 -0.89379022061E+03  0.16400631997E+04  0.99145652808E+03 0.  0.
   -9000010    2    1    2    0  501  0.33866677549E+03  0.89065431497E+03 -0.14977466004E+04  0.20045057016E+04  0.93104131755E+03 0.  0.
        -13    1    3    3    0    0 -0.37164418231E+03 -0.96644038220E+02 -0.73556754976E+03  0.82977051032E+03  0.10566000000E+00 0.  1.
          4    1    3    3  502    0  0.32977406823E+02 -0.79401027675E+03 -0.15822267085E+03  0.81029268942E+03  0.00000000000E+00 0.  1.
         13    1    4    4    0    0  0.32796750383E+03 -0.78534703413E+02 -0.22790730008E+03  0.40702841646E+03  0.10566000000E+00 0. -1.
         -4    1    4    4    0  501  0.10699271657E+02  0.96918901839E+03 -0.12698393004E+04  0.15974772851E+04  0.00000000000E+00 0. -1.
<mgrwt>
<rscale>  2 0.13534962E+04</rscale>
<asrwt>0</asrwt>
<pdfrwt beam="2">  1        2 0.46431581E+00 0.13534962E+04</pdfrwt>
<pdfrwt beam="1">  1       -2 0.96387086E-01 0.13534962E+04</pdfrwt>
<totfact> 0.23547239E+00</totfact>
</mgrwt>
</event>
<event>
 8    1  0.1449514E-005  0.1536032E+04  0.7818608E-02  0.8389059E-01
          2   -1    0    0  502    0  0.00000000000E+00  0.00000000000E+00  0.20128126302E+04  0.20128126302E+04  0.00000000000E+00 0.  1.
         -2   -1    0    0    0  501 -0.00000000000E+00 -0.00000000000E+00 -0.11851437343E+04  0.11851437343E+04  0.00000000000E+00 0. -1.
    9000010    2    1    2  502    0  0.41938145641E+03  0.10756824723E+04  0.58031436591E+03  0.16395948144E+04  0.10092238627E+04 0.  0.
   -9000010    2    1    2    0  501 -0.41938145641E+03 -0.10756824723E+04  0.24735453002E+03  0.15583615500E+04  0.10170215681E+04 0.  0.
        -13    1    3    3    0    0  0.10261910158E+03  0.11904101510E+04  0.48465177107E+03  0.12893775080E+04  0.10566000000E+00 0.  1.
          4    1    3    3  502    0  0.31676235483E+03 -0.11472767875E+03  0.95662594835E+02  0.35021730648E+03  0.00000000000E+00 0.  1.
         13    1    4    4    0    0 -0.41949498158E+03 -0.82560215428E+03 -0.28605540506E+03  0.96923818675E+03  0.10566000000E+00 0. -1.
         -4    1    4    4    0  501  0.11352516876E+00 -0.25008031800E+03  0.53340993508E+03  0.58912336330E+03  0.00000000000E+00 0. -1.
<mgrwt>
<rscale>  2 0.15360316E+04</rscale>
<asrwt>0</asrwt>
<pdfrwt beam="1">  1        2 0.30966348E+00 0.15360316E+04</pdfrwt>
<pdfrwt beam="2">  1       -2 0.18232981E+00 0.15360316E+04</pdfrwt>
<totfact> 0.14121099E+00</totfact>
</mgrwt>
</event>
<event>
 8    1  0.1449514E-005  0.1345919E+04  0.7818608E-02  0.8504102E-01
         -2   -1    0    0    0  501 -0.00000000000E+00  0.00000000000E+00  0.59013253491E+03  0.59013253491E+03  0.00000000000E+00 0.  1.
          2   -1    0    0  502    0  0.00000000000E+00 -0.00000000000E+00 -0.30756912498E+04  0.30756912498E+04  0.00000000000E+00 0. -1.
    9000010    2    1    2  502    0 -0.94814350528E+03 -0.20284843194E+02 -0.11456582932E+04  0.17479766592E+04  0.91842359228E+03 0.  0.
   -9000010    2    1    2    0  501  0.94814350528E+03  0.20284843194E+02 -0.13399004217E+04  0.19178471255E+04  0.99167377466E+03 0.  0.
        -13    1    3    3    0    0 -0.94802983297E+03 -0.33463937173E+03 -0.85261195242E+03  0.13182151668E+04  0.10566000000E+00 0.  1.
          4    1    3    3  502    0 -0.11367231264E+00  0.31435452854E+03 -0.29304634079E+03  0.42976149244E+03  0.00000000000E+00 0.  1.
         13    1    4    4    0    0  0.10564305936E+04 -0.23722215228E+03 -0.11533171094E+04  0.15819166586E+04  0.10566000000E+00 0. -1.
         -4    1    4    4    0  501 -0.10828708830E+03  0.25750699547E+03 -0.18658331222E+03  0.33593046693E+03  0.00000000000E+00 0. -1.
<mgrwt>
<rscale>  2 0.13459185E+04</rscale>
<asrwt>0</asrwt>
<pdfrwt beam="2">  1        2 0.47318326E+00 0.13459185E+04</pdfrwt>
<pdfrwt beam="1">  1       -2 0.90789622E-01 0.13459185E+04</pdfrwt>
<totfact> 0.24959985E+00</totfact>
</mgrwt>
</event>
<event>
 8    1  0.1449514E-005  0.1336811E+04  0.7818608E-02  0.8510097E-01
          2   -1    0    0  502    0  0.00000000000E+00  0.00000000000E+00  0.33318290698E+04  0.33318290698E+04  0.00000000000E+00 0.  1.
         -2   -1    0    0    0  501 -0.00000000000E+00 -0.00000000000E+00 -0.54301526070E+03  0.54301526070E+03  0.00000000000E+00 0. -1.
    9000010    2    1    2  502    0  0.41543383789E+03  0.84867258450E+03  0.11443387598E+04  0.17271555528E+04  0.88358625893E+03 0.  0.
   -9000010    2    1    2    0  501 -0.41543383789E+03 -0.84867258450E+03  0.16444750493E+04  0.21476887777E+04  0.10076896689E+04 0.  0.
        -13    1    3    3    0    0  0.12817000375E+03  0.64698399160E+03  0.12023740304E+04  0.13713931440E+04  0.10566000000E+00 0.  1.
          4    1    3    3  502    0  0.28726383414E+03  0.20168859290E+03 -0.58035270542E+02  0.35576240883E+03  0.00000000000E+00 0.  1.
         13    1    4    4    0    0  0.32968515878E+03 -0.28034137330E+03  0.65333720724E+03  0.78366645139E+03  0.10566000000E+00 0. -1.
         -4    1    4    4    0  501 -0.74511899667E+03 -0.56833121120E+03  0.99113784208E+03  0.13640223264E+04  0.00000000000E+00 0. -1.
<mgrwt>
<rscale>  2 0.13368107E+04</rscale>
<asrwt>0</asrwt>
<pdfrwt beam="1">  1        2 0.51258907E+00 0.13368107E+04</pdfrwt>
<pdfrwt beam="2">  1       -2 0.83540811E-01 0.13368107E+04</pdfrwt>
<totfact> 0.20558645E+00</totfact>
</mgrwt>
</event>
<event>
 8    1  0.1449514E-005  0.1716840E+04  0.7818608E-02  0.8294581E-01
          2   -1    0    0  502    0  0.00000000000E+00  0.00000000000E+00  0.33232819033E+04  0.33232819033E+04  0.00000000000E+00 0.  1.
         -2   -1    0    0    0  501 -0.00000000000E+00 -0.00000000000E+00 -0.90050685501E+03  0.90050685501E+03  0.00000000000E+00 0. -1.
    9000010    2    1    2  502    0  0.77052332632E+03  0.11808378845E+04  0.95112809328E+03  0.19614312160E+04  0.97697669339E+03 0.  0.
   -9000010    2    1    2    0  501 -0.77052332632E+03 -0.11808378845E+04  0.14716469550E+04  0.22623575423E+04  0.98205528522E+03 0.  0.
        -13    1    3    3    0    0  0.40439664927E+03  0.97879843149E+03  0.10910041711E+04  0.15204845057E+04  0.10566000000E+00 0.  1.
          4    1    3    3  502    0  0.36612667705E+03  0.20203945299E+03 -0.13987607781E+03  0.44094671034E+03  0.00000000000E+00 0.  1.
         13    1    4    4    0    0 -0.70580447155E+03 -0.23409737832E+03  0.84281604650E+03  0.11239663847E+04  0.10566000000E+00 0. -1.
         -4    1    4    4    0  501 -0.64718854776E+02 -0.94674050616E+03  0.62883090848E+03  0.11383911576E+04  0.00000000000E+00 0. -1.
<mgrwt>
<rscale>  2 0.17168396E+04</rscale>
<asrwt>0</asrwt>
<pdfrwt beam="1">  1        2 0.51127413E+00 0.17168396E+04</pdfrwt>
<pdfrwt beam="2">  1       -2 0.13853952E+00 0.17168396E+04</pdfrwt>
<totfact> 0.55589294E-01</totfact>
</mgrwt>
</event>
<event>
 8    1  0.1449514E-005  0.1200298E+04  0.7818608E-02  0.8606338E-01
          2   -1    0    0  502    0  0.00000000000E+00  0.00000000000E+00  0.54471834159E+04  0.54471834159E+04  0.00000000000E+00 0.  1.
         -2   -1    0    0    0  501 -0.00000000000E+00 -0.00000000000E+00 -0.26706511166E+03  0.26706511166E+03  0.00000000000E+00 0. -1.
    9000010    2    1    2  502    0 -0.53625493340E+03  0.38374029466E+03  0.28497780628E+04  0.30886229891E+04  0.99173131158E+03 0.  0.
   -9000010    2    1    2    0  501  0.53625493340E+03 -0.38374029466E+03  0.23303402415E+04  0.26256255385E+04  0.10141981364E+04 0.  0.
        -13    1    3    3    0    0 -0.75712868825E+03  0.47576459482E+03  0.17748113610E+04  0.19873477750E+04  0.10566000000E+00 0.  1.
          4    1    3    3  502    0  0.22087375484E+03 -0.92024300158E+02  0.10749667018E+04  0.11012752142E+04  0.00000000000E+00 0.  1.
         13    1    4    4    0    0 -0.23061710229E+03 -0.37764404854E+03  0.82316304587E+03  0.93455694664E+03  0.10566000000E+00 0. -1.
         -4    1    4    4    0  501  0.76687203570E+03 -0.60962461175E+01  0.15071771956E+04  0.16910685918E+04  0.00000000000E+00 0. -1.
<mgrwt>
<rscale>  2 0.12002975E+04</rscale>
<asrwt>0</asrwt>
<pdfrwt beam="1">  1        2 0.83802814E+00 0.12002975E+04</pdfrwt>
<pdfrwt beam="2">  1       -2 0.41086944E-01 0.12002975E+04</pdfrwt>
<totfact> 0.12563156E-01</totfact>
</mgrwt>
</event>
<event>
 8    1  0.1449514E-005  0.1612896E+04  0.7818608E-02  0.8347335E-01
          2   -1    0    0  502    0  0.00000000000E+00  0.00000000000E+00  0.74493616488E+03  0.74493616488E+03  0.00000000000E+00 0. -1.
         -2   -1    0    0    0  501 -0.00000000000E+00 -0.00000000000E+00 -0.36437334488E+04  0.36437334488E+04  0.00000000000E+00 0.  1.
    9000010    2    1    2  502    0  0.79283448638E+03 -0.10019002669E+04 -0.10044236089E+04  0.19026073036E+04  0.98927099326E+03 0.  0.
   -9000010    2    1    2    0  501 -0.79283448638E+03  0.10019002669E+04 -0.18943736750E+04  0.24860623100E+04  0.97952208823E+03 0.  0.
        -13    1    3    3    0    0 -0.16204750874E+03 -0.51034779227E+03 -0.41551183988E+03  0.67776423955E+03  0.10566000000E+00 0.  1.
          4    1    3    3  502    0  0.95488199513E+03 -0.49155247459E+03 -0.58891176899E+03  0.12248430640E+04  0.00000000000E+00 0.  1.
         13    1    4    4    0    0 -0.38059133255E+03  0.11175271544E+04 -0.14321946141E+04  0.18560436759E+04  0.10566000000E+00 0. -1.
         -4    1    4    4    0  501 -0.41224315383E+03 -0.11562688749E+03 -0.46217906089E+03  0.63001863411E+03  0.00000000000E+00 0. -1.
<mgrwt>
<rscale>  2 0.16128959E+04</rscale>
<asrwt>0</asrwt>
<pdfrwt beam="1">  1        2 0.11460556E+00 0.16128959E+04</pdfrwt>
<pdfrwt beam="2">  1       -2 0.56057438E+00 0.16128959E+04</pdfrwt>
<totfact> 0.21901529E-01</totfact>
</mgrwt>
</event>
<event>
 8    1  0.1449514E-005  0.1386902E+04  0.7818608E-02  0.8477716E-01
          2   -1    0    0  502    0  0.00000000000E+00  0.00000000000E+00  0.17180796031E+04  0.17180796031E+04  0.00000000000E+00 0. -1.
         -2   -1    0    0    0  501 -0.00000000000E+00 -0.00000000000E+00 -0.12855907146E+04  0.12855907146E+04  0.00000000000E+00 0.  1.
    9000010    2    1    2  502    0  0.92638467426E+03  0.24975201480E+03  0.75573761778E+03  0.15780392492E+04  0.99925166567E+03 0.  0.
   -9000010    2    1    2    0  501 -0.92638467426E+03 -0.24975201480E+03 -0.32324872933E+03  0.14256310685E+04  0.10036780205E+04 0.  0.
        -13    1    3    3    0    0  0.83542510914E+02 -0.14050631393E+03 -0.19124881541E+03  0.25158993610E+03  0.10566000000E+00 0.  1.
          4    1    3    3  502    0  0.84284216334E+03  0.39025832873E+03  0.94698643320E+03  0.13264493131E+04  0.00000000000E+00 0.  1.
         13    1    4    4    0    0 -0.10501633964E+04 -0.33711931215E+03 -0.48423407878E+03  0.12045643378E+04  0.10566000000E+00 0. -1.
         -4    1    4    4    0  501  0.12377872210E+03  0.87367297342E+02  0.16098534944E+03  0.22106673071E+03  0.00000000000E+00 0. -1.
<mgrwt>
<rscale>  2 0.13869017E+04</rscale>
<asrwt>0</asrwt>
<pdfrwt beam="1">  1        2 0.26431994E+00 0.13869017E+04</pdfrwt>
<pdfrwt beam="2">  1       -2 0.19778319E+00 0.13869017E+04</pdfrwt>
<totfact> 0.15443120E+00</totfact>
</mgrwt>
</event>
<event>
 8    1  0.1449514E-005  0.1379718E+04  0.7818608E-02  0.8482273E-01
         -2   -1    0    0    0  501 -0.00000000000E+00  0.00000000000E+00  0.95215551112E+03  0.95215551112E+03  0.00000000000E+00 0. -1.
          2   -1    0    0  502    0  0.00000000000E+00 -0.00000000000E+00 -0.20721494074E+04  0.20721494074E+04  0.00000000000E+00 0.  1.
    9000010    2    1    2  502    0  0.23108006436E+03 -0.91744785807E+03 -0.83827206946E+03  0.16036435346E+04  0.98684545662E+03 0.  0.
   -9000010    2    1    2    0  501 -0.23108006436E+03  0.91744785807E+03 -0.28172182684E+03  0.14206613839E+04  0.10216667811E+04 0.  0.
        -13    1    3    3    0    0 -0.28814797333E+03 -0.41120980032E+03 -0.70624982632E+03  0.86655154651E+03  0.10566000000E+00 0.  1.
          4    1    3    3  502    0  0.51922803770E+03 -0.50623805775E+03 -0.13202224314E+03  0.73709198811E+03  0.00000000000E+00 0.  1.
         13    1    4    4    0    0 -0.61870545602E+03  0.70190584694E+03 -0.28166116634E+03  0.97713933656E+03  0.10566000000E+00 0. -1.
         -4    1    4    4    0  501  0.38762539165E+03  0.21554201114E+03 -0.60660491706E-01  0.44352204736E+03  0.00000000000E+00 0. -1.
<mgrwt>
<rscale>  2 0.13797177E+04</rscale>
<asrwt>0</asrwt>
<pdfrwt beam="2">  1        2 0.31879221E+00 0.13797177E+04</pdfrwt>
<pdfrwt beam="1">  1       -2 0.14648547E+00 0.13797177E+04</pdfrwt>
<totfact> 0.27039356E+00</totfact>
</mgrwt>
</event>
<event>
 8    1  0.1449514E-005  0.1014406E+04  0.7818608E-02  0.8761173E-01
          2   -1    0    0  502    0  0.00000000000E+00  0.00000000000E+00  0.13257386415E+04  0.13257386415E+04  0.00000000000E+00 0. -1.
         -2   -1    0    0    0  501 -0.00000000000E+00 -0.00000000000E+00 -0.77785582518E+03  0.77785582518E+03  0.00000000000E+00 0.  1.
    9000010    2    1    2  502    0  0.17472353587E+03  0.62049809603E+02  0.31253963072E+03  0.10423964797E+04  0.97700097606E+03 0.  0.
   -9000010    2    1    2    0  501 -0.17472353587E+03 -0.62049809603E+02  0.23534318559E+03  0.10611979870E+04  0.10180256675E+04 0.  0.
        -13    1    3    3    0    0 -0.13033152953E+03 -0.29623490505E+03  0.44805148235E+03  0.55271291695E+03  0.10566000000E+00 0.  1.
          4    1    3    3  502    0  0.30505506540E+03  0.35828471465E+03 -0.13551185163E+03  0.48968356274E+03  0.00000000000E+00 0.  1.
         13    1    4    4    0    0  0.20244128472E+03  0.13006437012E+03  0.50495085561E+03  0.55935193919E+03  0.10566000000E+00 0. -1.
         -4    1    4    4    0  501 -0.37716482059E+03 -0.19211417973E+03 -0.26960767002E+03  0.50184604778E+03  0.00000000000E+00 0. -1.
<mgrwt>
<rscale>  2 0.10144056E+04</rscale>
<asrwt>0</asrwt>
<pdfrwt beam="1">  1        2 0.20395979E+00 0.10144056E+04</pdfrwt>
<pdfrwt beam="2">  1       -2 0.11967013E+00 0.10144056E+04</pdfrwt>
<totfact> 0.12678125E+01</totfact>
</mgrwt>
</event>
<event>
 8    1  0.1449514E-005  0.1699960E+04  0.7818608E-02  0.8302882E-01
         -2   -1    0    0    0  501 -0.00000000000E+00  0.00000000000E+00  0.13641768701E+04  0.13641768701E+04  0.00000000000E+00 0.  1.
          2   -1    0    0  502    0  0.00000000000E+00 -0.00000000000E+00 -0.21530695696E+04  0.21530695696E+04  0.00000000000E+00 0. -1.
    9000010    2    1    2  502    0 -0.10548367913E+04  0.69359547146E+03 -0.17447512679E+03  0.16101496854E+04  0.98406560002E+03 0.  0.
   -9000010    2    1    2    0  501  0.10548367913E+04 -0.69359547146E+03 -0.61441757274E+03  0.19070967542E+04  0.12906408261E+04 0.  0.
        -13    1    3    3    0    0 -0.76284466860E+02 -0.17488895233E+03 -0.23216452919E+03  0.30050930986E+03  0.10566000000E+00 0.  1.
          4    1    3    3  502    0 -0.97855232448E+03  0.86848442379E+03  0.57689402402E+02  0.13096403755E+04  0.00000000000E+00 0.  1.
         13    1    4    4    0    0 -0.27929526118E+03 -0.23604406173E+03  0.72565511902E+01  0.36575307339E+03  0.10566000000E+00 0. -1.
         -4    1    4    4    0  501  0.13341320525E+04 -0.45755140972E+03 -0.62167412393E+03  0.15413436808E+04  0.00000000000E+00 0. -1.
<mgrwt>
<rscale>  2 0.16999603E+04</rscale>
<asrwt>0</asrwt>
<pdfrwt beam="2">  1        2 0.33124147E+00 0.16999603E+04</pdfrwt>
<pdfrwt beam="1">  1       -2 0.20987337E+00 0.16999603E+04</pdfrwt>
<totfact> 0.68672971E-01</totfact>
</mgrwt>
</event>
<event>
 8    1  0.1449514E-005  0.1084909E+04  0.7818608E-02  0.8698665E-01
         -2   -1    0    0    0  501 -0.00000000000E+00  0.00000000000E+00  0.12947560022E+04  0.12947560022E+04  0.00000000000E+00 0.  1.
          2   -1    0    0  502    0  0.00000000000E+00 -0.00000000000E+00 -0.99461013376E+03  0.99461013376E+03  0.00000000000E+00 0. -1.
    9000010    2    1    2  502    0 -0.22489096519E+03  0.25669858752E+03  0.48064350817E+03  0.11602486449E+04  0.99934409740E+03 0.  0.
   -9000010    2    1    2    0  501  0.22489096519E+03 -0.25669858752E+03 -0.18049763974E+03  0.11291174910E+04  0.10610639941E+04 0.  0.
        -13    1    3    3    0    0 -0.51413366462E+03 -0.61171494390E+01 -0.32538789515E+02  0.51519863024E+03  0.10566000000E+00 0.  1.
          4    1    3    3  502    0  0.28924269943E+03  0.26281573696E+03  0.51318229769E+03  0.64505001467E+03  0.00000000000E+00 0.  1.
         13    1    4    4    0    0  0.65982091802E+02  0.36256081648E+03  0.16345989784E+03  0.40314157743E+03  0.10566000000E+00 0. -1.
         -4    1    4    4    0  501  0.15890887339E+03 -0.61925940400E+03 -0.34395753758E+03  0.72597591361E+03  0.00000000000E+00 0. -1.
<mgrwt>
<rscale>  2 0.10849086E+04</rscale>
<asrwt>0</asrwt>
<pdfrwt beam="2">  1        2 0.15301694E+00 0.10849086E+04</pdfrwt>
<pdfrwt beam="1">  1       -2 0.19919323E+00 0.10849086E+04</pdfrwt>
<totfact> 0.39658818E+00</totfact>
</mgrwt>
</event>
<event>
 8    1  0.1449514E-005  0.1249427E+04  0.7818608E-02  0.8570244E-01
          1   -1    0    0  502    0  0.00000000000E+00  0.00000000000E+00  0.18265815659E+04  0.18265815659E+04  0.00000000000E+00 0. -1.
         -1   -1    0    0    0  501 -0.00000000000E+00 -0.00000000000E+00 -0.11110500393E+04  0.11110500393E+04  0.00000000000E+00 0.  1.
    9000010    2    1    2  502    0 -0.59752313364E+03 -0.46546542165E+03 -0.34877985933E+03  0.12930655134E+04  0.98827075123E+03 0.  0.
   -9000010    2    1    2    0  501  0.59752313364E+03  0.46546542165E+03  0.10643113859E+04  0.16445660918E+04  0.99907304543E+03 0.  0.
        -13    1    3    3    0    0 -0.35473780906E+03 -0.34311717642E+03  0.30833719229E+03  0.58192795537E+03  0.10566000000E+00 0.  1.
          4    1    3    3  502    0 -0.24278532458E+03 -0.12234824523E+03 -0.65711705162E+03  0.71113755805E+03  0.00000000000E+00 0.  1.
         13    1    4    4    0    0  0.82596709657E+02 -0.83772104043E+02  0.85512062941E+03  0.86317511773E+03  0.10566000000E+00 0. -1.
         -4    1    4    4    0  501  0.51492642399E+03  0.54923752569E+03  0.20919075652E+03  0.78139097407E+03  0.00000000000E+00 0. -1.
<mgrwt>
<rscale>  2 0.12494271E+04</rscale>
<asrwt>0</asrwt>
<pdfrwt beam="1">  1        1 0.28101255E+00 0.12494271E+04</pdfrwt>
<pdfrwt beam="2">  1       -1 0.17093078E+00 0.12494271E+04</pdfrwt>
<totfact> 0.12001808E+00</totfact>
</mgrwt>
</event>
<event>
 8    1  0.1449514E-005  0.1433143E+04  0.7818608E-02  0.8449046E-01
         -2   -1    0    0    0  501 -0.00000000000E+00  0.00000000000E+00  0.22642709022E+04  0.22642709022E+04  0.00000000000E+00 0. -1.
          2   -1    0    0  502    0  0.00000000000E+00 -0.00000000000E+00 -0.93973102192E+03  0.93973102192E+03  0.00000000000E+00 0.  1.
    9000010    2    1    2  502    0 -0.77276469880E+03  0.67005718966E+03  0.96199032445E+03  0.17282531495E+04  0.10076168156E+04 0.  0.
   -9000010    2    1    2    0  501  0.77276469880E+03 -0.67005718966E+03  0.36254955586E+03  0.14757487747E+04  0.10001251664E+04 0.  0.
        -13    1    3    3    0    0 -0.17194685357E+03 -0.26118281457E+03  0.32036257486E+03  0.44767663957E+03  0.10566000000E+00 0.  1.
          4    1    3    3  502    0 -0.60081784523E+03  0.93124000423E+03  0.64162774958E+03  0.12805765099E+04  0.00000000000E+00 0.  1.
         13    1    4    4    0    0 -0.11810863292E+03  0.15140849202E+03 -0.45039731370E+02  0.19723784929E+03  0.10566000000E+00 0. -1.
         -4    1    4    4    0  501  0.89087333172E+03 -0.82146568169E+03  0.40758928723E+03  0.12785109254E+04  0.00000000000E+00 0. -1.
<mgrwt>
<rscale>  2 0.14331431E+04</rscale>
<asrwt>0</asrwt>
<pdfrwt beam="2">  1        2 0.14457400E+00 0.14331431E+04</pdfrwt>
<pdfrwt beam="1">  1       -2 0.34834937E+00 0.14331431E+04</pdfrwt>
<totfact> 0.32966960E-01</totfact>
</mgrwt>
</event>
<event>
 8    1  0.1449514E-005  0.1292020E+04  0.7818608E-02  0.8540314E-01
         -2   -1    0    0    0  501 -0.00000000000E+00  0.00000000000E+00  0.73765950405E+03  0.73765950405E+03  0.00000000000E+00 0.  1.
          2   -1    0    0  502    0  0.00000000000E+00 -0.00000000000E+00 -0.38311693839E+04  0.38311693839E+04  0.00000000000E+00 0. -1.
    9000010    2    1    2  502    0 -0.86299465676E+03 -0.60817934010E+02 -0.30303334357E+04  0.33073195864E+04  0.10034856835E+04 0.  0.
   -9000010    2    1    2    0  501  0.86299465676E+03  0.60817934010E+02 -0.63176444197E+02  0.12615093015E+04  0.91594533461E+03 0.  0.
        -13    1    3    3    0    0 -0.96795700075E+03  0.43139880116E+02 -0.30051120128E+04  0.31574515080E+04  0.10566000000E+00 0.  1.
          4    1    3    3  502    0  0.10496234399E+03 -0.10395781413E+03 -0.25221422862E+02  0.14986807847E+03  0.00000000000E+00 0.  1.
         13    1    4    4    0    0  0.78245448120E+03  0.21972801245E+03 -0.38066407384E+03  0.89745226218E+03  0.10566000000E+00 0. -1.
         -4    1    4    4    0  501  0.80540175557E+02 -0.15891007844E+03  0.31748762965E+03  0.36405703933E+03  0.00000000000E+00 0. -1.
<mgrwt>
<rscale>  2 0.12920199E+04</rscale>
<asrwt>0</asrwt>
<pdfrwt beam="2">  1        2 0.58941066E+00 0.12920199E+04</pdfrwt>
<pdfrwt beam="1">  1       -2 0.11348608E+00 0.12920199E+04</pdfrwt>
<totfact> 0.41077617E-01</totfact>
</mgrwt>
</event>
<event>
 8    1  0.1449514E-005  0.1563282E+04  0.7818608E-02  0.8373983E-01
         -2   -1    0    0    0  501 -0.00000000000E+00  0.00000000000E+00  0.93344164331E+03  0.93344164331E+03  0.00000000000E+00 0. -1.
          2   -1    0    0  502    0  0.00000000000E+00 -0.00000000000E+00 -0.26483251310E+04  0.26483251310E+04  0.00000000000E+00 0.  1.
    9000010    2    1    2  502    0  0.94280897788E+03 -0.67826256486E+03 -0.10292577252E+04  0.18468377032E+04  0.10012537947E+04 0.  0.
   -9000010    2    1    2    0  501 -0.94280897788E+03  0.67826256486E+03 -0.68562576247E+03  0.17349290711E+04  0.10913144918E+04 0.  0.
        -13    1    3    3    0    0  0.10520279793E+04 -0.29767510307E+03 -0.93787531340E+03  0.14404802848E+04  0.10566000000E+00 0.  1.
          4    1    3    3  502    0 -0.10921900138E+03 -0.38058746179E+03 -0.91382411841E+02  0.40635741845E+03  0.00000000000E+00 0.  1.
         13    1    4    4    0    0  0.32929443182E+02 -0.19349852480E+03  0.87762076815E+02  0.21500748968E+03  0.10566000000E+00 0. -1.
         -4    1    4    4    0  501 -0.97573842107E+03  0.87176108966E+03 -0.77338783928E+03  0.15199215814E+04  0.00000000000E+00 0. -1.
<mgrwt>
<rscale>  2 0.15632822E+04</rscale>
<asrwt>0</asrwt>
<pdfrwt beam="2">  1        2 0.40743462E+00 0.15632822E+04</pdfrwt>
<pdfrwt beam="1">  1       -2 0.14360641E+00 0.15632822E+04</pdfrwt>
<totfact> 0.13423426E+00</totfact>
</mgrwt>
</event>
<event>
 8    1  0.1449514E-005  0.1380803E+04  0.7818608E-02  0.8481583E-01
         -1   -1    0    0    0  501 -0.00000000000E+00  0.00000000000E+00  0.12072226590E+04  0.12072226590E+04  0.00000000000E+00 0. -1.
          1   -1    0    0  502    0  0.00000000000E+00 -0.00000000000E+00 -0.16395268974E+04  0.16395268974E+04  0.00000000000E+00 0.  1.
    9000010    2    1    2  502    0 -0.37997772430E+02  0.92740184470E+03 -0.49029453804E+03  0.14757171793E+04  0.10372243957E+04 0.  0.
   -9000010    2    1    2    0  501  0.37997772430E+02 -0.92740184470E+03  0.57990299615E+02  0.13710323770E+04  0.10073970874E+04 0.  0.
        -13    1    3    3    0    0 -0.64015058970E+02  0.65693656099E+03 -0.81730852811E+03  0.10505507195E+04  0.10566000000E+00 0.  1.
          4    1    3    3  502    0  0.26017286540E+02  0.27046528370E+03  0.32701399006E+03  0.42516645985E+03  0.00000000000E+00 0.  1.
         13    1    4    4    0    0 -0.67302557930E+02  0.22162632087E+01  0.37670133183E+03  0.38267277234E+03  0.10566000000E+00 0. -1.
         -4    1    4    4    0  501  0.10530033036E+03 -0.92961810791E+03 -0.31871103221E+03  0.98835960469E+03  0.00000000000E+00 0. -1.
<mgrwt>
<rscale>  2 0.13808026E+04</rscale>
<asrwt>0</asrwt>
<pdfrwt beam="2">  1        1 0.25223491E+00 0.13808026E+04</pdfrwt>
<pdfrwt beam="1">  1       -1 0.18572656E+00 0.13808026E+04</pdfrwt>
<totfact> 0.12100615E+00</totfact>
</mgrwt>
</event>
<event>
 8    1  0.1449514E-005  0.2168970E+04  0.7818608E-02  0.8102866E-01
         -4   -1    0    0    0  501 -0.00000000000E+00  0.00000000000E+00  0.25697005920E+04  0.25697005920E+04  0.00000000000E+00 0.  1.
          4   -1    0    0  502    0  0.00000000000E+00 -0.00000000000E+00 -0.19014643121E+04  0.19014643121E+04  0.00000000000E+00 0. -1.
    9000010    2    1    2  502    0  0.12750180628E+03  0.19233659962E+04  0.76626960124E+03  0.23068975178E+04  0.10094620298E+04 0.  0.
   -9000010    2    1    2    0  501 -0.12750180628E+03 -0.19233659962E+04 -0.98033321316E+02  0.21642673864E+04  0.97920851794E+03 0.  0.
        -13    1    3    3    0    0 -0.99183667234E+02  0.19452522078E+04  0.69943021227E+03  0.20695521701E+04  0.10566000000E+00 0.  1.
          4    1    3    3  502    0  0.22668547352E+03 -0.21886211523E+02  0.66839388972E+02  0.23734534770E+03  0.00000000000E+00 0.  1.
         13    1    4    4    0    0  0.13684038161E+03 -0.13990549815E+04 -0.45447142062E+03  0.14773707776E+04  0.10566000000E+00 0. -1.
         -4    1    4    4    0  501 -0.26434218789E+03 -0.52431101475E+03  0.35643809931E+03  0.68689660876E+03  0.00000000000E+00 0. -1.
<mgrwt>
<rscale>  2 0.21689695E+04</rscale>
<asrwt>0</asrwt>
<pdfrwt beam="2">  1        4 0.29253297E+00 0.21689695E+04</pdfrwt>
<pdfrwt beam="1">  1       -4 0.39533855E+00 0.21689695E+04</pdfrwt>
<totfact> 0.26331798E-02</totfact>
</mgrwt>
</event>
<event>
 8    1  0.1449514E-005  0.1172594E+04  0.7818608E-02  0.8627490E-01
          1   -1    0    0  502    0  0.00000000000E+00  0.00000000000E+00  0.22084318186E+04  0.22084318186E+04  0.00000000000E+00 0. -1.
         -1   -1    0    0    0  501 -0.00000000000E+00 -0.00000000000E+00 -0.70025334996E+03  0.70025334996E+03  0.00000000000E+00 0.  1.
    9000010    2    1    2  502    0 -0.42065647424E+03 -0.32649858221E+03  0.24909314832E+03  0.11596286495E+04  0.99956891448E+03 0.  0.
   -9000010    2    1    2    0  501  0.42065647424E+03  0.32649858221E+03  0.12590853204E+04  0.17490565190E+04  0.10910314704E+04 0.  0.
        -13    1    3    3    0    0  0.54243887680E+02  0.20591800051E+03 -0.21969169081E+03  0.30595599759E+03  0.10566000000E+00 0.  1.
          4    1    3    3  502    0 -0.47490036192E+03 -0.53241658271E+03  0.46878483914E+03  0.85367265196E+03  0.00000000000E+00 0.  1.
         13    1    4    4    0    0  0.31752030734E+03  0.30353439913E+03  0.14585903941E+04  0.15232984691E+04  0.10566000000E+00 0. -1.
         -4    1    4    4    0  501  0.10313616690E+03  0.22964183078E+02 -0.19950507379E+03  0.22575804990E+03  0.00000000000E+00 0. -1.
<mgrwt>
<rscale>  2 0.11725942E+04</rscale>
<asrwt>0</asrwt>
<pdfrwt beam="1">  1        1 0.33975874E+00 0.11725942E+04</pdfrwt>
<pdfrwt beam="2">  1       -1 0.10773129E+00 0.11725942E+04</pdfrwt>
<totfact> 0.22100677E+00</totfact>
</mgrwt>
</event>
<event>
 8    1  0.1449514E-005  0.1994944E+04  0.7818608E-02  0.8170454E-01
         -2   -1    0    0    0  501 -0.00000000000E+00  0.00000000000E+00  0.22053349992E+04  0.22053349992E+04  0.00000000000E+00 0.  1.
          2   -1    0    0  502    0  0.00000000000E+00 -0.00000000000E+00 -0.18403122897E+04  0.18403122897E+04  0.00000000000E+00 0. -1.
    9000010    2    1    2  502    0  0.83687450265E+03  0.14980114541E+04  0.46326845791E+03  0.20394352557E+04  0.10001406143E+04 0.  0.
   -9000010    2    1    2    0  501 -0.83687450265E+03 -0.14980114541E+04 -0.98245748459E+02  0.20062120332E+04  0.10348126618E+04 0.  0.
        -13    1    3    3    0    0  0.19961523434E+03  0.32912800740E+02 -0.22255582551E+03  0.30076668843E+03  0.10566000000E+00 0.  1.
          4    1    3    3  502    0  0.63725926831E+03  0.14650986534E+04  0.68582428343E+03  0.17386685673E+04  0.00000000000E+00 0.  1.
         13    1    4    4    0    0 -0.18813865837E+03 -0.62716299416E+03 -0.52518431440E+03  0.83937366605E+03  0.10566000000E+00 0. -1.
         -4    1    4    4    0  501 -0.64873584428E+03 -0.87084845998E+03  0.42693856594E+03  0.11668383671E+04  0.00000000000E+00 0. -1.
<mgrwt>
<rscale>  2 0.19949436E+04</rscale>
<asrwt>0</asrwt>
<pdfrwt beam="2">  1        2 0.28312497E+00 0.19949436E+04</pdfrwt>
<pdfrwt beam="1">  1       -2 0.33928231E+00 0.19949436E+04</pdfrwt>
<totfact> 0.11139562E-01</totfact>
</mgrwt>
</event>
<event>
 8    1  0.1449514E-005  0.1308076E+04  0.7818608E-02  0.8529339E-01
          1   -1    0    0  502    0  0.00000000000E+00  0.00000000000E+00  0.14386776085E+04  0.14386776085E+04  0.00000000000E+00 0.  1.
         -1   -1    0    0    0  501 -0.00000000000E+00 -0.00000000000E+00 -0.16060084923E+04  0.16060084923E+04  0.00000000000E+00 0. -1.
    9000010    2    1    2  502    0  0.40387246182E+03  0.74416006718E+03  0.69163140936E+03  0.14819283132E+04  0.10004350794E+04 0.  0.
   -9000010    2    1    2    0  501 -0.40387246182E+03 -0.74416006718E+03 -0.85896229321E+03  0.15627577876E+04  0.99373462776E+03 0.  0.
        -13    1    3    3    0    0  0.32978812038E+03  0.46155005126E+03  0.94037453742E+03  0.10982226259E+04  0.10566000000E+00 0.  1.
          4    1    3    3  502    0  0.74084341439E+02  0.28261001592E+03 -0.24874312806E+03  0.38370568734E+03  0.00000000000E+00 0.  1.
         13    1    4    4    0    0  0.28899784609E+03 -0.15605189734E+03 -0.47191972347E+03  0.57496103022E+03  0.10566000000E+00 0. -1.
         -4    1    4    4    0  501 -0.69287030791E+03 -0.58810816984E+03 -0.38704256973E+03  0.98779675733E+03  0.00000000000E+00 0. -1.
<mgrwt>
<rscale>  2 0.13080763E+04</rscale>
<asrwt>0</asrwt>
<pdfrwt beam="1">  1        1 0.22133502E+00 0.13080763E+04</pdfrwt>
<pdfrwt beam="2">  1       -1 0.24707823E+00 0.13080763E+04</pdfrwt>
<totfact> 0.46844637E-01</totfact>
</mgrwt>
</event>
<event>
 8    1  0.1449514E-005  0.1918555E+04  0.7818608E-02  0.8202382E-01
         -4   -1    0    0    0  501 -0.00000000000E+00  0.00000000000E+00  0.13948133634E+04  0.13948133634E+04  0.00000000000E+00 0.  1.
          4   -1    0    0  502    0  0.00000000000E+00 -0.00000000000E+00 -0.26614140189E+04  0.26614140189E+04  0.00000000000E+00 0. -1.
    9000010    2    1    2  502    0 -0.18718527914E+03  0.16152358841E+04 -0.44406105156E+03  0.19596731601E+04  0.99955159288E+03 0.  0.
   -9000010    2    1    2    0  501  0.18718527914E+03 -0.16152358841E+04 -0.82253960401E+03  0.20965542223E+04  0.10367945393E+04 0.  0.
        -13    1    3    3    0    0  0.25210253686E+03  0.39962434092E+02 -0.15592125059E+03  0.29910555458E+03  0.10566000000E+00 0.  1.
          4    1    3    3  502    0 -0.43928781600E+03  0.15752734500E+04 -0.28813980097E+03  0.16605676055E+04  0.00000000000E+00 0.  1.
         13    1    4    4    0    0  0.57934698066E+03 -0.64033055888E+03 -0.49763507971E+03  0.99664779754E+03  0.10566000000E+00 0. -1.
         -4    1    4    4    0  501 -0.39216170152E+03 -0.97490532518E+03 -0.32490452430E+03  0.10999064247E+04  0.00000000000E+00 0. -1.
<mgrwt>
<rscale>  2 0.19185550E+04</rscale>
<asrwt>0</asrwt>
<pdfrwt beam="2">  1        4 0.40944831E+00 0.19185550E+04</pdfrwt>
<pdfrwt beam="1">  1       -4 0.21458667E+00 0.19185550E+04</pdfrwt>
<totfact> 0.37184825E-02</totfact>
</mgrwt>
</event>
<event>
 8    1  0.1449514E-005  0.1494185E+04  0.7818608E-02  0.8412854E-01
         -1   -1    0    0    0  501 -0.00000000000E+00  0.00000000000E+00  0.13673447815E+04  0.13673447815E+04  0.00000000000E+00 0.  1.
          1   -1    0    0  502    0  0.00000000000E+00 -0.00000000000E+00 -0.16815115252E+04  0.16815115252E+04  0.00000000000E+00 0. -1.
    9000010    2    1    2  502    0 -0.63811954846E+03 -0.99179476502E+03  0.10174105652E+03  0.14426032013E+04  0.82456008872E+03 0.  0.
   -9000010    2    1    2    0  501  0.63811954846E+03  0.99179476502E+03 -0.41590780015E+03  0.16062531053E+04  0.10080755558E+04 0.  0.
        -13    1    3    3    0    0  0.35674618221E+02 -0.68444665549E+03  0.14579915165E+03  0.70071199960E+03  0.10566000000E+00 0.  1.
          4    1    3    3  502    0 -0.67379416668E+03 -0.30734810953E+03 -0.44058095129E+02  0.74189120174E+03  0.00000000000E+00 0.  1.
         13    1    4    4    0    0 -0.68367024942E+02  0.51888545579E+03  0.19590822306E+03  0.55883468876E+03  0.10566000000E+00 0. -1.
         -4    1    4    4    0  501  0.70648657340E+03  0.47290930923E+03 -0.61181602321E+03  0.10474184166E+04  0.00000000000E+00 0. -1.
<mgrwt>
<rscale>  2 0.14941845E+04</rscale>
<asrwt>0</asrwt>
<pdfrwt beam="2">  1        1 0.25869408E+00 0.14941845E+04</pdfrwt>
<pdfrwt beam="1">  1       -1 0.21036073E+00 0.14941845E+04</pdfrwt>
<totfact> 0.66804101E-01</totfact>
</mgrwt>
</event>
<event>
 8    1  0.1449514E-005  0.1202678E+04  0.7818608E-02  0.8604549E-01
          1   -1    0    0  502    0  0.00000000000E+00  0.00000000000E+00  0.20609705596E+04  0.20609705596E+04  0.00000000000E+00 0.  1.
         -1   -1    0    0    0  501 -0.00000000000E+00 -0.00000000000E+00 -0.70592193107E+03  0.70592193107E+03  0.00000000000E+00 0. -1.
    9000010    2    1    2  502    0 -0.37307456071E+03 -0.55040982039E+03  0.56942545452E+03  0.13261290851E+04  0.99611114028E+03 0.  0.
   -9000010    2    1    2    0  501  0.37307456071E+03  0.55040982039E+03  0.78562317399E+03  0.14407634056E+04  0.10081963207E+04 0.  0.
        -13    1    3    3    0    0 -0.32623704120E+03  0.34996879324E+02 -0.17981773730E+03  0.37415213273E+03  0.10566000000E+00 0.  1.
          4    1    3    3  502    0 -0.46837519510E+02 -0.58540669971E+03  0.74924319182E+03  0.95197695234E+03  0.00000000000E+00 0.  1.
         13    1    4    4    0    0  0.69905604210E+03  0.36997183821E+03  0.70507027237E+03  0.10595671811E+04  0.10566000000E+00 0. -1.
         -4    1    4    4    0  501 -0.32598148139E+03  0.18043798218E+03  0.80552901619E+02  0.38119622451E+03  0.00000000000E+00 0. -1.
<mgrwt>
<rscale>  2 0.12026776E+04</rscale>
<asrwt>0</asrwt>
<pdfrwt beam="1">  1        1 0.31707239E+00 0.12026776E+04</pdfrwt>
<pdfrwt beam="2">  1       -1 0.10860337E+00 0.12026776E+04</pdfrwt>
<totfact> 0.28250402E+00</totfact>
</mgrwt>
</event>
<event>
 8    1  0.1449514E-005  0.1210468E+04  0.7818608E-02  0.8598721E-01
         -2   -1    0    0    0  501 -0.00000000000E+00  0.00000000000E+00  0.68745971121E+03  0.68745971121E+03  0.00000000000E+00 0.  1.
          2   -1    0    0  502    0  0.00000000000E+00 -0.00000000000E+00 -0.21439436059E+04  0.21439436059E+04  0.00000000000E+00 0. -1.
    9000010    2    1    2  502    0  0.56496616758E+03  0.38861171670E+03 -0.61919225443E+03  0.13586722572E+04  0.99618543338E+03 0.  0.
   -9000010    2    1    2    0  501 -0.56496616758E+03 -0.38861171670E+03 -0.83729164022E+03  0.14727310599E+04  0.99883614627E+03 0.  0.
        -13    1    3    3    0    0  0.36886323934E+03  0.72434932435E+03 -0.34577070022E+03  0.88334558431E+03  0.10566000000E+00 0.  1.
          4    1    3    3  502    0  0.19610292824E+03 -0.33573760765E+03 -0.27342155422E+03  0.47532667290E+03  0.00000000000E+00 0.  1.
         13    1    4    4    0    0  0.20031078425E+03  0.13568719184E+03 -0.31512699911E+02  0.24398460143E+03  0.10566000000E+00 0. -1.
         -4    1    4    4    0  501 -0.76527695183E+03 -0.52429890854E+03 -0.80577894031E+03  0.12287464584E+04  0.00000000000E+00 0. -1.
<mgrwt>
<rscale>  2 0.12104681E+04</rscale>
<asrwt>0</asrwt>
<pdfrwt beam="2">  1        2 0.32983748E+00 0.12104681E+04</pdfrwt>
<pdfrwt beam="1">  1       -2 0.10576303E+00 0.12104681E+04</pdfrwt>
<totfact> 0.60830436E+00</totfact>
</mgrwt>
</event>
<event>
 8    1  0.1449514E-005  0.1072528E+04  0.7818608E-02  0.8709279E-01
          1   -1    0    0  502    0  0.00000000000E+00  0.00000000000E+00  0.11689351897E+04  0.11689351897E+04  0.00000000000E+00 0. -1.
         -1   -1    0    0    0  501 -0.00000000000E+00 -0.00000000000E+00 -0.98835950509E+03  0.98835950509E+03  0.00000000000E+00 0.  1.
    9000010    2    1    2  502    0  0.37171688531E+03 -0.12608787323E+03  0.19147711590E+02  0.10714326769E+04  0.99675962579E+03 0.  0.
   -9000010    2    1    2    0  501 -0.37171688531E+03  0.12608787323E+03  0.16142797304E+03  0.10858620179E+04  0.99948273468E+03 0.  0.
        -13    1    3    3    0    0  0.62608576533E+03 -0.25670214260E+03 -0.20617480507E+03  0.70738068745E+03  0.10566000000E+00 0.  1.
          4    1    3    3  502    0 -0.25436888002E+03  0.13061426937E+03  0.22532251666E+03  0.36405198942E+03  0.00000000000E+00 0.  1.
         13    1    4    4    0    0 -0.90855517787E+02 -0.21020657165E+03  0.48822287834E+03  0.53926164148E+03  0.10566000000E+00 0. -1.
         -4    1    4    4    0  501 -0.28086136752E+03  0.33629444488E+03 -0.32679490529E+03  0.54660037646E+03  0.00000000000E+00 0. -1.
<mgrwt>
<rscale>  2 0.10725279E+04</rscale>
<asrwt>0</asrwt>
<pdfrwt beam="1">  1        1 0.17983618E+00 0.10725279E+04</pdfrwt>
<pdfrwt beam="2">  1       -1 0.15205531E+00 0.10725279E+04</pdfrwt>
<totfact> 0.55699337E+00</totfact>
</mgrwt>
</event>
<event>
 8    1  0.1449514E-005  0.1327300E+04  0.7818608E-02  0.8516410E-01
          2   -1    0    0  502    0  0.00000000000E+00  0.00000000000E+00  0.36728867064E+04  0.36728867064E+04  0.00000000000E+00 0. -1.
         -2   -1    0    0    0  501 -0.00000000000E+00 -0.00000000000E+00 -0.48845568062E+03  0.48845568062E+03  0.00000000000E+00 0.  1.
    9000010    2    1    2  502    0 -0.86898550640E+03 -0.48591349282E+02  0.18731726972E+04  0.22965992975E+04  0.10040395661E+04 0.  0.
   -9000010    2    1    2    0  501  0.86898550640E+03  0.48591349282E+02  0.13112583286E+04  0.18647430895E+04  0.10001857107E+04 0.  0.
        -13    1    3    3    0    0 -0.10885032841E+04 -0.11200174333E+03  0.16268395724E+04  0.19606098019E+04  0.10566000000E+00 0.  1.
          4    1    3    3  502    0  0.21951777767E+03  0.63410394053E+02  0.24633312484E+03  0.33598949564E+03  0.00000000000E+00 0.  1.
         13    1    4    4    0    0  0.94769206210E+03  0.19644629008E+03  0.61062529593E+03  0.11443664853E+04  0.10566000000E+00 0. -1.
         -4    1    4    4    0  501 -0.78706555698E+02 -0.14785494080E+03  0.70063303267E+03  0.72037660421E+03  0.00000000000E+00 0. -1.
<mgrwt>
<rscale>  2 0.13273003E+04</rscale>
<asrwt>0</asrwt>
<pdfrwt beam="1">  1        2 0.56505948E+00 0.13273003E+04</pdfrwt>
<pdfrwt beam="2">  1       -2 0.75147030E-01 0.13273003E+04</pdfrwt>
<totfact> 0.14483315E+00</totfact>
</mgrwt>
</event>
<event>
 8    1  0.1449514E-005  0.1616603E+04  0.7818608E-02  0.8345383E-01
         -2   -1    0    0    0  501 -0.00000000000E+00  0.00000000000E+00  0.11813358445E+04  0.11813358445E+04  0.00000000000E+00 0.  1.
          2   -1    0    0  502    0  0.00000000000E+00 -0.00000000000E+00 -0.22134382514E+04  0.22134382514E+04  0.00000000000E+00 0. -1.
    9000010    2    1    2  502    0 -0.10662461806E+04 -0.67606113216E+03 -0.47776377421E+03  0.16886274208E+04  0.10145268702E+04 0.  0.
   -9000010    2    1    2    0  501  0.10662461806E+04  0.67606113216E+03 -0.55433863261E+03  0.17061466751E+04  0.10048410746E+04 0.  0.
        -13    1    3    3    0    0 -0.71510989716E+03  0.12831087678E+03 -0.33255140701E+03  0.79902208705E+03  0.10566000000E+00 0.  1.
          4    1    3    3  502    0 -0.35113628344E+03 -0.80437200894E+03 -0.14521236720E+03  0.88960533379E+03  0.00000000000E+00 0.  1.
         13    1    4    4    0    0  0.12091642081E+04  0.35402907476E+03 -0.40426920582E+03  0.13231962326E+04  0.10566000000E+00 0. -1.
         -4    1    4    4    0  501 -0.14291802749E+03  0.32203205740E+03 -0.15006942679E+03  0.38295044253E+03  0.00000000000E+00 0. -1.
<mgrwt>
<rscale>  2 0.16166034E+04</rscale>
<asrwt>0</asrwt>
<pdfrwt beam="2">  1        2 0.34052896E+00 0.16166034E+04</pdfrwt>
<pdfrwt beam="1">  1       -2 0.18174398E+00 0.16166034E+04</pdfrwt>
<totfact> 0.10987759E+00</totfact>
</mgrwt>
</event>
<event>
 8    1  0.1449514E-005  0.1703244E+04  0.7818608E-02  0.8301259E-01
         -2   -1    0    0    0  501 -0.00000000000E+00  0.00000000000E+00  0.90919711452E+03  0.90919711452E+03  0.00000000000E+00 0.  1.
          2   -1    0    0  502    0  0.00000000000E+00 -0.00000000000E+00 -0.32023314206E+04  0.32023314206E+04  0.00000000000E+00 0. -1.
    9000010    2    1    2  502    0 -0.61857430968E+03 -0.12273071098E+04 -0.12664503466E+04  0.21183455693E+04  0.99728358674E+03 0.  0.
   -9000010    2    1    2    0  501  0.61857430968E+03  0.12273071098E+04 -0.10266839595E+04  0.19931829658E+04  0.10147814860E+04 0.  0.
        -13    1    3    3    0    0 -0.74706794505E+03 -0.13232071813E+04 -0.10419011478E+04  0.18424293126E+04  0.10566000000E+00 0.  1.
          4    1    3    3  502    0  0.12849363537E+03  0.95900071474E+02 -0.22454919879E+03  0.27591625671E+03  0.00000000000E+00 0.  1.
         13    1    4    4    0    0  0.22694137220E+03  0.10110157540E+04 -0.20304698152E+03  0.10558803574E+04  0.10566000000E+00 0. -1.
         -4    1    4    4    0  501  0.39163293749E+03  0.21629135581E+03 -0.82363697801E+03  0.93730260848E+03  0.00000000000E+00 0. -1.
<mgrwt>
<rscale>  2 0.17032444E+04</rscale>
<asrwt>0</asrwt>
<pdfrwt beam="2">  1        2 0.49266637E+00 0.17032444E+04</pdfrwt>
<pdfrwt beam="1">  1       -2 0.13987648E+00 0.17032444E+04</pdfrwt>
<totfact> 0.65279758E-01</totfact>
</mgrwt>
</event>
<event>
 8    1  0.1449514E-005  0.1181475E+04  0.7818608E-02  0.8620644E-01
         -1   -1    0    0    0  501 -0.00000000000E+00  0.00000000000E+00  0.48742182697E+04  0.48742182697E+04  0.00000000000E+00 0.  1.
          1   -1    0    0  502    0  0.00000000000E+00 -0.00000000000E+00 -0.39971229143E+03  0.39971229143E+03  0.00000000000E+00 0. -1.
    9000010    2    1    2  502    0  0.59071313727E+03 -0.12721671659E+03  0.36569317108E+04  0.38466576683E+04  0.10288340860E+04 0.  0.
   -9000010    2    1    2    0  501 -0.59071313727E+03  0.12721671659E+03  0.81757426750E+03  0.14272728928E+04  0.10017754859E+04 0.  0.
        -13    1    3    3    0    0  0.42226520301E+03 -0.22315359899E+03  0.36174293547E+04  0.36488218068E+04  0.10566000000E+00 0.  1.
          4    1    3    3  502    0  0.16844793426E+03  0.95936882404E+02  0.39502356065E+02  0.19783586150E+03  0.00000000000E+00 0.  1.
         13    1    4    4    0    0 -0.70958119707E+03  0.32898688734E+03  0.88741788275E+03  0.11828982869E+04  0.10566000000E+00 0. -1.
         -4    1    4    4    0  501  0.11886805981E+03 -0.20177017075E+03 -0.69843615241E+02  0.24437460596E+03  0.00000000000E+00 0. -1.
<mgrwt>
<rscale>  2 0.11814748E+04</rscale>
<asrwt>0</asrwt>
<pdfrwt beam="2">  1        1 0.61494202E-01 0.11814748E+04</pdfrwt>
<pdfrwt beam="1">  1       -1 0.74987969E+00 0.11814748E+04</pdfrwt>
<totfact> 0.52766871E-02</totfact>
</mgrwt>
</event>
<event>
 8    1  0.1449514E-005  0.1137841E+04  0.7818608E-02  0.8654900E-01
         -2   -1    0    0    0  501 -0.00000000000E+00  0.00000000000E+00  0.37995503007E+04  0.37995503007E+04  0.00000000000E+00 0. -1.
          2   -1    0    0  502    0  0.00000000000E+00 -0.00000000000E+00 -0.36638563191E+03  0.36638563191E+03  0.00000000000E+00 0.  1.
    9000010    2    1    2  502    0 -0.70960068929E+03  0.38825791725E+02  0.23682605348E+04  0.26686456976E+04  0.10039777479E+04 0.  0.
   -9000010    2    1    2    0  501  0.70960068929E+03 -0.38825791725E+02  0.10649041341E+04  0.14972902351E+04  0.77641268218E+03 0.  0.
        -13    1    3    3    0    0 -0.43093941734E+03 -0.72250622865E+02  0.23248277022E+04  0.23655343561E+04  0.10566000000E+00 0.  1.
          4    1    3    3  502    0 -0.27866127195E+03  0.11107641459E+03  0.43432832573E+02  0.30311134144E+03  0.00000000000E+00 0.  1.
         13    1    4    4    0    0 -0.40240887022E+02 -0.18006237189E+03 -0.33272381469E+01  0.18453419314E+03  0.10566000000E+00 0. -1.
         -4    1    4    4    0  501  0.74984157631E+03  0.14123658017E+03  0.10682313722E+04  0.13127560420E+04  0.00000000000E+00 0. -1.
<mgrwt>
<rscale>  2 0.11378409E+04</rscale>
<asrwt>0</asrwt>
<pdfrwt beam="2">  1        2 0.56367023E-01 0.11378409E+04</pdfrwt>
<pdfrwt beam="1">  1       -2 0.58454617E+00 0.11378409E+04</pdfrwt>
<totfact> 0.62753864E-01</totfact>
</mgrwt>
</event>
<event>
 8    1  0.1449514E-005  0.1097500E+04  0.7818608E-02  0.8688022E-01
         -2   -1    0    0    0  501 -0.00000000000E+00  0.00000000000E+00  0.74071387967E+03  0.74071387967E+03  0.00000000000E+00 0.  1.
          2   -1    0    0  502    0  0.00000000000E+00 -0.00000000000E+00 -0.16415213184E+04  0.16415213184E+04  0.00000000000E+00 0. -1.
    9000010    2    1    2  502    0  0.21553018475E+03 -0.35697426925E+03 -0.56959044252E+03  0.12464446318E+04  0.10272813920E+04 0.  0.
   -9000010    2    1    2    0  501 -0.21553018475E+03  0.35697426925E+03 -0.33121699625E+03  0.11357905663E+04  0.10032106571E+04 0.  0.
        -13    1    3    3    0    0  0.11216299246E+03  0.81977924556E+02  0.26420828176E+03  0.29850786305E+03  0.10566000000E+00 0.  1.
          4    1    3    3  502    0  0.10336719229E+03 -0.43895219381E+03 -0.83379872428E+03  0.94793676872E+03  0.00000000000E+00 0.  1.
         13    1    4    4    0    0 -0.19302878913E+03  0.56437255307E+02  0.34281391663E+03  0.39745021049E+03  0.10566000000E+00 0. -1.
         -4    1    4    4    0  501 -0.22501395624E+02  0.30053701395E+03 -0.67403091289E+03  0.73834035585E+03  0.00000000000E+00 0. -1.
<mgrwt>
<rscale>  2 0.10974996E+04</rscale>
<asrwt>0</asrwt>
<pdfrwt beam="2">  1        2 0.25254174E+00 0.10974996E+04</pdfrwt>
<pdfrwt beam="1">  1       -2 0.11395598E+00 0.10974996E+04</pdfrwt>
<totfact> 0.95820095E+00</totfact>
</mgrwt>
</event>
<event>
 8    1  0.1449514E-005  0.2079477E+04  0.7818608E-02  0.8136778E-01
         -4   -1    0    0    0  501 -0.00000000000E+00  0.00000000000E+00  0.12518701866E+04  0.12518701866E+04  0.00000000000E+00 0. -1.
          4   -1    0    0  502    0  0.00000000000E+00 -0.00000000000E+00 -0.35232063540E+04  0.35232063540E+04  0.00000000000E+00 0.  1.
    9000010    2    1    2  502    0 -0.17795392501E+04  0.40330262406E+03 -0.14674882068E+04  0.25417086637E+04  0.98860929845E+03 0.  0.
   -9000010    2    1    2    0  501  0.17795392501E+04 -0.40330262406E+03 -0.80384796062E+03  0.22333678769E+04  0.10061548493E+04 0.  0.
        -13    1    3    3    0    0 -0.15425741492E+04  0.59491917003E+02 -0.14589562277E+04  0.21240592222E+04  0.10566000000E+00 0.  1.
          4    1    3    3  502    0 -0.23696510091E+03  0.34381070706E+03 -0.85319790882E+01  0.41764944152E+03  0.00000000000E+00 0.  1.
         13    1    4    4    0    0  0.73907391884E+02  0.21821885099E+03 -0.23949644003E+03  0.33232563165E+03  0.10566000000E+00 0. -1.
         -4    1    4    4    0  501  0.17056318582E+04 -0.62152147505E+03 -0.56435152059E+03  0.19010422453E+04  0.00000000000E+00 0. -1.
<mgrwt>
<rscale>  2 0.20794772E+04</rscale>
<asrwt>0</asrwt>
<pdfrwt beam="2">  1        4 0.54203173E+00 0.20794772E+04</pdfrwt>
<pdfrwt beam="1">  1       -4 0.19259542E+00 0.20794772E+04</pdfrwt>
<totfact> 0.10283412E-02</totfact>
</mgrwt>
</event>
<event>
 8    1  0.1449514E-005  0.1718637E+04  0.7818608E-02  0.8293703E-01
         -2   -1    0    0    0  501 -0.00000000000E+00  0.00000000000E+00  0.12667788352E+04  0.12667788352E+04  0.00000000000E+00 0. -1.
          2   -1    0    0  502    0  0.00000000000E+00 -0.00000000000E+00 -0.23631765141E+04  0.23631765141E+04  0.00000000000E+00 0.  1.
    9000010    2    1    2  502    0  0.11660781677E+04  0.77176201687E+03 -0.75833782543E+03  0.18802069007E+04  0.10023706043E+04 0.  0.
   -9000010    2    1    2    0  501 -0.11660781677E+04 -0.77176201687E+03 -0.33805985344E+03  0.17497484485E+04  0.99598206048E+03 0.  0.
        -13    1    3    3    0    0  0.28934925460E+03  0.70925381864E+03 -0.63027316858E+03  0.99197189909E+03  0.10566000000E+00 0.  1.
          4    1    3    3  502    0  0.87672891305E+03  0.62508198225E+02 -0.12806465685E+03  0.88823500165E+03  0.00000000000E+00 0.  1.
         13    1    4    4    0    0 -0.13245940715E+04 -0.81084568873E+03 -0.31758207518E+03  0.15852061604E+04  0.10566000000E+00 0. -1.
         -4    1    4    4    0  501  0.15851590386E+03  0.39083671865E+02 -0.20477778259E+02  0.16454228814E+03  0.00000000000E+00 0. -1.
<mgrwt>
<rscale>  2 0.17186365E+04</rscale>
<asrwt>0</asrwt>
<pdfrwt beam="2">  1        2 0.36356561E+00 0.17186365E+04</pdfrwt>
<pdfrwt beam="1">  1       -2 0.19488906E+00 0.17186365E+04</pdfrwt>
<totfact> 0.69802653E-01</totfact>
</mgrwt>
</event>
<event>
 8    1  0.1449514E-005  0.1086500E+04  0.7818608E-02  0.8697312E-01
         -1   -1    0    0    0  501 -0.00000000000E+00  0.00000000000E+00  0.31335790516E+04  0.31335790516E+04  0.00000000000E+00 0. -1.
          1   -1    0    0  502    0  0.00000000000E+00 -0.00000000000E+00 -0.59162541881E+03  0.59162541881E+03  0.00000000000E+00 0.  1.
    9000010    2    1    2  502    0 -0.40028745997E+03 -0.96986984293E+01  0.23966108417E+04  0.26330980236E+04  0.10144641740E+04 0.  0.
   -9000010    2    1    2    0  501  0.40028745997E+03  0.96986984293E+01  0.14534279112E+03  0.10921064468E+04  0.10056081984E+04 0.  0.
        -13    1    3    3    0    0 -0.31999766974E+03 -0.45772406979E+03  0.82017905068E+03  0.99227189774E+03  0.10566000000E+00 0.  1.
          4    1    3    3  502    0 -0.80289790237E+02  0.44802537136E+03  0.15764317910E+04  0.16408261259E+04  0.00000000000E+00 0.  1.
         13    1    4    4    0    0 -0.13036989006E+03 -0.15774175376E+03 -0.31111986716E+03  0.37239005360E+03  0.10566000000E+00 0. -1.
         -4    1    4    4    0  501  0.53065735004E+03  0.16744045219E+03  0.45646265827E+03  0.71971639316E+03  0.00000000000E+00 0. -1.
<mgrwt>
<rscale>  2 0.10865003E+04</rscale>
<asrwt>0</asrwt>
<pdfrwt beam="2">  1        1 0.91019297E-01 0.10865003E+04</pdfrwt>
<pdfrwt beam="1">  1       -1 0.48208908E+00 0.10865003E+04</pdfrwt>
<totfact> 0.49330926E-01</totfact>
</mgrwt>
</event>
<event>
 8    1  0.1449514E-005  0.1118170E+04  0.7818608E-02  0.8670869E-01
          2   -1    0    0  502    0  0.00000000000E+00  0.00000000000E+00  0.17669476492E+04  0.17669476492E+04  0.00000000000E+00 0.  1.
         -2   -1    0    0    0  501 -0.00000000000E+00 -0.00000000000E+00 -0.19086462182E+04  0.19086462182E+04  0.00000000000E+00 0. -1.
    9000010    2    1    2  502    0 -0.25472819043E+03  0.42002516375E+03  0.13867411683E+04  0.17871713069E+04  0.10147032193E+04 0.  0.
   -9000010    2    1    2    0  501  0.25472819043E+03 -0.42002516375E+03 -0.15284397372E+04  0.18884225605E+04  0.99433603357E+03 0.  0.
        -13    1    3    3    0    0 -0.42917639671E+03  0.37638573839E+03  0.22820937678E+03  0.61476673167E+03  0.10566000000E+00 0.  1.
          4    1    3    3  502    0  0.17444820627E+03  0.43639425361E+02  0.11585317915E+04  0.11724045752E+04  0.00000000000E+00 0.  1.
         13    1    4    4    0    0  0.24113980616E+03 -0.68840713464E+03 -0.14243191720E+04  0.16002305784E+04  0.10566000000E+00 0. -1.
         -4    1    4    4    0  501  0.13588384278E+02  0.26838197089E+03 -0.10412056526E+03  0.28819198218E+03  0.00000000000E+00 0. -1.
<mgrwt>
<rscale>  2 0.11181698E+04</rscale>
<asrwt>0</asrwt>
<pdfrwt beam="1">  1        2 0.27183810E+00 0.11181698E+04</pdfrwt>
<pdfrwt beam="2">  1       -2 0.29363788E+00 0.11181698E+04</pdfrwt>
<totfact> 0.26817281E-01</totfact>
</mgrwt>
</event>
<event>
 8    1  0.1449514E-005  0.1055770E+04  0.7818608E-02  0.8723885E-01
          1   -1    0    0  502    0  0.00000000000E+00  0.00000000000E+00  0.44692613307E+03  0.44692613307E+03  0.00000000000E+00 0.  1.
         -1   -1    0    0    0  501 -0.00000000000E+00 -0.00000000000E+00 -0.31604571111E+04  0.31604571111E+04  0.00000000000E+00 0. -1.
    9000010    2    1    2  502    0 -0.94034225281E+02  0.34019728995E+03 -0.52826106226E+03  0.11803306911E+04  0.99475834193E+03 0.  0.
   -9000010    2    1    2    0  501  0.94034225281E+02 -0.34019728995E+03 -0.21852699157E+04  0.24270525530E+04  0.99529033904E+03 0.  0.
        -13    1    3    3    0    0 -0.51795688301E+03  0.66316882420E+02 -0.13187229492E+03  0.53857921876E+03  0.10566000000E+00 0.  1.
          4    1    3    3  502    0  0.42392265773E+03  0.27388040753E+03 -0.39638876734E+03  0.64175147233E+03  0.00000000000E+00 0.  1.
         13    1    4    4    0    0 -0.37431430166E+03 -0.40329728606E+02 -0.14894937979E+04  0.15363363788E+04  0.10566000000E+00 0. -1.
         -4    1    4    4    0  501  0.46834852694E+03 -0.29986756134E+03 -0.69577611780E+03  0.89071617429E+03  0.00000000000E+00 0. -1.
<mgrwt>
<rscale>  2 0.10557699E+04</rscale>
<asrwt>0</asrwt>
<pdfrwt beam="1">  1        1 0.68757868E-01 0.10557699E+04</pdfrwt>
<pdfrwt beam="2">  1       -1 0.48622416E+00 0.10557699E+04</pdfrwt>
<totfact> 0.72723607E-01</totfact>
</mgrwt>
</event>
<event>
 8    1  0.1449514E-005  0.1477607E+04  0.7818608E-02  0.8422504E-01
         -2   -1    0    0    0  501 -0.00000000000E+00  0.00000000000E+00  0.14230837535E+04  0.14230837535E+04  0.00000000000E+00 0.  1.
          2   -1    0    0  502    0  0.00000000000E+00 -0.00000000000E+00 -0.15440836753E+04  0.15440836753E+04  0.00000000000E+00 0. -1.
    9000010    2    1    2  502    0  0.10801897810E+04  0.19533232643E+03  0.58110817970E+02  0.14701173816E+04  0.97616779696E+03 0.  0.
   -9000010    2    1    2    0  501 -0.10801897810E+04 -0.19533232643E+03 -0.17911073980E+03  0.14970500472E+04  0.10020546422E+04 0.  0.
        -13    1    3    3    0    0  0.11248263871E+03 -0.16414499406E+03 -0.31487724491E+03  0.37248303802E+03  0.10566000000E+00 0.  1.
          4    1    3    3  502    0  0.96770714229E+03  0.35947732049E+03  0.37298806288E+03  0.10976343436E+04  0.00000000000E+00 0.  1.
         13    1    4    4    0    0 -0.24178549307E+03  0.18859919229E+02  0.39149188751E+03  0.46052343085E+03  0.10566000000E+00 0. -1.
         -4    1    4    4    0  501 -0.83840428793E+03 -0.21419224566E+03 -0.57060262731E+03  0.10365266164E+04  0.00000000000E+00 0. -1.
<mgrwt>
<rscale>  2 0.14776072E+04</rscale>
<asrwt>0</asrwt>
<pdfrwt beam="2">  1        2 0.23755133E+00 0.14776072E+04</pdfrwt>
<pdfrwt beam="1">  1       -2 0.21893596E+00 0.14776072E+04</pdfrwt>
<totfact> 0.12762274E+00</totfact>
</mgrwt>
</event>
<event>
 8    1  0.1449514E-005  0.1459908E+04  0.7818608E-02  0.8432953E-01
          1   -1    0    0  502    0  0.00000000000E+00  0.00000000000E+00  0.63017802791E+03  0.63017802791E+03  0.00000000000E+00 0. -1.
         -1   -1    0    0    0  501 -0.00000000000E+00 -0.00000000000E+00 -0.33914473193E+04  0.33914473193E+04  0.00000000000E+00 0.  1.
    9000010    2    1    2  502    0  0.25783769206E+03 -0.10334229632E+04 -0.12724244868E+04  0.19343655389E+04  0.99411401129E+03 0.  0.
   -9000010    2    1    2    0  501 -0.25783769206E+03  0.10334229632E+04 -0.14888448046E+04  0.20872598083E+04  0.10027718378E+04 0.  0.
        -13    1    3    3    0    0  0.36434008776E+03 -0.10825928182E+04 -0.13686223244E+04  0.17826603680E+04  0.10566000000E+00 0.  1.
          4    1    3    3  502    0 -0.10650239570E+03  0.49169855084E+02  0.96197837583E+02  0.15170517096E+03  0.00000000000E+00 0.  1.
         13    1    4    4    0    0 -0.17197048970E+03  0.88990021161E+03 -0.40871036510E+03  0.99425369481E+03  0.10566000000E+00 0. -1.
         -4    1    4    4    0  501 -0.85867202355E+02  0.14352275156E+03 -0.10801344395E+04  0.10930061134E+04  0.00000000000E+00 0. -1.
<mgrwt>
<rscale>  2 0.14599085E+04</rscale>
<asrwt>0</asrwt>
<pdfrwt beam="1">  1        1 0.96950465E-01 0.14599085E+04</pdfrwt>
<pdfrwt beam="2">  1       -1 0.52176113E+00 0.14599085E+04</pdfrwt>
<totfact> 0.33906841E-01</totfact>
</mgrwt>
</event>
<event>
 8    1  0.1449514E-005  0.1291127E+04  0.7818608E-02  0.8540929E-01
         -2   -1    0    0    0  501 -0.00000000000E+00  0.00000000000E+00  0.16109699395E+04  0.16109699395E+04  0.00000000000E+00 0.  1.
          2   -1    0    0  502    0  0.00000000000E+00 -0.00000000000E+00 -0.10825036590E+04  0.10825036590E+04  0.00000000000E+00 0. -1.
    9000010    2    1    2  502    0  0.64579239745E+03  0.48661429977E+03  0.54634631849E+03  0.13990339539E+04  0.10024771355E+04 0.  0.
   -9000010    2    1    2    0  501 -0.64579239745E+03 -0.48661429977E+03 -0.17880038000E+02  0.12944396446E+04  0.10106497912E+04 0.  0.
        -13    1    3    3    0    0  0.55195755616E+03 -0.53061120674E+02  0.63620859393E+03  0.84393957869E+03  0.10566000000E+00 0.  1.
          4    1    3    3  502    0  0.93834841292E+02  0.53967542045E+03 -0.89862275443E+02  0.55509437524E+03  0.00000000000E+00 0.  1.
         13    1    4    4    0    0 -0.21169543751E+03 -0.74242739048E+03 -0.11724123404E+03  0.78087060805E+03  0.10566000000E+00 0. -1.
         -4    1    4    4    0  501 -0.43409695994E+03  0.25581309071E+03  0.99361196042E+02  0.51356903654E+03  0.00000000000E+00 0. -1.
<mgrwt>
<rscale>  2 0.12911265E+04</rscale>
<asrwt>0</asrwt>
<pdfrwt beam="2">  1        2 0.16653902E+00 0.12911265E+04</pdfrwt>
<pdfrwt beam="1">  1       -2 0.24784153E+00 0.12911265E+04</pdfrwt>
<totfact> 0.13941722E+00</totfact>
</mgrwt>
</event>
<event>
 8    1  0.1449514E-005  0.1379969E+04  0.7818608E-02  0.8482113E-01
         -2   -1    0    0    0  501 -0.00000000000E+00  0.00000000000E+00  0.14736788107E+04  0.14736788107E+04  0.00000000000E+00 0.  1.
          2   -1    0    0  502    0  0.00000000000E+00 -0.00000000000E+00 -0.13629326301E+04  0.13629326301E+04  0.00000000000E+00 0. -1.
    9000010    2    1    2  502    0  0.41964239635E+03 -0.85183849410E+03 -0.26772500384E+03  0.14047345037E+04  0.99993689173E+03 0.  0.
   -9000010    2    1    2    0  501 -0.41964239635E+03  0.85183849410E+03  0.37847118444E+03  0.14318769371E+04  0.10026477769E+04 0.  0.
        -13    1    3    3    0    0  0.37312556009E+03 -0.88093746692E+03 -0.55919888616E+03  0.11081411957E+04  0.10566000000E+00 0.  1.
          4    1    3    3  502    0  0.46516836262E+02  0.29098972816E+02  0.29147388233E+03  0.29659330800E+03  0.00000000000E+00 0.  1.
         13    1    4    4    0    0 -0.37037645175E+03  0.10724918860E+04  0.40384640305E+03  0.12043709935E+04  0.10566000000E+00 0. -1.
         -4    1    4    4    0  501 -0.49265944604E+02 -0.22065339187E+03 -0.25375218603E+02  0.22750594358E+03  0.00000000000E+00 0. -1.
<mgrwt>
<rscale>  2 0.13799691E+04</rscale>
<asrwt>0</asrwt>
<pdfrwt beam="2">  1        2 0.20968194E+00 0.13799691E+04</pdfrwt>
<pdfrwt beam="1">  1       -2 0.22671982E+00 0.13799691E+04</pdfrwt>
<totfact> 0.14039197E+00</totfact>
</mgrwt>
</event>
<event>
 8    1  0.1449514E-005  0.1698370E+04  0.7818608E-02  0.8303669E-01
          1   -1    0    0  502    0  0.00000000000E+00  0.00000000000E+00  0.23847551157E+04  0.23847551157E+04  0.00000000000E+00 0. -1.
         -1   -1    0    0    0  501 -0.00000000000E+00 -0.00000000000E+00 -0.15122465730E+04  0.15122465730E+04  0.00000000000E+00 0.  1.
    9000010    2    1    2  502    0  0.99564905345E+03 -0.95720031091E+03 -0.43554856132E+03  0.17531433326E+04  0.98805846110E+03 0.  0.
   -9000010    2    1    2    0  501 -0.99564905345E+03  0.95720031091E+03  0.13080571040E+04  0.21438583561E+04  0.98871926792E+03 0.  0.
        -13    1    3    3    0    0 -0.14501512822E+03 -0.37923246269E+03 -0.20112716896E+03  0.45309910332E+03  0.10566000000E+00 0.  1.
          4    1    3    3  502    0  0.11406641817E+04 -0.57796784823E+03 -0.23442139235E+03  0.13000442293E+04  0.00000000000E+00 0.  1.
         13    1    4    4    0    0 -0.10076867128E+04  0.74665418788E+03  0.57247368676E+03  0.13786410413E+04  0.10566000000E+00 0. -1.
         -4    1    4    4    0  501  0.12037659386E+02  0.21054612303E+03  0.73558341721E+03  0.76521731478E+03  0.00000000000E+00 0. -1.
<mgrwt>
<rscale>  2 0.16983704E+04</rscale>
<asrwt>0</asrwt>
<pdfrwt beam="1">  1        1 0.36688540E+00 0.16983704E+04</pdfrwt>
<pdfrwt beam="2">  1       -1 0.23265332E+00 0.16983704E+04</pdfrwt>
<totfact> 0.11279329E-01</totfact>
</mgrwt>
</event>
<event>
 8    1  0.1449514E-005  0.1266933E+04  0.7818608E-02  0.8557795E-01
         -1   -1    0    0    0  501 -0.00000000000E+00  0.00000000000E+00  0.90115216164E+03  0.90115216164E+03  0.00000000000E+00 0.  1.
          1   -1    0    0  502    0  0.00000000000E+00 -0.00000000000E+00 -0.20924099406E+04  0.20924099406E+04  0.00000000000E+00 0. -1.
    9000010    2    1    2  502    0  0.60527811295E+02  0.78403258008E+03 -0.11720882942E+04  0.17244956910E+04  0.99081971943E+03 0.  0.
   -9000010    2    1    2    0  501 -0.60527811295E+02 -0.78403258008E+03 -0.19169484780E+02  0.12690664112E+04  0.99588723478E+03 0.  0.
        -13    1    3    3    0    0 -0.23503888487E+03  0.81673644578E+03 -0.11449246087E+04  0.14258871169E+04  0.10566000000E+00 0.  1.
          4    1    3    3  502    0  0.29556669617E+03 -0.32703865708E+02 -0.27163685407E+02  0.29860857409E+03  0.00000000000E+00 0.  1.
         13    1    4    4    0    0 -0.50655026499E+03 -0.50279429398E+03 -0.14189125425E+03  0.72768702903E+03  0.10566000000E+00 0. -1.
         -4    1    4    4    0  501  0.44602245369E+03 -0.28123828610E+03  0.12272176948E+03  0.54137938220E+03  0.00000000000E+00 0. -1.
<mgrwt>
<rscale>  2 0.12669334E+04</rscale>
<asrwt>0</asrwt>
<pdfrwt beam="2">  1        1 0.32190922E+00 0.12669334E+04</pdfrwt>
<pdfrwt beam="1">  1       -1 0.13863880E+00 0.12669334E+04</pdfrwt>
<totfact> 0.14332171E+00</totfact>
</mgrwt>
</event>
<event>
 8    1  0.1449514E-005  0.1306375E+04  0.7818608E-02  0.8530494E-01
         -2   -1    0    0    0  501 -0.00000000000E+00  0.00000000000E+00  0.51062784695E+03  0.51062784695E+03  0.00000000000E+00 0. -1.
          2   -1    0    0  502    0  0.00000000000E+00 -0.00000000000E+00 -0.34135274841E+04  0.34135274841E+04  0.00000000000E+00 0.  1.
    9000010    2    1    2  502    0 -0.56339702746E+03  0.61748758633E+03 -0.11657553368E+04  0.17494699363E+04  0.10014751234E+04 0.  0.
   -9000010    2    1    2    0  501  0.56339702746E+03 -0.61748758633E+03 -0.17371443003E+04  0.21746853948E+04  0.10064189566E+04 0.  0.
        -13    1    3    3    0    0  0.26799288591E+03  0.31280640612E+03 -0.45740865460E+03  0.61554100032E+03  0.10566000000E+00 0.  1.
          4    1    3    3  502    0 -0.83138991337E+03  0.30468118022E+03 -0.70834668222E+03  0.11339289360E+04  0.00000000000E+00 0.  1.
         13    1    4    4    0    0 -0.21989727114E+03 -0.35128613269E+01 -0.71495486774E+03  0.74801579136E+03  0.10566000000E+00 0. -1.
         -4    1    4    4    0  501  0.78329429860E+03 -0.61397472501E+03 -0.10221894326E+04  0.14266696034E+04  0.00000000000E+00 0. -1.
<mgrwt>
<rscale>  2 0.13063750E+04</rscale>
<asrwt>0</asrwt>
<pdfrwt beam="2">  1        2 0.52515806E+00 0.13063750E+04</pdfrwt>
<pdfrwt beam="1">  1       -2 0.78558132E-01 0.13063750E+04</pdfrwt>
<totfact> 0.20739676E+00</totfact>
</mgrwt>
</event>
<event>
 8    1  0.1449514E-005  0.1456173E+04  0.7818608E-02  0.8435178E-01
         -2   -1    0    0    0  501 -0.00000000000E+00  0.00000000000E+00  0.90014830474E+03  0.90014830474E+03  0.00000000000E+00 0. -1.
          2   -1    0    0  502    0  0.00000000000E+00 -0.00000000000E+00 -0.27348821023E+04  0.27348821023E+04  0.00000000000E+00 0.  1.
    9000010    2    1    2  502    0 -0.79932311006E+03 -0.64805428099E+03 -0.22953428947E+03  0.14532920093E+04  0.10002399157E+04 0.  0.
   -9000010    2    1    2    0  501  0.79932311006E+03  0.64805428099E+03 -0.16051995081E+04  0.21817383977E+04  0.10603891691E+04 0.  0.
        -13    1    3    3    0    0  0.14798635619E+02 -0.57771946769E+03 -0.26412469590E+03  0.63540589320E+03  0.10566000000E+00 0.  1.
          4    1    3    3  502    0 -0.81412174568E+03 -0.70334813298E+02  0.34590406429E+02  0.81788611613E+03  0.00000000000E+00 0.  1.
         13    1    4    4    0    0  0.76507365820E+03  0.61929111022E+03 -0.55383157396E+03  0.11294195877E+04  0.10566000000E+00 0. -1.
         -4    1    4    4    0  501  0.34249451854E+02  0.28763170771E+02 -0.10513679341E+04  0.10523188100E+04  0.00000000000E+00 0. -1.
<mgrwt>
<rscale>  2 0.14561727E+04</rscale>
<asrwt>0</asrwt>
<pdfrwt beam="2">  1        2 0.42075109E+00 0.14561727E+04</pdfrwt>
<pdfrwt beam="1">  1       -2 0.13848436E+00 0.14561727E+04</pdfrwt>
<totfact> 0.13441349E+00</totfact>
</mgrwt>
</event>
<event>
 8    1  0.1449514E-005  0.1150299E+04  0.7818608E-02  0.8644958E-01
         -2   -1    0    0    0  501 -0.00000000000E+00  0.00000000000E+00  0.94783539745E+03  0.94783539745E+03  0.00000000000E+00 0. -1.
          2   -1    0    0  502    0  0.00000000000E+00 -0.00000000000E+00 -0.16013947020E+04  0.16013947020E+04  0.00000000000E+00 0.  1.
    9000010    2    1    2  502    0 -0.93357782484E+02  0.47497503409E+03 -0.71098011559E+03  0.12305510492E+04  0.88002625035E+03 0.  0.
   -9000010    2    1    2    0  501  0.93357782484E+02 -0.47497503409E+03  0.57420811040E+02  0.13186790503E+04  0.12252756137E+04 0.  0.
        -13    1    3    3    0    0 -0.26419980890E+03  0.28486215650E+02 -0.70395698599E+03  0.75244166072E+03  0.10566000000E+00 0.  1.
          4    1    3    3  502    0  0.17084202641E+03  0.44648881844E+03 -0.70231296022E+01  0.47810938846E+03  0.00000000000E+00 0.  1.
         13    1    4    4    0    0  0.19130168519E+02  0.41867165799E+03 -0.11920010097E+02  0.41927797266E+03  0.10566000000E+00 0. -1.
         -4    1    4    4    0  501  0.74227613965E+02 -0.89364669208E+03  0.69340821137E+02  0.89940107761E+03  0.00000000000E+00 0. -1.
<mgrwt>
<rscale>  2 0.11502991E+04</rscale>
<asrwt>0</asrwt>
<pdfrwt beam="2">  1        2 0.24636841E+00 0.11502991E+04</pdfrwt>
<pdfrwt beam="1">  1       -2 0.14582083E+00 0.11502991E+04</pdfrwt>
<totfact> 0.50713375E+00</totfact>
</mgrwt>
</event>
<event>
 8    1  0.1449514E-005  0.1110630E+04  0.7818608E-02  0.8677081E-01
         -2   -1    0    0    0  501 -0.00000000000E+00  0.00000000000E+00  0.10337372441E+04  0.10337372441E+04  0.00000000000E+00 0. -1.
          2   -1    0    0  502    0  0.00000000000E+00 -0.00000000000E+00 -0.11982626836E+04  0.11982626836E+04  0.00000000000E+00 0.  1.
    9000010    2    1    2  502    0  0.44177329798E+03  0.32284600817E+03 -0.12769271167E+03  0.10669526351E+04  0.90702221867E+03 0.  0.
   -9000010    2    1    2    0  501 -0.44177329798E+03 -0.32284600817E+03 -0.36832727761E+02  0.11650472926E+04  0.10279033770E+04 0.  0.
        -13    1    3    3    0    0  0.40928662951E+03 -0.39167984416E+02 -0.42945573512E+03  0.59454345147E+03  0.10566000000E+00 0.  1.
          4    1    3    3  502    0  0.32486668471E+02  0.36201399259E+03  0.30176302346E+03  0.47240918364E+03  0.00000000000E+00 0.  1.
         13    1    4    4    0    0 -0.67832588159E+03 -0.30130914133E+03  0.25857578070E+03  0.78598641580E+03  0.10566000000E+00 0. -1.
         -4    1    4    4    0  501  0.23655258361E+03 -0.21536866841E+02 -0.29540850846E+03  0.37906087680E+03  0.00000000000E+00 0. -1.
<mgrwt>
<rscale>  2 0.11106300E+04</rscale>
<asrwt>0</asrwt>
<pdfrwt beam="2">  1        2 0.18434810E+00 0.11106300E+04</pdfrwt>
<pdfrwt beam="1">  1       -2 0.15903650E+00 0.11106300E+04</pdfrwt>
<totfact> 0.65129490E+00</totfact>
</mgrwt>
</event>
<event>
 8    1  0.1449514E-005  0.1183258E+04  0.7818608E-02  0.8619277E-01
          4   -1    0    0  502    0  0.00000000000E+00  0.00000000000E+00  0.71032569167E+03  0.71032569167E+03  0.00000000000E+00 0.  1.
         -4   -1    0    0    0  501 -0.00000000000E+00 -0.00000000000E+00 -0.20403376442E+04  0.20403376442E+04  0.00000000000E+00 0. -1.
    9000010    2    1    2  502    0 -0.83665181199E+02 -0.63271231604E+03 -0.41439350502E+03  0.12584829297E+04  0.10023634919E+04 0.  0.
   -9000010    2    1    2    0  501  0.83665181199E+02  0.63271231604E+03 -0.91561844746E+03  0.14921804061E+04  0.99041429997E+03 0.  0.
        -13    1    3    3    0    0 -0.49882292453E+03 -0.14986413088E+03 -0.32884940915E+03  0.61597525342E+03  0.10566000000E+00 0.  1.
          4    1    3    3  502    0  0.41515774334E+03 -0.48284818517E+03 -0.85544095870E+02  0.64250767630E+03  0.00000000000E+00 0.  1.
         13    1    4    4    0    0  0.38065260451E+03  0.75064188590E+03 -0.77111598589E+03  0.11414812837E+04  0.10566000000E+00 0. -1.
         -4    1    4    4    0  501 -0.29698742331E+03 -0.11792956986E+03 -0.14450246157E+03  0.35069912240E+03  0.00000000000E+00 0. -1.
<mgrwt>
<rscale>  2 0.11832585E+04</rscale>
<asrwt>0</asrwt>
<pdfrwt beam="1">  1        4 0.10928088E+00 0.11832585E+04</pdfrwt>
<pdfrwt beam="2">  1       -4 0.31389810E+00 0.11832585E+04</pdfrwt>
<totfact> 0.23189507E-01</totfact>
</mgrwt>
</event>
<event>
 8    1  0.1449514E-005  0.1311215E+04  0.7818608E-02  0.8527212E-01
          1   -1    0    0  502    0  0.00000000000E+00  0.00000000000E+00  0.26728358979E+04  0.26728358979E+04  0.00000000000E+00 0.  1.
         -1   -1    0    0    0  501 -0.00000000000E+00 -0.00000000000E+00 -0.17377781311E+04  0.17377781311E+04  0.00000000000E+00 0. -1.
    9000010    2    1    2  502    0 -0.60801287465E+03 -0.61221117392E+03  0.22126440106E+04  0.25549520969E+04  0.94207458432E+03 0.  0.
   -9000010    2    1    2    0  501  0.60801287465E+03  0.61221117392E+03 -0.12775862438E+04  0.18556619322E+04  0.10328467549E+04 0.  0.
        -13    1    3    3    0    0 -0.92825444114E+02 -0.34739853164E+03  0.11308301988E+03  0.37694838295E+03  0.10566000000E+00 0.  1.
          4    1    3    3  502    0 -0.51518743054E+03 -0.26481264229E+03  0.20995609907E+04  0.21780037139E+04  0.00000000000E+00 0.  1.
         13    1    4    4    0    0  0.44455063755E+03 -0.15289945419E+03 -0.17060458447E+03  0.50010943587E+03  0.10566000000E+00 0. -1.
         -4    1    4    4    0  501  0.16346223710E+03  0.76511062812E+03 -0.11069816593E+04  0.13555524963E+04  0.00000000000E+00 0. -1.
<mgrwt>
<rscale>  2 0.13112154E+04</rscale>
<asrwt>0</asrwt>
<pdfrwt beam="1">  1        1 0.41120552E+00 0.13112154E+04</pdfrwt>
<pdfrwt beam="2">  1       -1 0.26735048E+00 0.13112154E+04</pdfrwt>
<totfact> 0.29893192E-02</totfact>
</mgrwt>
</event>
<event>
 8    1  0.1449514E-005  0.1279170E+04  0.7818608E-02  0.8549216E-01
          2   -1    0    0  502    0  0.00000000000E+00  0.00000000000E+00  0.35216321628E+04  0.35216321628E+04  0.00000000000E+00 0.  1.
         -2   -1    0    0    0  501 -0.00000000000E+00 -0.00000000000E+00 -0.52199400339E+03  0.52199400339E+03  0.00000000000E+00 0. -1.
    9000010    2    1    2  502    0  0.79499409601E+03  0.13903689572E+03  0.82734256059E+03  0.15215727409E+04  0.98961660370E+03 0.  0.
   -9000010    2    1    2    0  501 -0.79499409601E+03 -0.13903689572E+03  0.21722955988E+04  0.25220534252E+04  0.99525797668E+03 0.  0.
        -13    1    3    3    0    0  0.16935245583E+03 -0.25047185026E+03  0.71470938131E+03  0.77603215975E+03  0.10566000000E+00 0.  1.
          4    1    3    3  502    0  0.62564164017E+03  0.38950874597E+03  0.11263317928E+03  0.74554058118E+03  0.00000000000E+00 0.  1.
         13    1    4    4    0    0 -0.91942531205E+03 -0.27904019235E+03  0.21200116032E+04  0.23275857755E+04  0.10566000000E+00 0. -1.
         -4    1    4    4    0  501  0.12443121604E+03  0.14000329664E+03  0.52283995567E+02  0.19446764972E+03  0.00000000000E+00 0. -1.
<mgrwt>
<rscale>  2 0.12791704E+04</rscale>
<asrwt>0</asrwt>
<pdfrwt beam="1">  1        2 0.54178955E+00 0.12791704E+04</pdfrwt>
<pdfrwt beam="2">  1       -2 0.80306772E-01 0.12791704E+04</pdfrwt>
<totfact> 0.16569252E+00</totfact>
</mgrwt>
</event>
<event>
 8    1  0.1449514E-005  0.1091217E+04  0.7818608E-02  0.8693314E-01
         -2   -1    0    0    0  501 -0.00000000000E+00  0.00000000000E+00  0.46073227730E+03  0.46073227730E+03  0.00000000000E+00 0. -1.
          2   -1    0    0  502    0  0.00000000000E+00 -0.00000000000E+00 -0.25862091413E+04  0.25862091413E+04  0.00000000000E+00 0.  1.
    9000010    2    1    2  502    0 -0.49168362614E+03  0.10275979624E+03 -0.10872674848E+04  0.15607370028E+04  0.10007182643E+04 0.  0.
   -9000010    2    1    2    0  501  0.49168362614E+03 -0.10275979624E+03 -0.10382093792E+04  0.14862044158E+04  0.93734331308E+03 0.  0.
        -13    1    3    3    0    0 -0.62196940007E+03 -0.71314164538E+02 -0.21524126303E+03  0.66201242976E+03  0.10566000000E+00 0.  1.
          4    1    3    3  502    0  0.13028577393E+03  0.17407396078E+03 -0.87202622179E+03  0.89872457304E+03  0.00000000000E+00 0.  1.
         13    1    4    4    0    0  0.35143253804E+03 -0.50846729382E+03 -0.48316753595E+03  0.78453470073E+03  0.10566000000E+00 0. -1.
         -4    1    4    4    0  501  0.14025108810E+03  0.40570749758E+03 -0.55504184327E+03  0.70166971510E+03  0.00000000000E+00 0. -1.
<mgrwt>
<rscale>  2 0.10912170E+04</rscale>
<asrwt>0</asrwt>
<pdfrwt beam="2">  1        2 0.39787833E+00 0.10912170E+04</pdfrwt>
<pdfrwt beam="1">  1       -2 0.70881889E-01 0.10912170E+04</pdfrwt>
<totfact> 0.87032464E+00</totfact>
</mgrwt>
</event>
<event>
 8    1  0.1449514E-005  0.1174604E+04  0.7818608E-02  0.8625936E-01
         -2   -1    0    0    0  501 -0.00000000000E+00  0.00000000000E+00  0.52428868706E+03  0.52428868706E+03  0.00000000000E+00 0. -1.
          2   -1    0    0  502    0  0.00000000000E+00 -0.00000000000E+00 -0.27488679789E+04  0.27488679789E+04  0.00000000000E+00 0.  1.
    9000010    2    1    2  502    0 -0.16868937259E+03 -0.60541691847E+03 -0.14598357018E+04  0.18805360447E+04  0.10051416763E+04 0.  0.
   -9000010    2    1    2    0  501  0.16868937259E+03  0.60541691847E+03 -0.76474359004E+03  0.13926206213E+04  0.97957832088E+03 0.  0.
        -13    1    3    3    0    0 -0.41322764851E+03  0.66827642146E+02 -0.28970218892E+03  0.50906816113E+03  0.10566000000E+00 0.  1.
          4    1    3    3  502    0  0.24453827591E+03 -0.67224456061E+03 -0.11701335129E+04  0.13714678836E+04  0.00000000000E+00 0.  1.
         13    1    4    4    0    0  0.47292454652E+02  0.58760672531E+03 -0.98070016289E+03  0.11442425707E+04  0.10566000000E+00 0. -1.
         -4    1    4    4    0  501  0.12139691794E+03  0.17810193153E+02  0.21595657285E+03  0.24837805061E+03  0.00000000000E+00 0. -1.
<mgrwt>
<rscale>  2 0.11746039E+04</rscale>
<asrwt>0</asrwt>
<pdfrwt beam="2">  1        2 0.42290276E+00 0.11746039E+04</pdfrwt>
<pdfrwt beam="1">  1       -2 0.80659799E-01 0.11746039E+04</pdfrwt>
<totfact> 0.52636334E+00</totfact>
</mgrwt>
</event>
<event>
 8    1  0.1449514E-005  0.1060929E+04  0.7818608E-02  0.8719358E-01
         -2   -1    0    0    0  501 -0.00000000000E+00  0.00000000000E+00  0.14581270474E+04  0.14581270474E+04  0.00000000000E+00 0. -1.
          2   -1    0    0  502    0  0.00000000000E+00 -0.00000000000E+00 -0.87860696581E+03  0.87860696581E+03  0.00000000000E+00 0.  1.
    9000010    2    1    2  502    0  0.32986304350E+03  0.46187336835E+02  0.69819881562E+03  0.12748375449E+04  0.10133046344E+04 0.  0.
   -9000010    2    1    2    0  501 -0.32986304350E+03 -0.46187336835E+02 -0.11867873402E+03  0.10618964683E+04  0.10012974433E+04 0.  0.
        -13    1    3    3    0    0  0.12005427288E+03  0.46707791974E+03  0.65781671761E+02  0.48672584794E+03  0.10566000000E+00 0.  1.
          4    1    3    3  502    0  0.20980877062E+03 -0.42089058291E+03  0.63241714386E+03  0.78811169694E+03  0.00000000000E+00 0.  1.
         13    1    4    4    0    0 -0.34115333396E+02 -0.46706288390E+03 -0.25019951875E+03  0.53095329722E+03  0.10566000000E+00 0. -1.
         -4    1    4    4    0  501 -0.29574771010E+03  0.42087554706E+03  0.13152078473E+03  0.53094317112E+03  0.00000000000E+00 0. -1.
<mgrwt>
<rscale>  2 0.10609285E+04</rscale>
<asrwt>0</asrwt>
<pdfrwt beam="2">  1        2 0.13517030E+00 0.10609285E+04</pdfrwt>
<pdfrwt beam="1">  1       -2 0.22432724E+00 0.10609285E+04</pdfrwt>
<totfact> 0.29282321E+00</totfact>
</mgrwt>
</event>
<event>
 8    1  0.1449514E-005  0.1204275E+04  0.7818608E-02  0.8603350E-01
         -2   -1    0    0    0  501 -0.00000000000E+00  0.00000000000E+00  0.99454031328E+03  0.99454031328E+03  0.00000000000E+00 0.  1.
          2   -1    0    0  502    0  0.00000000000E+00 -0.00000000000E+00 -0.16654903833E+04  0.16654903833E+04  0.00000000000E+00 0. -1.
    9000010    2    1    2  502    0  0.18475397223E+03 -0.55867261829E+03 -0.79425247667E+03  0.14132542910E+04  0.10100502807E+04 0.  0.
   -9000010    2    1    2    0  501 -0.18475397223E+03  0.55867261829E+03  0.12330240665E+03  0.12467764056E+04  0.10922448432E+04 0.  0.
        -13    1    3    3    0    0  0.47327190633E+03 -0.50117718512E+03 -0.15063658455E+03  0.70558929979E+03  0.10566000000E+00 0.  1.
          4    1    3    3  502    0 -0.28851793410E+03 -0.57495433167E+02 -0.64361589212E+03  0.70766499117E+03  0.00000000000E+00 0.  1.
         13    1    4    4    0    0  0.51286349887E+02  0.52113136637E+03 -0.40823500938E+03  0.66397592182E+03  0.10566000000E+00 0. -1.
         -4    1    4    4    0  501 -0.23604032212E+03  0.37541251913E+02  0.53153741604E+03  0.58280048379E+03  0.00000000000E+00 0. -1.
<mgrwt>
<rscale>  2 0.12042749E+04</rscale>
<asrwt>0</asrwt>
<pdfrwt beam="2">  1        2 0.25622929E+00 0.12042749E+04</pdfrwt>
<pdfrwt beam="1">  1       -2 0.15300620E+00 0.12042749E+04</pdfrwt>
<totfact> 0.40191925E+00</totfact>
</mgrwt>
</event>
<event>
 8    1  0.1449514E-005  0.1192828E+04  0.7818608E-02  0.8611983E-01
          1   -1    0    0  502    0  0.00000000000E+00  0.00000000000E+00  0.21634318348E+04  0.21634318348E+04  0.00000000000E+00 0. -1.
         -1   -1    0    0    0  501 -0.00000000000E+00 -0.00000000000E+00 -0.71621166832E+03  0.71621166832E+03  0.00000000000E+00 0.  1.
    9000010    2    1    2  502    0  0.10545160693E+03  0.61150630605E+03  0.30447830151E+03  0.12174869769E+04  0.10022512155E+04 0.  0.
   -9000010    2    1    2    0  501 -0.10545160693E+03 -0.61150630605E+03  0.11427418649E+04  0.16621565262E+04  0.10352996397E+04 0.  0.
        -13    1    3    3    0    0  0.37409477762E+03  0.55839170871E+03  0.53537878153E+03  0.85928962165E+03  0.10566000000E+00 0.  1.
          4    1    3    3  502    0 -0.26864317069E+03  0.53114597341E+02 -0.23090048002E+03  0.35819735521E+03  0.00000000000E+00 0.  1.
         13    1    4    4    0    0 -0.25212776573E+03  0.57368019166E+02  0.89876941005E+03  0.93522508707E+03  0.10566000000E+00 0. -1.
         -4    1    4    4    0  501  0.14667615880E+03 -0.66887432522E+03  0.24397245488E+03  0.72693143916E+03  0.00000000000E+00 0. -1.
<mgrwt>
<rscale>  2 0.11928278E+04</rscale>
<asrwt>0</asrwt>
<pdfrwt beam="1">  1        1 0.33283566E+00 0.11928278E+04</pdfrwt>
<pdfrwt beam="2">  1       -1 0.11018641E+00 0.11928278E+04</pdfrwt>
<totfact> 0.22767708E+00</totfact>
</mgrwt>
</event>
<event>
 8    1  0.1449514E-005  0.1286205E+04  0.7818608E-02  0.8544329E-01
         -2   -1    0    0    0  501 -0.00000000000E+00  0.00000000000E+00  0.19285302364E+04  0.19285302364E+04  0.00000000000E+00 0. -1.
          2   -1    0    0  502    0  0.00000000000E+00 -0.00000000000E+00 -0.86537798614E+03  0.86537798614E+03  0.00000000000E+00 0.  1.
    9000010    2    1    2  502    0 -0.59741444514E+03  0.55040647147E+03  0.40156600541E+03  0.13487540550E+04  0.99901498547E+03 0.  0.
   -9000010    2    1    2    0  501  0.59741444514E+03 -0.55040647147E+03  0.66158624482E+03  0.14451541675E+04  0.99545110646E+03 0.  0.
        -13    1    3    3    0    0 -0.29497401278E+03  0.82357162736E+03  0.21669118974E+03  0.90124079828E+03  0.10566000000E+00 0.  1.
          4    1    3    3  502    0 -0.30244043235E+03 -0.27316515588E+03  0.18487481568E+03  0.44751325677E+03  0.00000000000E+00 0.  1.
         13    1    4    4    0    0  0.28644504514E+03 -0.27840022460E+03 -0.23111259466E+03  0.46148726040E+03  0.10566000000E+00 0. -1.
         -4    1    4    4    0  501  0.31096940000E+03 -0.27200624688E+03  0.89269883948E+03  0.98366690708E+03  0.00000000000E+00 0. -1.
<mgrwt>
<rscale>  2 0.12862054E+04</rscale>
<asrwt>0</asrwt>
<pdfrwt beam="2">  1        2 0.13313507E+00 0.12862054E+04</pdfrwt>
<pdfrwt beam="1">  1       -2 0.29669696E+00 0.12862054E+04</pdfrwt>
<totfact> 0.82128964E-01</totfact>
</mgrwt>
</event>
<event>
 8    1  0.1449514E-005  0.1436728E+04  0.7818608E-02  0.8446869E-01
         -2   -1    0    0    0  501 -0.00000000000E+00  0.00000000000E+00  0.70365830493E+03  0.70365830493E+03  0.00000000000E+00 0. -1.
          2   -1    0    0  502    0  0.00000000000E+00 -0.00000000000E+00 -0.30266697949E+04  0.30266697949E+04  0.00000000000E+00 0.  1.
    9000010    2    1    2  502    0 -0.18565958697E+03  0.10208879013E+04 -0.14891637067E+04  0.20696324496E+04  0.99452920605E+03 0.  0.
   -9000010    2    1    2    0  501  0.18565958697E+03 -0.10208879013E+04 -0.83384778325E+03  0.16606956502E+04  0.99293822956E+03 0.  0.
        -13    1    3    3    0    0 -0.50306880434E+03  0.38237681933E+03 -0.10695718621E+04  0.12422858903E+04  0.10566000000E+00 0.  1.
          4    1    3    3  502    0  0.31740921736E+03  0.63851108201E+03 -0.41959184460E+03  0.82734655929E+03  0.00000000000E+00 0.  1.
         13    1    4    4    0    0 -0.21619645779E+03 -0.52948661712E+03  0.48221173559E+02  0.57395320263E+03  0.10566000000E+00 0. -1.
         -4    1    4    4    0  501  0.40185604476E+03 -0.49140128422E+03 -0.88206895681E+03  0.10867424476E+04  0.00000000000E+00 0. -1.
<mgrwt>
<rscale>  2 0.14367283E+04</rscale>
<asrwt>0</asrwt>
<pdfrwt beam="2">  1        2 0.46564151E+00 0.14367283E+04</pdfrwt>
<pdfrwt beam="1">  1       -2 0.10825512E+00 0.14367283E+04</pdfrwt>
<totfact> 0.17364024E+00</totfact>
</mgrwt>
</event>
<event>
 8    1  0.1449514E-005  0.1240775E+04  0.7818608E-02  0.8576474E-01
          1   -1    0    0  502    0  0.00000000000E+00  0.00000000000E+00  0.19868562803E+04  0.19868562803E+04  0.00000000000E+00 0. -1.
         -1   -1    0    0    0  501 -0.00000000000E+00 -0.00000000000E+00 -0.10448084033E+04  0.10448084033E+04  0.00000000000E+00 0.  1.
    9000010    2    1    2  502    0 -0.25978710994E+02 -0.72376687639E+03 -0.29891876402E+03  0.12782205750E+04  0.10099415954E+04 0.  0.
   -9000010    2    1    2    0  501  0.25978710994E+02  0.72376687639E+03  0.12409666410E+04  0.17534441085E+04  0.10050147526E+04 0.  0.
        -13    1    3    3    0    0 -0.30426573738E+02 -0.32542956006E+03 -0.66259194653E+03  0.73882222065E+03  0.10566000000E+00 0.  1.
          4    1    3    3  502    0  0.44478627437E+01 -0.39833731632E+03  0.36367318250E+03  0.53939835440E+03  0.00000000000E+00 0.  1.
         13    1    4    4    0    0 -0.30622948134E+03 -0.12194511883E+03  0.35347418464E+03  0.48331264997E+03  0.10566000000E+00 0. -1.
         -4    1    4    4    0  501  0.33220819234E+03  0.84571199521E+03  0.88749245636E+03  0.12701314586E+04  0.00000000000E+00 0. -1.
<mgrwt>
<rscale>  2 0.12407755E+04</rscale>
<asrwt>0</asrwt>
<pdfrwt beam="1">  1        1 0.30567020E+00 0.12407755E+04</pdfrwt>
<pdfrwt beam="2">  1       -1 0.16073975E+00 0.12407755E+04</pdfrwt>
<totfact> 0.11162471E+00</totfact>
</mgrwt>
</event>
<event>
 8    1  0.1449514E-005  0.1094245E+04  0.7818608E-02  0.8690759E-01
          2   -1    0    0  502    0  0.00000000000E+00  0.00000000000E+00  0.89626824226E+03  0.89626824226E+03  0.00000000000E+00 0.  1.
         -2   -1    0    0    0  501 -0.00000000000E+00 -0.00000000000E+00 -0.15141450547E+04  0.15141450547E+04  0.00000000000E+00 0. -1.
    9000010    2    1    2  502    0 -0.39351459396E+03  0.15161786866E+03 -0.71920297459E+03  0.12995217383E+04  0.99682602082E+03 0.  0.
   -9000010    2    1    2    0  501  0.39351459396E+03 -0.15161786866E+03  0.10132616216E+03  0.11108915587E+04  0.10227274076E+04 0.  0.
        -13    1    3    3    0    0  0.20427024549E+03  0.33145108156E+03 -0.50899780864E+03  0.64083143885E+03  0.10566000000E+00 0.  1.
          4    1    3    3  502    0 -0.59778483945E+03 -0.17983321290E+03 -0.21020516595E+03  0.65869029941E+03  0.00000000000E+00 0.  1.
         13    1    4    4    0    0  0.50763707776E+03 -0.50571111770E+03 -0.27812016125E+02  0.71708622681E+03  0.10566000000E+00 0. -1.
         -4    1    4    4    0  501 -0.11412248380E+03  0.35409324904E+03  0.12913817828E+03  0.39380533187E+03  0.00000000000E+00 0. -1.
<mgrwt>
<rscale>  2 0.10942453E+04</rscale>
<asrwt>0</asrwt>
<pdfrwt beam="1">  1        2 0.13788742E+00 0.10942453E+04</pdfrwt>
<pdfrwt beam="2">  1       -2 0.23294539E+00 0.10942453E+04</pdfrwt>
<totfact> 0.24257336E+00</totfact>
</mgrwt>
</event>
<event>
 8    1  0.1449514E-005  0.1170470E+04  0.7818608E-02  0.8629137E-01
         -2   -1    0    0    0  501 -0.00000000000E+00  0.00000000000E+00  0.10349969375E+04  0.10349969375E+04  0.00000000000E+00 0.  1.
          2   -1    0    0  502    0  0.00000000000E+00 -0.00000000000E+00 -0.24045064132E+04  0.24045064132E+04  0.00000000000E+00 0. -1.
    9000010    2    1    2  502    0  0.48700291128E+03  0.34401585508E+03  0.46842863054E+03  0.12602142907E+04  0.10065763420E+04 0.  0.
   -9000010    2    1    2    0  501 -0.48700291128E+03 -0.34401585508E+03 -0.18379381062E+04  0.21792890600E+04  0.10078519636E+04 0.  0.
        -13    1    3    3    0    0 -0.18631711841E+03  0.43303989456E+03  0.81081347797E+02  0.47834277983E+03  0.10566000000E+00 0.  1.
          4    1    3    3  502    0  0.67332002969E+03 -0.89024039477E+02  0.38734728275E+03  0.78187151082E+03  0.00000000000E+00 0.  1.
         13    1    4    4    0    0 -0.68718391410E+03  0.86882040354E+02 -0.11687618509E+04  0.13585928367E+04  0.10566000000E+00 0. -1.
         -4    1    4    4    0  501  0.20018100282E+03 -0.43089789543E+03 -0.66917625535E+03  0.82069622327E+03  0.00000000000E+00 0. -1.
<mgrwt>
<rscale>  2 0.11704695E+04</rscale>
<asrwt>0</asrwt>
<pdfrwt beam="2">  1        2 0.36992406E+00 0.11704695E+04</pdfrwt>
<pdfrwt beam="1">  1       -2 0.15923030E+00 0.11704695E+04</pdfrwt>
<totfact> 0.14055865E+00</totfact>
</mgrwt>
</event>
<event>
 8    1  0.1449514E-005  0.1387088E+04  0.7818608E-02  0.8477598E-01
         -2   -1    0    0    0  501 -0.00000000000E+00  0.00000000000E+00  0.42935011965E+03  0.42935011965E+03  0.00000000000E+00 0.  1.
          2   -1    0    0  502    0  0.00000000000E+00 -0.00000000000E+00 -0.45920070429E+04  0.45920070429E+04  0.00000000000E+00 0. -1.
    9000010    2    1    2  502    0  0.65371140071E+03  0.70503937793E+03 -0.24640057797E+04  0.28252024772E+04  0.99298813430E+03 0.  0.
   -9000010    2    1    2    0  501 -0.65371140071E+03 -0.70503937793E+03 -0.16986511436E+04  0.21961546854E+04  0.10066084515E+04 0.  0.
        -13    1    3    3    0    0  0.53562591576E+03  0.95322540569E+03 -0.17930269145E+04  0.21001141214E+04  0.10566000000E+00 0.  1.
          4    1    3    3  502    0  0.11808548494E+03 -0.24818602776E+03 -0.67097886521E+03  0.72508835578E+03  0.00000000000E+00 0.  1.
         13    1    4    4    0    0 -0.74647241772E+03 -0.38060107710E+03 -0.55814992000E+03  0.10067818009E+04  0.10566000000E+00 0. -1.
         -4    1    4    4    0  501  0.92761017014E+02 -0.32443830083E+03 -0.11405012236E+04  0.11893728844E+04  0.00000000000E+00 0. -1.
<mgrwt>
<rscale>  2 0.13870883E+04</rscale>
<asrwt>0</asrwt>
<pdfrwt beam="2">  1        2 0.70646261E+00 0.13870883E+04</pdfrwt>
<pdfrwt beam="1">  1       -2 0.66053865E-01 0.13870883E+04</pdfrwt>
<totfact> 0.29114128E-01</totfact>
</mgrwt>
</event>
<event>
 8    1  0.1449514E-005  0.1339013E+04  0.7818608E-02  0.8508643E-01
         -2   -1    0    0    0  501 -0.00000000000E+00  0.00000000000E+00  0.76181796305E+03  0.76181796305E+03  0.00000000000E+00 0.  1.
          2   -1    0    0  502    0  0.00000000000E+00 -0.00000000000E+00 -0.24078247769E+04  0.24078247769E+04  0.00000000000E+00 0. -1.
    9000010    2    1    2  502    0 -0.65026507700E+03  0.59390360175E+03 -0.10748445927E+04  0.17379886557E+04  0.10439097233E+04 0.  0.
   -9000010    2    1    2    0  501  0.65026507700E+03 -0.59390360175E+03 -0.57116222120E+03  0.14316540843E+04  0.97357124836E+03 0.  0.
        -13    1    3    3    0    0  0.60448514459E+02 -0.20491318478E+03 -0.45359827763E+03  0.50139290464E+03  0.10566000000E+00 0.  1.
          4    1    3    3  502    0 -0.71071359145E+03  0.79881678653E+03 -0.62124631507E+03  0.12365957510E+04  0.00000000000E+00 0.  1.
         13    1    4    4    0    0 -0.21043800147E+03 -0.15940527953E+02  0.58083652955E+02  0.21888804169E+03  0.10566000000E+00 0. -1.
         -4    1    4    4    0  501  0.86070307846E+03 -0.57796307380E+03 -0.62924587415E+03  0.12127660426E+04  0.00000000000E+00 0. -1.
<mgrwt>
<rscale>  2 0.13390135E+04</rscale>
<asrwt>0</asrwt>
<pdfrwt beam="2">  1        2 0.37043458E+00 0.13390135E+04</pdfrwt>
<pdfrwt beam="1">  1       -2 0.11720276E+00 0.13390135E+04</pdfrwt>
<totfact> 0.33128248E+00</totfact>
</mgrwt>
</event>
<event>
 8    1  0.1449514E-005  0.1349447E+04  0.7818608E-02  0.8501793E-01
         -2   -1    0    0    0  501 -0.00000000000E+00  0.00000000000E+00  0.89990221405E+03  0.89990221405E+03  0.00000000000E+00 0.  1.
          2   -1    0    0  502    0  0.00000000000E+00 -0.00000000000E+00 -0.22995652560E+04  0.22995652560E+04  0.00000000000E+00 0. -1.
    9000010    2    1    2  502    0  0.62307165227E+03 -0.66456368001E+03 -0.12573342260E+04  0.18498123261E+04  0.10055113710E+04 0.  0.
   -9000010    2    1    2    0  501 -0.62307165227E+03  0.66456368001E+03 -0.14232881598E+03  0.13496551440E+04  0.98562079281E+03 0.  0.
        -13    1    3    3    0    0  0.50492527072E+02 -0.73630953244E+03 -0.47500856975E+03  0.87768694610E+03  0.10566000000E+00 0.  1.
          4    1    3    3  502    0  0.57257912520E+03  0.71745852433E+02 -0.78232565623E+03  0.97212537995E+03  0.00000000000E+00 0.  1.
         13    1    4    4    0    0 -0.55517080219E+03  0.76358041791E+03 -0.43041031992E+03  0.10375561329E+04  0.10566000000E+00 0. -1.
         -4    1    4    4    0  501 -0.67900850086E+02 -0.99016737903E+02  0.28808150395E+03  0.31209901112E+03  0.00000000000E+00 0. -1.
<mgrwt>
<rscale>  2 0.13494466E+04</rscale>
<asrwt>0</asrwt>
<pdfrwt beam="2">  1        2 0.35377927E+00 0.13494466E+04</pdfrwt>
<pdfrwt beam="1">  1       -2 0.13844649E+00 0.13494466E+04</pdfrwt>
<totfact> 0.24007322E+00</totfact>
</mgrwt>
</event>
<event>
 8    1  0.1449514E-005  0.1741386E+04  0.7818608E-02  0.8282684E-01
          1   -1    0    0  502    0  0.00000000000E+00  0.00000000000E+00  0.18446973788E+04  0.18446973788E+04  0.00000000000E+00 0.  1.
         -1   -1    0    0    0  501 -0.00000000000E+00 -0.00000000000E+00 -0.18881503350E+04  0.18881503350E+04  0.00000000000E+00 0. -1.
    9000010    2    1    2  502    0  0.76073379074E+03  0.12191060255E+04  0.64955083348E+03  0.18627602448E+04  0.99147568940E+03 0.  0.
   -9000010    2    1    2    0  501 -0.76073379074E+03 -0.12191060255E+04 -0.69300378977E+03  0.18700874689E+04  0.97572408345E+03 0.  0.
        -13    1    3    3    0    0  0.66419096826E+03  0.13877448782E+04  0.50051252762E+03  0.16178684405E+04  0.10566000000E+00 0.  1.
          4    1    3    3  502    0  0.96542822483E+02 -0.16863885270E+03  0.14903830587E+03  0.24489180433E+03  0.00000000000E+00 0.  1.
         13    1    4    4    0    0 -0.25271026820E+03 -0.56110900532E+03  0.20284617732E+03  0.64796016724E+03  0.10566000000E+00 0. -1.
         -4    1    4    4    0  501 -0.50802352254E+03 -0.65799702019E+03 -0.89584996709E+03  0.12221273017E+04  0.00000000000E+00 0. -1.
<mgrwt>
<rscale>  2 0.17413864E+04</rscale>
<asrwt>0</asrwt>
<pdfrwt beam="1">  1        1 0.28379960E+00 0.17413864E+04</pdfrwt>
<pdfrwt beam="2">  1       -1 0.29048467E+00 0.17413864E+04</pdfrwt>
<totfact> 0.84516094E-02</totfact>
</mgrwt>
</event>
<event>
 8    1  0.1449514E-005  0.1232641E+04  0.7818608E-02  0.8582380E-01
          2   -1    0    0  502    0  0.00000000000E+00  0.00000000000E+00  0.33411219967E+04  0.33411219967E+04  0.00000000000E+00 0.  1.
         -2   -1    0    0    0  501 -0.00000000000E+00 -0.00000000000E+00 -0.47860318329E+03  0.47860318329E+03  0.00000000000E+00 0. -1.
    9000010    2    1    2  502    0 -0.67273804201E+03 -0.22171914235E+03  0.18628416910E+04  0.22364230526E+04  0.10147280686E+04 0.  0.
   -9000010    2    1    2    0  501  0.67273804201E+03  0.22171914235E+03  0.99967712247E+03  0.15833021275E+04  0.10028735844E+04 0.  0.
        -13    1    3    3    0    0 -0.74022816096E+03 -0.52299550915E+03  0.15585810882E+04  0.18029523157E+04  0.10566000000E+00 0.  1.
          4    1    3    3  502    0  0.67490118951E+02  0.30127636680E+03  0.30426060273E+03  0.43347073687E+03  0.00000000000E+00 0.  1.
         13    1    4    4    0    0 -0.15283469266E+03  0.34300915675E+03  0.19098977827E+03  0.42129660747E+03  0.10566000000E+00 0. -1.
         -4    1    4    4    0  501  0.82557273467E+03 -0.12129001440E+03  0.80868734420E+03  0.11620055200E+04  0.00000000000E+00 0. -1.
<mgrwt>
<rscale>  2 0.12326407E+04</rscale>
<asrwt>0</asrwt>
<pdfrwt beam="1">  1        2 0.51401875E+00 0.12326407E+04</pdfrwt>
<pdfrwt beam="2">  1       -2 0.73631261E-01 0.12326407E+04</pdfrwt>
<totfact> 0.27010781E+00</totfact>
</mgrwt>
</event>
<event>
 8    1  0.1449514E-005  0.1857013E+04  0.7818608E-02  0.8229231E-01
          1   -1    0    0  502    0  0.00000000000E+00  0.00000000000E+00  0.17495006968E+04  0.17495006968E+04  0.00000000000E+00 0.  1.
         -1   -1    0    0    0  501 -0.00000000000E+00 -0.00000000000E+00 -0.32019604652E+04  0.32019604652E+04  0.00000000000E+00 0. -1.
    9000010    2    1    2  502    0 -0.15306370950E+04  0.26045949697E+03  0.80957140808E+03  0.20225477778E+04  0.10122275350E+04 0.  0.
   -9000010    2    1    2    0  501  0.15306370950E+04 -0.26045949697E+03 -0.22620311764E+04  0.29289133841E+04  0.10252119305E+04 0.  0.
        -13    1    3    3    0    0 -0.14645092177E+04 -0.10246577298E+03  0.53442133657E+03  0.15623356424E+04  0.10566000000E+00 0.  1.
          4    1    3    3  502    0 -0.66127877279E+02  0.36292526994E+03  0.27515007151E+03  0.46021213540E+03  0.00000000000E+00 0.  1.
         13    1    4    4    0    0 -0.40981288805E+02 -0.21272412054E+03 -0.61417865433E+03  0.65126526707E+03  0.10566000000E+00 0. -1.
         -4    1    4    4    0  501  0.15716183838E+04 -0.47735376428E+02 -0.16478525221E+04  0.22776481171E+04  0.00000000000E+00 0. -1.
<mgrwt>
<rscale>  2 0.18570126E+04</rscale>
<asrwt>0</asrwt>
<pdfrwt beam="1">  1        1 0.26915395E+00 0.18570126E+04</pdfrwt>
<pdfrwt beam="2">  1       -1 0.49260930E+00 0.18570126E+04</pdfrwt>
<totfact> 0.48948463E-02</totfact>
</mgrwt>
</event>
<event>
 8    1  0.1449514E-005  0.1670337E+04  0.7818608E-02  0.8317692E-01
          2   -1    0    0  502    0  0.00000000000E+00  0.00000000000E+00  0.13377454696E+04  0.13377454696E+04  0.00000000000E+00 0. -1.
         -2   -1    0    0    0  501 -0.00000000000E+00 -0.00000000000E+00 -0.20872407779E+04  0.20872407779E+04  0.00000000000E+00 0.  1.
    9000010    2    1    2  502    0  0.51128232867E+03  0.12372193985E+04 -0.32628430133E+03  0.16979912529E+04  0.99226578593E+03 0.  0.
   -9000010    2    1    2    0  501 -0.51128232867E+03 -0.12372193985E+04 -0.42321100695E+03  0.17269949947E+04  0.10056255246E+04 0.  0.
        -13    1    3    3    0    0  0.53491913248E+03  0.50277095376E+03 -0.56391141154E+03  0.92569606322E+03  0.10566000000E+00 0.  1.
          4    1    3    3  502    0 -0.23636803810E+02  0.73444844470E+03  0.23762711021E+03  0.77229518963E+03  0.00000000000E+00 0.  1.
         13    1    4    4    0    0 -0.35348511305E+03 -0.11250155968E+04  0.85842110938E+02  0.11823623376E+04  0.10566000000E+00 0. -1.
         -4    1    4    4    0  501 -0.15779721563E+03 -0.11220380167E+03 -0.50905311789E+03  0.54463265712E+03  0.00000000000E+00 0. -1.
<mgrwt>
<rscale>  2 0.16703373E+04</rscale>
<asrwt>0</asrwt>
<pdfrwt beam="1">  1        2 0.20580700E+00 0.16703373E+04</pdfrwt>
<pdfrwt beam="2">  1       -2 0.32111397E+00 0.16703373E+04</pdfrwt>
<totfact> 0.28591523E-01</totfact>
</mgrwt>
</event>
<event>
 8    1  0.1449514E-005  0.1109005E+04  0.7818608E-02  0.8678427E-01
          1   -1    0    0  502    0  0.00000000000E+00  0.00000000000E+00  0.17595863003E+04  0.17595863003E+04  0.00000000000E+00 0.  1.
         -1   -1    0    0    0  501 -0.00000000000E+00 -0.00000000000E+00 -0.86524426183E+03  0.86524426183E+03  0.00000000000E+00 0. -1.
    9000010    2    1    2  502    0  0.31764912898E+03  0.39284847308E+03  0.10302376154E+04  0.15332325721E+04  0.10169472377E+04 0.  0.
   -9000010    2    1    2    0  501 -0.31764912898E+03 -0.39284847308E+03 -0.13589557690E+03  0.10915979900E+04  0.95806454479E+03 0.  0.
        -13    1    3    3    0    0 -0.28456365861E+03  0.27059444854E+03  0.77308802349E+03  0.86710030250E+03  0.10566000000E+00 0.  1.
          4    1    3    3  502    0  0.60221278759E+03  0.12225402455E+03  0.25714959189E+03  0.66613226965E+03  0.00000000000E+00 0.  1.
         13    1    4    4    0    0 -0.37413247291E+03  0.24078644412E+03 -0.88924089736E+02  0.45371877177E+03  0.10566000000E+00 0. -1.
         -4    1    4    4    0  501  0.56483343928E+02 -0.63363491720E+03 -0.46971487160E+02  0.63787921822E+03  0.00000000000E+00 0. -1.
<mgrwt>
<rscale>  2 0.11090049E+04</rscale>
<asrwt>0</asrwt>
<pdfrwt beam="1">  1        1 0.27070558E+00 0.11090049E+04</pdfrwt>
<pdfrwt beam="2">  1       -1 0.13311450E+00 0.11090049E+04</pdfrwt>
<totfact> 0.29227553E+00</totfact>
</mgrwt>
</event>
<event>
 8    1  0.1449514E-005  0.1147646E+04  0.7818608E-02  0.8647064E-01
         -1   -1    0    0    0  501 -0.00000000000E+00  0.00000000000E+00  0.11016302820E+04  0.11016302820E+04  0.00000000000E+00 0.  1.
          1   -1    0    0  502    0  0.00000000000E+00 -0.00000000000E+00 -0.13183545791E+04  0.13183545791E+04  0.00000000000E+00 0. -1.
    9000010    2    1    2  502    0  0.43576350588E+03  0.35229751261E+03 -0.47750581583E+03  0.12419691909E+04  0.10002361204E+04 0.  0.
   -9000010    2    1    2    0  501 -0.43576350588E+03 -0.35229751261E+03  0.26078151876E+03  0.11780156702E+04  0.10028512094E+04 0.  0.
        -13    1    3    3    0    0 -0.22773809850E+03  0.42181500369E+03 -0.20156034901E+03  0.52001838843E+03  0.10566000000E+00 0.  1.
          4    1    3    3  502    0  0.66350160438E+03 -0.69517491075E+02 -0.27594546682E+03  0.72195080251E+03  0.00000000000E+00 0.  1.
         13    1    4    4    0    0 -0.15340350657E+03  0.15642377831E+03 -0.29896471315E+03  0.37064935603E+03  0.10566000000E+00 0. -1.
         -4    1    4    4    0  501 -0.28235999931E+03 -0.50872129092E+03  0.55974623192E+03  0.80736631413E+03  0.00000000000E+00 0. -1.
<mgrwt>
<rscale>  2 0.11476464E+04</rscale>
<asrwt>0</asrwt>
<pdfrwt beam="2">  1        1 0.20282378E+00 0.11476464E+04</pdfrwt>
<pdfrwt beam="1">  1       -1 0.16948158E+00 0.11476464E+04</pdfrwt>
<totfact> 0.29993232E+00</totfact>
</mgrwt>
</event>
<event>
 8    1  0.1449514E-005  0.1125826E+04  0.7818608E-02  0.8664613E-01
          2   -1    0    0  502    0  0.00000000000E+00  0.00000000000E+00  0.13464207623E+04  0.13464207623E+04  0.00000000000E+00 0.  1.
         -2   -1    0    0    0  501 -0.00000000000E+00 -0.00000000000E+00 -0.10107444222E+04  0.10107444222E+04  0.00000000000E+00 0. -1.
    9000010    2    1    2  502    0 -0.49847794153E+03  0.16431496954E+03 -0.14034072612E+03  0.11385300820E+04  0.10005376358E+04 0.  0.
   -9000010    2    1    2    0  501  0.49847794153E+03 -0.16431496954E+03  0.47601706627E+03  0.12186351026E+04  0.99146336213E+03 0.  0.
        -13    1    3    3    0    0 -0.53477697392E+02 -0.29900565272E+02 -0.51911977058E+03  0.52272292402E+03  0.10566000000E+00 0.  1.
          4    1    3    3  502    0 -0.44500024414E+03  0.19421553481E+03  0.37877904446E+03  0.61580715794E+03  0.00000000000E+00 0.  1.
         13    1    4    4    0    0  0.28965738250E+03  0.31922843021E+03  0.53678120215E+03  0.68843464471E+03  0.10566000000E+00 0. -1.
         -4    1    4    4    0  501  0.20882055903E+03 -0.48354339974E+03 -0.60764135883E+02  0.53020045786E+03  0.00000000000E+00 0. -1.
<mgrwt>
<rscale>  2 0.11258264E+04</rscale>
<asrwt>0</asrwt>
<pdfrwt beam="1">  1        2 0.20714166E+00 0.11258264E+04</pdfrwt>
<pdfrwt beam="2">  1       -2 0.15549914E+00 0.11258264E+04</pdfrwt>
<totfact> 0.57632454E+00</totfact>
</mgrwt>
</event>
<event>
 8    1  0.1449514E-005  0.1689800E+04  0.7818608E-02  0.8307926E-01
         -2   -1    0    0    0  501 -0.00000000000E+00  0.00000000000E+00  0.30236859115E+04  0.30236859115E+04  0.00000000000E+00 0.  1.
          2   -1    0    0  502    0  0.00000000000E+00 -0.00000000000E+00 -0.94655583646E+03  0.94655583646E+03  0.00000000000E+00 0. -1.
    9000010    2    1    2  502    0 -0.10043470395E+04  0.91612080131E+03  0.11340748649E+04  0.20346978153E+04  0.10029352433E+04 0.  0.
   -9000010    2    1    2    0  501  0.10043470395E+04 -0.91612080131E+03  0.94305521014E+03  0.19355439326E+04  0.10044833933E+04 0.  0.
        -13    1    3    3    0    0 -0.19631783995E+03  0.85328461060E+03  0.52539516048E+03  0.10211147863E+04  0.10566000000E+00 0.  1.
          4    1    3    3  502    0 -0.80802919954E+03  0.62836190715E+02  0.60867970442E+03  0.10135830290E+04  0.00000000000E+00 0.  1.
         13    1    4    4    0    0 -0.13310495037E+03 -0.19401947782E+03 -0.74894656578E+02  0.24692044535E+03  0.10566000000E+00 0. -1.
         -4    1    4    4    0  501  0.11374519899E+04 -0.72210132349E+03  0.10179498667E+04  0.16886234873E+04  0.00000000000E+00 0. -1.
<mgrwt>
<rscale>  2 0.16897997E+04</rscale>
<asrwt>0</asrwt>
<pdfrwt beam="2">  1        2 0.14562398E+00 0.16897997E+04</pdfrwt>
<pdfrwt beam="1">  1       -2 0.46518244E+00 0.16897997E+04</pdfrwt>
<totfact> 0.11606087E-01</totfact>
</mgrwt>
</event>
<event>
 8    1  0.1449514E-005  0.1754239E+04  0.7818608E-02  0.8276534E-01
         -4   -1    0    0    0  501 -0.00000000000E+00  0.00000000000E+00  0.19007046520E+04  0.19007046520E+04  0.00000000000E+00 0. -1.
          4   -1    0    0  502    0  0.00000000000E+00 -0.00000000000E+00 -0.16283037073E+04  0.16283037073E+04  0.00000000000E+00 0.  1.
    9000010    2    1    2  502    0  0.14158665142E+04  0.33155119014E+02  0.26774945590E+03  0.17631632570E+04  0.10155184151E+04 0.  0.
   -9000010    2    1    2    0  501 -0.14158665142E+04 -0.33155119014E+02  0.46514887865E+01  0.17658451024E+04  0.10547085102E+04 0.  0.
        -13    1    3    3    0    0  0.13073971747E+04 -0.29181297190E+03  0.18850242466E+02  0.13397005358E+04  0.10566000000E+00 0.  1.
          4    1    3    3  502    0  0.10846933958E+03  0.32496809092E+03  0.24889921344E+03  0.42346272114E+03  0.00000000000E+00 0.  1.
         13    1    4    4    0    0  0.81661248953E+02 -0.41492137849E+02 -0.23226072709E+03  0.24967020967E+03  0.10566000000E+00 0. -1.
         -4    1    4    4    0  501 -0.14975277632E+04  0.83370188350E+01  0.23691221588E+03  0.15161748928E+04  0.00000000000E+00 0. -1.
<mgrwt>
<rscale>  2 0.17542388E+04</rscale>
<asrwt>0</asrwt>
<pdfrwt beam="2">  1        4 0.25050826E+00 0.17542388E+04</pdfrwt>
<pdfrwt beam="1">  1       -4 0.29241610E+00 0.17542388E+04</pdfrwt>
<totfact> 0.76210273E-02</totfact>
</mgrwt>
</event>
<event>
 8    1  0.1449514E-005  0.1512275E+04  0.7818608E-02  0.8402470E-01
         -1   -1    0    0    0  501 -0.00000000000E+00  0.00000000000E+00  0.90919397114E+03  0.90919397114E+03  0.00000000000E+00 0.  1.
          1   -1    0    0  502    0  0.00000000000E+00 -0.00000000000E+00 -0.25154342186E+04  0.25154342186E+04  0.00000000000E+00 0. -1.
    9000010    2    1    2  502    0 -0.87735655253E+03 -0.72693278003E+03 -0.80235235409E+03  0.17064862509E+04  0.98495697236E+03 0.  0.
   -9000010    2    1    2    0  501  0.87735655253E+03  0.72693278003E+03 -0.80388789337E+03  0.17181419388E+04  0.10037879208E+04 0.  0.
        -13    1    3    3    0    0  0.73051961709E+02 -0.51768808725E+03 -0.18784237745E+03  0.55553786074E+03  0.10566000000E+00 0.  1.
          4    1    3    3  502    0 -0.95040851424E+03 -0.20924469279E+03 -0.61450997664E+03  0.11509483902E+04  0.00000000000E+00 0.  1.
         13    1    4    4    0    0  0.58606938379E+03 -0.24787369866E+02 -0.68727255742E+03  0.90356810239E+03  0.10566000000E+00 0. -1.
         -4    1    4    4    0  501  0.29128716874E+03  0.75172014990E+03 -0.11661533595E+03  0.81457383644E+03  0.00000000000E+00 0. -1.
<mgrwt>
<rscale>  2 0.15122746E+04</rscale>
<asrwt>0</asrwt>
<pdfrwt beam="2">  1        1 0.38698988E+00 0.15122746E+04</pdfrwt>
<pdfrwt beam="1">  1       -1 0.13987600E+00 0.15122746E+04</pdfrwt>
<totfact> 0.59508246E-01</totfact>
</mgrwt>
</event>
<event>
 8    1  0.1449514E-005  0.1232670E+04  0.7818608E-02  0.8582359E-01
         -2   -1    0    0    0  501 -0.00000000000E+00  0.00000000000E+00  0.13417664727E+04  0.13417664727E+04  0.00000000000E+00 0.  1.
          2   -1    0    0  502    0  0.00000000000E+00 -0.00000000000E+00 -0.12952677039E+04  0.12952677039E+04  0.00000000000E+00 0. -1.
    9000010    2    1    2  502    0  0.57159406112E+03  0.46681946495E+03  0.49078458826E+03  0.13317709199E+04  0.99403424859E+03 0.  0.
   -9000010    2    1    2    0  501 -0.57159406112E+03 -0.46681946495E+03 -0.44428581945E+03  0.13052632568E+04  0.98065391279E+03 0.  0.
        -13    1    3    3    0    0  0.41510262430E+03  0.48511311840E+03  0.77662619912E+03  0.10053821118E+04  0.10566000000E+00 0.  1.
          4    1    3    3  502    0  0.15649143682E+03 -0.18293653459E+02 -0.28584161086E+03  0.32638880810E+03  0.00000000000E+00 0.  1.
         13    1    4    4    0    0 -0.63861355933E+03 -0.57316066819E+03 -0.64150922749E+03  0.10713890656E+04  0.10566000000E+00 0. -1.
         -4    1    4    4    0  501  0.67019498208E+02  0.10634120325E+03  0.19722340804E+03  0.23387419124E+03  0.00000000000E+00 0. -1.
<mgrwt>
<rscale>  2 0.12326702E+04</rscale>
<asrwt>0</asrwt>
<pdfrwt beam="2">  1        2 0.19927195E+00 0.12326702E+04</pdfrwt>
<pdfrwt beam="1">  1       -2 0.20642561E+00 0.12326702E+04</pdfrwt>
<totfact> 0.22773169E+00</totfact>
</mgrwt>
</event>
<event>
 8    1  0.1449514E-005  0.1024835E+04  0.7818608E-02  0.8751601E-01
         -4   -1    0    0    0  501 -0.00000000000E+00  0.00000000000E+00  0.48534412290E+03  0.48534412290E+03  0.00000000000E+00 0. -1.
          4   -1    0    0  502    0  0.00000000000E+00 -0.00000000000E+00 -0.22506243704E+04  0.22506243704E+04  0.00000000000E+00 0.  1.
    9000010    2    1    2  502    0 -0.39069574775E+02 -0.18457691203E+03 -0.11586341118E+04  0.15532301021E+04  0.10171016060E+04 0.  0.
   -9000010    2    1    2    0  501  0.39069574775E+02  0.18457691203E+03 -0.60664613568E+03  0.11827383912E+04  0.99762492950E+03 0.  0.
        -13    1    3    3    0    0  0.25628623119E+03  0.31615409993E+03 -0.71204417089E+03  0.82014813275E+03  0.10566000000E+00 0.  1.
          4    1    3    3  502    0 -0.29535580597E+03 -0.50073101195E+03 -0.44658994093E+03  0.73308196935E+03  0.00000000000E+00 0.  1.
         13    1    4    4    0    0 -0.44725388259E+03  0.11904763104E+03 -0.49853102923E+03  0.68025110968E+03  0.10566000000E+00 0. -1.
         -4    1    4    4    0  501  0.48632345737E+03  0.65529280986E+02 -0.10811510645E+03  0.50248728153E+03  0.00000000000E+00 0. -1.
<mgrwt>
<rscale>  2 0.10248353E+04</rscale>
<asrwt>0</asrwt>
<pdfrwt beam="2">  1        4 0.34624990E+00 0.10248353E+04</pdfrwt>
<pdfrwt beam="1">  1       -4 0.74668327E-01 0.10248353E+04</pdfrwt>
<totfact> 0.39995080E-01</totfact>
</mgrwt>
</event>
<event>
 8    1  0.1449514E-005  0.1013237E+04  0.7818608E-02  0.8762253E-01
         -2   -1    0    0    0  501 -0.00000000000E+00  0.00000000000E+00  0.51568768888E+03  0.51568768888E+03  0.00000000000E+00 0.  1.
          2   -1    0    0  502    0  0.00000000000E+00 -0.00000000000E+00 -0.25973224276E+04  0.25973224276E+04  0.00000000000E+00 0. -1.
    9000010    2    1    2  502    0 -0.17963137520E+03 -0.22084497707E+03 -0.18048467736E+04  0.20775307617E+04  0.98874782163E+03 0.  0.
   -9000010    2    1    2    0  501  0.17963137520E+03  0.22084497707E+03 -0.27678796513E+03  0.10354793548E+04  0.95632943158E+03 0.  0.
        -13    1    3    3    0    0 -0.50405352161E+03 -0.25594166929E+03 -0.57984708800E+03  0.80981402022E+03  0.10566000000E+00 0.  1.
          4    1    3    3  502    0  0.32442214641E+03  0.35096692214E+02 -0.12249996856E+04  0.12677167415E+04  0.00000000000E+00 0.  1.
         13    1    4    4    0    0  0.21637240959E+03  0.25191173562E+03  0.30548731937E+03  0.45121952045E+03  0.10566000000E+00 0. -1.
         -4    1    4    4    0  501 -0.36741034391E+02 -0.31066758545E+02 -0.58227528449E+03  0.58425983434E+03  0.00000000000E+00 0. -1.
<mgrwt>
<rscale>  2 0.10132374E+04</rscale>
<asrwt>0</asrwt>
<pdfrwt beam="2">  1        2 0.39958808E+00 0.10132374E+04</pdfrwt>
<pdfrwt beam="1">  1       -2 0.79336565E-01 0.10132374E+04</pdfrwt>
<totfact> 0.68109139E+00</totfact>
</mgrwt>
</event>
<event>
 8    1  0.1449514E-005  0.1043504E+04  0.7818608E-02  0.8734756E-01
         -2   -1    0    0    0  501 -0.00000000000E+00  0.00000000000E+00  0.14696128608E+04  0.14696128608E+04  0.00000000000E+00 0.  1.
          2   -1    0    0  502    0  0.00000000000E+00 -0.00000000000E+00 -0.10051823007E+04  0.10051823007E+04  0.00000000000E+00 0. -1.
    9000010    2    1    2  502    0  0.26629831792E+03 -0.17963210221E+03 -0.40162476083E+03  0.11214209050E+04  0.99654398371E+03 0.  0.
   -9000010    2    1    2    0  501 -0.26629831792E+03  0.17963210221E+03  0.86605532099E+03  0.13533742564E+04  0.98913475963E+03 0.  0.
        -13    1    3    3    0    0  0.61377642873E+03 -0.93777953667E+02 -0.55275389741E+02  0.62335478576E+03  0.10566000000E+00 0.  1.
          4    1    3    3  502    0 -0.34747811081E+03 -0.85854148543E+02 -0.34634937109E+03  0.49806611927E+03  0.00000000000E+00 0.  1.
         13    1    4    4    0    0 -0.37343733924E+03  0.54419185706E+03  0.55223269149E+03  0.86055864433E+03  0.10566000000E+00 0. -1.
         -4    1    4    4    0  501  0.10713902133E+03 -0.36455975485E+03  0.31382262950E+03  0.49281561210E+03  0.00000000000E+00 0. -1.
<mgrwt>
<rscale>  2 0.10435044E+04</rscale>
<asrwt>0</asrwt>
<pdfrwt beam="2">  1        2 0.15464343E+00 0.10435044E+04</pdfrwt>
<pdfrwt beam="1">  1       -2 0.22609429E+00 0.10435044E+04</pdfrwt>
<totfact> 0.23671294E+00</totfact>
</mgrwt>
</event>
<event>
 8    1  0.1449514E-005  0.1123174E+04  0.7818608E-02  0.8666774E-01
         -1   -1    0    0    0  501 -0.00000000000E+00  0.00000000000E+00  0.87264410872E+03  0.87264410872E+03  0.00000000000E+00 0.  1.
          1   -1    0    0  502    0  0.00000000000E+00 -0.00000000000E+00 -0.16094682001E+04  0.16094682001E+04  0.00000000000E+00 0. -1.
    9000010    2    1    2  502    0 -0.16945104852E+03  0.49570275737E+03  0.27394585204E+02  0.11240504532E+04  0.99413483823E+03 0.  0.
   -9000010    2    1    2    0  501  0.16945104852E+03 -0.49570275737E+03 -0.76421867658E+03  0.13580618556E+04  0.99290832230E+03 0.  0.
        -13    1    3    3    0    0  0.19582983878E+03  0.31545909085E+03 -0.39163437024E+03  0.53966772636E+03  0.10566000000E+00 0.  1.
          4    1    3    3  502    0 -0.36528088730E+03  0.18024366651E+03  0.41902895545E+03  0.58438272685E+03  0.00000000000E+00 0.  1.
         13    1    4    4    0    0  0.24245543311E+03  0.90003370630E+02 -0.72130252378E+03  0.76626534943E+03  0.10566000000E+00 0. -1.
         -4    1    4    4    0  501 -0.73004384587E+02 -0.58570612800E+03 -0.42916152801E+02  0.59179650617E+03  0.00000000000E+00 0. -1.
<mgrwt>
<rscale>  2 0.11231740E+04</rscale>
<asrwt>0</asrwt>
<pdfrwt beam="2">  1        1 0.24761049E+00 0.11231740E+04</pdfrwt>
<pdfrwt beam="1">  1       -1 0.13425294E+00 0.11231740E+04</pdfrwt>
<totfact> 0.36875473E+00</totfact>
</mgrwt>
</event>
<event>
 8    1  0.1449514E-005  0.1346669E+04  0.7818608E-02  0.8503610E-01
          1   -1    0    0  502    0  0.00000000000E+00  0.00000000000E+00  0.10397899658E+04  0.10397899658E+04  0.00000000000E+00 0.  1.
         -1   -1    0    0    0  501 -0.00000000000E+00 -0.00000000000E+00 -0.17486607063E+04  0.17486607063E+04  0.00000000000E+00 0. -1.
    9000010    2    1    2  502    0  0.47874011318E+03  0.76263172193E+03 -0.42638765071E+03  0.14162506683E+04  0.10065586359E+04 0.  0.
   -9000010    2    1    2    0  501 -0.47874011318E+03 -0.76263172193E+03 -0.28248308979E+03  0.13722000038E+04  0.99616108893E+03 0.  0.
        -13    1    3    3    0    0  0.67131069918E+03  0.86909644161E+03 -0.46550014959E+03  0.11927602777E+04  0.10566000000E+00 0.  1.
          4    1    3    3  502    0 -0.19257058600E+03 -0.10646471967E+03  0.39112498878E+02  0.22349039061E+03  0.00000000000E+00 0.  1.
         13    1    4    4    0    0 -0.73228771493E+03 -0.32711454247E+03 -0.32735029914E+03  0.86626061370E+03  0.10566000000E+00 0. -1.
         -4    1    4    4    0  501  0.25354760176E+03 -0.43551717946E+03  0.44867209352E+02  0.50593939008E+03  0.00000000000E+00 0. -1.
<mgrwt>
<rscale>  2 0.13466692E+04</rscale>
<asrwt>0</asrwt>
<pdfrwt beam="1">  1        1 0.15996769E+00 0.13466692E+04</pdfrwt>
<pdfrwt beam="2">  1       -1 0.26902472E+00 0.13466692E+04</pdfrwt>
<totfact> 0.57388209E-01</totfact>
</mgrwt>
</event>
<event>
 8    1  0.1449514E-005  0.1064928E+04  0.7818608E-02  0.8715868E-01
         -1   -1    0    0    0  501 -0.00000000000E+00  0.00000000000E+00  0.84626341522E+03  0.84626341522E+03  0.00000000000E+00 0. -1.
          1   -1    0    0  502    0  0.00000000000E+00 -0.00000000000E+00 -0.15117699723E+04  0.15117699723E+04  0.00000000000E+00 0.  1.
    9000010    2    1    2  502    0 -0.10856528109E+02  0.37286139686E+03  0.66407801709E+02  0.10600957678E+04  0.99007553005E+03 0.  0.
   -9000010    2    1    2    0  501  0.10856528109E+02 -0.37286139686E+03 -0.73191435875E+03  0.12979376197E+04  0.10048880289E+04 0.  0.
        -13    1    3    3    0    0 -0.79862762287E+02  0.65730693983E+03  0.25760384421E+03  0.71048590814E+03  0.10566000000E+00 0.  1.
          4    1    3    3  502    0  0.69006234178E+02 -0.28444554297E+03 -0.19119604251E+03  0.34960985961E+03  0.00000000000E+00 0.  1.
         13    1    4    4    0    0  0.31147805779E+03  0.36193779228E+02  0.94988294012E+02  0.32764516982E+03  0.10566000000E+00 0. -1.
         -4    1    4    4    0  501 -0.30062152968E+03 -0.40905517609E+03 -0.82690265276E+03  0.97029244990E+03  0.00000000000E+00 0. -1.
<mgrwt>
<rscale>  2 0.10649282E+04</rscale>
<asrwt>0</asrwt>
<pdfrwt beam="2">  1        1 0.23258000E+00 0.10649282E+04</pdfrwt>
<pdfrwt beam="1">  1       -1 0.13019437E+00 0.10649282E+04</pdfrwt>
<totfact> 0.47662870E+00</totfact>
</mgrwt>
</event>
<event>
 8    1  0.1449514E-005  0.1478489E+04  0.7818608E-02  0.8421987E-01
         -2   -1    0    0    0  501 -0.00000000000E+00  0.00000000000E+00  0.20577507341E+04  0.20577507341E+04  0.00000000000E+00 0. -1.
          2   -1    0    0  502    0  0.00000000000E+00 -0.00000000000E+00 -0.17470811056E+04  0.17470811056E+04  0.00000000000E+00 0.  1.
    9000010    2    1    2  502    0 -0.88472760798E+03  0.65880692392E+03  0.13451855006E+04  0.19869444142E+04  0.96002842186E+03 0.  0.
   -9000010    2    1    2    0  501  0.88472760798E+03 -0.65880692392E+03 -0.10345158720E+04  0.18178874255E+04  0.10088221344E+04 0.  0.
        -13    1    3    3    0    0 -0.31828978818E+03 -0.18834797987E+03  0.11046046106E+03  0.38598558963E+03  0.10566000000E+00 0.  1.
          4    1    3    3  502    0 -0.56643781980E+03  0.84715490379E+03  0.12347250395E+04  0.16009588246E+04  0.00000000000E+00 0.  1.
         13    1    4    4    0    0  0.94253463927E+03 -0.83330241192E+03 -0.10425154922E+04  0.16338919850E+04  0.10566000000E+00 0. -1.
         -4    1    4    4    0  501 -0.57807031290E+02  0.17449548800E+03  0.79996201813E+01  0.18399544049E+03  0.00000000000E+00 0. -1.
<mgrwt>
<rscale>  2 0.14784891E+04</rscale>
<asrwt>0</asrwt>
<pdfrwt beam="2">  1        2 0.26878171E+00 0.14784891E+04</pdfrwt>
<pdfrwt beam="1">  1       -2 0.31657704E+00 0.14784891E+04</pdfrwt>
<totfact> 0.18504745E-01</totfact>
</mgrwt>
</event>
<event>
 8    1  0.1449514E-005  0.1363187E+04  0.7818608E-02  0.8492868E-01
         -2   -1    0    0    0  501 -0.00000000000E+00  0.00000000000E+00  0.22739070596E+04  0.22739070596E+04  0.00000000000E+00 0. -1.
          2   -1    0    0  502    0  0.00000000000E+00 -0.00000000000E+00 -0.85877105252E+03  0.85877105252E+03  0.00000000000E+00 0.  1.
    9000010    2    1    2  502    0  0.51771436912E+03  0.77615583789E+03  0.36231457258E+03  0.14091215790E+04  0.99192021967E+03 0.  0.
   -9000010    2    1    2    0  501 -0.51771436912E+03 -0.77615583789E+03  0.10528214345E+04  0.17235565331E+04  0.99587554308E+03 0.  0.
        -13    1    3    3    0    0  0.79791763455E+03  0.54129065479E+03  0.12266787847E+03  0.97196478540E+03  0.10566000000E+00 0.  1.
          4    1    3    3  502    0 -0.28020326542E+03  0.23486518310E+03  0.23964669411E+03  0.43715679359E+03  0.00000000000E+00 0.  1.
         13    1    4    4    0    0 -0.52248967904E+03 -0.10033768863E+04  0.93451101398E+03  0.14673348244E+04  0.10566000000E+00 0. -1.
         -4    1    4    4    0  501  0.47753099135E+01  0.22722104837E+03  0.11831042052E+03  0.25622170871E+03  0.00000000000E+00 0. -1.
<mgrwt>
<rscale>  2 0.13631870E+04</rscale>
<asrwt>0</asrwt>
<pdfrwt beam="2">  1        2 0.13211862E+00 0.13631870E+04</pdfrwt>
<pdfrwt beam="1">  1       -2 0.34983185E+00 0.13631870E+04</pdfrwt>
<totfact> 0.36656323E-01</totfact>
</mgrwt>
</event>
<event>
 8    1  0.1449514E-005  0.1862498E+04  0.7818608E-02  0.8226794E-01
          4   -1    0    0  502    0  0.00000000000E+00  0.00000000000E+00  0.13240391281E+04  0.13240391281E+04  0.00000000000E+00 0.  1.
         -4   -1    0    0    0  501 -0.00000000000E+00 -0.00000000000E+00 -0.27095050359E+04  0.27095050359E+04  0.00000000000E+00 0. -1.
    9000010    2    1    2  502    0 -0.14372662110E+04 -0.63847262820E+03 -0.32627053690E+03  0.18914534100E+04  0.99888041359E+03 0.  0.
   -9000010    2    1    2    0  501  0.14372662110E+04  0.63847262820E+03 -0.10591953709E+04  0.21420907541E+04  0.99663258368E+03 0.  0.
        -13    1    3    3    0    0 -0.15126046075E+04 -0.39373099969E+03 -0.12922544308E+03  0.15683418074E+04  0.10566000000E+00 0.  1.
          4    1    3    3  502    0  0.75338396463E+02 -0.24474162851E+03 -0.19704509382E+03  0.32311160256E+03  0.00000000000E+00 0.  1.
         13    1    4    4    0    0  0.13502525279E+04  0.85081711325E+03 -0.76739986721E+03  0.17708682099E+04  0.10566000000E+00 0. -1.
         -4    1    4    4    0  501  0.87013683051E+02 -0.21234448505E+03 -0.29179550367E+03  0.37122254421E+03  0.00000000000E+00 0. -1.
<mgrwt>
<rscale>  2 0.18624983E+04</rscale>
<asrwt>0</asrwt>
<pdfrwt beam="1">  1        4 0.20369833E+00 0.18624983E+04</pdfrwt>
<pdfrwt beam="2">  1       -4 0.41684692E+00 0.18624983E+04</pdfrwt>
<totfact> 0.37227762E-02</totfact>
</mgrwt>
</event>
<event>
 8    1  0.1449514E-005  0.1270185E+04  0.7818608E-02  0.8555506E-01
          1   -1    0    0  502    0  0.00000000000E+00  0.00000000000E+00  0.15943971210E+04  0.15943971210E+04  0.00000000000E+00 0. -1.
         -1   -1    0    0    0  501 -0.00000000000E+00 -0.00000000000E+00 -0.10777276212E+04  0.10777276212E+04  0.00000000000E+00 0.  1.
    9000010    2    1    2  502    0 -0.79858846069E+03  0.55584794728E+02 -0.72458404870E+02  0.12690605618E+04  0.98205462680E+03 0.  0.
   -9000010    2    1    2    0  501  0.79858846069E+03 -0.55584794728E+02  0.58912790469E+03  0.14030641804E+04  0.99029501022E+03 0.  0.
        -13    1    3    3    0    0  0.56792667882E+02  0.16202233753E+03  0.28756458615E+03  0.33491797109E+03  0.10566000000E+00 0.  1.
          4    1    3    3  502    0 -0.85538112857E+03 -0.10643754281E+03 -0.36002299102E+03  0.93414259067E+03  0.00000000000E+00 0.  1.
         13    1    4    4    0    0 -0.47134486044E+02  0.32628124177E+03  0.25508305640E+03  0.41683148314E+03  0.10566000000E+00 0. -1.
         -4    1    4    4    0  501  0.84572294673E+03 -0.38186603650E+03  0.33404484828E+03  0.98623269725E+03  0.00000000000E+00 0. -1.
<mgrwt>
<rscale>  2 0.12701852E+04</rscale>
<asrwt>0</asrwt>
<pdfrwt beam="1">  1        1 0.24529187E+00 0.12701852E+04</pdfrwt>
<pdfrwt beam="2">  1       -1 0.16580425E+00 0.12701852E+04</pdfrwt>
<totfact> 0.19781165E+00</totfact>
</mgrwt>
</event>
<event>
 8    1  0.1449514E-005  0.1226003E+04  0.7818608E-02  0.8587235E-01
         -2   -1    0    0    0  501 -0.00000000000E+00  0.00000000000E+00  0.11593091594E+04  0.11593091594E+04  0.00000000000E+00 0. -1.
          2   -1    0    0  502    0  0.00000000000E+00 -0.00000000000E+00 -0.17105998823E+04  0.17105998823E+04  0.00000000000E+00 0.  1.
    9000010    2    1    2  502    0  0.47107267404E+03  0.51891530024E+03 -0.98217227661E+03  0.15734072375E+04  0.10098343434E+04 0.  0.
   -9000010    2    1    2    0  501 -0.47107267404E+03 -0.51891530024E+03  0.43088155372E+03  0.12965018041E+04  0.10020356589E+04 0.  0.
        -13    1    3    3    0    0  0.16992627246E+03  0.28845341289E+03 -0.11207373940E+04  0.11696720168E+04  0.10566000000E+00 0.  1.
          4    1    3    3  502    0  0.30114640158E+03  0.23046188735E+03  0.13856511738E+03  0.40373522073E+03  0.00000000000E+00 0.  1.
         13    1    4    4    0    0 -0.25283889680E+03  0.16943216903E+02  0.63441596456E+03  0.68315313626E+03  0.10566000000E+00 0. -1.
         -4    1    4    4    0  501 -0.21823377724E+03 -0.53585851714E+03 -0.20353441084E+03  0.61334866782E+03  0.00000000000E+00 0. -1.
<mgrwt>
<rscale>  2 0.12260027E+04</rscale>
<asrwt>0</asrwt>
<pdfrwt beam="2">  1        2 0.26316921E+00 0.12260027E+04</pdfrwt>
<pdfrwt beam="1">  1       -2 0.17835526E+00 0.12260027E+04</pdfrwt>
<totfact> 0.23026659E+00</totfact>
</mgrwt>
</event>
<event>
 8    1  0.1449514E-005  0.1036136E+04  0.7818608E-02  0.8741360E-01
          2   -1    0    0  502    0  0.00000000000E+00  0.00000000000E+00  0.39977879191E+04  0.39977879191E+04  0.00000000000E+00 0. -1.
         -2   -1    0    0    0  501 -0.00000000000E+00 -0.00000000000E+00 -0.27394328101E+03  0.27394328101E+03  0.00000000000E+00 0.  1.
    9000010    2    1    2  502    0 -0.26210384211E+03  0.53687699987E+02  0.15747069551E+04  0.18888809022E+04  0.10082600236E+04 0.  0.
   -9000010    2    1    2    0  501  0.26210384211E+03 -0.53687699987E+02  0.21491376830E+04  0.23828502979E+04  0.99378165033E+03 0.  0.
        -13    1    3    3    0    0  0.37572231683E+03  0.90826444443E+02  0.43200105716E+03  0.57969097537E+03  0.10566000000E+00 0.  1.
          4    1    3    3  502    0 -0.63782615894E+03 -0.37138744456E+02  0.11427058979E+04  0.13091899268E+04  0.00000000000E+00 0.  1.
         13    1    4    4    0    0  0.17064610520E+03  0.46616137963E+03  0.92562134787E+03  0.10503339545E+04  0.10566000000E+00 0. -1.
         -4    1    4    4    0  501  0.91457736915E+02 -0.51984907962E+03  0.12235163352E+04  0.13325163435E+04  0.00000000000E+00 0. -1.
<mgrwt>
<rscale>  2 0.10361361E+04</rscale>
<asrwt>0</asrwt>
<pdfrwt beam="1">  1        2 0.61504425E+00 0.10361361E+04</pdfrwt>
<pdfrwt beam="2">  1       -2 0.42145123E-01 0.10361361E+04</pdfrwt>
<totfact> 0.25530325E+00</totfact>
</mgrwt>
</event>
<event>
 8    1  0.1449514E-005  0.1299907E+04  0.7818608E-02  0.8534902E-01
         -2   -1    0    0    0  501 -0.00000000000E+00  0.00000000000E+00  0.10761117811E+04  0.10761117811E+04  0.00000000000E+00 0.  1.
          2   -1    0    0  502    0  0.00000000000E+00 -0.00000000000E+00 -0.16539413647E+04  0.16539413647E+04  0.00000000000E+00 0. -1.
    9000010    2    1    2  502    0 -0.68711547020E+03  0.41845681084E+03 -0.59596230072E+03  0.14299169439E+04  0.10209101971E+04 0.  0.
   -9000010    2    1    2    0  501  0.68711547020E+03 -0.41845681084E+03  0.18132717155E+02  0.13001362019E+04  0.10211716683E+04 0.  0.
        -13    1    3    3    0    0 -0.39641924476E+02  0.40021836079E+03  0.16139302734E+03  0.43335198041E+03  0.10566000000E+00 0.  1.
          4    1    3    3  502    0 -0.64747354572E+03  0.18238450055E+02 -0.75735532806E+03  0.99656496347E+03  0.00000000000E+00 0.  1.
         13    1    4    4    0    0  0.30624081191E+03  0.32502559447E+03 -0.96691915155E+02  0.45691838392E+03  0.10566000000E+00 0. -1.
         -4    1    4    4    0  501  0.38087465829E+03 -0.74348240532E+03  0.11482463231E+03  0.84321781796E+03  0.00000000000E+00 0. -1.
<mgrwt>
<rscale>  2 0.12999071E+04</rscale>
<asrwt>0</asrwt>
<pdfrwt beam="2">  1        2 0.25445252E+00 0.12999071E+04</pdfrwt>
<pdfrwt beam="1">  1       -2 0.16555566E+00 0.12999071E+04</pdfrwt>
<totfact> 0.31416682E+00</totfact>
</mgrwt>
</event>
<event>
 8    1  0.1449514E-005  0.1925718E+04  0.7818608E-02  0.8199324E-01
          2   -1    0    0  502    0  0.00000000000E+00  0.00000000000E+00  0.98750779321E+03  0.98750779321E+03  0.00000000000E+00 0.  1.
         -2   -1    0    0    0  501 -0.00000000000E+00 -0.00000000000E+00 -0.37725769603E+04  0.37725769603E+04  0.00000000000E+00 0. -1.
    9000010    2    1    2  502    0  0.39158760026E+03  0.15959559052E+04 -0.12290264542E+04  0.22815443321E+04  0.99725744629E+03 0.  0.
   -9000010    2    1    2    0  501 -0.39158760026E+03 -0.15959559052E+04 -0.15560427129E+04  0.24785404214E+04  0.10106817482E+04 0.  0.
        -13    1    3    3    0    0 -0.27212895633E+03  0.46430164671E+03 -0.93072387281E+02  0.54616176033E+03  0.10566000000E+00 0.  1.
          4    1    3    3  502    0  0.66371655659E+03  0.11316542585E+04 -0.11359540669E+04  0.17353825718E+04  0.00000000000E+00 0.  1.
         13    1    4    4    0    0 -0.13759491862E+03 -0.15028799703E+04 -0.87205459690E+03  0.17430030975E+04  0.10566000000E+00 0. -1.
         -4    1    4    4    0  501 -0.25399268164E+03 -0.93075934864E+02 -0.68398811596E+03  0.73553732383E+03  0.00000000000E+00 0. -1.
<mgrwt>
<rscale>  2 0.19257185E+04</rscale>
<asrwt>0</asrwt>
<pdfrwt beam="1">  1        2 0.15192427E+00 0.19257185E+04</pdfrwt>
<pdfrwt beam="2">  1       -2 0.58039646E+00 0.19257185E+04</pdfrwt>
<totfact> 0.17304888E-01</totfact>
</mgrwt>
</event>
<event>
 8    1  0.1449514E-005  0.1031184E+04  0.7818608E-02  0.8745831E-01
          2   -1    0    0  502    0  0.00000000000E+00  0.00000000000E+00  0.31207961714E+04  0.31207961714E+04  0.00000000000E+00 0. -1.
         -2   -1    0    0    0  501 -0.00000000000E+00 -0.00000000000E+00 -0.39511078312E+03  0.39511078312E+03  0.00000000000E+00 0.  1.
    9000010    2    1    2  502    0  0.11308793648E+03 -0.25654293498E+03  0.71151764389E+03  0.12534676714E+04  0.99313679158E+03 0.  0.
   -9000010    2    1    2    0  501 -0.11308793648E+03  0.25654293498E+03  0.20141677444E+04  0.22624392831E+04  0.99154256004E+03 0.  0.
        -13    1    3    3    0    0  0.53697447661E+03 -0.27788794716E+03  0.37139729950E+03  0.70957682103E+03  0.10566000000E+00 0.  1.
          4    1    3    3  502    0 -0.42388654012E+03  0.21345012173E+02  0.34012034439E+03  0.54389085037E+03  0.00000000000E+00 0.  1.
         13    1    4    4    0    0 -0.15096279316E+03 -0.25082052507E+03  0.15379488285E+04  0.15655629374E+04  0.10566000000E+00 0. -1.
         -4    1    4    4    0  501  0.37874856678E+02  0.50736346005E+03  0.47621891587E+03  0.69687634570E+03  0.00000000000E+00 0. -1.
<mgrwt>
<rscale>  2 0.10311841E+04</rscale>
<asrwt>0</asrwt>
<pdfrwt beam="1">  1        2 0.48012247E+00 0.10311841E+04</pdfrwt>
<pdfrwt beam="2">  1       -2 0.60786276E-01 0.10311841E+04</pdfrwt>
<totfact> 0.57607861E+00</totfact>
</mgrwt>
</event>
<event>
 8    1  0.1449514E-005  0.1269569E+04  0.7818608E-02  0.8555939E-01
         -1   -1    0    0    0  501 -0.00000000000E+00  0.00000000000E+00  0.93760189838E+03  0.93760189838E+03  0.00000000000E+00 0.  1.
          1   -1    0    0  502    0  0.00000000000E+00 -0.00000000000E+00 -0.17254198978E+04  0.17254198978E+04  0.00000000000E+00 0. -1.
    9000010    2    1    2  502    0  0.78822161278E+03  0.43789455698E+03 -0.34228128438E+03  0.12476242134E+04  0.79143208582E+03 0.  0.
   -9000010    2    1    2    0  501 -0.78822161278E+03 -0.43789455698E+03 -0.44553671502E+03  0.14153975827E+04  0.99589276472E+03 0.  0.
        -13    1    3    3    0    0 -0.73897225774E+02 -0.84183715338E+02  0.96999738575E+02  0.14817779305E+03  0.10566000000E+00 0.  1.
          4    1    3    3  502    0  0.86211883855E+03  0.52207827232E+03 -0.43928102295E+03  0.10994464204E+04  0.00000000000E+00 0.  1.
         13    1    4    4    0    0 -0.54118685496E+03 -0.38518960084E+03  0.22302482918E+03  0.70070987303E+03  0.10566000000E+00 0. -1.
         -4    1    4    4    0  501 -0.24703475782E+03 -0.52704956145E+02 -0.66856154421E+03  0.71468770968E+03  0.00000000000E+00 0. -1.
<mgrwt>
<rscale>  2 0.12695688E+04</rscale>
<asrwt>0</asrwt>
<pdfrwt beam="2">  1        1 0.26544921E+00 0.12695688E+04</pdfrwt>
<pdfrwt beam="1">  1       -1 0.14424645E+00 0.12695688E+04</pdfrwt>
<totfact> 0.24282905E+00</totfact>
</mgrwt>
</event>
<event>
 8    1  0.1449514E-005  0.1190482E+04  0.7818608E-02  0.8613764E-01
         -1   -1    0    0    0  501 -0.00000000000E+00  0.00000000000E+00  0.74816980330E+03  0.74816980330E+03  0.00000000000E+00 0.  1.
          1   -1    0    0  502    0  0.00000000000E+00 -0.00000000000E+00 -0.18950150512E+04  0.18950150512E+04  0.00000000000E+00 0. -1.
    9000010    2    1    2  502    0 -0.63101295780E+03  0.17889743987E+03 -0.59078756071E+03  0.13190385058E+04  0.98012804827E+03 0.  0.
   -9000010    2    1    2    0  501  0.63101295780E+03 -0.17889743987E+03 -0.55605768715E+03  0.13241463487E+04  0.10069666103E+04 0.  0.
        -13    1    3    3    0    0 -0.84036572358E+02 -0.37799297841E+03 -0.11109920481E+03  0.40284473646E+03  0.10566000000E+00 0.  1.
          4    1    3    3  502    0 -0.54697638544E+03  0.55689041828E+03 -0.47968835589E+03  0.91619376934E+03  0.00000000000E+00 0.  1.
         13    1    4    4    0    0 -0.81562586195E+00 -0.47145271370E+03 -0.38111576907E+03  0.60623227157E+03  0.10566000000E+00 0. -1.
         -4    1    4    4    0  501  0.63182858366E+03  0.29255527383E+03 -0.17494191809E+03  0.71791407709E+03  0.00000000000E+00 0. -1.
<mgrwt>
<rscale>  2 0.11904819E+04</rscale>
<asrwt>0</asrwt>
<pdfrwt beam="2">  1        1 0.29154078E+00 0.11904819E+04</pdfrwt>
<pdfrwt beam="1">  1       -1 0.11510305E+00 0.11904819E+04</pdfrwt>
<totfact> 0.33045466E+00</totfact>
</mgrwt>
</event>
<event>
 8    1  0.1449514E-005  0.1131747E+04  0.7818608E-02  0.8659811E-01
          4   -1    0    0  502    0  0.00000000000E+00  0.00000000000E+00  0.13505483061E+04  0.13505483061E+04  0.00000000000E+00 0.  1.
         -4   -1    0    0    0  501 -0.00000000000E+00 -0.00000000000E+00 -0.10363868477E+04  0.10363868477E+04  0.00000000000E+00 0. -1.
    9000010    2    1    2  502    0  0.27760382475E+03 -0.42822249673E+03 -0.19267468359E+03  0.11270022244E+04  0.98619069656E+03 0.  0.
   -9000010    2    1    2    0  501 -0.27760382475E+03  0.42822249673E+03  0.50683614201E+03  0.12599329294E+04  0.10344610779E+04 0.  0.
        -13    1    3    3    0    0  0.11687945019E+03 -0.83973524501E+02  0.39882671708E+03  0.42399896240E+03  0.10566000000E+00 0.  1.
          4    1    3    3  502    0  0.16072437456E+03 -0.34424897223E+03 -0.59150140067E+03  0.70300326205E+03  0.00000000000E+00 0.  1.
         13    1    4    4    0    0 -0.61480086156E+03  0.11450359580E+03  0.77262552547E+02  0.63012751568E+03  0.10566000000E+00 0. -1.
         -4    1    4    4    0  501  0.33719703681E+03  0.31371890093E+03  0.42957358946E+03  0.62980541376E+03  0.00000000000E+00 0. -1.
<mgrwt>
<rscale>  2 0.11317470E+04</rscale>
<asrwt>0</asrwt>
<pdfrwt beam="1">  1        4 0.20777666E+00 0.11317470E+04</pdfrwt>
<pdfrwt beam="2">  1       -4 0.15944413E+00 0.11317470E+04</pdfrwt>
<totfact> 0.23558923E-01</totfact>
</mgrwt>
</event>
<event>
 8    1  0.1449514E-005  0.1250078E+04  0.7818608E-02  0.8569777E-01
          2   -1    0    0  502    0  0.00000000000E+00  0.00000000000E+00  0.14512585536E+04  0.14512585536E+04  0.00000000000E+00 0.  1.
         -2   -1    0    0    0  501 -0.00000000000E+00 -0.00000000000E+00 -0.15216814355E+04  0.15216814355E+04  0.00000000000E+00 0. -1.
    9000010    2    1    2  502    0 -0.76047219370E+03 -0.15743405877E+03 -0.83771220281E+03  0.15507231485E+04  0.10487502602E+04 0.  0.
   -9000010    2    1    2    0  501  0.76047219370E+03  0.15743405877E+03  0.76728932084E+03  0.14222168406E+04  0.91151763540E+03 0.  0.
        -13    1    3    3    0    0 -0.43635433671E+03 -0.53029592961E+02 -0.10576475322E+04  0.11453539010E+04  0.10566000000E+00 0.  1.
          4    1    3    3  502    0 -0.32411785699E+03 -0.10440446580E+03  0.21993532941E+03  0.40536924750E+03  0.00000000000E+00 0.  1.
         13    1    4    4    0    0  0.48439461725E+03 -0.35031838930E+03  0.52473062560E+03  0.79542652691E+03  0.10566000000E+00 0. -1.
         -4    1    4    4    0  501  0.27607757645E+03  0.50775244807E+03  0.24255869524E+03  0.62679031372E+03  0.00000000000E+00 0. -1.
<mgrwt>
<rscale>  2 0.12500785E+04</rscale>
<asrwt>0</asrwt>
<pdfrwt beam="1">  1        2 0.22327055E+00 0.12500785E+04</pdfrwt>
<pdfrwt beam="2">  1       -2 0.23410484E+00 0.12500785E+04</pdfrwt>
<totfact> 0.11105312E+00</totfact>
</mgrwt>
</event>
<event>
 8    1  0.1449514E-005  0.1479290E+04  0.7818608E-02  0.8421519E-01
         -2   -1    0    0    0  501 -0.00000000000E+00  0.00000000000E+00  0.16617852303E+04  0.16617852303E+04  0.00000000000E+00 0.  1.
          2   -1    0    0  502    0  0.00000000000E+00 -0.00000000000E+00 -0.21584134034E+04  0.21584134034E+04  0.00000000000E+00 0. -1.
    9000010    2    1    2  502    0 -0.59691187065E+03  0.91986363485E+03  0.94498026301E+03  0.17504133420E+04  0.98412716783E+03 0.  0.
   -9000010    2    1    2    0  501  0.59691187065E+03 -0.91986363485E+03 -0.14416084362E+04  0.20697852916E+04  0.10016603128E+04 0.  0.
        -13    1    3    3    0    0  0.99126392287E+02  0.25102917092E+03  0.70620096241E+03  0.75601686275E+03  0.10566000000E+00 0.  1.
          4    1    3    3  502    0 -0.69603826294E+03  0.66883446393E+03  0.23877930060E+03  0.99439647929E+03  0.00000000000E+00 0.  1.
         13    1    4    4    0    0  0.10987416933E+03 -0.75662946279E+03 -0.30622130065E+03  0.82360911431E+03  0.10566000000E+00 0. -1.
         -4    1    4    4    0  501  0.48703770133E+03 -0.16323417207E+03 -0.11353871355E+04  0.12461761773E+04  0.00000000000E+00 0. -1.
<mgrwt>
<rscale>  2 0.14792899E+04</rscale>
<asrwt>0</asrwt>
<pdfrwt beam="2">  1        2 0.33206360E+00 0.14792899E+04</pdfrwt>
<pdfrwt beam="1">  1       -2 0.25565927E+00 0.14792899E+04</pdfrwt>
<totfact> 0.30166826E-01</totfact>
</mgrwt>
</event>
<event>
 8    1  0.1449514E-005  0.1340151E+04  0.7818608E-02  0.8507893E-01
          1   -1    0    0  502    0  0.00000000000E+00  0.00000000000E+00  0.54401505790E+03  0.54401505790E+03  0.00000000000E+00 0.  1.
         -1   -1    0    0    0  501 -0.00000000000E+00 -0.00000000000E+00 -0.33715717582E+04  0.33715717582E+04  0.00000000000E+00 0. -1.
    9000010    2    1    2  502    0 -0.76009627344E+03  0.47732107457E+03 -0.17018404988E+04  0.21695929878E+04  0.10026419582E+04 0.  0.
   -9000010    2    1    2    0  501  0.76009627344E+03 -0.47732107457E+03 -0.11257162015E+04  0.17459938283E+04  0.98776299232E+03 0.  0.
        -13    1    3    3    0    0 -0.96950962280E+03  0.19377596765E+03 -0.11736776576E+04  0.15346065585E+04  0.10566000000E+00 0.  1.
          4    1    3    3  502    0  0.20941334936E+03  0.28354510693E+03 -0.52816284119E+03  0.63498642928E+03  0.00000000000E+00 0.  1.
         13    1    4    4    0    0  0.19835087611E+03  0.30678586757E+03 -0.37680706092E+03  0.52482779167E+03  0.10566000000E+00 0. -1.
         -4    1    4    4    0  501  0.56174539733E+03 -0.78410694215E+03 -0.74890914059E+03  0.12211660366E+04  0.00000000000E+00 0. -1.
<mgrwt>
<rscale>  2 0.13401507E+04</rscale>
<asrwt>0</asrwt>
<pdfrwt beam="1">  1        1 0.83694621E-01 0.13401507E+04</pdfrwt>
<pdfrwt beam="2">  1       -1 0.51870337E+00 0.13401507E+04</pdfrwt>
<totfact> 0.43753032E-01</totfact>
</mgrwt>
</event>
<event>
 8    1  0.1449514E-005  0.1230718E+04  0.7818608E-02  0.8583783E-01
         -1   -1    0    0    0  501 -0.00000000000E+00  0.00000000000E+00  0.73574640495E+03  0.73574640495E+03  0.00000000000E+00 0.  1.
          1   -1    0    0  502    0  0.00000000000E+00 -0.00000000000E+00 -0.20590519451E+04  0.20590519451E+04  0.00000000000E+00 0. -1.
    9000010    2    1    2  502    0  0.69443183508E+03 -0.95700486372E+02 -0.66639207656E+03  0.13882642463E+04  0.99589410144E+03 0.  0.
   -9000010    2    1    2    0  501 -0.69443183508E+03  0.95700486372E+02 -0.65691346358E+03  0.14065341037E+04  0.10273308764E+04 0.  0.
        -13    1    3    3    0    0  0.86755435645E+03  0.18015312469E+03 -0.42400390469E+03  0.98228561635E+03  0.10566000000E+00 0.  1.
          4    1    3    3  502    0 -0.17312252137E+03 -0.27585361106E+03 -0.24238817187E+03  0.40597862998E+03  0.00000000000E+00 0.  1.
         13    1    4    4    0    0 -0.83651659945E+03  0.10376852477E+03 -0.82964665817E+03  0.11827263067E+04  0.10566000000E+00 0. -1.
         -4    1    4    4    0  501  0.14208476436E+03 -0.80680383985E+01  0.17273319459E+03  0.22380779705E+03  0.00000000000E+00 0. -1.
<mgrwt>
<rscale>  2 0.12307182E+04</rscale>
<asrwt>0</asrwt>
<pdfrwt beam="2">  1        1 0.31677722E+00 0.12307182E+04</pdfrwt>
<pdfrwt beam="1">  1       -1 0.11319175E+00 0.12307182E+04</pdfrwt>
<totfact> 0.25665782E+00</totfact>
</mgrwt>
</event>
<event>
 8    1  0.1449514E-005  0.1484969E+04  0.7818608E-02  0.8418202E-01
         -2   -1    0    0    0  501 -0.00000000000E+00  0.00000000000E+00  0.99339033288E+03  0.99339033288E+03  0.00000000000E+00 0.  1.
          2   -1    0    0  502    0  0.00000000000E+00 -0.00000000000E+00 -0.22280155068E+04  0.22280155068E+04  0.00000000000E+00 0. -1.
    9000010    2    1    2  502    0  0.96975006869E+03 -0.52329266051E+03 -0.51601907234E+03  0.15627114991E+04  0.98058204252E+03 0.  0.
   -9000010    2    1    2    0  501 -0.96975006869E+03  0.52329266051E+03 -0.71860610153E+03  0.16586943405E+04  0.10102582749E+04 0.  0.
        -13    1    3    3    0    0  0.77130417525E+03 -0.77292125765E+03 -0.58156520833E+03  0.12371481334E+04  0.10566000000E+00 0.  1.
          4    1    3    3  502    0  0.19844589344E+03  0.24962859714E+03  0.65546135996E+02  0.32556336568E+03  0.00000000000E+00 0.  1.
         13    1    4    4    0    0 -0.97051271706E+03  0.74813971191E+03 -0.74214778562E+03  0.14326169444E+04  0.10566000000E+00 0. -1.
         -4    1    4    4    0  501  0.76264836542E+00 -0.22484705140E+03  0.23541684094E+02  0.22607739614E+03  0.00000000000E+00 0. -1.
<mgrwt>
<rscale>  2 0.14849694E+04</rscale>
<asrwt>0</asrwt>
<pdfrwt beam="2">  1        2 0.34277162E+00 0.14849694E+04</pdfrwt>
<pdfrwt beam="1">  1       -2 0.15282928E+00 0.14849694E+04</pdfrwt>
<totfact> 0.19289821E+00</totfact>
</mgrwt>
</event>
<event>
 8    1  0.1449514E-005  0.1333166E+04  0.7818608E-02  0.8512510E-01
         -2   -1    0    0    0  501 -0.00000000000E+00  0.00000000000E+00  0.98163209835E+03  0.98163209835E+03  0.00000000000E+00 0. -1.
          2   -1    0    0  502    0  0.00000000000E+00 -0.00000000000E+00 -0.18212680706E+04  0.18212680706E+04  0.00000000000E+00 0.  1.
    9000010    2    1    2  502    0 -0.81710609698E+03 -0.37161027712E+03 -0.51944058386E+03  0.14134452012E+04  0.96033965078E+03 0.  0.
   -9000010    2    1    2    0  501  0.81710609698E+03  0.37161027712E+03 -0.32019538840E+03  0.13894549677E+04  0.10110902279E+04 0.  0.
        -13    1    3    3    0    0 -0.12537863502E+03  0.24173634789E+03 -0.39622435372E+03  0.48078062945E+03  0.10566000000E+00 0.  1.
          4    1    3    3  502    0 -0.69172746196E+03 -0.61334662500E+03 -0.12321623014E+03  0.93266457175E+03  0.00000000000E+00 0.  1.
         13    1    4    4    0    0  0.83425255058E+03  0.47042169278E+02 -0.54199477605E+03  0.99596618028E+03  0.10566000000E+00 0. -1.
         -4    1    4    4    0  501 -0.17146453600E+02  0.32456810784E+03  0.22179938766E+03  0.39348878746E+03  0.00000000000E+00 0. -1.
<mgrwt>
<rscale>  2 0.13331656E+04</rscale>
<asrwt>0</asrwt>
<pdfrwt beam="2">  1        2 0.28019509E+00 0.13331656E+04</pdfrwt>
<pdfrwt beam="1">  1       -2 0.15102032E+00 0.13331656E+04</pdfrwt>
<totfact> 0.33953129E+00</totfact>
</mgrwt>
</event>
<event>
 8    1  0.1449514E-005  0.1571240E+04  0.7818608E-02  0.8369641E-01
         -1   -1    0    0    0  501 -0.00000000000E+00  0.00000000000E+00  0.32691478765E+04  0.32691478765E+04  0.00000000000E+00 0.  1.
          1   -1    0    0  502    0  0.00000000000E+00 -0.00000000000E+00 -0.91532380600E+03  0.91532380600E+03  0.00000000000E+00 0. -1.
    9000010    2    1    2  502    0  0.26029949945E+03  0.11765663665E+04  0.20506269975E+04  0.25819854088E+04  0.10047454027E+04 0.  0.
   -9000010    2    1    2    0  501 -0.26029949945E+03 -0.11765663665E+04  0.30319707299E+03  0.16024862737E+04  0.10119138046E+04 0.  0.
        -13    1    3    3    0    0 -0.18973836542E+03 -0.20339649408E+02  0.33568843631E+02  0.19375558593E+03  0.10566000000E+00 0.  1.
          4    1    3    3  502    0  0.45003786487E+03  0.11969060160E+04  0.20170581539E+04  0.23882298229E+04  0.00000000000E+00 0.  1.
         13    1    4    4    0    0 -0.63656511283E+03 -0.76473469263E+03  0.31760217132E+03  0.10444641896E+04  0.10566000000E+00 0. -1.
         -4    1    4    4    0  501  0.37626561338E+03 -0.41183167392E+03 -0.14405098336E+02  0.55802208407E+03  0.00000000000E+00 0. -1.
<mgrwt>
<rscale>  2 0.15712400E+04</rscale>
<asrwt>0</asrwt>
<pdfrwt beam="2">  1        1 0.14081905E+00 0.15712400E+04</pdfrwt>
<pdfrwt beam="1">  1       -1 0.50294582E+00 0.15712400E+04</pdfrwt>
<totfact> 0.21095649E-01</totfact>
</mgrwt>
</event>
<event>
 8    1  0.1449514E-005  0.1285744E+04  0.7818608E-02  0.8544648E-01
         -4   -1    0    0    0  501 -0.00000000000E+00  0.00000000000E+00  0.59210585420E+03  0.59210585420E+03  0.00000000000E+00 0. -1.
          4   -1    0    0  502    0  0.00000000000E+00 -0.00000000000E+00 -0.28028465575E+04  0.28028465575E+04  0.00000000000E+00 0.  1.
    9000010    2    1    2  502    0 -0.84791605315E+03 -0.57431123536E+02 -0.12313916240E+04  0.18107218373E+04  0.10198667920E+04 0.  0.
   -9000010    2    1    2    0  501  0.84791605315E+03  0.57431123536E+02 -0.97934907927E+03  0.15842305743E+04  0.91016587856E+03 0.  0.
        -13    1    3    3    0    0 -0.52085877261E+03  0.26757758442E+03 -0.12156947023E+04  0.13493721670E+04  0.10566000000E+00 0.  1.
          4    1    3    3  502    0 -0.32705728054E+03 -0.32500870796E+03 -0.15696921750E+02  0.46134967038E+03  0.00000000000E+00 0.  1.
         13    1    4    4    0    0  0.86323365675E+03  0.32190380834E+03 -0.53073838582E+03  0.10632392268E+04  0.10566000000E+00 0. -1.
         -4    1    4    4    0  501 -0.15317603597E+02 -0.26447268480E+03 -0.44861069345E+03  0.52099134759E+03  0.00000000000E+00 0. -1.
<mgrwt>
<rscale>  2 0.12857445E+04</rscale>
<asrwt>0</asrwt>
<pdfrwt beam="2">  1        4 0.43120716E+00 0.12857445E+04</pdfrwt>
<pdfrwt beam="1">  1       -4 0.91093209E-01 0.12857445E+04</pdfrwt>
<totfact> 0.12280823E-01</totfact>
</mgrwt>
</event>
<event>
 8    1  0.1449514E-005  0.1191203E+04  0.7818608E-02  0.8613216E-01
         -2   -1    0    0    0  501 -0.00000000000E+00  0.00000000000E+00  0.10192615502E+04  0.10192615502E+04  0.00000000000E+00 0.  1.
          2   -1    0    0  502    0  0.00000000000E+00 -0.00000000000E+00 -0.14980211048E+04  0.14980211048E+04  0.00000000000E+00 0. -1.
    9000010    2    1    2  502    0  0.32556960504E+03 -0.56034830874E+03  0.95714621041E+02  0.11923727190E+04  0.99629594874E+03 0.  0.
   -9000010    2    1    2    0  501 -0.32556960504E+03  0.56034830874E+03 -0.57447417564E+03  0.13249099361E+04  0.10026863744E+04 0.  0.
        -13    1    3    3    0    0  0.67841919601E+02 -0.81584372843E+03  0.66073582753E+01  0.81868625469E+03  0.10566000000E+00 0.  1.
          4    1    3    3  502    0  0.25772768544E+03  0.25549541969E+03  0.89107262765E+02  0.37368646430E+03  0.00000000000E+00 0.  1.
         13    1    4    4    0    0 -0.14115929568E+03  0.84310093896E+03 -0.38184707024E+03  0.93624373763E+03  0.10566000000E+00 0. -1.
         -4    1    4    4    0  501 -0.18441030936E+03 -0.28275263022E+03 -0.19262710540E+03  0.38866619847E+03  0.00000000000E+00 0. -1.
<mgrwt>
<rscale>  2 0.11912028E+04</rscale>
<asrwt>0</asrwt>
<pdfrwt beam="2">  1        2 0.23046479E+00 0.11912028E+04</pdfrwt>
<pdfrwt beam="1">  1       -2 0.15680947E+00 0.11912028E+04</pdfrwt>
<totfact> 0.45982210E+00</totfact>
</mgrwt>
</event>
<event>
 8    1  0.1449514E-005  0.1082789E+04  0.7818608E-02  0.8700472E-01
          2   -1    0    0  502    0  0.00000000000E+00  0.00000000000E+00  0.18729534741E+04  0.18729534741E+04  0.00000000000E+00 0.  1.
         -2   -1    0    0    0  501 -0.00000000000E+00 -0.00000000000E+00 -0.70744704109E+03  0.70744704109E+03  0.00000000000E+00 0. -1.
    9000010    2    1    2  502    0 -0.10142440532E+03  0.39842055112E+03  0.14667411638E+03  0.10962753669E+04  0.10056244518E+04 0.  0.
   -9000010    2    1    2    0  501  0.10142440532E+03 -0.39842055112E+03  0.10188323166E+04  0.14841251483E+04  0.99778871549E+03 0.  0.
        -13    1    3    3    0    0 -0.21264448198E+03  0.40551613678E+02 -0.38743383135E+03  0.44380974970E+03  0.10566000000E+00 0.  1.
          4    1    3    3  502    0  0.11122007665E+03  0.35786893744E+03  0.53410794773E+03  0.65246561723E+03  0.00000000000E+00 0.  1.
         13    1    4    4    0    0  0.53459542781E+03 -0.80011477132E+02  0.54295076926E+03  0.76615250238E+03  0.10566000000E+00 0. -1.
         -4    1    4    4    0  501 -0.43317102248E+03 -0.31840907399E+03  0.47588154738E+03  0.71797264590E+03  0.00000000000E+00 0. -1.
<mgrwt>
<rscale>  2 0.10827885E+04</rscale>
<asrwt>0</asrwt>
<pdfrwt beam="1">  1        2 0.28814669E+00 0.10827885E+04</pdfrwt>
<pdfrwt beam="2">  1       -2 0.10883801E+00 0.10827885E+04</pdfrwt>
<totfact> 0.80733847E+00</totfact>
</mgrwt>
</event>
<event>
 8    1  0.1449514E-005  0.1009524E+04  0.7818608E-02  0.8765694E-01
          1   -1    0    0  502    0  0.00000000000E+00  0.00000000000E+00  0.17065956544E+04  0.17065956544E+04  0.00000000000E+00 0.  1.
         -1   -1    0    0    0  501 -0.00000000000E+00 -0.00000000000E+00 -0.78833664350E+03  0.78833664350E+03  0.00000000000E+00 0. -1.
    9000010    2    1    2  502    0 -0.17250774506E+02 -0.21220052754E+03 -0.15046274401E+03  0.10336672933E+04  0.10002511599E+04 0.  0.
   -9000010    2    1    2    0  501  0.17250774506E+02  0.21220052754E+03  0.10687217549E+04  0.14612650045E+04  0.97355152461E+03 0.  0.
        -13    1    3    3    0    0  0.47531635064E+03 -0.23287989787E+03 -0.64261560360E+02  0.53318687092E+03  0.10566000000E+00 0.  1.
          4    1    3    3  502    0 -0.49256712514E+03  0.20679370326E+02 -0.86201183650E+02  0.50048042239E+03  0.00000000000E+00 0.  1.
         13    1    4    4    0    0 -0.16827167070E+03  0.56924086585E+03  0.66179724461E+03  0.88900288113E+03  0.10566000000E+00 0. -1.
         -4    1    4    4    0  501  0.18552244520E+03 -0.35704033831E+03  0.40692451025E+03  0.57226212342E+03  0.00000000000E+00 0. -1.
<mgrwt>
<rscale>  2 0.10095239E+04</rscale>
<asrwt>0</asrwt>
<pdfrwt beam="1">  1        1 0.26255318E+00 0.10095239E+04</pdfrwt>
<pdfrwt beam="2">  1       -1 0.12128256E+00 0.10095239E+04</pdfrwt>
<totfact> 0.41275414E+00</totfact>
</mgrwt>
</event>
<event>
 8    1  0.1449514E-005  0.1120648E+04  0.7818608E-02  0.8668838E-01
          2   -1    0    0  502    0  0.00000000000E+00  0.00000000000E+00  0.35044782558E+03  0.35044782558E+03  0.00000000000E+00 0. -1.
         -2   -1    0    0    0  501 -0.00000000000E+00 -0.00000000000E+00 -0.37664031391E+04  0.37664031391E+04  0.00000000000E+00 0.  1.
    9000010    2    1    2  502    0  0.10699782449E+03 -0.49010847583E+03 -0.21538480715E+04  0.24255481204E+04  0.99627672678E+03 0.  0.
   -9000010    2    1    2    0  501 -0.10699782449E+03  0.49010847583E+03 -0.12621072420E+04  0.16913028443E+04  0.10079363911E+04 0.  0.
        -13    1    3    3    0    0  0.84316164282E+00  0.30690313110E+03 -0.69622425673E+03  0.76086691978E+03  0.10566000000E+00 0.  1.
          4    1    3    3  502    0  0.10615466284E+03 -0.79701160693E+03 -0.14576238148E+04  0.16646812006E+04  0.00000000000E+00 0.  1.
         13    1    4    4    0    0 -0.50235667174E+03  0.42589112196E+03 -0.48792792454E+03  0.81964574306E+03  0.10566000000E+00 0. -1.
         -4    1    4    4    0  501  0.39535884725E+03  0.64217353874E+02 -0.77417931745E+03  0.87165710128E+03  0.00000000000E+00 0. -1.
<mgrwt>
<rscale>  2 0.11206480E+04</rscale>
<asrwt>0</asrwt>
<pdfrwt beam="1">  1        2 0.53915048E-01 0.11206480E+04</pdfrwt>
<pdfrwt beam="2">  1       -2 0.57944666E+00 0.11206480E+04</pdfrwt>
<totfact> 0.66016384E-01</totfact>
</mgrwt>
</event>
<event>
 8    1  0.1449514E-005  0.1297494E+04  0.7818608E-02  0.8536554E-01
          1   -1    0    0  502    0  0.00000000000E+00  0.00000000000E+00  0.51406199548E+04  0.51406199548E+04  0.00000000000E+00 0. -1.
         -1   -1    0    0    0  501 -0.00000000000E+00 -0.00000000000E+00 -0.32869968781E+03  0.32869968781E+03  0.00000000000E+00 0.  1.
    9000010    2    1    2  502    0  0.53160391632E+03 -0.64100571432E+03  0.25668166957E+04  0.28748795856E+04  0.99140992170E+03 0.  0.
   -9000010    2    1    2    0  501 -0.53160391632E+03  0.64100571432E+03  0.22451035713E+04  0.25944400570E+04  0.99856803163E+03 0.  0.
        -13    1    3    3    0    0  0.17451465671E+03  0.18020103348E+03  0.13814255462E+03  0.28637589709E+03  0.10566000000E+00 0.  1.
          4    1    3    3  502    0  0.35708925962E+03 -0.82120674780E+03  0.24286741411E+04  0.25885036885E+04  0.00000000000E+00 0.  1.
         13    1    4    4    0    0 -0.37457921481E+03  0.75337888869E+02  0.18446552941E+04  0.18838095845E+04  0.10566000000E+00 0. -1.
         -4    1    4    4    0  501 -0.15702470151E+03  0.56566782545E+03  0.40044827720E+03  0.71063047243E+03  0.00000000000E+00 0. -1.
<mgrwt>
<rscale>  2 0.12974945E+04</rscale>
<asrwt>0</asrwt>
<pdfrwt beam="1">  1        1 0.79086455E+00 0.12974945E+04</pdfrwt>
<pdfrwt beam="2">  1       -1 0.50569186E-01 0.12974945E+04</pdfrwt>
<totfact> 0.26859798E-02</totfact>
</mgrwt>
</event>
<event>
 8    1  0.1449514E-005  0.1276422E+04  0.7818608E-02  0.8551134E-01
          1   -1    0    0  502    0  0.00000000000E+00  0.00000000000E+00  0.20040177473E+04  0.20040177473E+04  0.00000000000E+00 0. -1.
         -1   -1    0    0    0  501 -0.00000000000E+00 -0.00000000000E+00 -0.84441277679E+03  0.84441277679E+03  0.00000000000E+00 0.  1.
    9000010    2    1    2  502    0 -0.73919707901E+03  0.33146251628E+03  0.29928085698E+03  0.12971796066E+04  0.96789781436E+03 0.  0.
   -9000010    2    1    2    0  501  0.73919707901E+03 -0.33146251628E+03  0.86032411356E+03  0.15512509176E+04  0.10049587591E+04 0.  0.
        -13    1    3    3    0    0  0.16736530553E+03  0.14651338529E+03 -0.15034504241E+03  0.26847897591E+03  0.10566000000E+00 0.  1.
          4    1    3    3  502    0 -0.90656238454E+03  0.18494913099E+03  0.44962589940E+03  0.10287006307E+04  0.00000000000E+00 0.  1.
         13    1    4    4    0    0  0.41004692347E+03  0.32479662203E+03  0.18833341603E+03  0.55596835512E+03  0.10566000000E+00 0. -1.
         -4    1    4    4    0  501  0.32915015554E+03 -0.65625913832E+03  0.67199069754E+03  0.99528256244E+03  0.00000000000E+00 0. -1.
<mgrwt>
<rscale>  2 0.12764223E+04</rscale>
<asrwt>0</asrwt>
<pdfrwt beam="1">  1        1 0.30831042E+00 0.12764223E+04</pdfrwt>
<pdfrwt beam="2">  1       -1 0.12990966E+00 0.12764223E+04</pdfrwt>
<totfact> 0.19983228E+00</totfact>
</mgrwt>
</event>
<event>
 8    1  0.1449514E-005  0.1091572E+04  0.7818608E-02  0.8693014E-01
         -1   -1    0    0    0  501 -0.00000000000E+00  0.00000000000E+00  0.19074452728E+04  0.19074452728E+04  0.00000000000E+00 0.  1.
          1   -1    0    0  502    0  0.00000000000E+00 -0.00000000000E+00 -0.66950281780E+03  0.66950281780E+03  0.00000000000E+00 0. -1.
    9000010    2    1    2  502    0  0.22216620454E+03 -0.37898032047E+03  0.94597322653E+03  0.14357465626E+04  0.98667063449E+03 0.  0.
   -9000010    2    1    2    0  501 -0.22216620454E+03  0.37898032047E+03  0.29196922845E+03  0.11412015280E+04  0.10119836913E+04 0.  0.
        -13    1    3    3    0    0  0.13149511699E+03  0.71759470550E+02  0.96405298814E+03  0.97562214126E+03  0.10566000000E+00 0.  1.
          4    1    3    3  502    0  0.90671087548E+02 -0.45073979102E+03 -0.18079761617E+02  0.46012442133E+03  0.00000000000E+00 0.  1.
         13    1    4    4    0    0 -0.32606691742E+02  0.22497699419E+03 -0.37075897225E+03  0.43490236942E+03  0.10566000000E+00 0. -1.
         -4    1    4    4    0  501 -0.18955951280E+03  0.15400332629E+03  0.66272820070E+03  0.70629915857E+03  0.00000000000E+00 0. -1.
<mgrwt>
<rscale>  2 0.10915724E+04</rscale>
<asrwt>0</asrwt>
<pdfrwt beam="2">  1        1 0.10300043E+00 0.10915724E+04</pdfrwt>
<pdfrwt beam="1">  1       -1 0.29345312E+00 0.10915724E+04</pdfrwt>
<totfact> 0.73352994E-01</totfact>
</mgrwt>
</event>
<event>
 8    1  0.1449514E-005  0.1418083E+04  0.7818608E-02  0.8458260E-01
          1   -1    0    0  502    0  0.00000000000E+00  0.00000000000E+00  0.12649468743E+04  0.12649468743E+04  0.00000000000E+00 0. -1.
         -1   -1    0    0    0  501 -0.00000000000E+00 -0.00000000000E+00 -0.25822354439E+04  0.25822354439E+04  0.00000000000E+00 0.  1.
    9000010    2    1    2  502    0 -0.43942097432E+03  0.90007130583E+03 -0.18546310440E+04  0.23422328041E+04  0.10213613715E+04 0.  0.
   -9000010    2    1    2    0  501  0.43942097432E+03 -0.90007130583E+03  0.53734247443E+03  0.15049495140E+04  0.98636552895E+03 0.  0.
        -13    1    3    3    0    0  0.90947176211E+01  0.69570234314E+03 -0.39157064273E+03  0.79838088877E+03  0.10566000000E+00 0.  1.
          4    1    3    3  502    0 -0.44851569194E+03  0.20436896269E+03 -0.14630604013E+04  0.15438519154E+04  0.00000000000E+00 0.  1.
         13    1    4    4    0    0  0.12957395329E+02  0.17529467964E+03  0.26248678646E+03  0.31590416749E+03  0.10566000000E+00 0. -1.
         -4    1    4    4    0  501  0.42646357899E+03 -0.10753659855E+04  0.27485568797E+03  0.11890453465E+04  0.00000000000E+00 0. -1.
<mgrwt>
<rscale>  2 0.14180833E+04</rscale>
<asrwt>0</asrwt>
<pdfrwt beam="1">  1        1 0.19460721E+00 0.14180833E+04</pdfrwt>
<pdfrwt beam="2">  1       -1 0.39726699E+00 0.14180833E+04</pdfrwt>
<totfact> 0.13816137E-01</totfact>
</mgrwt>
</event>
<event>
 8    1  0.1449514E-005  0.1491814E+04  0.7818608E-02  0.8414225E-01
         -2   -1    0    0    0  501 -0.00000000000E+00  0.00000000000E+00  0.50431581883E+03  0.50431581883E+03  0.00000000000E+00 0. -1.
          2   -1    0    0  502    0  0.00000000000E+00 -0.00000000000E+00 -0.45901206512E+04  0.45901206512E+04  0.00000000000E+00 0.  1.
    9000010    2    1    2  502    0  0.61142677268E+03 -0.92892738620E+03 -0.25434612547E+04  0.29487141101E+04  0.99447019156E+03 0.  0.
   -9000010    2    1    2    0  501 -0.61142677268E+03  0.92892738620E+03 -0.15423435777E+04  0.21457223599E+04  0.99425949681E+03 0.  0.
        -13    1    3    3    0    0 -0.25989070382E+03 -0.38068305013E+03 -0.72652071005E+03  0.86040404223E+03  0.10566000000E+00 0.  1.
          4    1    3    3  502    0  0.87131747650E+03 -0.54824433607E+03 -0.18169405446E+04  0.20883100679E+04  0.00000000000E+00 0.  1.
         13    1    4    4    0    0 -0.15655721565E+03 -0.20821978113E+03 -0.19861936244E+03  0.32759014230E+03  0.10566000000E+00 0. -1.
         -4    1    4    4    0  501 -0.45486955703E+03  0.11371471673E+04 -0.13437242152E+04  0.18181322176E+04  0.00000000000E+00 0. -1.
<mgrwt>
<rscale>  2 0.14918144E+04</rscale>
<asrwt>0</asrwt>
<pdfrwt beam="2">  1        2 0.70617243E+00 0.14918144E+04</pdfrwt>
<pdfrwt beam="1">  1       -2 0.77587047E-01 0.14918144E+04</pdfrwt>
<totfact> 0.20496024E-01</totfact>
</mgrwt>
</event>
<event>
 8    1  0.1449514E-005  0.1434247E+04  0.7818608E-02  0.8448375E-01
          2   -1    0    0  502    0  0.00000000000E+00  0.00000000000E+00  0.11450885358E+04  0.11450885358E+04  0.00000000000E+00 0. -1.
         -2   -1    0    0    0  501 -0.00000000000E+00 -0.00000000000E+00 -0.18845418777E+04  0.18845418777E+04  0.00000000000E+00 0.  1.
    9000010    2    1    2  502    0  0.59619959153E+03 -0.84090841419E+03 -0.69778158463E+03  0.15968335155E+04  0.10001985915E+04 0.  0.
   -9000010    2    1    2    0  501 -0.59619959153E+03  0.84090841419E+03 -0.41671757314E+02  0.14327968980E+04  0.99427838236E+03 0.  0.
        -13    1    3    3    0    0  0.18202355118E+03 -0.80912896688E+03 -0.54563469012E+02  0.83114345425E+03  0.10566000000E+00 0.  1.
          4    1    3    3  502    0  0.41417604034E+03 -0.31779447309E+02 -0.64321811562E+03  0.76569006127E+03  0.00000000000E+00 0.  1.
         13    1    4    4    0    0 -0.79616237053E+03  0.70405929189E+03  0.21008298848E+03  0.10833784565E+04  0.10566000000E+00 0. -1.
         -4    1    4    4    0  501  0.19996277901E+03  0.13684912230E+03 -0.25175474579E+03  0.34941844154E+03  0.00000000000E+00 0. -1.
<mgrwt>
<rscale>  2 0.14342475E+04</rscale>
<asrwt>0</asrwt>
<pdfrwt beam="1">  1        2 0.17616747E+00 0.14342475E+04</pdfrwt>
<pdfrwt beam="2">  1       -2 0.28992952E+00 0.14342475E+04</pdfrwt>
<totfact> 0.60798840E-01</totfact>
</mgrwt>
</event>
<event>
 8    1  0.1449514E-005  0.1194673E+04  0.7818608E-02  0.8610584E-01
          1   -1    0    0  502    0  0.00000000000E+00  0.00000000000E+00  0.28132336204E+04  0.28132336204E+04  0.00000000000E+00 0.  1.
         -1   -1    0    0    0  501 -0.00000000000E+00 -0.00000000000E+00 -0.61365345523E+03  0.61365345523E+03  0.00000000000E+00 0. -1.
    9000010    2    1    2  502    0 -0.65929022123E+03  0.74452025442E+02  0.38111699724E+03  0.12470852452E+04  0.98476633942E+03 0.  0.
   -9000010    2    1    2    0  501  0.65929022123E+03 -0.74452025442E+02  0.18184631679E+04  0.21798018304E+04  0.10022579643E+04 0.  0.
        -13    1    3    3    0    0 -0.12621103990E+03 -0.33849940443E+03  0.44104008482E+03  0.57011177937E+03  0.10566000000E+00 0.  1.
          4    1    3    3  502    0 -0.53307918132E+03  0.41295142987E+03 -0.59923087579E+02  0.67697346581E+03  0.00000000000E+00 0.  1.
         13    1    4    4    0    0  0.12690831006E+03 -0.20438548067E+03 -0.38520719314E+02  0.24364523565E+03  0.10566000000E+00 0. -1.
         -4    1    4    4    0  501  0.53238191117E+03  0.12993345523E+03  0.18569838872E+04  0.19361565948E+04  0.00000000000E+00 0. -1.
<mgrwt>
<rscale>  2 0.11946731E+04</rscale>
<asrwt>0</asrwt>
<pdfrwt beam="1">  1        1 0.43280517E+00 0.11946731E+04</pdfrwt>
<pdfrwt beam="2">  1       -1 0.94408225E-01 0.11946731E+04</pdfrwt>
<totfact> 0.83256128E-01</totfact>
</mgrwt>
</event>
<event>
 8    1  0.1449514E-005  0.1281732E+04  0.7818608E-02  0.8547433E-01
          1   -1    0    0  502    0  0.00000000000E+00  0.00000000000E+00  0.12113070818E+04  0.12113070818E+04  0.00000000000E+00 0. -1.
         -1   -1    0    0    0  501 -0.00000000000E+00 -0.00000000000E+00 -0.13778519418E+04  0.13778519418E+04  0.00000000000E+00 0.  1.
    9000010    2    1    2  502    0 -0.11478514090E+03 -0.78571647082E+03 -0.24491274610E+03  0.12995062690E+04  0.99910374275E+03 0.  0.
   -9000010    2    1    2    0  501  0.11478514090E+03  0.78571647082E+03  0.78367886032E+02  0.12896527546E+04  0.10131814748E+04 0.  0.
        -13    1    3    3    0    0 -0.18599038724E+03 -0.15927334137E+02  0.30024597815E+03  0.35354456958E+03  0.10566000000E+00 0.  1.
          4    1    3    3  502    0  0.71205246344E+02 -0.76978913668E+03 -0.54515872425E+03  0.94596169938E+03  0.00000000000E+00 0.  1.
         13    1    4    4    0    0  0.16518913887E+03  0.10141237593E+04 -0.38434952904E+02  0.10282080079E+04  0.10566000000E+00 0. -1.
         -4    1    4    4    0  501 -0.50403997968E+02 -0.22840728844E+03  0.11680283894E+03  0.26144474676E+03  0.00000000000E+00 0. -1.
<mgrwt>
<rscale>  2 0.12817322E+04</rscale>
<asrwt>0</asrwt>
<pdfrwt beam="1">  1        1 0.18635494E+00 0.12817322E+04</pdfrwt>
<pdfrwt beam="2">  1       -1 0.21197722E+00 0.12817322E+04</pdfrwt>
<totfact> 0.14946139E+00</totfact>
</mgrwt>
</event>
<event>
 8    1  0.1449514E-005  0.1307450E+04  0.7818608E-02  0.8529764E-01
         -2   -1    0    0    0  501 -0.00000000000E+00  0.00000000000E+00  0.10540781303E+04  0.10540781303E+04  0.00000000000E+00 0.  1.
          2   -1    0    0  502    0  0.00000000000E+00 -0.00000000000E+00 -0.16266743409E+04  0.16266743409E+04  0.00000000000E+00 0. -1.
    9000010    2    1    2  502    0 -0.79036014428E+03 -0.28744417984E+03 -0.21345104381E+03  0.13290365636E+04  0.10067191889E+04 0.  0.
   -9000010    2    1    2    0  501  0.79036014428E+03  0.28744417984E+03 -0.35914516673E+03  0.13517159076E+04  0.99541816830E+03 0.  0.
        -13    1    3    3    0    0  0.21753595497E+03  0.21091385597E+02  0.83467991236E+02  0.23395224935E+03  0.10566000000E+00 0.  1.
          4    1    3    3  502    0 -0.10078960993E+04 -0.30853556544E+03 -0.29691903505E+03  0.10950843143E+04  0.00000000000E+00 0.  1.
         13    1    4    4    0    0  0.51718222270E+03  0.36259365165E+03 -0.67701474779E+03  0.92590528003E+03  0.10566000000E+00 0. -1.
         -4    1    4    4    0  501  0.27317792157E+03 -0.75149471805E+02  0.31786958107E+03  0.42581062753E+03  0.00000000000E+00 0. -1.
<mgrwt>
<rscale>  2 0.13074503E+04</rscale>
<asrwt>0</asrwt>
<pdfrwt beam="2">  1        2 0.25025759E+00 0.13074503E+04</pdfrwt>
<pdfrwt beam="1">  1       -2 0.16216587E+00 0.13074503E+04</pdfrwt>
<totfact> 0.34720452E+00</totfact>
</mgrwt>
</event>
<event>
 8    1  0.1449514E-005  0.1236195E+04  0.7818608E-02  0.8579794E-01
         -1   -1    0    0    0  501 -0.00000000000E+00  0.00000000000E+00  0.60339492169E+03  0.60339492169E+03  0.00000000000E+00 0.  1.
          1   -1    0    0  502    0  0.00000000000E+00 -0.00000000000E+00 -0.25679384726E+04  0.25679384726E+04  0.00000000000E+00 0. -1.
    9000010    2    1    2  502    0 -0.67567673886E+03  0.28828846539E+03 -0.79540910526E+03  0.14689691553E+04  0.99274641267E+03 0.  0.
   -9000010    2    1    2    0  501  0.67567673886E+03 -0.28828846539E+03 -0.11691344457E+04  0.17023642390E+04  0.99575064921E+03 0.  0.
        -13    1    3    3    0    0 -0.22511559006E+03  0.42447673110E+03 -0.86858478257E+03  0.99262130735E+03  0.10566000000E+00 0.  1.
          4    1    3    3  502    0 -0.45056114880E+03 -0.13618826571E+03  0.73175677309E+02  0.47634784798E+03  0.00000000000E+00 0.  1.
         13    1    4    4    0    0  0.48049869620E+01 -0.48350349450E+03 -0.23993289331E+03  0.53978377296E+03  0.10566000000E+00 0. -1.
         -4    1    4    4    0  501  0.67087175190E+03  0.19521502911E+03 -0.92920155235E+03  0.11625804660E+04  0.00000000000E+00 0. -1.
<mgrwt>
<rscale>  2 0.12361953E+04</rscale>
<asrwt>0</asrwt>
<pdfrwt beam="2">  1        1 0.39506747E+00 0.12361953E+04</pdfrwt>
<pdfrwt beam="1">  1       -1 0.92829986E-01 0.12361953E+04</pdfrwt>
<totfact> 0.14769569E+00</totfact>
</mgrwt>
</event>
<event>
 8    1  0.1449514E-005  0.1215244E+04  0.7818608E-02  0.8595171E-01
          1   -1    0    0  502    0  0.00000000000E+00  0.00000000000E+00  0.14274165165E+04  0.14274165165E+04  0.00000000000E+00 0.  1.
         -1   -1    0    0    0  501 -0.00000000000E+00 -0.00000000000E+00 -0.10498871370E+04  0.10498871370E+04  0.00000000000E+00 0. -1.
    9000010    2    1    2  502    0 -0.24455527491E+03  0.63901945784E+03  0.33986060717E+03  0.12821976344E+04  0.10297438475E+04 0.  0.
   -9000010    2    1    2    0  501  0.24455527491E+03 -0.63901945784E+03  0.37668772366E+02  0.11951060191E+04  0.97913549135E+03 0.  0.
        -13    1    3    3    0    0  0.35443003256E+03  0.49520422601E+03  0.25565796393E+03  0.66046111099E+03  0.10566000000E+00 0.  1.
          4    1    3    3  502    0 -0.59898530747E+03  0.14381523183E+03  0.84202643241E+02  0.62173652346E+03  0.00000000000E+00 0.  1.
         13    1    4    4    0    0 -0.11451697570E+03 -0.42146939600E+03  0.43546073216E+03  0.61674682805E+03  0.10566000000E+00 0. -1.
         -4    1    4    4    0  501  0.35907225061E+03 -0.21755006184E+03 -0.39779195979E+03  0.57835919102E+03  0.00000000000E+00 0. -1.
<mgrwt>
<rscale>  2 0.12152440E+04</rscale>
<asrwt>0</asrwt>
<pdfrwt beam="1">  1        1 0.21960254E+00 0.12152440E+04</pdfrwt>
<pdfrwt beam="2">  1       -1 0.16152110E+00 0.12152440E+04</pdfrwt>
<totfact> 0.28902147E+00</totfact>
</mgrwt>
</event>
<event>
 8    1  0.1449514E-005  0.1642431E+04  0.7818608E-02  0.8331937E-01
          1   -1    0    0  502    0  0.00000000000E+00  0.00000000000E+00  0.84753488638E+03  0.84753488638E+03  0.00000000000E+00 0.  1.
         -1   -1    0    0    0  501 -0.00000000000E+00 -0.00000000000E+00 -0.32804931424E+04  0.32804931424E+04  0.00000000000E+00 0. -1.
    9000010    2    1    2  502    0 -0.78876008326E+02  0.13031554393E+04 -0.15739247112E+04  0.22761981040E+04  0.99970159969E+03 0.  0.
   -9000010    2    1    2    0  501  0.78876008326E+02 -0.13031554393E+04 -0.85903354489E+03  0.18518299248E+04  0.99342836464E+03 0.  0.
        -13    1    3    3    0    0 -0.34705504213E+03  0.66626732354E+03 -0.13584513540E+04  0.15523367679E+04  0.10566000000E+00 0.  1.
          4    1    3    3  502    0  0.26817903381E+03  0.63688811575E+03 -0.21547335715E+03  0.72386133603E+03  0.00000000000E+00 0.  1.
         13    1    4    4    0    0  0.36649424328E+03 -0.11751580474E+04 -0.39830410711E+03  0.12938163083E+04  0.10566000000E+00 0. -1.
         -4    1    4    4    0  501 -0.28761823495E+03 -0.12799739188E+03 -0.46072943777E+03  0.55801361653E+03  0.00000000000E+00 0. -1.
<mgrwt>
<rscale>  2 0.16424311E+04</rscale>
<asrwt>0</asrwt>
<pdfrwt beam="1">  1        1 0.13038998E+00 0.16424311E+04</pdfrwt>
<pdfrwt beam="2">  1       -1 0.50469125E+00 0.16424311E+04</pdfrwt>
<totfact> 0.23693216E-01</totfact>
</mgrwt>
</event>
<event>
 8    1  0.1449514E-005  0.1106070E+04  0.7818608E-02  0.8680863E-01
          2   -1    0    0  502    0  0.00000000000E+00  0.00000000000E+00  0.19607707642E+04  0.19607707642E+04  0.00000000000E+00 0. -1.
         -2   -1    0    0    0  501 -0.00000000000E+00 -0.00000000000E+00 -0.11151379722E+04  0.11151379722E+04  0.00000000000E+00 0.  1.
    9000010    2    1    2  502    0  0.46901915722E+03 -0.18139025154E+02 -0.59659115679E+03  0.12620445648E+04  0.10082298751E+04 0.  0.
   -9000010    2    1    2    0  501 -0.46901915722E+03  0.18139025154E+02  0.14422239488E+04  0.18138641716E+04  0.99487955070E+03 0.  0.
        -13    1    3    3    0    0  0.72741691495E+03  0.21497195310E+02 -0.14768798081E+03  0.74256935595E+03  0.10566000000E+00 0.  1.
          4    1    3    3  502    0 -0.25839775773E+03 -0.39636220464E+02 -0.44890317598E+03  0.51947520882E+03  0.00000000000E+00 0.  1.
         13    1    4    4    0    0 -0.18965204413E+03  0.31853262565E+03  0.13410539593E+04  0.13913506619E+04  0.10566000000E+00 0. -1.
         -4    1    4    4    0  501 -0.27936711309E+03 -0.30039360049E+03  0.10116998950E+03  0.42251350968E+03  0.00000000000E+00 0. -1.
<mgrwt>
<rscale>  2 0.11060702E+04</rscale>
<asrwt>0</asrwt>
<pdfrwt beam="1">  1        2 0.30165704E+00 0.11060702E+04</pdfrwt>
<pdfrwt beam="2">  1       -2 0.17155969E+00 0.11060702E+04</pdfrwt>
<totfact> 0.19475582E+00</totfact>
</mgrwt>
</event>
<event>
 8    1  0.1449514E-005  0.1242144E+04  0.7818608E-02  0.8575485E-01
         -2   -1    0    0    0  501 -0.00000000000E+00  0.00000000000E+00  0.68641379672E+03  0.68641379672E+03  0.00000000000E+00 0. -1.
          2   -1    0    0  502    0  0.00000000000E+00 -0.00000000000E+00 -0.24451212627E+04  0.24451212627E+04  0.00000000000E+00 0.  1.
    9000010    2    1    2  502    0 -0.23501584798E+03  0.68963217071E+03 -0.13209128683E+04  0.18098561964E+04  0.99997183282E+03 0.  0.
   -9000010    2    1    2    0  501  0.23501584798E+03 -0.68963217071E+03 -0.43779459771E+03  0.13216788630E+04  0.10120997616E+04 0.  0.
        -13    1    3    3    0    0 -0.22100860273E+03  0.18465427141E+03 -0.12698628033E+04  0.13021111907E+04  0.10566000000E+00 0.  1.
          4    1    3    3  502    0 -0.14007245257E+02  0.50497789930E+03 -0.51050064924E+02  0.50774500572E+03  0.00000000000E+00 0.  1.
         13    1    4    4    0    0 -0.67038470621E+02 -0.32148084650E+02  0.28763943486E+03  0.29709276588E+03  0.10566000000E+00 0. -1.
         -4    1    4    4    0  501  0.30205431860E+03 -0.65748408606E+03 -0.72543403258E+03  0.10245860971E+04  0.00000000000E+00 0. -1.
<mgrwt>
<rscale>  2 0.12421439E+04</rscale>
<asrwt>0</asrwt>
<pdfrwt beam="2">  1        2 0.37617249E+00 0.12421439E+04</pdfrwt>
<pdfrwt beam="1">  1       -2 0.10560213E+00 0.12421439E+04</pdfrwt>
<totfact> 0.41573559E+00</totfact>
</mgrwt>
</event>
<event>
 8    1  0.1449514E-005  0.1258119E+04  0.7818608E-02  0.8564037E-01
         -2   -1    0    0    0  501 -0.00000000000E+00  0.00000000000E+00  0.48913292494E+03  0.48913292494E+03  0.00000000000E+00 0. -1.
          2   -1    0    0  502    0  0.00000000000E+00 -0.00000000000E+00 -0.33366506704E+04  0.33366506704E+04  0.00000000000E+00 0.  1.
    9000010    2    1    2  502    0 -0.69265092198E+03 -0.32368962119E+03 -0.17532798981E+04  0.21565994908E+04  0.99618808073E+03 0.  0.
   -9000010    2    1    2    0  501  0.69265092198E+03  0.32368962119E+03 -0.10942378474E+04  0.16691841045E+04  0.10021371351E+04 0.  0.
        -13    1    3    3    0    0 -0.31542334528E+03  0.31528084148E+03 -0.10207282395E+04  0.11139030684E+04  0.10566000000E+00 0.  1.
          4    1    3    3  502    0 -0.37722757670E+03 -0.63897046267E+03 -0.73255165856E+03  0.10426964224E+04  0.00000000000E+00 0.  1.
         13    1    4    4    0    0  0.55267892328E+03  0.67656707364E+03 -0.67808094752E+03  0.11058891355E+04  0.10566000000E+00 0. -1.
         -4    1    4    4    0  501  0.13997199870E+03 -0.35287745245E+03 -0.41615689987E+03  0.56329496907E+03  0.00000000000E+00 0. -1.
<mgrwt>
<rscale>  2 0.12581192E+04</rscale>
<asrwt>0</asrwt>
<pdfrwt beam="2">  1        2 0.51333087E+00 0.12581192E+04</pdfrwt>
<pdfrwt beam="1">  1       -2 0.75251220E-01 0.12581192E+04</pdfrwt>
<totfact> 0.25883652E+00</totfact>
</mgrwt>
</event>
<event>
 8    1  0.1449514E-005  0.1275957E+04  0.7818608E-02  0.8551459E-01
         -2   -1    0    0    0  501 -0.00000000000E+00  0.00000000000E+00  0.81205864552E+03  0.81205864552E+03  0.00000000000E+00 0. -1.
          2   -1    0    0  502    0  0.00000000000E+00 -0.00000000000E+00 -0.21029378255E+04  0.21029378255E+04  0.00000000000E+00 0.  1.
    9000010    2    1    2  502    0 -0.32941012666E+03  0.67537965318E+03 -0.31974406881E+03  0.12909686238E+04  0.99985749513E+03 0.  0.
   -9000010    2    1    2    0  501  0.32941012666E+03 -0.67537965318E+03 -0.97113511120E+03  0.16240278473E+04  0.10628802082E+04 0.  0.
        -13    1    3    3    0    0  0.39236954621E+02  0.80736847000E+03 -0.38276380314E+03  0.89436654964E+03  0.10566000000E+00 0.  1.
          4    1    3    3  502    0 -0.36864708128E+03 -0.13198881682E+03  0.63019734322E+02  0.39660207415E+03  0.00000000000E+00 0.  1.
         13    1    4    4    0    0  0.60057526860E+02 -0.86853986538E+03 -0.95485393841E+03  0.12921743145E+04  0.10566000000E+00 0. -1.
         -4    1    4    4    0  501  0.26935259980E+03  0.19316021220E+03 -0.16281172795E+02  0.33185353273E+03  0.00000000000E+00 0. -1.
<mgrwt>
<rscale>  2 0.12759570E+04</rscale>
<asrwt>0</asrwt>
<pdfrwt beam="2">  1        2 0.32352889E+00 0.12759570E+04</pdfrwt>
<pdfrwt beam="1">  1       -2 0.12493210E+00 0.12759570E+04</pdfrwt>
<totfact> 0.41401103E+00</totfact>
</mgrwt>
</event>
<event>
 8    1  0.1449514E-005  0.1456119E+04  0.7818608E-02  0.8435210E-01
          2   -1    0    0  502    0  0.00000000000E+00  0.00000000000E+00  0.36594117446E+04  0.36594117446E+04  0.00000000000E+00 0. -1.
         -2   -1    0    0    0  501 -0.00000000000E+00 -0.00000000000E+00 -0.59169505851E+03  0.59169505851E+03  0.00000000000E+00 0.  1.
    9000010    2    1    2  502    0  0.50463354509E+03  0.95338057976E+03  0.18286197544E+04  0.23308441496E+04  0.96197437524E+03 0.  0.
   -9000010    2    1    2    0  501 -0.50463354509E+03 -0.95338057976E+03  0.12390969317E+04  0.19202626536E+04  0.99421220465E+03 0.  0.
        -13    1    3    3    0    0  0.14065786284E+03 -0.27940802450E+02 -0.72471980249E+02  0.16067831810E+03  0.10566000000E+00 0.  1.
          4    1    3    3  502    0  0.36397568224E+03  0.98132138221E+03  0.19010917347E+04  0.21701658315E+04  0.00000000000E+00 0.  1.
         13    1    4    4    0    0 -0.26574166375E+03 -0.64854194010E+03  0.88752409274E+02  0.70647171298E+03  0.10566000000E+00 0. -1.
         -4    1    4    4    0  501 -0.23889188133E+03 -0.30483863967E+03  0.11503445224E+04  0.12137909406E+04  0.00000000000E+00 0. -1.
<mgrwt>
<rscale>  2 0.14561186E+04</rscale>
<asrwt>0</asrwt>
<pdfrwt beam="1">  1        2 0.56298641E+00 0.14561186E+04</pdfrwt>
<pdfrwt beam="2">  1       -2 0.91030011E-01 0.14561186E+04</pdfrwt>
<totfact> 0.95293988E-01</totfact>
</mgrwt>
</event>
<event>
 8    1  0.1449514E-005  0.1076347E+04  0.7818608E-02  0.8705989E-01
          1   -1    0    0  502    0  0.00000000000E+00  0.00000000000E+00  0.80944976011E+03  0.80944976011E+03  0.00000000000E+00 0. -1.
         -1   -1    0    0    0  501 -0.00000000000E+00 -0.00000000000E+00 -0.14826686653E+04  0.14826686653E+04  0.00000000000E+00 0.  1.
    9000010    2    1    2  502    0  0.21693147954E+03  0.32363149061E+03 -0.12173404415E+03  0.10782446495E+04  0.99799586081E+03 0.  0.
   -9000010    2    1    2    0  501 -0.21693147954E+03 -0.32363149061E+03 -0.55148486108E+03  0.12138737759E+04  0.10087404936E+04 0.  0.
        -13    1    3    3    0    0  0.41881703932E+03  0.59578567447E+03 -0.38329410623E+02  0.72927185412E+03  0.10566000000E+00 0.  1.
          4    1    3    3  502    0 -0.20188555978E+03 -0.27215418386E+03 -0.83404633531E+02  0.34897279541E+03  0.00000000000E+00 0.  1.
         13    1    4    4    0    0  0.14748484666E+03  0.31271042769E+03 -0.21423231645E+03  0.40673712414E+03  0.10566000000E+00 0. -1.
         -4    1    4    4    0  501 -0.36441632620E+03 -0.63634191830E+03 -0.33725254463E+03  0.80713665178E+03  0.00000000000E+00 0. -1.
<mgrwt>
<rscale>  2 0.10763471E+04</rscale>
<asrwt>0</asrwt>
<pdfrwt beam="1">  1        1 0.12453073E+00 0.10763471E+04</pdfrwt>
<pdfrwt beam="2">  1       -1 0.22810287E+00 0.10763471E+04</pdfrwt>
<totfact> 0.23228324E+00</totfact>
</mgrwt>
</event>
<event>
 8    1  0.1449514E-005  0.1710188E+04  0.7818608E-02  0.8297840E-01
         -2   -1    0    0    0  501 -0.00000000000E+00  0.00000000000E+00  0.77050865297E+03  0.77050865297E+03  0.00000000000E+00 0.  1.
          2   -1    0    0  502    0  0.00000000000E+00 -0.00000000000E+00 -0.39666129916E+04  0.39666129916E+04  0.00000000000E+00 0. -1.
    9000010    2    1    2  502    0 -0.11341139984E+04 -0.78338245270E+03 -0.20899117993E+04  0.27007646648E+04  0.10131612988E+04 0.  0.
   -9000010    2    1    2    0  501  0.11341139984E+04  0.78338245270E+03 -0.11061925394E+04  0.20363569798E+04  0.10115261669E+04 0.  0.
        -13    1    3    3    0    0 -0.42375947940E+03 -0.75818510247E+02 -0.14471003496E+04  0.15097748096E+04  0.10566000000E+00 0.  1.
          4    1    3    3  502    0 -0.71035451899E+03 -0.70756394246E+03 -0.64281144974E+03  0.11909898552E+04  0.00000000000E+00 0.  1.
         13    1    4    4    0    0  0.96302954036E+03  0.17968041301E+03 -0.32026692192E+03  0.10306705870E+04  0.10566000000E+00 0. -1.
         -4    1    4    4    0  501  0.17108445803E+03  0.60370203969E+03 -0.78592561744E+03  0.10056863928E+04  0.00000000000E+00 0. -1.
<mgrwt>
<rscale>  2 0.17101879E+04</rscale>
<asrwt>0</asrwt>
<pdfrwt beam="2">  1        2 0.61024817E+00 0.17101879E+04</pdfrwt>
<pdfrwt beam="1">  1       -2 0.11853979E+00 0.17101879E+04</pdfrwt>
<totfact> 0.26726631E-01</totfact>
</mgrwt>
</event>
<event>
 8    1  0.1449514E-005  0.1163414E+04  0.7818608E-02  0.8634634E-01
         -1   -1    0    0    0  501 -0.00000000000E+00  0.00000000000E+00  0.99712192148E+03  0.99712192148E+03  0.00000000000E+00 0.  1.
          1   -1    0    0  502    0  0.00000000000E+00 -0.00000000000E+00 -0.26159387916E+04  0.26159387916E+04  0.00000000000E+00 0. -1.
    9000010    2    1    2  502    0 -0.45724342034E+03 -0.50336850099E+03 -0.20792469798E+04  0.24090568039E+04  0.10088782326E+04 0.  0.
   -9000010    2    1    2    0  501  0.45724342034E+03  0.50336850099E+03  0.46043010965E+03  0.12040039092E+04  0.88044201071E+03 0.  0.
        -13    1    3    3    0    0 -0.36242720142E+03  0.20385129080E+03 -0.12378975772E+04  0.13058710686E+04  0.10566000000E+00 0.  1.
          4    1    3    3  502    0 -0.94816218917E+02 -0.70721979180E+03 -0.84134940256E+03  0.11031857353E+04  0.00000000000E+00 0.  1.
         13    1    4    4    0    0  0.26147967107E+01  0.58520644719E+03  0.52204927721E+02  0.58753620198E+03  0.10566000000E+00 0. -1.
         -4    1    4    4    0  501  0.45462862363E+03 -0.81837946200E+02  0.40822518193E+03  0.61646770720E+03  0.00000000000E+00 0. -1.
<mgrwt>
<rscale>  2 0.11634136E+04</rscale>
<asrwt>0</asrwt>
<pdfrwt beam="2">  1        1 0.40245211E+00 0.11634136E+04</pdfrwt>
<pdfrwt beam="1">  1       -1 0.15340338E+00 0.11634136E+04</pdfrwt>
<totfact> 0.38664119E-01</totfact>
</mgrwt>
</event>
<event>
 8    1  0.1449514E-005  0.1194763E+04  0.7818608E-02  0.8610517E-01
         -2   -1    0    0    0  501 -0.00000000000E+00  0.00000000000E+00  0.62824367859E+03  0.62824367859E+03  0.00000000000E+00 0. -1.
          2   -1    0    0  502    0  0.00000000000E+00 -0.00000000000E+00 -0.22764551683E+04  0.22764551683E+04  0.00000000000E+00 0.  1.
    9000010    2    1    2  502    0  0.55650060018E+03  0.37086863261E+03 -0.89111504825E+03  0.14954163792E+04  0.99747062985E+03 0.  0.
   -9000010    2    1    2    0  501 -0.55650060018E+03 -0.37086863261E+03 -0.75709644148E+03  0.14092824677E+04  0.98267267763E+03 0.  0.
        -13    1    3    3    0    0 -0.29201647842E+03  0.12163190729E+03 -0.24717230710E+03  0.40145000324E+03  0.10566000000E+00 0.  1.
          4    1    3    3  502    0  0.84851707860E+03  0.24923672532E+03 -0.64394274115E+03  0.10939663760E+04  0.00000000000E+00 0.  1.
         13    1    4    4    0    0 -0.74282012243E+03 -0.17052430461E+03 -0.19893990692E+03  0.78767846897E+03  0.10566000000E+00 0. -1.
         -4    1    4    4    0  501  0.18631952226E+03 -0.20034432800E+03 -0.55815653457E+03  0.62160399871E+03  0.00000000000E+00 0. -1.
<mgrwt>
<rscale>  2 0.11947627E+04</rscale>
<asrwt>0</asrwt>
<pdfrwt beam="2">  1        2 0.35022387E+00 0.11947627E+04</pdfrwt>
<pdfrwt beam="1">  1       -2 0.96652874E-01 0.11947627E+04</pdfrwt>
<totfact> 0.64093965E+00</totfact>
</mgrwt>
</event>
<event>
 8    1  0.1449514E-005  0.1329280E+04  0.7818608E-02  0.8515092E-01
          2   -1    0    0  502    0  0.00000000000E+00  0.00000000000E+00  0.37571336140E+04  0.37571336140E+04  0.00000000000E+00 0. -1.
         -2   -1    0    0    0  501 -0.00000000000E+00 -0.00000000000E+00 -0.49155242458E+03  0.49155242458E+03  0.00000000000E+00 0.  1.
    9000010    2    1    2  502    0 -0.78024680272E+03  0.40263822762E+03  0.20715416461E+04  0.24600097447E+04  0.99471630976E+03 0.  0.
   -9000010    2    1    2    0  501  0.78024680272E+03 -0.40263822762E+03  0.11940395434E+04  0.17886762939E+04  0.10013639887E+04 0.  0.
        -13    1    3    3    0    0 -0.65649041326E+03  0.56546639108E+03  0.82362765256E+03  0.11954473737E+04  0.10566000000E+00 0.  1.
          4    1    3    3  502    0 -0.12375638946E+03 -0.16282816346E+03  0.12479139935E+04  0.12645623709E+04  0.00000000000E+00 0.  1.
         13    1    4    4    0    0  0.19867650597E+02  0.34425031752E+01  0.86617714765E+03  0.86641181700E+03  0.10566000000E+00 0. -1.
         -4    1    4    4    0  501  0.76037915212E+03 -0.40608073079E+03  0.32786239572E+03  0.92226447695E+03  0.00000000000E+00 0. -1.
<mgrwt>
<rscale>  2 0.13292800E+04</rscale>
<asrwt>0</asrwt>
<pdfrwt beam="1">  1        2 0.57802054E+00 0.13292800E+04</pdfrwt>
<pdfrwt beam="2">  1       -2 0.75623452E-01 0.13292800E+04</pdfrwt>
<totfact> 0.12152344E+00</totfact>
</mgrwt>
</event>
<event>
 8    1  0.1449514E-005  0.1244384E+04  0.7818608E-02  0.8573869E-01
          1   -1    0    0  502    0  0.00000000000E+00  0.00000000000E+00  0.91866659247E+03  0.91866659247E+03  0.00000000000E+00 0.  1.
         -1   -1    0    0    0  501 -0.00000000000E+00 -0.00000000000E+00 -0.26932984963E+04  0.26932984963E+04  0.00000000000E+00 0. -1.
    9000010    2    1    2  502    0 -0.33151325581E+03  0.65931726051E+03  0.21570532789E+03  0.12666022051E+04  0.10065545533E+04 0.  0.
   -9000010    2    1    2    0  501  0.33151325581E+03 -0.65931726051E+03 -0.19903372318E+04  0.23453628837E+04  0.99733869444E+03 0.  0.
        -13    1    3    3    0    0  0.59897243114E+02  0.18606093632E+02 -0.33160439419E+03  0.33748385423E+03  0.10566000000E+00 0.  1.
          4    1    3    3  502    0 -0.39141049892E+03  0.64071116688E+03  0.54730972208E+03  0.92911835087E+03  0.00000000000E+00 0.  1.
         13    1    4    4    0    0  0.28618726583E+03 -0.34561307483E+03 -0.14289144882E+03  0.47092411908E+03  0.10566000000E+00 0. -1.
         -4    1    4    4    0  501  0.45325989975E+02 -0.31370418568E+03 -0.18474457830E+04  0.18744387647E+04  0.00000000000E+00 0. -1.
<mgrwt>
<rscale>  2 0.12443838E+04</rscale>
<asrwt>0</asrwt>
<pdfrwt beam="1">  1        1 0.14133332E+00 0.12443838E+04</pdfrwt>
<pdfrwt beam="2">  1       -1 0.41435361E+00 0.12443838E+04</pdfrwt>
<totfact> 0.27035559E-01</totfact>
</mgrwt>
</event>
<event>
 8    1  0.1449514E-005  0.1239966E+04  0.7818608E-02  0.8577060E-01
          2   -1    0    0  502    0  0.00000000000E+00  0.00000000000E+00  0.15031149277E+04  0.15031149277E+04  0.00000000000E+00 0.  1.
         -2   -1    0    0    0  501 -0.00000000000E+00 -0.00000000000E+00 -0.11002538643E+04  0.11002538643E+04  0.00000000000E+00 0. -1.
    9000010    2    1    2  502    0 -0.55166784754E+03 -0.48600006101E+03 -0.14442217050E+03  0.12436625202E+04  0.99262542152E+03 0.  0.
   -9000010    2    1    2    0  501  0.55166784754E+03  0.48600006101E+03  0.54728323388E+03  0.13597062719E+04  0.10043648413E+04 0.  0.
        -13    1    3    3    0    0 -0.45381546660E+02  0.78259148266E+02  0.33479324542E+03  0.34680038553E+03  0.10566000000E+00 0.  1.
          4    1    3    3  502    0 -0.50628630088E+03 -0.56425920927E+03 -0.47921541592E+03  0.89686213464E+03  0.00000000000E+00 0.  1.
         13    1    4    4    0    0  0.18616001198E+03  0.13743196749E+03 -0.29662493598E+03  0.37620401321E+03  0.10566000000E+00 0. -1.
         -4    1    4    4    0  501  0.36550783556E+03  0.34856809352E+03  0.84390816986E+03  0.98350225868E+03  0.00000000000E+00 0. -1.
<mgrwt>
<rscale>  2 0.12399660E+04</rscale>
<asrwt>0</asrwt>
<pdfrwt beam="1">  1        2 0.23124845E+00 0.12399660E+04</pdfrwt>
<pdfrwt beam="2">  1       -2 0.16926983E+00 0.12399660E+04</pdfrwt>
<totfact> 0.35553554E+00</totfact>
</mgrwt>
</event>
<event>
 8    1  0.1449514E-005  0.1171033E+04  0.7818608E-02  0.8628701E-01
          2   -1    0    0  502    0  0.00000000000E+00  0.00000000000E+00  0.17894354462E+04  0.17894354462E+04  0.00000000000E+00 0. -1.
         -2   -1    0    0    0  501 -0.00000000000E+00 -0.00000000000E+00 -0.13002631499E+04  0.13002631499E+04  0.00000000000E+00 0.  1.
    9000010    2    1    2  502    0 -0.54774635404E+03  0.30433624737E+03  0.12364683732E+04  0.17152320286E+04  0.10102080252E+04 0.  0.
   -9000010    2    1    2    0  501  0.54774635404E+03 -0.30433624737E+03 -0.74729607692E+03  0.13744665675E+04  0.96853513038E+03 0.  0.
        -13    1    3    3    0    0 -0.61097134207E+03 -0.21657594917E+03  0.54294902839E+03  0.84556772714E+03  0.10566000000E+00 0.  1.
          4    1    3    3  502    0  0.63224988032E+02  0.52091219654E+03  0.69351934486E+03  0.86966430150E+03  0.00000000000E+00 0.  1.
         13    1    4    4    0    0  0.74219939301E+03 -0.15384858851E+03 -0.21461536384E+03  0.78777477284E+03  0.10566000000E+00 0. -1.
         -4    1    4    4    0  501 -0.19445303897E+03 -0.15048765886E+03 -0.53268071308E+03  0.58669179466E+03  0.00000000000E+00 0. -1.
<mgrwt>
<rscale>  2 0.11710325E+04</rscale>
<asrwt>0</asrwt>
<pdfrwt beam="1">  1        2 0.27529776E+00 0.11710325E+04</pdfrwt>
<pdfrwt beam="2">  1       -2 0.20004048E+00 0.11710325E+04</pdfrwt>
<totfact> 0.13866954E+00</totfact>
</mgrwt>
</event>
<event>
 8    1  0.1449514E-005  0.1290175E+04  0.7818608E-02  0.8541585E-01
         -2   -1    0    0    0  501 -0.00000000000E+00  0.00000000000E+00  0.50697451938E+03  0.50697451938E+03  0.00000000000E+00 0. -1.
          2   -1    0    0  502    0  0.00000000000E+00 -0.00000000000E+00 -0.32846387565E+04  0.32846387565E+04  0.00000000000E+00 0.  1.
    9000010    2    1    2  502    0  0.80780546080E+03 -0.31736884886E+02 -0.13630675174E+04  0.18832208485E+04  0.10173548127E+04 0.  0.
   -9000010    2    1    2    0  501 -0.80780546080E+03  0.31736884886E+02 -0.14145967197E+04  0.19083924274E+04  0.99364021910E+03 0.  0.
        -13    1    3    3    0    0  0.75729257555E+03  0.39077531275E+03 -0.73948797616E+03  0.11282906842E+04  0.10566000000E+00 0.  1.
          4    1    3    3  502    0  0.50512885242E+02 -0.42251219764E+03 -0.62357954123E+03  0.75493016430E+03  0.00000000000E+00 0.  1.
         13    1    4    4    0    0  0.56176405655E+02  0.18267421388E+03 -0.83623838264E+03  0.85779968566E+03  0.10566000000E+00 0. -1.
         -4    1    4    4    0  501 -0.86398186645E+03 -0.15093732899E+03 -0.57835833711E+03  0.10505927417E+04  0.00000000000E+00 0. -1.
<mgrwt>
<rscale>  2 0.12901752E+04</rscale>
<asrwt>0</asrwt>
<pdfrwt beam="2">  1        2 0.50532905E+00 0.12901752E+04</pdfrwt>
<pdfrwt beam="1">  1       -2 0.77996078E-01 0.12901752E+04</pdfrwt>
<totfact> 0.25900189E+00</totfact>
</mgrwt>
</event>
<event>
 8    1  0.1449514E-005  0.1174992E+04  0.7818608E-02  0.8625635E-01
         -4   -1    0    0    0  501 -0.00000000000E+00  0.00000000000E+00  0.11396596612E+04  0.11396596612E+04  0.00000000000E+00 0. -1.
          4   -1    0    0  502    0  0.00000000000E+00 -0.00000000000E+00 -0.13951290220E+04  0.13951290220E+04  0.00000000000E+00 0.  1.
    9000010    2    1    2  502    0  0.48173657075E+03  0.30834916016E+03 -0.58597526195E+03  0.12998833172E+04  0.10095446015E+04 0.  0.
   -9000010    2    1    2    0  501 -0.48173657075E+03 -0.30834916016E+03  0.33050590117E+03  0.12349053661E+04  0.10433636874E+04 0.  0.
        -13    1    3    3    0    0  0.58766526903E+03  0.56538841947E+03 -0.61353523769E+03  0.10205096924E+04  0.10566000000E+00 0.  1.
          4    1    3    3  502    0 -0.10592869828E+03 -0.25703925931E+03  0.27559975739E+02  0.27937362476E+03  0.00000000000E+00 0.  1.
         13    1    4    4    0    0  0.22718146181E+03 -0.39081388502E+03  0.25029171967E+03  0.51671352355E+03  0.10566000000E+00 0. -1.
         -4    1    4    4    0  501 -0.70891803256E+03  0.82464724861E+02  0.80214181495E+02  0.71819184251E+03  0.00000000000E+00 0. -1.
<mgrwt>
<rscale>  2 0.11749923E+04</rscale>
<asrwt>0</asrwt>
<pdfrwt beam="2">  1        4 0.21463523E+00 0.11749923E+04</pdfrwt>
<pdfrwt beam="1">  1       -4 0.17533226E+00 0.11749923E+04</pdfrwt>
<totfact> 0.19779769E-01</totfact>
</mgrwt>
</event>
<event>
 8    1  0.1449514E-005  0.1385664E+04  0.7818608E-02  0.8478499E-01
         -2   -1    0    0    0  501 -0.00000000000E+00  0.00000000000E+00  0.74510619254E+03  0.74510619254E+03  0.00000000000E+00 0.  1.
          2   -1    0    0  502    0  0.00000000000E+00 -0.00000000000E+00 -0.28337892209E+04  0.28337892209E+04  0.00000000000E+00 0. -1.
    9000010    2    1    2  502    0  0.49119292113E+03  0.82592061384E+03 -0.50206265804E+03  0.14689640978E+04  0.99114744706E+03 0.  0.
   -9000010    2    1    2    0  501 -0.49119292113E+03 -0.82592061384E+03 -0.15866203704E+04  0.21099313157E+04  0.10055001796E+04 0.  0.
        -13    1    3    3    0    0  0.74109999420E+03  0.84780802358E+03 -0.36887878202E+03  0.11849384850E+04  0.10566000000E+00 0.  1.
          4    1    3    3  502    0 -0.24990707307E+03 -0.21887409739E+02 -0.13318387602E+03  0.28402561277E+03  0.00000000000E+00 0.  1.
         13    1    4    4    0    0  0.87754522399E+02 -0.32905397064E+03  0.96727238234E+01  0.34069186158E+03  0.10566000000E+00 0. -1.
         -4    1    4    4    0  501 -0.57894744353E+03 -0.49686664319E+03 -0.15962930942E+04  0.17692394541E+04  0.00000000000E+00 0. -1.
<mgrwt>
<rscale>  2 0.13856637E+04</rscale>
<asrwt>0</asrwt>
<pdfrwt beam="2">  1        2 0.43596758E+00 0.13856637E+04</pdfrwt>
<pdfrwt beam="1">  1       -2 0.11463172E+00 0.13856637E+04</pdfrwt>
<totfact> 0.19839374E+00</totfact>
</mgrwt>
</event>
<event>
 8    1  0.1449514E-005  0.1115858E+04  0.7818608E-02  0.8672768E-01
          2   -1    0    0  502    0  0.00000000000E+00  0.00000000000E+00  0.11177795329E+04  0.11177795329E+04  0.00000000000E+00 0.  1.
         -2   -1    0    0    0  501 -0.00000000000E+00 -0.00000000000E+00 -0.11476831110E+04  0.11476831110E+04  0.00000000000E+00 0. -1.
    9000010    2    1    2  502    0 -0.38557797342E+03 -0.39912784528E+03 -0.20896957816E+03  0.11467603932E+04  0.98153843748E+03 0.  0.
   -9000010    2    1    2    0  501  0.38557797342E+03  0.39912784528E+03  0.17906600005E+03  0.11187022507E+04  0.95470240539E+03 0.  0.
        -13    1    3    3    0    0  0.27164148953E+03 -0.37861759871E+03 -0.13457012082E+03  0.48502527096E+03  0.10566000000E+00 0.  1.
          4    1    3    3  502    0 -0.65721946295E+03 -0.20510246574E+02 -0.74399457336E+02  0.66173512220E+03  0.00000000000E+00 0.  1.
         13    1    4    4    0    0 -0.13172677513E+03 -0.19613476386E+03  0.22828581179E+03  0.32853494778E+03  0.10566000000E+00 0. -1.
         -4    1    4    4    0  501  0.51730474855E+03  0.59526260914E+03 -0.49219811743E+02  0.79016730291E+03  0.00000000000E+00 0. -1.
<mgrwt>
<rscale>  2 0.11158582E+04</rscale>
<asrwt>0</asrwt>
<pdfrwt beam="1">  1        2 0.17196608E+00 0.11158582E+04</pdfrwt>
<pdfrwt beam="2">  1       -2 0.17656663E+00 0.11158582E+04</pdfrwt>
<totfact> 0.51482629E+00</totfact>
</mgrwt>
</event>
<event>
 8    1  0.1449514E-005  0.1154344E+04  0.7818608E-02  0.8641759E-01
         -2   -1    0    0    0  501 -0.00000000000E+00  0.00000000000E+00  0.15152829733E+04  0.15152829733E+04  0.00000000000E+00 0.  1.
          2   -1    0    0  502    0  0.00000000000E+00 -0.00000000000E+00 -0.91139086806E+03  0.91139086806E+03  0.00000000000E+00 0. -1.
    9000010    2    1    2  502    0  0.37610281735E+03 -0.40089840352E+03  0.53305265250E+03  0.12877279813E+04  0.10353382849E+04 0.  0.
   -9000010    2    1    2    0  501 -0.37610281735E+03  0.40089840352E+03  0.70839452758E+02  0.11389458601E+04  0.99499074621E+03 0.  0.
        -13    1    3    3    0    0 -0.27484757338E+03 -0.41758134233E+03  0.11204723040E+03  0.51231822050E+03  0.10566000000E+00 0.  1.
          4    1    3    3  502    0  0.65095039073E+03  0.16682938817E+02  0.42100542210E+03  0.77540976075E+03  0.00000000000E+00 0.  1.
         13    1    4    4    0    0 -0.52436070413E+03 -0.51880720407E+02 -0.23058727196E+03  0.57516628756E+03  0.10566000000E+00 0. -1.
         -4    1    4    4    0  501  0.14825788679E+03  0.45277912392E+03  0.30142672472E+03  0.56377957255E+03  0.00000000000E+00 0. -1.
<mgrwt>
<rscale>  2 0.11543437E+04</rscale>
<asrwt>0</asrwt>
<pdfrwt beam="2">  1        2 0.14021398E+00 0.11543437E+04</pdfrwt>
<pdfrwt beam="1">  1       -2 0.23312046E+00 0.11543437E+04</pdfrwt>
<totfact> 0.23494432E+00</totfact>
</mgrwt>
</event>
<event>
 8    1  0.1449514E-005  0.1200676E+04  0.7818608E-02  0.8606054E-01
         -2   -1    0    0    0  501 -0.00000000000E+00  0.00000000000E+00  0.55164087330E+03  0.55164087330E+03  0.00000000000E+00 0. -1.
          2   -1    0    0  502    0  0.00000000000E+00 -0.00000000000E+00 -0.32599729581E+04  0.32599729581E+04  0.00000000000E+00 0.  1.
    9000010    2    1    2  502    0 -0.20968083916E+03 -0.53341856914E+03 -0.49143659369E+03  0.12828390009E+04  0.10371424938E+04 0.  0.
   -9000010    2    1    2    0  501  0.20968083916E+03  0.53341856914E+03 -0.22168954912E+04  0.25287748306E+04  0.10731146727E+04 0.  0.
        -13    1    3    3    0    0  0.10601250290E+03 -0.42244264390E+03  0.22637576199E+03  0.49085887476E+03  0.10566000000E+00 0.  1.
          4    1    3    3  502    0 -0.31569334206E+03 -0.11097592525E+03 -0.71781235568E+03  0.79198012612E+03  0.00000000000E+00 0.  1.
         13    1    4    4    0    0  0.60791822449E+03  0.17257072576E+03 -0.15390994604E+04  0.16637825529E+04  0.10566000000E+00 0. -1.
         -4    1    4    4    0  501 -0.39823738534E+03  0.36084784338E+03 -0.67779603075E+03  0.86499227768E+03  0.00000000000E+00 0. -1.
<mgrwt>
<rscale>  2 0.12006755E+04</rscale>
<asrwt>0</asrwt>
<pdfrwt beam="2">  1        2 0.50153431E+00 0.12006755E+04</pdfrwt>
<pdfrwt beam="1">  1       -2 0.84867826E-01 0.12006755E+04</pdfrwt>
<totfact> 0.22593021E+00</totfact>
</mgrwt>
</event>
<event>
 8    1  0.1449514E-005  0.1047830E+04  0.7818608E-02  0.8730904E-01
         -2   -1    0    0    0  501 -0.00000000000E+00  0.00000000000E+00  0.10145229284E+04  0.10145229284E+04  0.00000000000E+00 0. -1.
          2   -1    0    0  502    0  0.00000000000E+00 -0.00000000000E+00 -0.10852647358E+04  0.10852647358E+04  0.00000000000E+00 0.  1.
    9000010    2    1    2  502    0 -0.26890209033E+03  0.16447074887E+03 -0.90912107616E+02  0.10532109755E+04  0.10008143615E+04 0.  0.
   -9000010    2    1    2    0  501  0.26890209033E+03 -0.16447074887E+03  0.20170300185E+02  0.10465766887E+04  0.99777600837E+03 0.  0.
        -13    1    3    3    0    0  0.24286401365E+03 -0.18833374799E+03  0.20024226815E+03  0.36680990564E+03  0.10566000000E+00 0.  1.
          4    1    3    3  502    0 -0.51176610398E+03  0.35280449687E+03 -0.29115437576E+03  0.68640106987E+03  0.00000000000E+00 0.  1.
         13    1    4    4    0    0  0.42306030193E+03 -0.16009096653E+03  0.42048082437E+03  0.61758665097E+03  0.10566000000E+00 0. -1.
         -4    1    4    4    0  501 -0.15415821160E+03 -0.43797823455E+01 -0.40031052418E+03  0.42899003772E+03  0.00000000000E+00 0. -1.
<mgrwt>
<rscale>  2 0.10478301E+04</rscale>
<asrwt>0</asrwt>
<pdfrwt beam="2">  1        2 0.16696381E+00 0.10478301E+04</pdfrwt>
<pdfrwt beam="1">  1       -2 0.15608045E+00 0.10478301E+04</pdfrwt>
<totfact> 0.80842758E+00</totfact>
</mgrwt>
</event>
<event>
 8    1  0.1449514E-005  0.1929852E+04  0.7818608E-02  0.8197565E-01
          4   -1    0    0  502    0  0.00000000000E+00  0.00000000000E+00  0.20789532133E+04  0.20789532133E+04  0.00000000000E+00 0.  1.
         -4   -1    0    0    0  501 -0.00000000000E+00 -0.00000000000E+00 -0.18388033156E+04  0.18388033156E+04  0.00000000000E+00 0. -1.
    9000010    2    1    2  502    0  0.15916039695E+04 -0.44910270878E+03  0.43412764474E+03  0.19735489789E+04  0.98566339153E+03 0.  0.
   -9000010    2    1    2    0  501 -0.15916039695E+04  0.44910270878E+03 -0.19397774702E+03  0.19442075500E+04  0.10037027410E+04 0.  0.
        -13    1    3    3    0    0  0.16775313024E+04 -0.24105248424E+03  0.42979398811E+03  0.17484108367E+04  0.10566000000E+00 0.  1.
          4    1    3    3  502    0 -0.85927332892E+02 -0.20805022454E+03  0.43336566372E+01  0.22513814215E+03  0.00000000000E+00 0.  1.
         13    1    4    4    0    0 -0.16363056885E+04  0.17952102873E+03 -0.79819965773E+02  0.16480580524E+04  0.10566000000E+00 0. -1.
         -4    1    4    4    0  501  0.44701718985E+02  0.26958168005E+03 -0.11415778125E+03  0.29614949758E+03  0.00000000000E+00 0. -1.
<mgrwt>
<rscale>  2 0.19298521E+04</rscale>
<asrwt>0</asrwt>
<pdfrwt beam="1">  1        4 0.31983896E+00 0.19298521E+04</pdfrwt>
<pdfrwt beam="2">  1       -4 0.28289282E+00 0.19298521E+04</pdfrwt>
<totfact> 0.52366384E-02</totfact>
</mgrwt>
</event>
<event>
 8    1  0.1449514E-005  0.1504779E+04  0.7818608E-02  0.8406754E-01
         -1   -1    0    0    0  501 -0.00000000000E+00  0.00000000000E+00  0.98403896339E+03  0.98403896339E+03  0.00000000000E+00 0.  1.
          1   -1    0    0  502    0  0.00000000000E+00 -0.00000000000E+00 -0.24900140372E+04  0.24900140372E+04  0.00000000000E+00 0. -1.
    9000010    2    1    2  502    0  0.51401521316E+03  0.10198274736E+04 -0.12334331020E+04  0.19490480840E+04  0.98649455208E+03 0.  0.
   -9000010    2    1    2    0  501 -0.51401521316E+03 -0.10198274736E+04 -0.27254197186E+03  0.15250049167E+04  0.97319122178E+03 0.  0.
        -13    1    3    3    0    0 -0.29148732933E+03  0.38735895081E+03 -0.41121302142E+03  0.63569487970E+03  0.10566000000E+00 0.  1.
          4    1    3    3  502    0  0.80550254249E+03  0.63246852278E+03 -0.82222008055E+03  0.13133532043E+04  0.00000000000E+00 0.  1.
         13    1    4    4    0    0 -0.10107141591E+03 -0.37744833986E+03  0.36159169552E+03  0.53238261224E+03  0.10566000000E+00 0. -1.
         -4    1    4    4    0  501 -0.41294379725E+03 -0.64237913372E+03 -0.63413366737E+03  0.99262230442E+03  0.00000000000E+00 0. -1.
<mgrwt>
<rscale>  2 0.15047786E+04</rscale>
<asrwt>0</asrwt>
<pdfrwt beam="2">  1        1 0.38307909E+00 0.15047786E+04</pdfrwt>
<pdfrwt beam="1">  1       -1 0.15139061E+00 0.15047786E+04</pdfrwt>
<totfact> 0.49832784E-01</totfact>
</mgrwt>
</event>
<event>
 8    1  0.1449514E-005  0.1216126E+04  0.7818608E-02  0.8594517E-01
         -2   -1    0    0    0  501 -0.00000000000E+00  0.00000000000E+00  0.89066834201E+03  0.89066834201E+03  0.00000000000E+00 0.  1.
          2   -1    0    0  502    0  0.00000000000E+00 -0.00000000000E+00 -0.16698048043E+04  0.16698048043E+04  0.00000000000E+00 0. -1.
    9000010    2    1    2  502    0  0.60144288106E+03  0.28179804267E+03 -0.29052801987E+03  0.12354943268E+04  0.10004479123E+04 0.  0.
   -9000010    2    1    2    0  501 -0.60144288106E+03 -0.28179804267E+03 -0.48860844238E+03  0.13249788195E+04  0.10371533089E+04 0.  0.
        -13    1    3    3    0    0  0.17913458015E+03  0.18751277003E+03 -0.63274071359E+03  0.68382092577E+03  0.10566000000E+00 0.  1.
          4    1    3    3  502    0  0.42230830091E+03  0.94285272644E+02  0.34221269372E+03  0.55167340102E+03  0.00000000000E+00 0.  1.
         13    1    4    4    0    0 -0.49059762429E+03 -0.66850714392E+03 -0.32083554473E+03  0.88911376570E+03  0.10566000000E+00 0. -1.
         -4    1    4    4    0  501 -0.11084525677E+03  0.38670910125E+03 -0.16777289765E+03  0.43586505379E+03  0.00000000000E+00 0. -1.
<mgrwt>
<rscale>  2 0.12161260E+04</rscale>
<asrwt>0</asrwt>
<pdfrwt beam="2">  1        2 0.25689304E+00 0.12161260E+04</pdfrwt>
<pdfrwt beam="1">  1       -2 0.13702590E+00 0.12161260E+04</pdfrwt>
<totfact> 0.55437023E+00</totfact>
</mgrwt>
</event>
<event>
 8    1  0.1449514E-005  0.1300721E+04  0.7818608E-02  0.8534346E-01
          2   -1    0    0  502    0  0.00000000000E+00  0.00000000000E+00  0.15543942803E+04  0.15543942803E+04  0.00000000000E+00 0. -1.
         -2   -1    0    0    0  501 -0.00000000000E+00 -0.00000000000E+00 -0.12539556101E+04  0.12539556101E+04  0.00000000000E+00 0.  1.
    9000010    2    1    2  502    0  0.16501490858E+03 -0.80707989451E+03  0.66010863216E+03  0.14564617664E+04  0.10034588155E+04 0.  0.
   -9000010    2    1    2    0  501 -0.16501490858E+03  0.80707989451E+03 -0.35966996194E+03  0.13518881241E+04  0.10097678655E+04 0.  0.
        -13    1    3    3    0    0  0.65297085013E+02 -0.55896982911E+03  0.92328277002E+03  0.10812779771E+04  0.10566000000E+00 0.  1.
          4    1    3    3  502    0  0.99717823566E+02 -0.24811006540E+03 -0.26317413787E+03  0.37518378927E+03  0.00000000000E+00 0.  1.
         13    1    4    4    0    0  0.26370853242E+03  0.50306262611E+03 -0.55218474316E+03  0.79216298676E+03  0.10566000000E+00 0. -1.
         -4    1    4    4    0  501 -0.42872344100E+03  0.30401726840E+03  0.19251478121E+03  0.55972513730E+03  0.00000000000E+00 0. -1.
<mgrwt>
<rscale>  2 0.13007215E+04</rscale>
<asrwt>0</asrwt>
<pdfrwt beam="1">  1        2 0.23913758E+00 0.13007215E+04</pdfrwt>
<pdfrwt beam="2">  1       -2 0.19291625E+00 0.13007215E+04</pdfrwt>
<totfact> 0.21021853E+00</totfact>
</mgrwt>
</event>
<event>
 8    1  0.1449514E-005  0.1208655E+04  0.7818608E-02  0.8600073E-01
          2   -1    0    0  502    0  0.00000000000E+00  0.00000000000E+00  0.20007743634E+04  0.20007743634E+04  0.00000000000E+00 0. -1.
         -2   -1    0    0    0  501 -0.00000000000E+00 -0.00000000000E+00 -0.73022892142E+03  0.73022892142E+03  0.00000000000E+00 0.  1.
    9000010    2    1    2  502    0  0.60907333533E+03  0.28934228872E+03  0.65126128135E+03  0.13749893119E+04  0.10058653307E+04 0.  0.
   -9000010    2    1    2    0  501 -0.60907333533E+03 -0.28934228872E+03  0.61928416065E+03  0.13560139729E+04  0.10002858268E+04 0.  0.
        -13    1    3    3    0    0  0.36194183078E+03  0.62237523700E+03  0.63495421891E+03  0.95995817397E+03  0.10566000000E+00 0.  1.
          4    1    3    3  502    0  0.24713150455E+03 -0.33303294828E+03  0.16307062434E+02  0.41503113795E+03  0.00000000000E+00 0.  1.
         13    1    4    4    0    0 -0.27336779648E+03  0.30714129739E+03 -0.30413109209E+02  0.41229928097E+03  0.10566000000E+00 0. -1.
         -4    1    4    4    0  501 -0.33570553886E+03 -0.59648358611E+03  0.64969726986E+03  0.94371469194E+03  0.00000000000E+00 0. -1.
<mgrwt>
<rscale>  2 0.12086550E+04</rscale>
<asrwt>0</asrwt>
<pdfrwt beam="1">  1        2 0.30781144E+00 0.12086550E+04</pdfrwt>
<pdfrwt beam="2">  1       -2 0.11234291E+00 0.12086550E+04</pdfrwt>
<totfact> 0.62634220E+00</totfact>
</mgrwt>
</event>
<event>
 8    1  0.1449514E-005  0.1215050E+04  0.7818608E-02  0.8595315E-01
          1   -1    0    0  502    0  0.00000000000E+00  0.00000000000E+00  0.20049612740E+04  0.20049612740E+04  0.00000000000E+00 0. -1.
         -1   -1    0    0    0  501 -0.00000000000E+00 -0.00000000000E+00 -0.74102820578E+03  0.74102820578E+03  0.00000000000E+00 0.  1.
    9000010    2    1    2  502    0  0.69110389218E+03  0.13128235378E+03  0.75077108526E+03  0.14518890661E+04  0.10244339860E+04 0.  0.
   -9000010    2    1    2    0  501 -0.69110389218E+03 -0.13128235378E+03  0.51316198293E+03  0.12941004136E+04  0.95734059436E+03 0.  0.
        -13    1    3    3    0    0  0.11348013493E+03  0.45072802882E+03  0.17266484129E+02  0.46511465213E+03  0.10566000000E+00 0.  1.
          4    1    3    3  502    0  0.57762375724E+03 -0.31944567503E+03  0.73350460113E+03  0.98677441399E+03  0.00000000000E+00 0.  1.
         13    1    4    4    0    0  0.11534931925E+02 -0.24589905438E+03 -0.17649829015E+03  0.30290436971E+03  0.10566000000E+00 0. -1.
         -4    1    4    4    0  501 -0.70263882410E+03  0.11461670060E+03  0.68966027308E+03  0.99119604391E+03  0.00000000000E+00 0. -1.
<mgrwt>
<rscale>  2 0.12150500E+04</rscale>
<asrwt>0</asrwt>
<pdfrwt beam="1">  1        1 0.30845558E+00 0.12150500E+04</pdfrwt>
<pdfrwt beam="2">  1       -1 0.11400434E+00 0.12150500E+04</pdfrwt>
<totfact> 0.27831438E+00</totfact>
</mgrwt>
</event>
<event>
 8    1  0.1449514E-005  0.1209778E+04  0.7818608E-02  0.8599236E-01
         -1   -1    0    0    0  501 -0.00000000000E+00  0.00000000000E+00  0.69913674662E+03  0.69913674662E+03  0.00000000000E+00 0.  1.
          1   -1    0    0  502    0  0.00000000000E+00 -0.00000000000E+00 -0.21015802201E+04  0.21015802201E+04  0.00000000000E+00 0. -1.
    9000010    2    1    2  502    0 -0.65582757774E+03  0.16523880765E+03 -0.62075354440E+03  0.13692175806E+04  0.10158780167E+04 0.  0.
   -9000010    2    1    2    0  501  0.65582757774E+03 -0.16523880765E+03 -0.78168992907E+03  0.14314993862E+04  0.99032200423E+03 0.  0.
        -13    1    3    3    0    0 -0.56217968087E+03  0.55453087359E+03 -0.26306089721E+03  0.83231696495E+03  0.10566000000E+00 0.  1.
          4    1    3    3  502    0 -0.93647896876E+02 -0.38929206594E+03 -0.35769264719E+03  0.53690061561E+03  0.00000000000E+00 0.  1.
         13    1    4    4    0    0 -0.99548918699E+02 -0.11008506209E+02  0.17572432315E+03  0.20226275815E+03  0.10566000000E+00 0. -1.
         -4    1    4    4    0  501  0.75537649644E+03 -0.15423030144E+03 -0.95741425222E+03  0.12292366280E+04  0.00000000000E+00 0. -1.
<mgrwt>
<rscale>  2 0.12097777E+04</rscale>
<asrwt>0</asrwt>
<pdfrwt beam="2">  1        1 0.32332004E+00 0.12097777E+04</pdfrwt>
<pdfrwt beam="1">  1       -1 0.10755950E+00 0.12097777E+04</pdfrwt>
<totfact> 0.26841089E+00</totfact>
</mgrwt>
</event>
<event>
 8    1  0.1449514E-005  0.1330062E+04  0.7818608E-02  0.8514571E-01
         -2   -1    0    0    0  501 -0.00000000000E+00  0.00000000000E+00  0.84803229939E+03  0.84803229939E+03  0.00000000000E+00 0.  1.
          2   -1    0    0  502    0  0.00000000000E+00 -0.00000000000E+00 -0.21074715217E+04  0.21074715217E+04  0.00000000000E+00 0. -1.
    9000010    2    1    2  502    0 -0.48813998337E+03  0.68906893043E+03 -0.49245938837E+03  0.14380706097E+04  0.10547199605E+04 0.  0.
   -9000010    2    1    2    0  501  0.48813998337E+03 -0.68906893043E+03 -0.76697983391E+03  0.15174332113E+04  0.10006242306E+04 0.  0.
        -13    1    3    3    0    0 -0.33899396947E+03  0.44278855273E+03 -0.82652129598E+03  0.99705369847E+03  0.10566000000E+00 0.  1.
          4    1    3    3  502    0 -0.14914601390E+03  0.24628037770E+03  0.33406190762E+03  0.44101691126E+03  0.00000000000E+00 0.  1.
         13    1    4    4    0    0 -0.40928685131E+01 -0.64334543705E+03 -0.79449376365E+03  0.10223162204E+04  0.10566000000E+00 0. -1.
         -4    1    4    4    0  501  0.49223285188E+03 -0.45723493380E+02  0.27513929742E+02  0.49511699087E+03  0.00000000000E+00 0. -1.
<mgrwt>
<rscale>  2 0.13300620E+04</rscale>
<asrwt>0</asrwt>
<pdfrwt beam="2">  1        2 0.32422639E+00 0.13300620E+04</pdfrwt>
<pdfrwt beam="1">  1       -2 0.13046651E+00 0.13300620E+04</pdfrwt>
<totfact> 0.36326243E+00</totfact>
</mgrwt>
</event>
<event>
 8    1  0.1449514E-005  0.1503860E+04  0.7818608E-02  0.8407281E-01
         -1   -1    0    0    0  501 -0.00000000000E+00  0.00000000000E+00  0.32077642840E+04  0.32077642840E+04  0.00000000000E+00 0.  1.
          1   -1    0    0  502    0  0.00000000000E+00 -0.00000000000E+00 -0.70531861944E+03  0.70531861944E+03  0.00000000000E+00 0. -1.
    9000010    2    1    2  502    0 -0.94822448334E+03 -0.60514770831E+03  0.12125323418E+04  0.19321182838E+04  0.99875570739E+03 0.  0.
   -9000010    2    1    2    0  501  0.94822448334E+03  0.60514770831E+03  0.12899133227E+04  0.19809646196E+04  0.99750239311E+03 0.  0.
        -13    1    3    3    0    0 -0.41482812723E+03 -0.76444078279E+03  0.42585535059E+03  0.96840326121E+03  0.10566000000E+00 0.  1.
          4    1    3    3  502    0 -0.53339635611E+03  0.15929307448E+03  0.78667699120E+03  0.96371502259E+03  0.00000000000E+00 0.  1.
         13    1    4    4    0    0  0.96705336362E+03  0.20200815532E+03  0.12225159136E+04  0.15717966386E+04  0.10566000000E+00 0. -1.
         -4    1    4    4    0  501 -0.18828880286E+02  0.40313955298E+03  0.67397409111E+02  0.40916798099E+03  0.00000000000E+00 0. -1.
<mgrwt>
<rscale>  2 0.15038601E+04</rscale>
<asrwt>0</asrwt>
<pdfrwt beam="2">  1        1 0.10851056E+00 0.15038601E+04</pdfrwt>
<pdfrwt beam="1">  1       -1 0.49350219E+00 0.15038601E+04</pdfrwt>
<totfact> 0.34630231E-01</totfact>
</mgrwt>
</event>
<event>
 8    1  0.1449514E-005  0.1157120E+04  0.7818608E-02  0.8639571E-01
         -2   -1    0    0    0  501 -0.00000000000E+00  0.00000000000E+00  0.60124267621E+03  0.60124267621E+03  0.00000000000E+00 0.  1.
          2   -1    0    0  502    0  0.00000000000E+00 -0.00000000000E+00 -0.24783742349E+04  0.24783742349E+04  0.00000000000E+00 0. -1.
    9000010    2    1    2  502    0 -0.50321801145E+03 -0.24915616054E+03 -0.14364673211E+04  0.18511738493E+04  0.10237671104E+04 0.  0.
   -9000010    2    1    2    0  501  0.50321801145E+03  0.24915616054E+03 -0.44066423765E+03  0.12284430619E+04  0.99979009123E+03 0.  0.
        -13    1    3    3    0    0  0.24796717168E+03  0.10008028892E+03 -0.11403555157E+03  0.29070242628E+03  0.10566000000E+00 0.  1.
          4    1    3    3  502    0 -0.75118518313E+03 -0.34923644946E+03 -0.13224317695E+04  0.15604714230E+04  0.00000000000E+00 0.  1.
         13    1    4    4    0    0  0.28279332100E+03  0.40932475024E+03  0.19692906082E+03  0.53506997647E+03  0.10566000000E+00 0. -1.
         -4    1    4    4    0  501  0.22042469044E+03 -0.16016858969E+03 -0.63759329848E+03  0.69337308539E+03  0.00000000000E+00 0. -1.
<mgrwt>
<rscale>  2 0.11571202E+04</rscale>
<asrwt>0</asrwt>
<pdfrwt beam="2">  1        2 0.38128834E+00 0.11571202E+04</pdfrwt>
<pdfrwt beam="1">  1       -2 0.92498875E-01 0.11571202E+04</pdfrwt>
<totfact> 0.55243550E+00</totfact>
</mgrwt>
</event>
<event>
 8    1  0.1449514E-005  0.1161427E+04  0.7818608E-02  0.8636189E-01
          2   -1    0    0  502    0  0.00000000000E+00  0.00000000000E+00  0.32260481054E+04  0.32260481054E+04  0.00000000000E+00 0.  1.
         -2   -1    0    0    0  501 -0.00000000000E+00 -0.00000000000E+00 -0.48729261801E+03  0.48729261801E+03  0.00000000000E+00 0. -1.
    9000010    2    1    2  502    0  0.30784926176E+03 -0.52308267748E+03  0.67319169550E+03  0.13452229444E+04  0.99400757337E+03 0.  0.
   -9000010    2    1    2    0  501 -0.30784926176E+03  0.52308267748E+03  0.20655637919E+04  0.23681177790E+04  0.98642859919E+03 0.  0.
        -13    1    3    3    0    0 -0.18488039231E+03  0.13694798852E+03 -0.65094469708E+02  0.23910836909E+03  0.10566000000E+00 0.  1.
          4    1    3    3  502    0  0.49272965407E+03 -0.66003066600E+03  0.73828616520E+03  0.11061145753E+04  0.00000000000E+00 0.  1.
         13    1    4    4    0    0  0.31615914566E+03  0.36377555783E+02  0.31884778624E+03  0.45049290106E+03  0.10566000000E+00 0. -1.
         -4    1    4    4    0  501 -0.62400840742E+03  0.48670512169E+03  0.17467160057E+04  0.19176248780E+04  0.00000000000E+00 0. -1.
<mgrwt>
<rscale>  2 0.11614267E+04</rscale>
<asrwt>0</asrwt>
<pdfrwt beam="1">  1        2 0.49631508E+00 0.11614267E+04</pdfrwt>
<pdfrwt beam="2">  1       -2 0.74968097E-01 0.11614267E+04</pdfrwt>
<totfact> 0.31355001E+00</totfact>
</mgrwt>
</event>
<event>
 8    1  0.1449514E-005  0.1072795E+04  0.7818608E-02  0.8709048E-01
          2   -1    0    0  502    0  0.00000000000E+00  0.00000000000E+00  0.22565597266E+04  0.22565597266E+04  0.00000000000E+00 0. -1.
         -2   -1    0    0    0  501 -0.00000000000E+00 -0.00000000000E+00 -0.66251673346E+03  0.66251673346E+03  0.00000000000E+00 0.  1.
    9000010    2    1    2  502    0  0.16973694490E+03 -0.34373388150E+03  0.14979804908E+04  0.18432396561E+04  0.10033061682E+04 0.  0.
   -9000010    2    1    2    0  501 -0.16973694490E+03  0.34373388150E+03  0.96062502371E+02  0.10758368040E+04  0.10006164164E+04 0.  0.
        -13    1    3    3    0    0  0.61700813332E+01  0.15721354283E+03 -0.82193838785E+02  0.17751058068E+03  0.10566000000E+00 0.  1.
          4    1    3    3  502    0  0.16356686357E+03 -0.50094742433E+03  0.15801743296E+04  0.16657290754E+04  0.00000000000E+00 0.  1.
         13    1    4    4    0    0 -0.44084686785E+03  0.52911976360E+03 -0.96007764066E+02  0.69536406799E+03  0.10566000000E+00 0. -1.
         -4    1    4    4    0  501  0.27110992295E+03 -0.18538588210E+03  0.19207026644E+03  0.38047273602E+03  0.00000000000E+00 0. -1.
<mgrwt>
<rscale>  2 0.10727948E+04</rscale>
<asrwt>0</asrwt>
<pdfrwt beam="1">  1        2 0.34716303E+00 0.10727948E+04</pdfrwt>
<pdfrwt beam="2">  1       -2 0.10192565E+00 0.10727948E+04</pdfrwt>
<totfact> 0.58701003E+00</totfact>
</mgrwt>
</event>
<event>
 8    1  0.1449514E-005  0.1027260E+04  0.7818608E-02  0.8749392E-01
          2   -1    0    0  502    0  0.00000000000E+00  0.00000000000E+00  0.35435877010E+04  0.35435877010E+04  0.00000000000E+00 0.  1.
         -2   -1    0    0    0  501 -0.00000000000E+00 -0.00000000000E+00 -0.47098372628E+03  0.47098372628E+03  0.00000000000E+00 0. -1.
    9000010    2    1    2  502    0  0.16109251037E+03 -0.23577630733E+03  0.30802515323E+03  0.10611156411E+04  0.97444632725E+03 0.  0.
   -9000010    2    1    2    0  501 -0.16109251037E+03  0.23577630733E+03  0.27645788215E+04  0.29534557862E+04  0.99923158322E+03 0.  0.
        -13    1    3    3    0    0 -0.32960274934E+03 -0.35674867163E+03  0.26653237666E+03  0.55402807334E+03  0.10566000000E+00 0.  1.
          4    1    3    3  502    0  0.49069525971E+03  0.12097236430E+03  0.41492776575E+02  0.50708756772E+03  0.00000000000E+00 0.  1.
         13    1    4    4    0    0  0.48449498549E+01 -0.39086687785E+03  0.10593268897E+04  0.11291474041E+04  0.10566000000E+00 0. -1.
         -4    1    4    4    0  501 -0.16593746023E+03  0.62664318518E+03  0.17052519317E+04  0.18243083821E+04  0.00000000000E+00 0. -1.
<mgrwt>
<rscale>  2 0.10272597E+04</rscale>
<asrwt>0</asrwt>
<pdfrwt beam="1">  1        2 0.54516732E+00 0.10272597E+04</pdfrwt>
<pdfrwt beam="2">  1       -2 0.72459037E-01 0.10272597E+04</pdfrwt>
<totfact> 0.20649475E+00</totfact>
</mgrwt>
</event>
<event>
 8    1  0.1449514E-005  0.1745798E+04  0.7818608E-02  0.8280567E-01
         -1   -1    0    0    0  501 -0.00000000000E+00  0.00000000000E+00  0.16385377283E+04  0.16385377283E+04  0.00000000000E+00 0. -1.
          1   -1    0    0  502    0  0.00000000000E+00 -0.00000000000E+00 -0.18844760958E+04  0.18844760958E+04  0.00000000000E+00 0.  1.
    9000010    2    1    2  502    0  0.10957953414E+04  0.93024005115E+03  0.77473523480E+02  0.17472468774E+04  0.99033101577E+03 0.  0.
   -9000010    2    1    2    0  501 -0.10957953414E+04 -0.93024005115E+03 -0.32341189098E+03  0.17757669467E+04  0.99128150118E+03 0.  0.
        -13    1    3    3    0    0  0.12822535038E+03  0.23774140413E+03 -0.38531505472E+03  0.47056393644E+03  0.10566000000E+00 0.  1.
          4    1    3    3  502    0  0.96756999105E+03  0.69249864702E+03  0.46278857820E+03  0.12766829410E+04  0.00000000000E+00 0.  1.
         13    1    4    4    0    0 -0.92219891533E+03 -0.37287973996E+03  0.17276447379E+03  0.10096225604E+04  0.10566000000E+00 0. -1.
         -4    1    4    4    0  501 -0.17359642610E+03 -0.55736031118E+03 -0.49617636477E+03  0.76614438626E+03  0.00000000000E+00 0. -1.
<mgrwt>
<rscale>  2 0.17457981E+04</rscale>
<asrwt>0</asrwt>
<pdfrwt beam="2">  1        1 0.28991940E+00 0.17457981E+04</pdfrwt>
<pdfrwt beam="1">  1       -1 0.25208273E+00 0.17457981E+04</pdfrwt>
<totfact> 0.18406378E-01</totfact>
</mgrwt>
</event>
<event>
 8    1  0.1449514E-005  0.2251277E+04  0.7818608E-02  0.8073133E-01
          1   -1    0    0  502    0  0.00000000000E+00  0.00000000000E+00  0.17118400876E+04  0.17118400876E+04  0.00000000000E+00 0. -1.
         -1   -1    0    0    0  501 -0.00000000000E+00 -0.00000000000E+00 -0.33269696849E+04  0.33269696849E+04  0.00000000000E+00 0.  1.
    9000010    2    1    2  502    0  0.12959431114E+04  0.15763642012E+04  0.32063950254E+02  0.22396399908E+04  0.92226164861E+03 0.  0.
   -9000010    2    1    2    0  501 -0.12959431114E+04 -0.15763642012E+04 -0.16471935475E+04  0.27991697817E+04  0.97862773344E+03 0.  0.
        -13    1    3    3    0    0  0.11498563537E+04  0.12021760658E+04  0.38206055137E+03  0.17068588704E+04  0.10566000000E+00 0.  1.
          4    1    3    3  502    0  0.14608675774E+03  0.37418813537E+03 -0.34999660112E+03  0.53278112038E+03  0.00000000000E+00 0.  1.
         13    1    4    4    0    0 -0.86246154171E+03 -0.98076733460E+03 -0.15938375995E+04  0.20605976755E+04  0.10566000000E+00 0. -1.
         -4    1    4    4    0  501 -0.43348156972E+03 -0.59559686658E+03 -0.53355948011E+02  0.73857210613E+03  0.00000000000E+00 0. -1.
<mgrwt>
<rscale>  2 0.22512772E+04</rscale>
<asrwt>0</asrwt>
<pdfrwt beam="1">  1        1 0.26336002E+00 0.22512772E+04</pdfrwt>
<pdfrwt beam="2">  1       -1 0.51184149E+00 0.22512772E+04</pdfrwt>
<totfact> 0.44306704E-02</totfact>
</mgrwt>
</event>
<event>
 8    1  0.1449514E-005  0.1195571E+04  0.7818608E-02  0.8609905E-01
         -2   -1    0    0    0  501 -0.00000000000E+00  0.00000000000E+00  0.54072112304E+03  0.54072112304E+03  0.00000000000E+00 0. -1.
          2   -1    0    0  502    0  0.00000000000E+00 -0.00000000000E+00 -0.29164364945E+04  0.29164364945E+04  0.00000000000E+00 0.  1.
    9000010    2    1    2  502    0 -0.64768366011E+02 -0.63633372197E+03 -0.65952344046E+03  0.13658819915E+04  0.10107160329E+04 0.  0.
   -9000010    2    1    2    0  501  0.64768366011E+02  0.63633372197E+03 -0.17161919310E+04  0.20912756261E+04  0.10094570091E+04 0.  0.
        -13    1    3    3    0    0  0.82389461665E+02 -0.29063646339E+03 -0.87989431929E+03  0.93030726189E+03  0.10566000000E+00 0.  1.
          4    1    3    3  502    0 -0.14715782768E+03 -0.34569725859E+03  0.22037087882E+03  0.43557472961E+03  0.00000000000E+00 0.  1.
         13    1    4    4    0    0 -0.35084380973E+03  0.13861564532E+03 -0.16833895319E+03  0.41309041417E+03  0.10566000000E+00 0. -1.
         -4    1    4    4    0  501  0.41561217574E+03  0.49771807665E+03 -0.15478529778E+04  0.16781852119E+04  0.00000000000E+00 0. -1.
<mgrwt>
<rscale>  2 0.11955711E+04</rscale>
<asrwt>0</asrwt>
<pdfrwt beam="2">  1        2 0.44868254E+00 0.11955711E+04</pdfrwt>
<pdfrwt beam="1">  1       -2 0.83187864E-01 0.11955711E+04</pdfrwt>
<totfact> 0.38932179E+00</totfact>
</mgrwt>
</event>
<event>
 8    1  0.1449514E-005  0.1145449E+04  0.7818608E-02  0.8648813E-01
         -2   -1    0    0    0  501 -0.00000000000E+00  0.00000000000E+00  0.74073997293E+03  0.74073997293E+03  0.00000000000E+00 0.  1.
          2   -1    0    0  502    0  0.00000000000E+00 -0.00000000000E+00 -0.19400760047E+04  0.19400760047E+04  0.00000000000E+00 0. -1.
    9000010    2    1    2  502    0  0.28773843301E+03  0.49264683361E+03 -0.99523678276E+03  0.15177086567E+04  0.99370468677E+03 0.  0.
   -9000010    2    1    2    0  501 -0.28773843301E+03 -0.49264683361E+03 -0.20409924905E+03  0.11631073209E+04  0.99280805195E+03 0.  0.
        -13    1    3    3    0    0  0.18604095242E+03  0.79949955286E+03 -0.67604494840E+03  0.10634131626E+04  0.10566000000E+00 0.  1.
          4    1    3    3  502    0  0.10169748059E+03 -0.30685271925E+03 -0.31919183436E+03  0.45429549413E+03  0.00000000000E+00 0.  1.
         13    1    4    4    0    0 -0.66028354668E+03 -0.33646314890E+03 -0.13627622567E+03  0.75349388414E+03  0.10566000000E+00 0. -1.
         -4    1    4    4    0  501  0.37254511367E+03 -0.15618368471E+03 -0.67823023378E+02  0.40961343678E+03  0.00000000000E+00 0. -1.
<mgrwt>
<rscale>  2 0.11454486E+04</rscale>
<asrwt>0</asrwt>
<pdfrwt beam="2">  1        2 0.29847323E+00 0.11454486E+04</pdfrwt>
<pdfrwt beam="1">  1       -2 0.11396000E+00 0.11454486E+04</pdfrwt>
<totfact> 0.65614637E+00</totfact>
</mgrwt>
</event>
<event>
 8    1  0.1449514E-005  0.1305230E+04  0.7818608E-02  0.8531273E-01
         -2   -1    0    0    0  501 -0.00000000000E+00  0.00000000000E+00  0.79079770973E+03  0.79079770973E+03  0.00000000000E+00 0. -1.
          2   -1    0    0  502    0  0.00000000000E+00 -0.00000000000E+00 -0.24389793915E+04  0.24389793915E+04  0.00000000000E+00 0.  1.
    9000010    2    1    2  502    0 -0.56011126708E+02 -0.83239618261E+03 -0.27148339912E+03  0.13315771082E+04  0.10016854337E+04 0.  0.
   -9000010    2    1    2    0  501  0.56011126708E+02  0.83239618261E+03 -0.13766982826E+04  0.18981999930E+04  0.10059047673E+04 0.  0.
        -13    1    3    3    0    0  0.41047252244E+03 -0.42065588022E+03  0.11531299903E+03  0.59894587415E+03  0.10566000000E+00 0.  1.
          4    1    3    3  502    0 -0.46648364915E+03 -0.41174030239E+03 -0.38679639815E+03  0.73263123408E+03  0.00000000000E+00 0.  1.
         13    1    4    4    0    0  0.24624854187E+03  0.44183919017E+03 -0.57227290982E+02  0.50905322741E+03  0.10566000000E+00 0. -1.
         -4    1    4    4    0  501 -0.19023741516E+03  0.39055699244E+03 -0.13194709917E+04  0.13891467656E+04  0.00000000000E+00 0. -1.
<mgrwt>
<rscale>  2 0.13052297E+04</rscale>
<asrwt>0</asrwt>
<pdfrwt beam="2">  1        2 0.37522759E+00 0.13052297E+04</pdfrwt>
<pdfrwt beam="1">  1       -2 0.12166119E+00 0.13052297E+04</pdfrwt>
<totfact> 0.28961560E+00</totfact>
</mgrwt>
</event>
<event>
 8    1  0.1449514E-005  0.1091588E+04  0.7818608E-02  0.8693000E-01
          1   -1    0    0  502    0  0.00000000000E+00  0.00000000000E+00  0.17645388430E+04  0.17645388430E+04  0.00000000000E+00 0.  1.
         -1   -1    0    0    0  501 -0.00000000000E+00 -0.00000000000E+00 -0.68480658307E+03  0.68480658307E+03  0.00000000000E+00 0. -1.
    9000010    2    1    2  502    0 -0.27239834925E+03 -0.34736415112E+03  0.68143903955E+03  0.12821350399E+04  0.99229450358E+03 0.  0.
   -9000010    2    1    2    0  501  0.27239834925E+03  0.34736415112E+03  0.39829322042E+03  0.11672103862E+04  0.10044301280E+04 0.  0.
        -13    1    3    3    0    0 -0.28087856822E+03  0.14107131086E+03  0.72647410264E+03  0.79155449452E+03  0.10566000000E+00 0.  1.
          4    1    3    3  502    0  0.84802189751E+01 -0.48843546197E+03 -0.45035063085E+02  0.49058054541E+03  0.00000000000E+00 0.  1.
         13    1    4    4    0    0  0.14207592963E+03  0.29572194297E+03 -0.30628097047E+03  0.44882633765E+03  0.10566000000E+00 0. -1.
         -4    1    4    4    0  501  0.13032241962E+03  0.51642208146E+02  0.70457419089E+03  0.71838404854E+03  0.00000000000E+00 0. -1.
<mgrwt>
<rscale>  2 0.10915884E+04</rscale>
<asrwt>0</asrwt>
<pdfrwt beam="1">  1        1 0.27146751E+00 0.10915884E+04</pdfrwt>
<pdfrwt beam="2">  1       -1 0.10535486E+00 0.10915884E+04</pdfrwt>
<totfact> 0.51360251E+00</totfact>
</mgrwt>
</event>
<event>
 8    1  0.1449514E-005  0.1051943E+04  0.7818608E-02  0.8727260E-01
          2   -1    0    0  502    0  0.00000000000E+00  0.00000000000E+00  0.21703424930E+04  0.21703424930E+04  0.00000000000E+00 0. -1.
         -2   -1    0    0    0  501 -0.00000000000E+00 -0.00000000000E+00 -0.51018168741E+03  0.51018168741E+03  0.00000000000E+00 0.  1.
    9000010    2    1    2  502    0  0.10747786995E+02  0.34239061801E+03  0.79446528931E+03  0.13157132818E+04  0.99125147859E+03 0.  0.
   -9000010    2    1    2    0  501 -0.10747786995E+02 -0.34239061801E+03  0.86569551629E+03  0.13648108986E+04  0.99796453433E+03 0.  0.
        -13    1    3    3    0    0  0.23560383057E+03  0.36475733736E+03 -0.54089112277E+02  0.43758738941E+03  0.10566000000E+00 0.  1.
          4    1    3    3  502    0 -0.22485604358E+03 -0.22366719349E+02  0.84855440158E+03  0.87812589240E+03  0.00000000000E+00 0.  1.
         13    1    4    4    0    0 -0.44838364271E+03 -0.15824775635E+03  0.72964771462E+03  0.87090530028E+03  0.10566000000E+00 0. -1.
         -4    1    4    4    0  501  0.43763585572E+03 -0.18414286167E+03  0.13604780167E+03  0.49390559832E+03  0.00000000000E+00 0. -1.
<mgrwt>
<rscale>  2 0.10519425E+04</rscale>
<asrwt>0</asrwt>
<pdfrwt beam="1">  1        2 0.33389884E+00 0.10519425E+04</pdfrwt>
<pdfrwt beam="2">  1       -2 0.78489491E-01 0.10519425E+04</pdfrwt>
<totfact> 0.11942319E+01</totfact>
</mgrwt>
</event>
<event>
 8    1  0.1449514E-005  0.1288720E+04  0.7818608E-02  0.8542590E-01
          2   -1    0    0  502    0  0.00000000000E+00  0.00000000000E+00  0.22552514261E+04  0.22552514261E+04  0.00000000000E+00 0.  1.
         -2   -1    0    0    0  501 -0.00000000000E+00 -0.00000000000E+00 -0.80663004216E+03  0.80663004216E+03  0.00000000000E+00 0. -1.
    9000010    2    1    2  502    0 -0.55433097589E+03  0.55631507035E+03  0.28771111702E+03  0.13472547607E+04  0.10561952542E+04 0.  0.
   -9000010    2    1    2    0  501  0.55433097589E+03 -0.55631507035E+03  0.11609102669E+04  0.17146267075E+04  0.98765520808E+03 0.  0.
        -13    1    3    3    0    0 -0.47007166441E+02  0.17702412143E+03  0.60974488010E+03  0.63666006883E+03  0.10566000000E+00 0.  1.
          4    1    3    3  502    0 -0.50732380945E+03  0.37929094892E+03 -0.32203376308E+03  0.71059469188E+03  0.00000000000E+00 0.  1.
         13    1    4    4    0    0  0.67461924541E+03 -0.60393972442E+03  0.12600484290E+04  0.15516366751E+04  0.10566000000E+00 0. -1.
         -4    1    4    4    0  501 -0.12028826952E+03  0.47624654066E+02 -0.99138162145E+02  0.16299003237E+03  0.00000000000E+00 0. -1.
<mgrwt>
<rscale>  2 0.12887197E+04</rscale>
<asrwt>0</asrwt>
<pdfrwt beam="1">  1        2 0.34696175E+00 0.12887197E+04</pdfrwt>
<pdfrwt beam="2">  1       -2 0.12409693E+00 0.12887197E+04</pdfrwt>
<totfact> 0.34731768E+00</totfact>
</mgrwt>
</event>
<event>
 8    1  0.1449514E-005  0.1244341E+04  0.7818608E-02  0.8573900E-01
         -1   -1    0    0    0  501 -0.00000000000E+00  0.00000000000E+00  0.72763470419E+03  0.72763470419E+03  0.00000000000E+00 0. -1.
          1   -1    0    0  502    0  0.00000000000E+00 -0.00000000000E+00 -0.21320034860E+04  0.21320034860E+04  0.00000000000E+00 0.  1.
    9000010    2    1    2  502    0  0.60911709110E+03  0.46998604023E+03 -0.76958232577E+03  0.14733636839E+04  0.99329405531E+03 0.  0.
   -9000010    2    1    2    0  501 -0.60911709110E+03 -0.46998604023E+03 -0.63478645608E+03  0.13862745063E+04  0.96275264388E+03 0.  0.
        -13    1    3    3    0    0  0.20634143041E+03 -0.23920107182E+03  0.46847548792E+02  0.31935660735E+03  0.10566000000E+00 0.  1.
          4    1    3    3  502    0  0.40277566068E+03  0.70918711205E+03 -0.81642987457E+03  0.11540070766E+04  0.00000000000E+00 0.  1.
         13    1    4    4    0    0 -0.22093614162E+03 -0.59862859895E+03 -0.72674264843E+03  0.96712143310E+03  0.10566000000E+00 0. -1.
         -4    1    4    4    0  501 -0.38818094947E+03  0.12864255872E+03  0.91956192356E+02  0.41915307318E+03  0.00000000000E+00 0. -1.
<mgrwt>
<rscale>  2 0.12443413E+04</rscale>
<asrwt>0</asrwt>
<pdfrwt beam="2">  1        1 0.32800054E+00 0.12443413E+04</pdfrwt>
<pdfrwt beam="1">  1       -1 0.11194380E+00 0.12443413E+04</pdfrwt>
<totfact> 0.23085309E+00</totfact>
</mgrwt>
</event>
<event>
 8    1  0.1449514E-005  0.1538505E+04  0.7818608E-02  0.8387678E-01
         -1   -1    0    0    0  501 -0.00000000000E+00  0.00000000000E+00  0.12372155460E+04  0.12372155460E+04  0.00000000000E+00 0. -1.
          1   -1    0    0  502    0  0.00000000000E+00 -0.00000000000E+00 -0.19325025987E+04  0.19325025987E+04  0.00000000000E+00 0.  1.
    9000010    2    1    2  502    0 -0.47723160244E+03 -0.10445586576E+04 -0.18546831073E+03  0.15215591911E+04  0.98076046317E+03 0.  0.
   -9000010    2    1    2    0  501  0.47723160244E+03  0.10445586576E+04 -0.50981874201E+03  0.16481589536E+04  0.10666114546E+04 0.  0.
        -13    1    3    3    0    0 -0.12749041789E+03 -0.48502310554E+03 -0.56890806489E+03  0.75839146687E+03  0.10566000000E+00 0.  1.
          4    1    3    3  502    0 -0.34974118455E+03 -0.55953555205E+03  0.38343975416E+03  0.76316772419E+03  0.00000000000E+00 0.  1.
         13    1    4    4    0    0  0.19364020395E+02 -0.80906267460E+02 -0.42181405845E+03  0.42993941489E+03  0.10566000000E+00 0. -1.
         -4    1    4    4    0  501  0.45786758205E+03  0.11254649250E+04 -0.88004683555E+02  0.12182195387E+04  0.00000000000E+00 0. -1.
<mgrwt>
<rscale>  2 0.15385049E+04</rscale>
<asrwt>0</asrwt>
<pdfrwt beam="2">  1        1 0.29730809E+00 0.15385049E+04</pdfrwt>
<pdfrwt beam="1">  1       -1 0.19034085E+00 0.15385049E+04</pdfrwt>
<totfact> 0.65090098E-01</totfact>
</mgrwt>
</event>
<event>
 8    1  0.1449514E-005  0.1102323E+04  0.7818608E-02  0.8683985E-01
          2   -1    0    0  502    0  0.00000000000E+00  0.00000000000E+00  0.21938333910E+04  0.21938333910E+04  0.00000000000E+00 0.  1.
         -2   -1    0    0    0  501 -0.00000000000E+00 -0.00000000000E+00 -0.71140784820E+03  0.71140784820E+03  0.00000000000E+00 0. -1.
    9000010    2    1    2  502    0 -0.36869084509E+03 -0.27492524360E+02  0.14414877980E+04  0.18362847980E+04  0.10758094671E+04 0.  0.
   -9000010    2    1    2    0  501  0.36869084509E+03  0.27492524360E+02  0.40937744799E+02  0.10689564412E+04  0.10021492883E+04 0.  0.
        -13    1    3    3    0    0  0.37868960428E+03  0.59525422676E+02  0.53605574626E+03  0.65901810794E+03  0.10566000000E+00 0.  1.
          4    1    3    3  502    0 -0.74738044937E+03 -0.87017947036E+02  0.90543205175E+03  0.11772666901E+04  0.00000000000E+00 0.  1.
         13    1    4    4    0    0  0.24893939362E+03 -0.45159208003E+03 -0.15382071721E+03  0.53811434904E+03  0.10566000000E+00 0. -1.
         -4    1    4    4    0  501  0.11975145147E+03  0.47908460438E+03  0.19475846201E+03  0.53084209216E+03  0.00000000000E+00 0. -1.
<mgrwt>
<rscale>  2 0.11023229E+04</rscale>
<asrwt>0</asrwt>
<pdfrwt beam="1">  1        2 0.33751283E+00 0.11023229E+04</pdfrwt>
<pdfrwt beam="2">  1       -2 0.10944736E+00 0.11023229E+04</pdfrwt>
<totfact> 0.53122584E+00</totfact>
</mgrwt>
</event>
<event>
 8    1  0.1449514E-005  0.1083621E+04  0.7818608E-02  0.8699762E-01
          1   -1    0    0  502    0  0.00000000000E+00  0.00000000000E+00  0.12169895957E+04  0.12169895957E+04  0.00000000000E+00 0. -1.
         -1   -1    0    0    0  501 -0.00000000000E+00 -0.00000000000E+00 -0.10027847697E+04  0.10027847697E+04  0.00000000000E+00 0.  1.
    9000010    2    1    2  502    0  0.44080968121E+03  0.15080932860E+03  0.32385002058E+03  0.11509546097E+04  0.10013795729E+04 0.  0.
   -9000010    2    1    2    0  501 -0.44080968121E+03 -0.15080932860E+03 -0.10964519458E+03  0.10688197556E+04  0.95566572225E+03 0.  0.
        -13    1    3    3    0    0  0.23885539887E+03  0.53730178350E+03  0.39604864746E+03  0.70894262845E+03  0.10566000000E+00 0.  1.
          4    1    3    3  502    0  0.20195428234E+03 -0.38649245489E+03 -0.72198626881E+02  0.44201198125E+03  0.00000000000E+00 0.  1.
         13    1    4    4    0    0  0.13658549426E+03  0.26789722201E+03 -0.18269692745E+03  0.35185607464E+03  0.10566000000E+00 0. -1.
         -4    1    4    4    0  501 -0.57739517547E+03 -0.41870655061E+03  0.73051732864E+02  0.71696368098E+03  0.00000000000E+00 0. -1.
<mgrwt>
<rscale>  2 0.10836207E+04</rscale>
<asrwt>0</asrwt>
<pdfrwt beam="1">  1        1 0.18722917E+00 0.10836207E+04</pdfrwt>
<pdfrwt beam="2">  1       -1 0.15427458E+00 0.10836207E+04</pdfrwt>
<totfact> 0.48892859E+00</totfact>
</mgrwt>
</event>
<event>
 8    1  0.1449514E-005  0.1430085E+04  0.7818608E-02  0.8450907E-01
         -1   -1    0    0    0  501 -0.00000000000E+00  0.00000000000E+00  0.12547403436E+04  0.12547403436E+04  0.00000000000E+00 0. -1.
          1   -1    0    0  502    0  0.00000000000E+00 -0.00000000000E+00 -0.17555262469E+04  0.17555262469E+04  0.00000000000E+00 0.  1.
    9000010    2    1    2  502    0 -0.99421592831E+03  0.75920983315E+02 -0.65525399015E+03  0.15879236690E+04  0.10478141435E+04 0.  0.
   -9000010    2    1    2    0  501  0.99421592831E+03 -0.75920983315E+02  0.15446808682E+03  0.14223429215E+04  0.10024817647E+04 0.  0.
        -13    1    3    3    0    0 -0.71142070313E+02 -0.28478620340E+02 -0.65449364323E+03  0.65896446503E+03  0.10566000000E+00 0.  1.
          4    1    3    3  502    0 -0.92307385800E+03  0.10439960365E+03 -0.76034692198E+00  0.92895920400E+03  0.00000000000E+00 0.  1.
         13    1    4    4    0    0 -0.40620699576E+02  0.21647960477E+03  0.26124054917E+03  0.34170176501E+03  0.10566000000E+00 0. -1.
         -4    1    4    4    0  501  0.10348366279E+04 -0.29240058808E+03 -0.10677246236E+03  0.10806411565E+04  0.00000000000E+00 0. -1.
<mgrwt>
<rscale>  2 0.14300851E+04</rscale>
<asrwt>0</asrwt>
<pdfrwt beam="2">  1        1 0.27008096E+00 0.14300851E+04</pdfrwt>
<pdfrwt beam="1">  1       -1 0.19303698E+00 0.14300851E+04</pdfrwt>
<totfact> 0.84865454E-01</totfact>
</mgrwt>
</event>
<event>
 8    1  0.1449514E-005  0.1125584E+04  0.7818608E-02  0.8664810E-01
          2   -1    0    0  502    0  0.00000000000E+00  0.00000000000E+00  0.29165342484E+04  0.29165342484E+04  0.00000000000E+00 0. -1.
         -2   -1    0    0    0  501 -0.00000000000E+00 -0.00000000000E+00 -0.46307581044E+03  0.46307581044E+03  0.00000000000E+00 0.  1.
    9000010    2    1    2  502    0 -0.25089237372E+03 -0.46765144233E+03  0.16224442007E+04  0.19618363073E+04  0.96686692862E+03 0.  0.
   -9000010    2    1    2    0  501  0.25089237372E+03  0.46765144233E+03  0.83101423727E+03  0.14177737515E+04  0.10187506531E+04 0.  0.
        -13    1    3    3    0    0 -0.92816029054E+02 -0.44324736302E+03  0.17172108767E+04  0.17759212387E+04  0.10566000000E+00 0.  1.
          4    1    3    3  502    0 -0.15807634466E+03 -0.24404079311E+02 -0.94766676021E+02  0.18591506855E+03  0.00000000000E+00 0.  1.
         13    1    4    4    0    0 -0.25621853999E+03  0.54095268321E+03  0.26592566307E+03  0.65497649969E+03  0.10566000000E+00 0. -1.
         -4    1    4    4    0  501  0.50711091371E+03 -0.73301240878E+02  0.56508857420E+03  0.76279725183E+03  0.00000000000E+00 0. -1.
<mgrwt>
<rscale>  2 0.11255845E+04</rscale>
<asrwt>0</asrwt>
<pdfrwt beam="1">  1        2 0.44869756E+00 0.11255845E+04</pdfrwt>
<pdfrwt beam="2">  1       -2 0.71242434E-01 0.11255845E+04</pdfrwt>
<totfact> 0.54861719E+00</totfact>
</mgrwt>
</event>
<event>
 8    1  0.1449514E-005  0.1217341E+04  0.7818608E-02  0.8593617E-01
          1   -1    0    0  502    0  0.00000000000E+00  0.00000000000E+00  0.13224066758E+04  0.13224066758E+04  0.00000000000E+00 0.  1.
         -1   -1    0    0    0  501 -0.00000000000E+00 -0.00000000000E+00 -0.11346674327E+04  0.11346674327E+04  0.00000000000E+00 0. -1.
    9000010    2    1    2  502    0  0.92730837073E+02 -0.73267455254E+03 -0.43193816166E+02  0.12065069985E+04  0.95309098395E+03 0.  0.
   -9000010    2    1    2    0  501 -0.92730837073E+02  0.73267455254E+03  0.23093305924E+03  0.12505671099E+04  0.98243422704E+03 0.  0.
        -13    1    3    3    0    0 -0.32974524994E+03 -0.69685444200E+03  0.49428593371E+02  0.77251617472E+03  0.10566000000E+00 0.  1.
          4    1    3    3  502    0  0.42247608701E+03 -0.35820110537E+02 -0.92622409537E+02  0.43399082382E+03  0.00000000000E+00 0.  1.
         13    1    4    4    0    0  0.27289713718E+03  0.78311465635E+03  0.28912737957E+02  0.82980562185E+03  0.10566000000E+00 0. -1.
         -4    1    4    4    0  501 -0.36562797425E+03 -0.50440103814E+02  0.20202032128E+03  0.42076148806E+03  0.00000000000E+00 0. -1.
<mgrwt>
<rscale>  2 0.12173408E+04</rscale>
<asrwt>0</asrwt>
<pdfrwt beam="1">  1        1 0.20344718E+00 0.12173408E+04</pdfrwt>
<pdfrwt beam="2">  1       -1 0.17456422E+00 0.12173408E+04</pdfrwt>
<totfact> 0.26659315E+00</totfact>
</mgrwt>
</event>
<event>
 8    1  0.1449514E-005  0.1121332E+04  0.7818608E-02  0.8668279E-01
          2   -1    0    0  502    0  0.00000000000E+00  0.00000000000E+00  0.17273301721E+04  0.17273301721E+04  0.00000000000E+00 0. -1.
         -2   -1    0    0    0  501 -0.00000000000E+00 -0.00000000000E+00 -0.82370551076E+03  0.82370551076E+03  0.00000000000E+00 0.  1.
    9000010    2    1    2  502    0 -0.38740495078E+03  0.23647314732E+03  0.89336860057E+03  0.14497915452E+04  0.10477527966E+04 0.  0.
   -9000010    2    1    2    0  501  0.38740495078E+03 -0.23647314732E+03  0.10256060715E+02  0.11012441376E+04  0.10033101806E+04 0.  0.
        -13    1    3    3    0    0  0.63658114005E+01  0.55395812890E+03  0.73371837854E+03  0.91937631158E+03  0.10566000000E+00 0.  1.
          4    1    3    3  502    0 -0.39377076218E+03 -0.31748498158E+03  0.15965022204E+03  0.53041523364E+03  0.00000000000E+00 0.  1.
         13    1    4    4    0    0  0.18773442983E+03 -0.51754705845E+03  0.32083428261E+03  0.63720783259E+03  0.10566000000E+00 0. -1.
         -4    1    4    4    0  501  0.19967052095E+03  0.28107391113E+03 -0.31057822190E+03  0.46403630501E+03  0.00000000000E+00 0. -1.
<mgrwt>
<rscale>  2 0.11213318E+04</rscale>
<asrwt>0</asrwt>
<pdfrwt beam="1">  1        2 0.26574310E+00 0.11213318E+04</pdfrwt>
<pdfrwt beam="2">  1       -2 0.12672393E+00 0.11213318E+04</pdfrwt>
<totfact> 0.64851831E+00</totfact>
</mgrwt>
</event>
<event>
 8    1  0.1449514E-005  0.1111407E+04  0.7818608E-02  0.8676438E-01
         -2   -1    0    0    0  501 -0.00000000000E+00  0.00000000000E+00  0.36664257016E+03  0.36664257016E+03  0.00000000000E+00 0. -1.
          2   -1    0    0  502    0  0.00000000000E+00 -0.00000000000E+00 -0.34246784285E+04  0.34246784285E+04  0.00000000000E+00 0.  1.
    9000010    2    1    2  502    0  0.46395958200E+03 -0.70141542907E+02 -0.17661822575E+04  0.20850316997E+04  0.10038820113E+04 0.  0.
   -9000010    2    1    2    0  501 -0.46395958200E+03  0.70141542907E+02 -0.12918536008E+04  0.17062892989E+04  0.10111177556E+04 0.  0.
        -13    1    3    3    0    0  0.24990836662E+03  0.30639981798E+03 -0.16870830825E+03  0.42988084931E+03  0.10566000000E+00 0.  1.
          4    1    3    3  502    0  0.21405121538E+03 -0.37654136089E+03 -0.15974739492E+04  0.16551508504E+04  0.00000000000E+00 0.  1.
         13    1    4    4    0    0  0.28202635407E+03 -0.15017013420E+03 -0.24784248586E+03  0.40437092200E+03  0.10566000000E+00 0. -1.
         -4    1    4    4    0  501 -0.74598593607E+03  0.22031167711E+03 -0.10440111150E+04  0.13019183769E+04  0.00000000000E+00 0. -1.
<mgrwt>
<rscale>  2 0.11114072E+04</rscale>
<asrwt>0</asrwt>
<pdfrwt beam="2">  1        2 0.52687364E+00 0.11114072E+04</pdfrwt>
<pdfrwt beam="1">  1       -2 0.56406546E-01 0.11114072E+04</pdfrwt>
<totfact> 0.41537137E+00</totfact>
</mgrwt>
</event>
<event>
 8    1  0.1449514E-005  0.1080531E+04  0.7818608E-02  0.8702401E-01
         -1   -1    0    0    0  501 -0.00000000000E+00  0.00000000000E+00  0.47827092660E+03  0.47827092660E+03  0.00000000000E+00 0.  1.
          1   -1    0    0  502    0  0.00000000000E+00 -0.00000000000E+00 -0.27758554586E+04  0.27758554586E+04  0.00000000000E+00 0. -1.
    9000010    2    1    2  502    0 -0.22111252691E+03 -0.35331630497E+03 -0.17124636133E+04  0.20241349452E+04  0.99542327100E+03 0.  0.
   -9000010    2    1    2    0  501  0.22111252691E+03  0.35331630497E+03 -0.58512091864E+03  0.12299914400E+04  0.99839335539E+03 0.  0.
        -13    1    3    3    0    0 -0.37123678764E+03 -0.64845249703E+03 -0.11492848962E+04  0.13708257283E+04  0.10566000000E+00 0.  1.
          4    1    3    3  502    0  0.15012426074E+03  0.29513619206E+03 -0.56317871707E+03  0.65330921690E+03  0.00000000000E+00 0.  1.
         13    1    4    4    0    0 -0.31141394415E+03 -0.67057195122E+02 -0.42808294664E+03  0.53360128597E+03  0.10566000000E+00 0. -1.
         -4    1    4    4    0  501  0.53252647105E+03  0.42037350009E+03 -0.15703797201E+03  0.69639015401E+03  0.00000000000E+00 0. -1.
<mgrwt>
<rscale>  2 0.10805313E+04</rscale>
<asrwt>0</asrwt>
<pdfrwt beam="2">  1        1 0.42705469E+00 0.10805313E+04</pdfrwt>
<pdfrwt beam="1">  1       -1 0.73580142E-01 0.10805313E+04</pdfrwt>
<totfact> 0.15156071E+00</totfact>
</mgrwt>
</event>
<event>
 8    1  0.1449514E-005  0.1067317E+04  0.7818608E-02  0.8713790E-01
         -2   -1    0    0    0  501 -0.00000000000E+00  0.00000000000E+00  0.26727939693E+03  0.26727939693E+03  0.00000000000E+00 0.  1.
          2   -1    0    0  502    0  0.00000000000E+00 -0.00000000000E+00 -0.42640912113E+04  0.42640912113E+04  0.00000000000E+00 0. -1.
    9000010    2    1    2  502    0 -0.24890937877E+03  0.26600322949E+03 -0.19706151576E+04  0.22455420438E+04  0.10131245601E+04 0.  0.
   -9000010    2    1    2    0  501  0.24890937877E+03 -0.26600322949E+03 -0.20261966568E+04  0.22858285645E+04  0.99339102931E+03 0.  0.
        -13    1    3    3    0    0 -0.50884533688E+03  0.84316995905E+02 -0.18251575994E+04  0.18966373419E+04  0.10566000000E+00 0.  1.
          4    1    3    3  502    0  0.25993595811E+03  0.18168623359E+03 -0.14545755816E+03  0.34890470192E+03  0.00000000000E+00 0.  1.
         13    1    4    4    0    0  0.49776124231E+03  0.13665449683E+03 -0.64708108760E+03  0.82774069064E+03  0.10566000000E+00 0. -1.
         -4    1    4    4    0  501 -0.24885186354E+03 -0.40265772632E+03 -0.13791155692E+04  0.14580878738E+04  0.00000000000E+00 0. -1.
<mgrwt>
<rscale>  2 0.10673168E+04</rscale>
<asrwt>0</asrwt>
<pdfrwt beam="2">  1        2 0.65601402E+00 0.10673168E+04</pdfrwt>
<pdfrwt beam="1">  1       -2 0.41119908E-01 0.10673168E+04</pdfrwt>
<totfact> 0.15213171E+00</totfact>
</mgrwt>
</event>
<event>
 8    1  0.1449514E-005  0.1615506E+04  0.7818608E-02  0.8345960E-01
          2   -1    0    0  502    0  0.00000000000E+00  0.00000000000E+00  0.18988462951E+04  0.18988462951E+04  0.00000000000E+00 0. -1.
         -2   -1    0    0    0  501 -0.00000000000E+00 -0.00000000000E+00 -0.16212413085E+04  0.16212413085E+04  0.00000000000E+00 0.  1.
    9000010    2    1    2  502    0  0.11135892198E+04 -0.61292278520E+03  0.82553469098E+03  0.18145775457E+04  0.99771180823E+03 0.  0.
   -9000010    2    1    2    0  501 -0.11135892198E+04  0.61292278520E+03 -0.54792970441E+03  0.17055100578E+04  0.99638461715E+03 0.  0.
        -13    1    3    3    0    0 -0.15695180976E+03  0.11886066072E+02  0.22969444292E+03  0.27845052958E+03  0.10566000000E+00 0.  1.
          4    1    3    3  502    0  0.12705410296E+04 -0.62480885127E+03  0.59584024806E+03  0.15361270161E+04  0.00000000000E+00 0.  1.
         13    1    4    4    0    0 -0.27922529452E+03  0.16882878168E+03  0.29438050712E+03  0.43946537606E+03  0.10566000000E+00 0. -1.
         -4    1    4    4    0  501 -0.83436392531E+03  0.44409400352E+03 -0.84231021153E+03  0.12660446818E+04  0.00000000000E+00 0. -1.
<mgrwt>
<rscale>  2 0.16155063E+04</rscale>
<asrwt>0</asrwt>
<pdfrwt beam="1">  1        2 0.29213020E+00 0.16155063E+04</pdfrwt>
<pdfrwt beam="2">  1       -2 0.24942174E+00 0.16155063E+04</pdfrwt>
<totfact> 0.46042822E-01</totfact>
</mgrwt>
</event>
<event>
 8    1  0.1449514E-005  0.1227727E+04  0.7818608E-02  0.8585970E-01
          5   -1    0    0  502    0  0.00000000000E+00  0.00000000000E+00  0.16703625492E+04  0.16703625492E+04  0.00000000000E+00 0.  1.
         -5   -1    0    0    0  501 -0.00000000000E+00 -0.00000000000E+00 -0.92820626137E+03  0.92820626137E+03  0.00000000000E+00 0. -1.
    9000010    2    1    2  502    0 -0.69576638798E+03 -0.79563557511E+02  0.15386257400E+03  0.12355472616E+04  0.10062217040E+04 0.  0.
   -9000010    2    1    2    0  501  0.69576638798E+03  0.79563557511E+02  0.58829371387E+03  0.13630215490E+04  0.10106023070E+04 0.  0.
        -13    1    3    3    0    0 -0.40282026488E+03 -0.49262754349E+03  0.30694920255E+03  0.70651531230E+03  0.10566000000E+00 0.  1.
          4    1    3    3  502    0 -0.29294612310E+03  0.41306398598E+03 -0.15308662855E+03  0.52903194931E+03  0.00000000000E+00 0.  1.
         13    1    4    4    0    0  0.41551212958E+03  0.36371496619E+03  0.75087809439E+03  0.93207125814E+03  0.10566000000E+00 0. -1.
         -4    1    4    4    0  501  0.28025425840E+03 -0.28415140868E+03 -0.16258438052E+03  0.43095029086E+03  0.00000000000E+00 0. -1.
<mgrwt>
<rscale>  2 0.12277273E+04</rscale>
<asrwt>0</asrwt>
<pdfrwt beam="1">  1        5 0.25697885E+00 0.12277273E+04</pdfrwt>
<pdfrwt beam="2">  1       -5 0.14280096E+00 0.12277273E+04</pdfrwt>
<totfact> 0.43076572E-03</totfact>
</mgrwt>
</event>
<event>
 8    1  0.1449514E-005  0.1447512E+04  0.7818608E-02  0.8440362E-01
         -2   -1    0    0    0  501 -0.00000000000E+00  0.00000000000E+00  0.17783787367E+04  0.17783787367E+04  0.00000000000E+00 0. -1.
          2   -1    0    0  502    0  0.00000000000E+00 -0.00000000000E+00 -0.13484412766E+04  0.13484412766E+04  0.00000000000E+00 0.  1.
    9000010    2    1    2  502    0 -0.59496190803E+03 -0.86604661079E+03 -0.34071516245E+03  0.14856954875E+04  0.99357327646E+03 0.  0.
   -9000010    2    1    2    0  501  0.59496190803E+03  0.86604661079E+03  0.77065262251E+03  0.16411245257E+04  0.99768123182E+03 0.  0.
        -13    1    3    3    0    0 -0.18179638813E+03  0.44953284706E+02 -0.44222654476E+03  0.48024478404E+03  0.10566000000E+00 0.  1.
          4    1    3    3  502    0 -0.41316551989E+03 -0.91099989550E+03  0.10151138230E+03  0.10054507035E+04  0.00000000000E+00 0.  1.
         13    1    4    4    0    0 -0.82100368547E+02  0.66502391564E+03  0.63254883876E+03  0.92147453761E+03  0.10566000000E+00 0. -1.
         -4    1    4    4    0  501  0.67706227657E+03  0.20102269515E+03  0.13810378375E+03  0.71964998813E+03  0.00000000000E+00 0. -1.
<mgrwt>
<rscale>  2 0.14475117E+04</rscale>
<asrwt>0</asrwt>
<pdfrwt beam="2">  1        2 0.20745251E+00 0.14475117E+04</pdfrwt>
<pdfrwt beam="1">  1       -2 0.27359673E+00 0.14475117E+04</pdfrwt>
<totfact> 0.61269629E-01</totfact>
</mgrwt>
</event>
<event>
 8    1  0.1449514E-005  0.1155947E+04  0.7818608E-02  0.8640495E-01
         -2   -1    0    0    0  501 -0.00000000000E+00  0.00000000000E+00  0.71451694390E+03  0.71451694390E+03  0.00000000000E+00 0. -1.
          2   -1    0    0  502    0  0.00000000000E+00 -0.00000000000E+00 -0.21591518134E+04  0.21591518134E+04  0.00000000000E+00 0.  1.
    9000010    2    1    2  502    0 -0.28960376576E+03 -0.47372728157E+03 -0.12526150081E+04  0.17103800886E+04  0.10237518305E+04 0.  0.
   -9000010    2    1    2    0  501  0.28960376576E+03  0.47372728157E+03 -0.19201986145E+03  0.11632886688E+04  0.10040323806E+04 0.  0.
        -13    1    3    3    0    0 -0.11938762614E+03  0.30231117588E+02 -0.11647511830E+04  0.11712440631E+04  0.10566000000E+00 0.  1.
          4    1    3    3  502    0 -0.17021613962E+03 -0.50395839916E+03 -0.87863825065E+02  0.53913602553E+03  0.00000000000E+00 0.  1.
         13    1    4    4    0    0 -0.11719049173E+03  0.67876219829E+03 -0.74445448467E+02  0.69281589845E+03  0.10566000000E+00 0. -1.
         -4    1    4    4    0  501  0.40679425749E+03 -0.20503491673E+03 -0.11757441298E+03  0.47047277030E+03  0.00000000000E+00 0. -1.
<mgrwt>
<rscale>  2 0.11559467E+04</rscale>
<asrwt>0</asrwt>
<pdfrwt beam="2">  1        2 0.33217720E+00 0.11559467E+04</pdfrwt>
<pdfrwt beam="1">  1       -2 0.10992569E+00 0.11559467E+04</pdfrwt>
<totfact> 0.54538529E+00</totfact>
</mgrwt>
</event>
<event>
 8    1  0.1449514E-005  0.1297452E+04  0.7818608E-02  0.8536582E-01
          1   -1    0    0  502    0  0.00000000000E+00  0.00000000000E+00  0.12319526771E+04  0.12319526771E+04  0.00000000000E+00 0. -1.
         -1   -1    0    0    0  501 -0.00000000000E+00 -0.00000000000E+00 -0.15528056305E+04  0.15528056305E+04  0.00000000000E+00 0.  1.
    9000010    2    1    2  502    0  0.79468858890E+03  0.24468751947E+03 -0.64317910422E+03  0.14513322543E+04  0.10006418025E+04 0.  0.
   -9000010    2    1    2    0  501 -0.79468858890E+03 -0.24468751947E+03  0.32232615087E+03  0.13334260533E+04  0.99132686664E+03 0.  0.
        -13    1    3    3    0    0  0.31036362498E+03  0.57139636489E+03 -0.56593013118E+03  0.86203034173E+03  0.10566000000E+00 0.  1.
          4    1    3    3  502    0  0.48432496392E+03 -0.32670884542E+03 -0.77248973035E+02  0.58930191260E+03  0.00000000000E+00 0.  1.
         13    1    4    4    0    0 -0.70099830775E+03 -0.22767571273E+03  0.65583653144E+03  0.98658827521E+03  0.10566000000E+00 0. -1.
         -4    1    4    4    0  501 -0.93690281153E+02 -0.17011806738E+02 -0.33351038057E+03  0.34683777807E+03  0.00000000000E+00 0. -1.
<mgrwt>
<rscale>  2 0.12974524E+04</rscale>
<asrwt>0</asrwt>
<pdfrwt beam="1">  1        1 0.18953118E+00 0.12974524E+04</pdfrwt>
<pdfrwt beam="2">  1       -1 0.23889317E+00 0.12974524E+04</pdfrwt>
<totfact> 0.80618684E-01</totfact>
</mgrwt>
</event>
<event>
 8    1  0.1449514E-005  0.1352641E+04  0.7818608E-02  0.8499708E-01
         -2   -1    0    0    0  501 -0.00000000000E+00  0.00000000000E+00  0.86293805082E+03  0.86293805082E+03  0.00000000000E+00 0.  1.
          2   -1    0    0  502    0  0.00000000000E+00 -0.00000000000E+00 -0.25300544637E+04  0.25300544637E+04  0.00000000000E+00 0. -1.
    9000010    2    1    2  502    0 -0.78821969087E+03  0.43681511258E+03 -0.15157628609E+04  0.20308059363E+04  0.10072427596E+04 0.  0.
   -9000010    2    1    2    0  501  0.78821969087E+03 -0.43681511258E+03 -0.15135355199E+03  0.13621865782E+04  0.10102210909E+04 0.  0.
        -13    1    3    3    0    0 -0.69130282951E+03 -0.46792473569E+02 -0.13375700225E+04  0.15063806671E+04  0.10566000000E+00 0.  1.
          4    1    3    3  502    0 -0.96916861352E+02  0.48360758615E+03 -0.17819283832E+03  0.52442526925E+03  0.00000000000E+00 0.  1.
         13    1    4    4    0    0  0.32375411125E+03 -0.43725167870E+03 -0.53254739439E+03  0.76132285760E+03  0.10566000000E+00 0. -1.
         -4    1    4    4    0  501  0.46446557962E+03  0.43656611734E+00  0.38119384240E+03  0.60086372059E+03  0.00000000000E+00 0. -1.
<mgrwt>
<rscale>  2 0.13526410E+04</rscale>
<asrwt>0</asrwt>
<pdfrwt beam="2">  1        2 0.38923914E+00 0.13526410E+04</pdfrwt>
<pdfrwt beam="1">  1       -2 0.13275970E+00 0.13526410E+04</pdfrwt>
<totfact> 0.20145799E+00</totfact>
</mgrwt>
</event>
<event>
 8    1  0.1449514E-005  0.1442913E+04  0.7818608E-02  0.8443131E-01
          2   -1    0    0  502    0  0.00000000000E+00  0.00000000000E+00  0.22729623749E+04  0.22729623749E+04  0.00000000000E+00 0. -1.
         -2   -1    0    0    0  501 -0.00000000000E+00 -0.00000000000E+00 -0.11387799429E+04  0.11387799429E+04  0.00000000000E+00 0.  1.
    9000010    2    1    2  502    0  0.82512236143E+03  0.61543485790E+03 -0.18247137529E+03  0.14694559336E+04  0.10326751486E+04 0.  0.
   -9000010    2    1    2    0  501 -0.82512236143E+03 -0.61543485790E+03  0.13166538073E+04  0.19422863842E+04  0.98960202831E+03 0.  0.
        -13    1    3    3    0    0  0.11342688951E+03 -0.11656332500E+03  0.29923147840E+03  0.34057621295E+03  0.10566000000E+00 0.  1.
          4    1    3    3  502    0  0.71169547192E+03  0.73199818290E+03 -0.48170285369E+03  0.11288797207E+04  0.00000000000E+00 0.  1.
         13    1    4    4    0    0 -0.10269710541E+02 -0.27276540389E+03 -0.84370552711E+02  0.28570060175E+03  0.10566000000E+00 0. -1.
         -4    1    4    4    0  501 -0.81485265089E+03 -0.34266945401E+03  0.14010243600E+04  0.16565857825E+04  0.00000000000E+00 0. -1.
<mgrwt>
<rscale>  2 0.14429125E+04</rscale>
<asrwt>0</asrwt>
<pdfrwt beam="1">  1        2 0.34968652E+00 0.14429125E+04</pdfrwt>
<pdfrwt beam="2">  1       -2 0.17519691E+00 0.14429125E+04</pdfrwt>
<totfact> 0.11759131E+00</totfact>
</mgrwt>
</event>
<event>
 8    1  0.1449514E-005  0.1028098E+04  0.7818608E-02  0.8748631E-01
         -2   -1    0    0    0  501 -0.00000000000E+00  0.00000000000E+00  0.64787441374E+03  0.64787441374E+03  0.00000000000E+00 0. -1.
          2   -1    0    0  502    0  0.00000000000E+00 -0.00000000000E+00 -0.16798084414E+04  0.16798084414E+04  0.00000000000E+00 0.  1.
    9000010    2    1    2  502    0  0.40139339661E+03 -0.16119141338E+03 -0.30229493108E+03  0.10243333176E+04  0.87793917194E+03 0.  0.
   -9000010    2    1    2    0  501 -0.40139339661E+03  0.16119141338E+03 -0.72963909657E+03  0.13033495375E+04  0.98956933819E+03 0.  0.
        -13    1    3    3    0    0 -0.25307473115E+03 -0.16122190964E+03  0.76929000713E+01  0.30016414771E+03  0.10566000000E+00 0.  1.
          4    1    3    3  502    0  0.65446812776E+03  0.30496259421E-01 -0.30998783115E+03  0.72416916991E+03  0.00000000000E+00 0.  1.
         13    1    4    4    0    0 -0.19488121067E+03 -0.41937268145E+03 -0.34499747092E+03  0.57695354954E+03  0.10566000000E+00 0. -1.
         -4    1    4    4    0  501 -0.20651218594E+03  0.58056409484E+03 -0.38464162565E+03  0.72639598797E+03  0.00000000000E+00 0. -1.
<mgrwt>
<rscale>  2 0.10280975E+04</rscale>
<asrwt>0</asrwt>
<pdfrwt beam="2">  1        2 0.25843207E+00 0.10280975E+04</pdfrwt>
<pdfrwt beam="1">  1       -2 0.99672987E-01 0.10280975E+04</pdfrwt>
<totfact> 0.12817158E+01</totfact>
</mgrwt>
</event>
<event>
 8    1  0.1449514E-005  0.1054278E+04  0.7818608E-02  0.8725199E-01
         -1   -1    0    0    0  501 -0.00000000000E+00  0.00000000000E+00  0.64385102560E+03  0.64385102560E+03  0.00000000000E+00 0. -1.
          1   -1    0    0  502    0  0.00000000000E+00 -0.00000000000E+00 -0.19240013411E+04  0.19240013411E+04  0.00000000000E+00 0.  1.
    9000010    2    1    2  502    0  0.29243792454E+03  0.17134133850E+03 -0.10560831777E+04  0.14982557555E+04  0.10072640353E+04 0.  0.
   -9000010    2    1    2    0  501 -0.29243792454E+03 -0.17134133850E+03 -0.22406713787E+03  0.10695966112E+04  0.98942055493E+03 0.  0.
        -13    1    3    3    0    0  0.59029016503E+02  0.42317795070E+03 -0.10725178595E+04  0.11544949428E+04  0.10566000000E+00 0.  1.
          4    1    3    3  502    0  0.23340890804E+03 -0.25183661220E+03  0.16434681853E+02  0.34376081272E+03  0.00000000000E+00 0.  1.
         13    1    4    4    0    0 -0.21974400991E+03  0.40103096880E+03 -0.17827991490E+03  0.49081259870E+03  0.10566000000E+00 0. -1.
         -4    1    4    4    0  501 -0.72693914627E+02 -0.57237230729E+03 -0.45787222968E+02  0.57878401254E+03  0.00000000000E+00 0. -1.
<mgrwt>
<rscale>  2 0.10542779E+04</rscale>
<asrwt>0</asrwt>
<pdfrwt beam="2">  1        1 0.29600020E+00 0.10542779E+04</pdfrwt>
<pdfrwt beam="1">  1       -1 0.99054005E-01 0.10542779E+04</pdfrwt>
<totfact> 0.44888754E+00</totfact>
</mgrwt>
</event>
<event>
 8    1  0.1449514E-005  0.1323911E+04  0.7818608E-02  0.8518673E-01
          1   -1    0    0  502    0  0.00000000000E+00  0.00000000000E+00  0.93180531345E+03  0.93180531345E+03  0.00000000000E+00 0.  1.
         -1   -1    0    0    0  501 -0.00000000000E+00 -0.00000000000E+00 -0.20838349822E+04  0.20838349822E+04  0.00000000000E+00 0. -1.
    9000010    2    1    2  502    0  0.20665115899E+03 -0.84242537910E+03 -0.10453293651E+04  0.16846886223E+04  0.99653251414E+03 0.  0.
   -9000010    2    1    2    0  501 -0.20665115899E+03  0.84242537910E+03 -0.10670030368E+03  0.13309516734E+04  0.10038237799E+04 0.  0.
        -13    1    3    3    0    0  0.12901281873E+03 -0.55933280598E+03 -0.12163252000E+04  0.13449700735E+04  0.10566000000E+00 0.  1.
          4    1    3    3  502    0  0.77638340253E+02 -0.28309257312E+03  0.17099583494E+03  0.33971854880E+03  0.00000000000E+00 0.  1.
         13    1    4    4    0    0 -0.56183328988E+03  0.22249284343E+03  0.23369766026E+02  0.60473619713E+03  0.10566000000E+00 0. -1.
         -4    1    4    4    0  501  0.35518213089E+03  0.61993253567E+03 -0.13007006971E+03  0.72621547623E+03  0.00000000000E+00 0. -1.
<mgrwt>
<rscale>  2 0.13239107E+04</rscale>
<asrwt>0</asrwt>
<pdfrwt beam="1">  1        1 0.14335467E+00 0.13239107E+04</pdfrwt>
<pdfrwt beam="2">  1       -1 0.32058999E+00 0.13239107E+04</pdfrwt>
<totfact> 0.25875615E-01</totfact>
</mgrwt>
</event>
<event>
 8    1  0.1449514E-005  0.1273320E+04  0.7818608E-02  0.8553306E-01
          4   -1    0    0  502    0  0.00000000000E+00  0.00000000000E+00  0.17890642422E+04  0.17890642422E+04  0.00000000000E+00 0.  1.
         -4   -1    0    0    0  501 -0.00000000000E+00 -0.00000000000E+00 -0.97077019593E+03  0.97077019593E+03  0.00000000000E+00 0. -1.
    9000010    2    1    2  502    0  0.54969811411E+03  0.56675601961E+03  0.76479479815E+03  0.14850755859E+04  0.99857799405E+03 0.  0.
   -9000010    2    1    2    0  501 -0.54969811411E+03 -0.56675601961E+03  0.53499248115E+02  0.12747588522E+04  0.99938358968E+03 0.  0.
        -13    1    3    3    0    0 -0.12374954637E+03  0.11016467484E+03 -0.17568653579E+03  0.24148700965E+03  0.10566000000E+00 0.  1.
          4    1    3    3  502    0  0.67344766048E+03  0.45659134477E+03  0.94048133394E+03  0.12435885763E+04  0.00000000000E+00 0.  1.
         13    1    4    4    0    0 -0.49211015231E+03  0.15376483492E+03  0.16943657503E+03  0.54270138252E+03  0.10566000000E+00 0. -1.
         -4    1    4    4    0  501 -0.57587961796E+02 -0.72052085453E+03 -0.11593732692E+03  0.73205746969E+03  0.00000000000E+00 0. -1.
<mgrwt>
<rscale>  2 0.12733197E+04</rscale>
<asrwt>0</asrwt>
<pdfrwt beam="1">  1        4 0.27524065E+00 0.12733197E+04</pdfrwt>
<pdfrwt beam="2">  1       -4 0.14934926E+00 0.12733197E+04</pdfrwt>
<totfact> 0.17632734E-01</totfact>
</mgrwt>
</event>
<event>
 8    1  0.1449514E-005  0.1077447E+04  0.7818608E-02  0.8705044E-01
          2   -1    0    0  502    0  0.00000000000E+00  0.00000000000E+00  0.22710346441E+04  0.22710346441E+04  0.00000000000E+00 0.  1.
         -2   -1    0    0    0  501 -0.00000000000E+00 -0.00000000000E+00 -0.52358566211E+03  0.52358566211E+03  0.00000000000E+00 0. -1.
    9000010    2    1    2  502    0  0.22817460895E+02 -0.42963189086E+03  0.65174701746E+03  0.12515398561E+04  0.97799470264E+03 0.  0.
   -9000010    2    1    2    0  501 -0.22817460895E+02  0.42963189086E+03  0.10957019645E+04  0.15430804501E+04  0.99771252491E+03 0.  0.
        -13    1    3    3    0    0  0.49561106606E+03 -0.15121604102E+03  0.35080451060E+03  0.62574790106E+03  0.10566000000E+00 0.  1.
          4    1    3    3  502    0 -0.47279360516E+03 -0.27841584984E+03  0.30094250686E+03  0.62579195501E+03  0.00000000000E+00 0.  1.
         13    1    4    4    0    0  0.24526264886E+03  0.22876760957E+03  0.11551577019E+04  0.12028623003E+04  0.10566000000E+00 0. -1.
         -4    1    4    4    0  501 -0.26808010976E+03  0.20086428128E+03 -0.59455737389E+02  0.34021814980E+03  0.00000000000E+00 0. -1.
<mgrwt>
<rscale>  2 0.10774473E+04</rscale>
<asrwt>0</asrwt>
<pdfrwt beam="1">  1        2 0.34938994E+00 0.10774473E+04</pdfrwt>
<pdfrwt beam="2">  1       -2 0.80551642E-01 0.10774473E+04</pdfrwt>
<totfact> 0.99150715E+00</totfact>
</mgrwt>
</event>
<event>
 8    1  0.1449514E-005  0.1304911E+04  0.7818608E-02  0.8531489E-01
          1   -1    0    0  502    0  0.00000000000E+00  0.00000000000E+00  0.15848933488E+04  0.15848933488E+04  0.00000000000E+00 0.  1.
         -1   -1    0    0    0  501 -0.00000000000E+00 -0.00000000000E+00 -0.11589385059E+04  0.11589385059E+04  0.00000000000E+00 0. -1.
    9000010    2    1    2  502    0 -0.46561868989E+03 -0.69062497946E+03  0.58055361546E+03  0.14129188979E+04  0.98261573612E+03 0.  0.
   -9000010    2    1    2    0  501  0.46561868989E+03  0.69062497946E+03 -0.15459877252E+03  0.13309129569E+04  0.10264818029E+04 0.  0.
        -13    1    3    3    0    0 -0.10243516769E+03  0.20600959980E+03 -0.77669010848E+02  0.24282793331E+03  0.10566000000E+00 0.  1.
          4    1    3    3  502    0 -0.36318352220E+03 -0.89663457926E+03  0.65822262631E+03  0.11700909645E+04  0.00000000000E+00 0.  1.
         13    1    4    4    0    0  0.72046580469E+03  0.52220067810E+03 -0.36312335167E+03  0.96105312217E+03  0.10566000000E+00 0. -1.
         -4    1    4    4    0  501 -0.25484711480E+03  0.16842430136E+03  0.20852457914E+03  0.36985983469E+03  0.00000000000E+00 0. -1.
<mgrwt>
<rscale>  2 0.13049110E+04</rscale>
<asrwt>0</asrwt>
<pdfrwt beam="1">  1        1 0.24382975E+00 0.13049110E+04</pdfrwt>
<pdfrwt beam="2">  1       -1 0.17829823E+00 0.13049110E+04</pdfrwt>
<totfact> 0.15573677E+00</totfact>
</mgrwt>
</event>
<event>
 8    1  0.1449514E-005  0.1693724E+04  0.7818608E-02  0.8305973E-01
         -2   -1    0    0    0  501 -0.00000000000E+00  0.00000000000E+00  0.15418664311E+04  0.15418664311E+04  0.00000000000E+00 0. -1.
          2   -1    0    0  502    0  0.00000000000E+00 -0.00000000000E+00 -0.20951882952E+04  0.20951882952E+04  0.00000000000E+00 0.  1.
    9000010    2    1    2  502    0  0.87468275289E+03  0.10471869943E+04  0.33243845190E+03  0.17224517758E+04  0.99732355658E+03 0.  0.
   -9000010    2    1    2    0  501 -0.87468275289E+03 -0.10471869943E+04 -0.88576031605E+03  0.19146029505E+04  0.10096844067E+04 0.  0.
        -13    1    3    3    0    0  0.75869139355E+03  0.77327282308E+03 -0.21030751229E+03  0.11035364745E+04  0.10566000000E+00 0.  1.
          4    1    3    3  502    0  0.11599135934E+03  0.27391417125E+03  0.54274596419E+03  0.61891530139E+03  0.00000000000E+00 0.  1.
         13    1    4    4    0    0  0.20326886707E+03 -0.28942945611E+03 -0.33280212624E+03  0.48563866071E+03  0.10566000000E+00 0. -1.
         -4    1    4    4    0  501 -0.10779516200E+04 -0.75775753822E+03 -0.55295818981E+03  0.14289642898E+04  0.00000000000E+00 0. -1.
<mgrwt>
<rscale>  2 0.16937243E+04</rscale>
<asrwt>0</asrwt>
<pdfrwt beam="2">  1        2 0.32233666E+00 0.16937243E+04</pdfrwt>
<pdfrwt beam="1">  1       -2 0.23721022E+00 0.16937243E+04</pdfrwt>
<totfact> 0.44429913E-01</totfact>
</mgrwt>
</event>
<event>
 8    1  0.1449514E-005  0.1097415E+04  0.7818608E-02  0.8688094E-01
          2   -1    0    0  502    0  0.00000000000E+00  0.00000000000E+00  0.89679723978E+03  0.89679723978E+03  0.00000000000E+00 0. -1.
         -2   -1    0    0    0  501 -0.00000000000E+00 -0.00000000000E+00 -0.13747620630E+04  0.13747620630E+04  0.00000000000E+00 0.  1.
    9000010    2    1    2  502    0 -0.22728090879E+03 -0.44960408903E+03 -0.41541937448E+03  0.12097820540E+04  0.10184296309E+04 0.  0.
   -9000010    2    1    2    0  501  0.22728090879E+03  0.44960408903E+03 -0.62545448730E+02  0.10617772488E+04  0.93255484800E+03 0.  0.
        -13    1    3    3    0    0 -0.42070653219E+03 -0.27395982059E+03  0.20060629622E+03  0.54063931301E+03  0.10566000000E+00 0.  1.
          4    1    3    3  502    0  0.19342562340E+03 -0.17564426844E+03 -0.61602567070E+03  0.66914274096E+03  0.00000000000E+00 0.  1.
         13    1    4    4    0    0 -0.19126183234E+03 -0.10769112067E+03 -0.25721499792E+03  0.33813907243E+03  0.10566000000E+00 0. -1.
         -4    1    4    4    0  501  0.41854274113E+03  0.55729520971E+03  0.19466954919E+03  0.72363817637E+03  0.00000000000E+00 0. -1.
<mgrwt>
<rscale>  2 0.10974148E+04</rscale>
<asrwt>0</asrwt>
<pdfrwt beam="1">  1        2 0.13796881E+00 0.10974148E+04</pdfrwt>
<pdfrwt beam="2">  1       -2 0.21150185E+00 0.10974148E+04</pdfrwt>
<totfact> 0.36107900E+00</totfact>
</mgrwt>
</event>
<event>
 8    1  0.1449514E-005  0.1313080E+04  0.7818608E-02  0.8525952E-01
          1   -1    0    0  502    0  0.00000000000E+00  0.00000000000E+00  0.47644314415E+03  0.47644314415E+03  0.00000000000E+00 0.  1.
         -1   -1    0    0    0  501 -0.00000000000E+00 -0.00000000000E+00 -0.36563040467E+04  0.36563040467E+04  0.00000000000E+00 0. -1.
    9000010    2    1    2  502    0  0.65339959010E+03 -0.63216745397E+03 -0.14487381054E+04  0.19869333311E+04  0.10111850719E+04 0.  0.
   -9000010    2    1    2    0  501 -0.65339959010E+03  0.63216745397E+03 -0.17311227971E+04  0.21458138598E+04  0.88383497781E+03 0.  0.
        -13    1    3    3    0    0  0.53564784906E+03 -0.79979220141E+03 -0.14938970362E+04  0.17771647502E+04  0.10566000000E+00 0.  1.
          4    1    3    3  502    0  0.11775174104E+03  0.16762474744E+03  0.45158930726E+02  0.20976858082E+03  0.00000000000E+00 0.  1.
         13    1    4    4    0    0  0.45995233432E+02  0.10240191475E+03 -0.99275877635E+03  0.99908543821E+03  0.10566000000E+00 0. -1.
         -4    1    4    4    0  501 -0.69939482353E+03  0.52976553922E+03 -0.73836402075E+03  0.11467284216E+04  0.00000000000E+00 0. -1.
<mgrwt>
<rscale>  2 0.13130801E+04</rscale>
<asrwt>0</asrwt>
<pdfrwt beam="1">  1        1 0.73298943E-01 0.13130801E+04</pdfrwt>
<pdfrwt beam="2">  1       -1 0.56250834E+00 0.13130801E+04</pdfrwt>
<totfact> 0.30962399E-01</totfact>
</mgrwt>
</event>
<event>
 8    1  0.1449514E-005  0.1055266E+04  0.7818608E-02  0.8724329E-01
          2   -1    0    0  502    0  0.00000000000E+00  0.00000000000E+00  0.14658759991E+04  0.14658759991E+04  0.00000000000E+00 0. -1.
         -2   -1    0    0    0  501 -0.00000000000E+00 -0.00000000000E+00 -0.84739823777E+03  0.84739823777E+03  0.00000000000E+00 0.  1.
    9000010    2    1    2  502    0  0.52201306624E+02 -0.54468958381E+03  0.69213025520E+03  0.13300249463E+04  0.99524386389E+03 0.  0.
   -9000010    2    1    2    0  501 -0.52201306624E+02  0.54468958381E+03 -0.73652493861E+02  0.98324929053E+03  0.81359864696E+03 0.  0.
        -13    1    3    3    0    0  0.28887312404E+03 -0.73318929391E+03  0.32030940090E+03  0.85065406951E+03  0.10566000000E+00 0.  1.
          4    1    3    3  502    0 -0.23667181742E+03  0.18849971010E+03  0.37182085430E+03  0.47937087683E+03  0.00000000000E+00 0.  1.
         13    1    4    4    0    0 -0.44575095022E+02  0.12537331024E+03 -0.41922164299E+03  0.43983201695E+03  0.10566000000E+00 0. -1.
         -4    1    4    4    0  501 -0.76262116014E+01  0.41931627358E+03  0.34556914913E+03  0.54341727358E+03  0.00000000000E+00 0. -1.
<mgrwt>
<rscale>  2 0.10552655E+04</rscale>
<asrwt>0</asrwt>
<pdfrwt beam="1">  1        2 0.22551939E+00 0.10552655E+04</pdfrwt>
<pdfrwt beam="2">  1       -2 0.13036896E+00 0.10552655E+04</pdfrwt>
<totfact> 0.83850456E+00</totfact>
</mgrwt>
</event>
<event>
 8    1  0.1449514E-005  0.1453611E+04  0.7818608E-02  0.8436708E-01
         -2   -1    0    0    0  501 -0.00000000000E+00  0.00000000000E+00  0.10988366331E+04  0.10988366331E+04  0.00000000000E+00 0. -1.
          2   -1    0    0  502    0  0.00000000000E+00 -0.00000000000E+00 -0.19383388731E+04  0.19383388731E+04  0.00000000000E+00 0.  1.
    9000010    2    1    2  502    0 -0.10415593497E+04  0.12481973392E+03 -0.55573857525E+03  0.15581776194E+04  0.10092800824E+04 0.  0.
   -9000010    2    1    2    0  501  0.10415593497E+04 -0.12481973392E+03 -0.28376366480E+03  0.14789978867E+04  0.10032383000E+04 0.  0.
        -13    1    3    3    0    0 -0.11171436221E+04  0.17194771596E+03 -0.14696676682E+03  0.11398136388E+04  0.10566000000E+00 0.  1.
          4    1    3    3  502    0  0.75584272441E+02 -0.47127982038E+02 -0.40877180843E+03  0.41836398064E+03  0.00000000000E+00 0.  1.
         13    1    4    4    0    0  0.10621985504E+04  0.20432182038E+03 -0.65761194453E+02  0.10836686360E+04  0.10566000000E+00 0. -1.
         -4    1    4    4    0  501 -0.20639200755E+02 -0.32914155430E+03 -0.21800247035E+03  0.39532925069E+03  0.00000000000E+00 0. -1.
<mgrwt>
<rscale>  2 0.14536106E+04</rscale>
<asrwt>0</asrwt>
<pdfrwt beam="2">  1        2 0.29820598E+00 0.14536106E+04</pdfrwt>
<pdfrwt beam="1">  1       -2 0.16905179E+00 0.14536106E+04</pdfrwt>
<totfact> 0.20206548E+00</totfact>
</mgrwt>
</event>
<event>
 8    1  0.1449514E-005  0.1092632E+04  0.7818608E-02  0.8692119E-01
          1   -1    0    0  502    0  0.00000000000E+00  0.00000000000E+00  0.36938415787E+03  0.36938415787E+03  0.00000000000E+00 0. -1.
         -1   -1    0    0    0  501 -0.00000000000E+00 -0.00000000000E+00 -0.33489471777E+04  0.33489471777E+04  0.00000000000E+00 0.  1.
    9000010    2    1    2  502    0 -0.45603038288E+03  0.21332698418E+02 -0.18514326696E+04  0.21555412818E+04  0.10050554678E+04 0.  0.
   -9000010    2    1    2    0  501  0.45603038288E+03 -0.21332698418E+02 -0.11281303502E+04  0.15627900537E+04  0.98041617229E+03 0.  0.
        -13    1    3    3    0    0 -0.74111304564E+03  0.34110791313E+02 -0.16411899705E+04  0.18010876222E+04  0.10566000000E+00 0.  1.
          4    1    3    3  502    0  0.28508266276E+03 -0.12778092896E+02 -0.21024269912E+03  0.35445365959E+03  0.00000000000E+00 0.  1.
         13    1    4    4    0    0  0.73146201070E+03  0.14462312076E+03 -0.89885529922E+03  0.11678584590E+04  0.10566000000E+00 0. -1.
         -4    1    4    4    0  501 -0.27543162782E+03 -0.16595581918E+03 -0.22927505100E+03  0.39493159475E+03  0.00000000000E+00 0. -1.
<mgrwt>
<rscale>  2 0.10926319E+04</rscale>
<asrwt>0</asrwt>
<pdfrwt beam="1">  1        1 0.56828332E-01 0.10926319E+04</pdfrwt>
<pdfrwt beam="2">  1       -1 0.51522264E+00 0.10926319E+04</pdfrwt>
<totfact> 0.79440840E-01</totfact>
</mgrwt>
</event>
<event>
 8    1  0.1449514E-005  0.1087372E+04  0.7818608E-02  0.8696571E-01
          2   -1    0    0  502    0  0.00000000000E+00  0.00000000000E+00  0.28815019702E+04  0.28815019702E+04  0.00000000000E+00 0.  1.
         -2   -1    0    0    0  501 -0.00000000000E+00 -0.00000000000E+00 -0.45017595449E+03  0.45017595449E+03  0.00000000000E+00 0. -1.
    9000010    2    1    2  502    0  0.37087098649E+03 -0.20442046622E+03  0.17231702299E+04  0.20440564808E+04  0.10146517826E+04 0.  0.
   -9000010    2    1    2    0  501 -0.37087098649E+03  0.20442046622E+03  0.70815578578E+03  0.12876214438E+04  0.98850966110E+03 0.  0.
        -13    1    3    3    0    0  0.41426676532E+03  0.77524569963E+02  0.17070809678E+04  0.17583379805E+04  0.10566000000E+00 0.  1.
          4    1    3    3  502    0 -0.43395778837E+02 -0.28194503619E+03  0.16089262038E+02  0.28571850028E+03  0.00000000000E+00 0.  1.
         13    1    4    4    0    0 -0.15600086029E+03 -0.12068605788E+03 -0.21126524664E+03  0.28902319730E+03  0.10566000000E+00 0. -1.
         -4    1    4    4    0  501 -0.21487012620E+03  0.32510652410E+03  0.91942103242E+03  0.99859824654E+03  0.00000000000E+00 0. -1.
<mgrwt>
<rscale>  2 0.10873720E+04</rscale>
<asrwt>0</asrwt>
<pdfrwt beam="1">  1        2 0.44330798E+00 0.10873720E+04</pdfrwt>
<pdfrwt beam="2">  1       -2 0.69257841E-01 0.10873720E+04</pdfrwt>
<totfact> 0.61435035E+00</totfact>
</mgrwt>
</event>
<event>
 8    1  0.1449514E-005  0.1311754E+04  0.7818608E-02  0.8526848E-01
         -2   -1    0    0    0  501 -0.00000000000E+00  0.00000000000E+00  0.48629763453E+03  0.48629763453E+03  0.00000000000E+00 0. -1.
          2   -1    0    0  502    0  0.00000000000E+00 -0.00000000000E+00 -0.37573446442E+04  0.37573446442E+04  0.00000000000E+00 0.  1.
    9000010    2    1    2  502    0  0.56459495760E+03 -0.62751517630E+03 -0.21577822310E+04  0.25297615698E+04  0.10154440806E+04 0.  0.
   -9000010    2    1    2    0  501 -0.56459495760E+03  0.62751517630E+03 -0.11132647786E+04  0.17138807089E+04  0.99271640180E+03 0.  0.
        -13    1    3    3    0    0  0.61985855535E+03 -0.74403218843E+03 -0.11057756204E+04  0.14698803557E+04  0.10566000000E+00 0.  1.
          4    1    3    3  502    0 -0.55263597747E+02  0.11651701213E+03 -0.10520066106E+04  0.10598812141E+04  0.00000000000E+00 0.  1.
         13    1    4    4    0    0 -0.56127784279E+03  0.86056394167E+03 -0.71261538028E+03  0.12503694677E+04  0.10566000000E+00 0. -1.
         -4    1    4    4    0  501 -0.33171148139E+01 -0.23304876537E+03 -0.40064939833E+03  0.46351124115E+03  0.00000000000E+00 0. -1.
<mgrwt>
<rscale>  2 0.13117537E+04</rscale>
<asrwt>0</asrwt>
<pdfrwt beam="2">  1        2 0.57805301E+00 0.13117537E+04</pdfrwt>
<pdfrwt beam="1">  1       -2 0.74815023E-01 0.13117537E+04</pdfrwt>
<totfact> 0.12459252E+00</totfact>
</mgrwt>
</event>
<event>
 8    1  0.1449514E-005  0.1350288E+04  0.7818608E-02  0.8501243E-01
          1   -1    0    0  502    0  0.00000000000E+00  0.00000000000E+00  0.78917584907E+03  0.78917584907E+03  0.00000000000E+00 0.  1.
         -1   -1    0    0    0  501 -0.00000000000E+00 -0.00000000000E+00 -0.25935770229E+04  0.25935770229E+04  0.00000000000E+00 0. -1.
    9000010    2    1    2  502    0 -0.88144937199E+03  0.23345846282E+02 -0.32307884504E+03  0.13528086234E+04  0.97376239784E+03 0.  0.
   -9000010    2    1    2    0  501  0.88144937199E+03 -0.23345846282E+02 -0.14813223288E+04  0.20299442486E+04  0.10718487704E+04 0.  0.
        -13    1    3    3    0    0  0.13014635788E+03 -0.54519317493E+02 -0.30724445515E+03  0.33809702281E+03  0.10566000000E+00 0.  1.
          4    1    3    3  502    0 -0.10115957299E+04  0.77865163775E+02 -0.15834389896E+02  0.10147116006E+04  0.00000000000E+00 0.  1.
         13    1    4    4    0    0 -0.20120885007E+03  0.18671824044E+03 -0.40238388678E+03  0.48709496627E+03  0.10566000000E+00 0. -1.
         -4    1    4    4    0  501  0.10826582221E+04 -0.21006408672E+03 -0.10789384420E+04  0.15428492823E+04  0.00000000000E+00 0. -1.
<mgrwt>
<rscale>  2 0.13502876E+04</rscale>
<asrwt>0</asrwt>
<pdfrwt beam="1">  1        1 0.12141167E+00 0.13502876E+04</pdfrwt>
<pdfrwt beam="2">  1       -1 0.39901184E+00 0.13502876E+04</pdfrwt>
<totfact> 0.34151908E-01</totfact>
</mgrwt>
</event>
<event>
 8    1  0.1449514E-005  0.1215177E+04  0.7818608E-02  0.8595220E-01
         -2   -1    0    0    0  501 -0.00000000000E+00  0.00000000000E+00  0.81805094457E+03  0.81805094457E+03  0.00000000000E+00 0. -1.
          2   -1    0    0  502    0  0.00000000000E+00 -0.00000000000E+00 -0.27281486789E+04  0.27281486789E+04  0.00000000000E+00 0.  1.
    9000010    2    1    2  502    0  0.24258419273E+03  0.64068840437E+03  0.74991003192E+02  0.12200298697E+04  0.10067375579E+04 0.  0.
   -9000010    2    1    2    0  501 -0.24258419273E+03 -0.64068840437E+03 -0.19850887375E+04  0.23261697538E+04  0.10005796847E+04 0.  0.
        -13    1    3    3    0    0 -0.23238456900E+03  0.59470644274E+03  0.28432834993E+03  0.69894274636E+03  0.10566000000E+00 0.  1.
          4    1    3    3  502    0  0.47496876173E+03  0.45981961632E+02 -0.20933734674E+03  0.52108712338E+03  0.00000000000E+00 0.  1.
         13    1    4    4    0    0  0.57957101989E+02  0.20152611484E+03 -0.85178543418E+02  0.22633425736E+03  0.10566000000E+00 0. -1.
         -4    1    4    4    0  501 -0.30054129472E+03 -0.84221451921E+03 -0.18999101941E+04  0.20998354964E+04  0.00000000000E+00 0. -1.
<mgrwt>
<rscale>  2 0.12151773E+04</rscale>
<asrwt>0</asrwt>
<pdfrwt beam="2">  1        2 0.41971518E+00 0.12151773E+04</pdfrwt>
<pdfrwt beam="1">  1       -2 0.12585399E+00 0.12151773E+04</pdfrwt>
<totfact> 0.18271586E+00</totfact>
</mgrwt>
</event>
<event>
 8    1  0.1449514E-005  0.1282263E+04  0.7818608E-02  0.8547064E-01
          2   -1    0    0  502    0  0.00000000000E+00  0.00000000000E+00  0.10618848751E+04  0.10618848751E+04  0.00000000000E+00 0.  1.
         -2   -1    0    0    0  501 -0.00000000000E+00 -0.00000000000E+00 -0.18869567712E+04  0.18869567712E+04  0.00000000000E+00 0. -1.
    9000010    2    1    2  502    0  0.77641696235E+03 -0.21834802546E+03  0.21187543379E+03  0.13001860903E+04  0.99754373852E+03 0.  0.
   -9000010    2    1    2    0  501 -0.77641696235E+03  0.21834802546E+03 -0.10369473299E+04  0.16486555561E+04  0.99614568103E+03 0.  0.
        -13    1    3    3    0    0  0.40957952639E+03 -0.11930651152E+03 -0.39682015827E+03  0.58262825310E+03  0.10566000000E+00 0.  1.
          4    1    3    3  502    0  0.36683743595E+03 -0.99041513939E+02  0.60869559206E+03  0.71755783718E+03  0.00000000000E+00 0.  1.
         13    1    4    4    0    0  0.64195142989E+01  0.40514960933E+03 -0.10756779215E+03  0.41923532434E+03  0.10566000000E+00 0. -1.
         -4    1    4    4    0  501 -0.78283647664E+03 -0.18680158387E+03 -0.92937953779E+03  0.12294202317E+04  0.00000000000E+00 0. -1.
<mgrwt>
<rscale>  2 0.12822630E+04</rscale>
<asrwt>0</asrwt>
<pdfrwt beam="1">  1        2 0.16336690E+00 0.12822630E+04</pdfrwt>
<pdfrwt beam="2">  1       -2 0.29030104E+00 0.12822630E+04</pdfrwt>
<totfact> 0.68628256E-01</totfact>
</mgrwt>
</event>
<event>
 8    1  0.1449514E-005  0.1153321E+04  0.7818608E-02  0.8642567E-01
          2   -1    0    0  502    0  0.00000000000E+00  0.00000000000E+00  0.35090719798E+04  0.35090719798E+04  0.00000000000E+00 0.  1.
         -2   -1    0    0    0  501 -0.00000000000E+00 -0.00000000000E+00 -0.46578131247E+03  0.46578131247E+03  0.00000000000E+00 0. -1.
    9000010    2    1    2  502    0 -0.45595134158E+03 -0.39321431482E+03  0.67937757752E+03  0.13506444032E+04  0.10000886399E+04 0.  0.
   -9000010    2    1    2    0  501  0.45595134158E+03  0.39321431482E+03  0.23639130898E+04  0.26242088891E+04  0.96740791508E+03 0.  0.
        -13    1    3    3    0    0 -0.13940207840E+03 -0.49950753947E+03 -0.76583378676E+02  0.52421917792E+03  0.10566000000E+00 0.  1.
          4    1    3    3  502    0 -0.31654926318E+03  0.10629322465E+03  0.75596095620E+03  0.82642522525E+03  0.00000000000E+00 0.  1.
         13    1    4    4    0    0 -0.21181245421E+03  0.42080012081E+03  0.96762964733E+03  0.10762176374E+04  0.10566000000E+00 0. -1.
         -4    1    4    4    0  501  0.66776379579E+03 -0.27585805991E+02  0.13962834425E+04  0.15479912517E+04  0.00000000000E+00 0. -1.
<mgrwt>
<rscale>  2 0.11533206E+04</rscale>
<asrwt>0</asrwt>
<pdfrwt beam="1">  1        2 0.53985721E+00 0.11533206E+04</pdfrwt>
<pdfrwt beam="2">  1       -2 0.71658666E-01 0.11533206E+04</pdfrwt>
<totfact> 0.22001407E+00</totfact>
</mgrwt>
</event>
<event>
 8    1  0.1449514E-005  0.1097668E+04  0.7818608E-02  0.8687881E-01
         -2   -1    0    0    0  501 -0.00000000000E+00  0.00000000000E+00  0.70996117606E+03  0.70996117606E+03  0.00000000000E+00 0. -1.
          2   -1    0    0  502    0  0.00000000000E+00 -0.00000000000E+00 -0.18599327671E+04  0.18599327671E+04  0.00000000000E+00 0.  1.
    9000010    2    1    2  502    0  0.40101341820E+03 -0.25283541205E+03 -0.19177694622E+03  0.11079542828E+04  0.98287679212E+03 0.  0.
   -9000010    2    1    2    0  501 -0.40101341820E+03  0.25283541205E+03 -0.95819464480E+03  0.14619396603E+04  0.99719260227E+03 0.  0.
        -13    1    3    3    0    0  0.43456027386E+03  0.30016247787E+03 -0.16488443465E+03  0.55328747744E+03  0.10566000000E+00 0.  1.
          4    1    3    3  502    0 -0.33546855659E+02 -0.55299788992E+03 -0.26892511572E+02  0.55466680535E+03  0.00000000000E+00 0.  1.
         13    1    4    4    0    0 -0.64930600756E+03 -0.88230238600E+02 -0.42086941664E+03  0.77879005096E+03  0.10566000000E+00 0. -1.
         -4    1    4    4    0  501  0.24829258936E+03  0.34106565065E+03 -0.53732522816E+03  0.68314960939E+03  0.00000000000E+00 0. -1.
<mgrwt>
<rscale>  2 0.10976676E+04</rscale>
<asrwt>0</asrwt>
<pdfrwt beam="2">  1        2 0.28614350E+00 0.10976676E+04</pdfrwt>
<pdfrwt beam="1">  1       -2 0.10922480E+00 0.10976676E+04</pdfrwt>
<totfact> 0.81199117E+00</totfact>
</mgrwt>
</event>
<event>
 8    1  0.1449514E-005  0.1406522E+04  0.7818608E-02  0.8465413E-01
         -2   -1    0    0    0  501 -0.00000000000E+00  0.00000000000E+00  0.21635002264E+04  0.21635002264E+04  0.00000000000E+00 0. -1.
          2   -1    0    0  502    0  0.00000000000E+00 -0.00000000000E+00 -0.96853156158E+03  0.96853156158E+03  0.00000000000E+00 0.  1.
    9000010    2    1    2  502    0 -0.53943657169E+03  0.81526541244E+03  0.22713317260E+03  0.14244342982E+04  0.10108284148E+04 0.  0.
   -9000010    2    1    2    0  501  0.53943657169E+03 -0.81526541244E+03  0.96783549218E+03  0.17075974897E+04  0.10116986406E+04 0.  0.
        -13    1    3    3    0    0 -0.48997137909E+03  0.98622090261E+03  0.40450572102E+03  0.11731702820E+04  0.10566000000E+00 0.  1.
          4    1    3    3  502    0 -0.49465192603E+02 -0.17095549017E+03 -0.17737254842E+03  0.25126401619E+03  0.00000000000E+00 0.  1.
         13    1    4    4    0    0  0.44453851360E+03 -0.10464444907E+04  0.67341016146E+03  0.13214165955E+04  0.10566000000E+00 0. -1.
         -4    1    4    4    0  501  0.94898058095E+02  0.23117907830E+03  0.29442533072E+03  0.38618089419E+03  0.00000000000E+00 0. -1.
<mgrwt>
<rscale>  2 0.14065217E+04</rscale>
<asrwt>0</asrwt>
<pdfrwt beam="2">  1        2 0.14900486E+00 0.14065217E+04</pdfrwt>
<pdfrwt beam="1">  1       -2 0.33284619E+00 0.14065217E+04</pdfrwt>
<totfact> 0.40737669E-01</totfact>
</mgrwt>
</event>
<event>
 8    1  0.1670549E-005  0.9881574E+03  0.7818608E-02  0.8785799E-01
          1   -1    0    0  502    0  0.00000000000E+00  0.00000000000E+00  0.13088861849E+04  0.13088861849E+04  0.00000000000E+00 0. -1.
         -1   -1    0    0    0  501 -0.00000000000E+00 -0.00000000000E+00 -0.77051455361E+03  0.77051455361E+03  0.00000000000E+00 0.  1.
    9000010    2    1    2  502    0 -0.25233100291E+03  0.26681108629E+03  0.79657345688E+02  0.92858761757E+03  0.84915874840E+03 0.  0.
   -9000010    2    1    2    0  501  0.25233100291E+03 -0.26681108629E+03  0.45871428558E+03  0.11508131209E+04  0.98949125953E+03 0.  0.
        -13    1    3    3    0    0  0.37282081212E+00 -0.72561981947E+02 -0.33105340869E+03  0.33891260052E+03  0.10566000000E+00 0.  1.
          4    1    3    3  502    0 -0.25270382372E+03  0.33937306824E+03  0.41071075438E+03  0.58967501705E+03  0.00000000000E+00 0.  1.
         13    1    4    4    0    0  0.52072511078E+03 -0.35931193416E+02 -0.57219939986E+02  0.52509030115E+03  0.10566000000E+00 0. -1.
         -4    1    4    4    0  501 -0.26839410788E+03 -0.23087989287E+03  0.51593422556E+03  0.62572281977E+03  0.00000000000E+00 0. -1.
<mgrwt>
<rscale>  2 0.98815744E+03</rscale>
<asrwt>0</asrwt>
<pdfrwt beam="1">  1        1 0.20136711E+00 0.98815744E+03</pdfrwt>
<pdfrwt beam="2">  1       -1 0.11854070E+00 0.98815744E+03</pdfrwt>
<totfact> 0.86366496E+00</totfact>
</mgrwt>
</event>
<event>
 8    1  0.1449514E-005  0.1125162E+04  0.7818608E-02  0.8665153E-01
         -1   -1    0    0    0  501 -0.00000000000E+00  0.00000000000E+00  0.73870019451E+03  0.73870019451E+03  0.00000000000E+00 0. -1.
          1   -1    0    0  502    0  0.00000000000E+00 -0.00000000000E+00 -0.17384316823E+04  0.17384316823E+04  0.00000000000E+00 0.  1.
    9000010    2    1    2  502    0  0.54748825446E+03 -0.60366817476E+02 -0.34592846186E+03  0.11601393884E+04  0.96066089662E+03 0.  0.
   -9000010    2    1    2    0  501 -0.54748825446E+03  0.60366817476E+02 -0.65380302594E+03  0.13169924885E+04  0.10018100002E+04 0.  0.
        -13    1    3    3    0    0 -0.54403101383E+02 -0.98506425216E+02  0.27341440731E+03  0.29566647178E+03  0.10566000000E+00 0.  1.
          4    1    3    3  502    0  0.60189135585E+03  0.38139607740E+02 -0.61934286917E+03  0.86447291658E+03  0.00000000000E+00 0.  1.
         13    1    4    4    0    0 -0.29085638342E+03  0.23243448871E+03  0.19028671271E+03  0.41812949132E+03  0.10566000000E+00 0. -1.
         -4    1    4    4    0  501 -0.25663187104E+03 -0.17206767123E+03 -0.84408973865E+03  0.89886299713E+03  0.00000000000E+00 0. -1.
<mgrwt>
<rscale>  2 0.11251623E+04</rscale>
<asrwt>0</asrwt>
<pdfrwt beam="2">  1        1 0.26745103E+00 0.11251623E+04</pdfrwt>
<pdfrwt beam="1">  1       -1 0.11364618E+00 0.11251623E+04</pdfrwt>
<totfact> 0.44972424E+00</totfact>
</mgrwt>
</event>
<event>
 8    1  0.1449514E-005  0.1272492E+04  0.7818608E-02  0.8553886E-01
         -2   -1    0    0    0  501 -0.00000000000E+00  0.00000000000E+00  0.11717056320E+04  0.11717056320E+04  0.00000000000E+00 0.  1.
          2   -1    0    0  502    0  0.00000000000E+00 -0.00000000000E+00 -0.15086411623E+04  0.15086411623E+04  0.00000000000E+00 0. -1.
    9000010    2    1    2  502    0 -0.78332642518E+03  0.81410227773E+02 -0.55662852683E+03  0.13873574365E+04  0.99734518904E+03 0.  0.
   -9000010    2    1    2    0  501  0.78332642518E+03 -0.81410227773E+02  0.21969299661E+03  0.12929893578E+04  0.10016628940E+04 0.  0.
        -13    1    3    3    0    0 -0.53695259417E+02 -0.30264097446E+03 -0.46547357901E+03  0.55779960938E+03  0.10566000000E+00 0.  1.
          4    1    3    3  502    0 -0.72963116576E+03  0.38405120224E+03 -0.91154947825E+02  0.82955782710E+03  0.00000000000E+00 0.  1.
         13    1    4    4    0    0 -0.19846390031E+03 -0.61937044234E+02  0.23121105245E+03  0.31093838476E+03  0.10566000000E+00 0. -1.
         -4    1    4    4    0  501  0.98179032549E+03 -0.19473183539E+02 -0.11518055842E+02  0.98205097308E+03  0.00000000000E+00 0. -1.
<mgrwt>
<rscale>  2 0.12724917E+04</rscale>
<asrwt>0</asrwt>
<pdfrwt beam="2">  1        2 0.23209864E+00 0.12724917E+04</pdfrwt>
<pdfrwt beam="1">  1       -2 0.18026241E+00 0.12724917E+04</pdfrwt>
<totfact> 0.28472681E+00</totfact>
</mgrwt>
</event>
<event>
 8    1  0.1449514E-005  0.1110129E+04  0.7818608E-02  0.8677496E-01
         -4   -1    0    0    0  501 -0.00000000000E+00  0.00000000000E+00  0.25068351361E+04  0.25068351361E+04  0.00000000000E+00 0.  1.
          4   -1    0    0  502    0  0.00000000000E+00 -0.00000000000E+00 -0.52192793476E+03  0.52192793476E+03  0.00000000000E+00 0. -1.
    9000010    2    1    2  502    0 -0.11815217830E+03 -0.46612584121E+03  0.13500411162E+04  0.17424481595E+04  0.99110107255E+03 0.  0.
   -9000010    2    1    2    0  501  0.11815217830E+03  0.46612584121E+03  0.63486608511E+03  0.12863149113E+04  0.10101078497E+04 0.  0.
        -13    1    3    3    0    0 -0.11323704819E+03 -0.76624403254E+03  0.78601716453E+03  0.11035286768E+04  0.10566000000E+00 0.  1.
          4    1    3    3  502    0 -0.49151301047E+01  0.30011819133E+03  0.56402395168E+03  0.63891948267E+03  0.00000000000E+00 0.  1.
         13    1    4    4    0    0  0.39096655201E+03 -0.15882597958E+03  0.34617539844E+03  0.54581860927E+03  0.10566000000E+00 0. -1.
         -4    1    4    4    0  501 -0.27281437371E+03  0.62495182079E+03  0.28869068667E+03  0.74049630207E+03  0.00000000000E+00 0. -1.
<mgrwt>
<rscale>  2 0.11101289E+04</rscale>
<asrwt>0</asrwt>
<pdfrwt beam="2">  1        4 0.80296607E-01 0.11101289E+04</pdfrwt>
<pdfrwt beam="1">  1       -4 0.38566694E+00 0.11101289E+04</pdfrwt>
<totfact> 0.24673246E-01</totfact>
</mgrwt>
</event>
<event>
 8    1  0.1449514E-005  0.1558483E+04  0.7818608E-02  0.8376615E-01
         -2   -1    0    0    0  501 -0.00000000000E+00  0.00000000000E+00  0.13803944656E+04  0.13803944656E+04  0.00000000000E+00 0.  1.
          2   -1    0    0  502    0  0.00000000000E+00 -0.00000000000E+00 -0.19328219241E+04  0.19328219241E+04  0.00000000000E+00 0. -1.
    9000010    2    1    2  502    0  0.47288679455E+03  0.11018626067E+04  0.22058941694E+03  0.15689767989E+04  0.98757550602E+03 0.  0.
   -9000010    2    1    2    0  501 -0.47288679455E+03 -0.11018626067E+04 -0.77301687551E+03  0.17442395908E+04  0.10035405003E+04 0.  0.
        -13    1    3    3    0    0 -0.11150796280E+03  0.79118809148E+03  0.38513747971E+03  0.88698563196E+03  0.10566000000E+00 0.  1.
          4    1    3    3  502    0  0.58439475735E+03  0.31067451526E+03 -0.16454806276E+03  0.68199116696E+03  0.00000000000E+00 0.  1.
         13    1    4    4    0    0  0.19694823673E+03 -0.62154652710E+03 -0.60658605049E+02  0.65481918941E+03  0.10566000000E+00 0. -1.
         -4    1    4    4    0  501 -0.66983503128E+03 -0.48031607964E+03 -0.71235827046E+03  0.10894204014E+04  0.00000000000E+00 0. -1.
<mgrwt>
<rscale>  2 0.15584834E+04</rscale>
<asrwt>0</asrwt>
<pdfrwt beam="2">  1        2 0.29735722E+00 0.15584834E+04</pdfrwt>
<pdfrwt beam="1">  1       -2 0.21236838E+00 0.15584834E+04</pdfrwt>
<totfact> 0.87779644E-01</totfact>
</mgrwt>
</event>
<event>
 8    1  0.1449514E-005  0.2240988E+04  0.7818608E-02  0.8076777E-01
          1   -1    0    0  502    0  0.00000000000E+00  0.00000000000E+00  0.24624560421E+04  0.24624560421E+04  0.00000000000E+00 0.  1.
         -1   -1    0    0    0  501 -0.00000000000E+00 -0.00000000000E+00 -0.30453327988E+04  0.30453327988E+04  0.00000000000E+00 0. -1.
    9000010    2    1    2  502    0  0.99428282966E+03  0.17425322982E+04  0.12917554984E+04  0.25818661955E+04  0.98609514175E+03 0.  0.
   -9000010    2    1    2    0  501 -0.99428282966E+03 -0.17425322982E+04 -0.18746322551E+04  0.29259226453E+04  0.10108214872E+04 0.  0.
        -13    1    3    3    0    0 -0.97327728923E+02  0.35378728112E+03 -0.40798837493E+02  0.36919193302E+03  0.10566000000E+00 0.  1.
          4    1    3    3  502    0  0.10916105586E+04  0.13887450170E+04  0.13325543359E+04  0.22126742625E+04  0.00000000000E+00 0.  1.
         13    1    4    4    0    0 -0.85759442792E+03 -0.13170279849E+04 -0.80312759301E+03  0.17649489675E+04  0.10566000000E+00 0. -1.
         -4    1    4    4    0  501 -0.13668840174E+03 -0.42550431321E+03 -0.10715046621E+04  0.11609736778E+04  0.00000000000E+00 0. -1.
<mgrwt>
<rscale>  2 0.22409882E+04</rscale>
<asrwt>0</asrwt>
<pdfrwt beam="1">  1        1 0.37883939E+00 0.22409882E+04</pdfrwt>
<pdfrwt beam="2">  1       -1 0.46851274E+00 0.22409882E+04</pdfrwt>
<totfact> 0.13683781E-02</totfact>
</mgrwt>
</event>
<event>
 8    1  0.1449514E-005  0.9433396E+03  0.7818608E-02  0.8829730E-01
         -2   -1    0    0    0  501 -0.00000000000E+00  0.00000000000E+00  0.71236965850E+03  0.71236965850E+03  0.00000000000E+00 0. -1.
          2   -1    0    0  502    0  0.00000000000E+00 -0.00000000000E+00 -0.13171020532E+04  0.13171020532E+04  0.00000000000E+00 0.  1.
    9000010    2    1    2  502    0  0.10195808514E+03 -0.71242229991E+02 -0.85945933105E+02  0.98329968105E+03  0.97160725238E+03 0.  0.
   -9000010    2    1    2    0  501 -0.10195808514E+03  0.71242229991E+02 -0.51878646160E+03  0.10461720307E+04  0.89992534054E+03 0.  0.
        -13    1    3    3    0    0  0.28790959945E+03 -0.43525879543E+03  0.10470337937E+03  0.53226399960E+03  0.10566000000E+00 0.  1.
          4    1    3    3  502    0 -0.18595151431E+03  0.36401656544E+03 -0.19064931248E+03  0.45103568145E+03  0.00000000000E+00 0.  1.
         13    1    4    4    0    0 -0.11561494496E+03  0.44824250287E+03 -0.83886761079E+02  0.47045207697E+03  0.10566000000E+00 0. -1.
         -4    1    4    4    0  501  0.13656859826E+02 -0.37700027288E+03 -0.43489970052E+03  0.57571995369E+03  0.00000000000E+00 0. -1.
<mgrwt>
<rscale>  2 0.94333958E+03</rscale>
<asrwt>0</asrwt>
<pdfrwt beam="2">  1        2 0.20263108E+00 0.94333958E+03</pdfrwt>
<pdfrwt beam="1">  1       -2 0.10959533E+00 0.94333958E+03</pdfrwt>
<totfact> 0.16176926E+01</totfact>
</mgrwt>
</event>
<event>
 8    1  0.1449514E-005  0.1137924E+04  0.7818608E-02  0.8654833E-01
         -2   -1    0    0    0  501 -0.00000000000E+00  0.00000000000E+00  0.12564264424E+04  0.12564264424E+04  0.00000000000E+00 0. -1.
          2   -1    0    0  502    0  0.00000000000E+00 -0.00000000000E+00 -0.14026685420E+04  0.14026685420E+04  0.00000000000E+00 0.  1.
    9000010    2    1    2  502    0 -0.33922588627E+03 -0.41977241250E+03 -0.75823247693E+03  0.13749620219E+04  0.10120874431E+04 0.  0.
   -9000010    2    1    2    0  501  0.33922588627E+03  0.41977241250E+03  0.61199037724E+03  0.12841329625E+04  0.99155542627E+03 0.  0.
        -13    1    3    3    0    0  0.19002047748E+03 -0.18470721224E+03  0.14496454379E+03  0.30205838217E+03  0.10566000000E+00 0.  1.
          4    1    3    3  502    0 -0.52924636375E+03 -0.23506520026E+03 -0.90319702071E+03  0.10729036397E+04  0.00000000000E+00 0.  1.
         13    1    4    4    0    0  0.36251286683E+03  0.36643741753E+03  0.87457764914E+03  0.10151738940E+04  0.10566000000E+00 0. -1.
         -4    1    4    4    0  501 -0.23286980564E+02  0.53334994965E+02 -0.26258727190E+03  0.26895906847E+03  0.00000000000E+00 0. -1.
<mgrwt>
<rscale>  2 0.11379241E+04</rscale>
<asrwt>0</asrwt>
<pdfrwt beam="2">  1        2 0.21579516E+00 0.11379241E+04</pdfrwt>
<pdfrwt beam="1">  1       -2 0.19329638E+00 0.11379241E+04</pdfrwt>
<totfact> 0.25750617E+00</totfact>
</mgrwt>
</event>
<event>
 8    1  0.1449514E-005  0.1162953E+04  0.7818608E-02  0.8634994E-01
          2   -1    0    0  502    0  0.00000000000E+00  0.00000000000E+00  0.16977506800E+04  0.16977506800E+04  0.00000000000E+00 0.  1.
         -2   -1    0    0    0  501 -0.00000000000E+00 -0.00000000000E+00 -0.85313370693E+03  0.85313370693E+03  0.00000000000E+00 0. -1.
    9000010    2    1    2  502    0  0.19925541757E+02  0.58780716613E+03  0.74953484694E+03  0.13810184204E+04  0.99974751764E+03 0.  0.
   -9000010    2    1    2    0  501 -0.19925541757E+02 -0.58780716613E+03  0.95082126141E+02  0.11698659665E+04  0.10067926684E+04 0.  0.
        -13    1    3    3    0    0  0.42385415882E+03  0.28184879045E+03  0.70883686544E+03  0.87266305159E+03  0.10566000000E+00 0.  1.
          4    1    3    3  502    0 -0.40392861707E+03  0.30595837568E+03  0.40697981499E+02  0.50835536884E+03  0.00000000000E+00 0.  1.
         13    1    4    4    0    0 -0.25176836695E+03 -0.70095610167E+03 -0.20659711119E+03  0.77292246996E+03  0.10566000000E+00 0. -1.
         -4    1    4    4    0  501  0.23184282519E+03  0.11314893554E+03  0.30167923733E+03  0.39694349654E+03  0.00000000000E+00 0. -1.
<mgrwt>
<rscale>  2 0.11629528E+04</rscale>
<asrwt>0</asrwt>
<pdfrwt beam="1">  1        2 0.26119241E+00 0.11629528E+04</pdfrwt>
<pdfrwt beam="2">  1       -2 0.13125134E+00 0.11629528E+04</pdfrwt>
<totfact> 0.60811758E+00</totfact>
</mgrwt>
</event>
<event>
 8    1  0.1449514E-005  0.1213514E+04  0.7818608E-02  0.8596455E-01
          2   -1    0    0  502    0  0.00000000000E+00  0.00000000000E+00  0.26302129701E+04  0.26302129701E+04  0.00000000000E+00 0. -1.
         -2   -1    0    0    0  501 -0.00000000000E+00 -0.00000000000E+00 -0.56674874647E+03  0.56674874647E+03  0.00000000000E+00 0.  1.
    9000010    2    1    2  502    0  0.11725711164E+03 -0.67678597310E+03  0.86424806804E+03  0.14975948108E+04  0.10119669019E+04 0.  0.
   -9000010    2    1    2    0  501 -0.11725711164E+03  0.67678597310E+03  0.11992161556E+04  0.16993669058E+04  0.98890849378E+03 0.  0.
        -13    1    3    3    0    0 -0.34305838771E+03 -0.65147427188E+03  0.67629733009E+03  0.99974290403E+03  0.10566000000E+00 0.  1.
          4    1    3    3  502    0  0.46031549935E+03 -0.25311701226E+02  0.18795073795E+03  0.49785190675E+03  0.00000000000E+00 0.  1.
         13    1    4    4    0    0 -0.97556241736E+01  0.92874603412E+03  0.95867609245E+03  0.13348124323E+04  0.10566000000E+00 0. -1.
         -4    1    4    4    0  501 -0.10750148747E+03 -0.25196006101E+03  0.24054006318E+03  0.36455447350E+03  0.00000000000E+00 0. -1.
<mgrwt>
<rscale>  2 0.12135140E+04</rscale>
<asrwt>0</asrwt>
<pdfrwt beam="1">  1        2 0.40464814E+00 0.12135140E+04</pdfrwt>
<pdfrwt beam="2">  1       -2 0.87192116E-01 0.12135140E+04</pdfrwt>
<totfact> 0.51580212E+00</totfact>
</mgrwt>
</event>
<event>
 8    1  0.1449514E-005  0.1533406E+04  0.7818608E-02  0.8390529E-01
         -1   -1    0    0    0  501 -0.00000000000E+00  0.00000000000E+00  0.30234498723E+04  0.30234498723E+04  0.00000000000E+00 0. -1.
          1   -1    0    0  502    0  0.00000000000E+00 -0.00000000000E+00 -0.79763219662E+03  0.79763219662E+03  0.00000000000E+00 0.  1.
    9000010    2    1    2  502    0 -0.93306112202E+03  0.73036813681E+03  0.14112541049E+04  0.20802288671E+04  0.96523226127E+03 0.  0.
   -9000010    2    1    2    0  501  0.93306112202E+03 -0.73036813681E+03  0.81456357070E+03  0.17408532017E+04  0.98133347371E+03 0.  0.
        -13    1    3    3    0    0 -0.50830163631E+03 -0.13042120575E+03  0.27386757358E+03  0.59193217805E+03  0.10566000000E+00 0.  1.
          4    1    3    3  502    0 -0.42475948571E+03  0.86078934256E+03  0.11373865314E+04  0.14882966891E+04  0.00000000000E+00 0.  1.
         13    1    4    4    0    0  0.93611332804E+03 -0.13866855028E+03  0.52246557644E+03  0.10809752169E+04  0.10566000000E+00 0. -1.
         -4    1    4    4    0  501 -0.30522060207E+01 -0.59169958653E+03  0.29209799426E+03  0.65987798487E+03  0.00000000000E+00 0. -1.
<mgrwt>
<rscale>  2 0.15334056E+04</rscale>
<asrwt>0</asrwt>
<pdfrwt beam="2">  1        1 0.12271265E+00 0.15334056E+04</pdfrwt>
<pdfrwt beam="1">  1       -1 0.46514613E+00 0.15334056E+04</pdfrwt>
<totfact> 0.31128136E-01</totfact>
</mgrwt>
</event>
<event>
 8    1  0.1449514E-005  0.1332575E+04  0.7818608E-02  0.8512902E-01
          2   -1    0    0  502    0  0.00000000000E+00  0.00000000000E+00  0.25401823451E+04  0.25401823451E+04  0.00000000000E+00 0.  1.
         -2   -1    0    0    0  501 -0.00000000000E+00 -0.00000000000E+00 -0.86022529032E+03  0.86022529032E+03  0.00000000000E+00 0. -1.
    9000010    2    1    2  502    0  0.71565884188E+03  0.46623565335E+03  0.15708598856E+04  0.20537567377E+04  0.10103329625E+04 0.  0.
   -9000010    2    1    2    0  501 -0.71565884188E+03 -0.46623565335E+03  0.10909716915E+03  0.13466508977E+04  0.10353855251E+04 0.  0.
        -13    1    3    3    0    0 -0.36086634970E+02  0.68446856076E+01 -0.13171907560E+03  0.13674436364E+03  0.10566000000E+00 0.  1.
          4    1    3    3  502    0  0.75174547685E+03  0.45939096774E+03  0.17025789612E+04  0.19170123741E+04  0.00000000000E+00 0.  1.
         13    1    4    4    0    0 -0.44172433246E+01 -0.59925400563E+03 -0.63949229931E+02  0.60267270594E+03  0.10566000000E+00 0. -1.
         -4    1    4    4    0  501 -0.71124159855E+03  0.13301835229E+03  0.17304639908E+03  0.74397819174E+03  0.00000000000E+00 0. -1.
<mgrwt>
<rscale>  2 0.13325751E+04</rscale>
<asrwt>0</asrwt>
<pdfrwt beam="1">  1        2 0.39079728E+00 0.13325751E+04</pdfrwt>
<pdfrwt beam="2">  1       -2 0.13234235E+00 0.13325751E+04</pdfrwt>
<totfact> 0.20103898E+00</totfact>
</mgrwt>
</event>
<event>
 8    1  0.1449514E-005  0.1384636E+04  0.7818608E-02  0.8479150E-01
          2   -1    0    0  502    0  0.00000000000E+00  0.00000000000E+00  0.22713751345E+04  0.22713751345E+04  0.00000000000E+00 0. -1.
         -2   -1    0    0    0  501 -0.00000000000E+00 -0.00000000000E+00 -0.10328576278E+04  0.10328576278E+04  0.00000000000E+00 0.  1.
    9000010    2    1    2  502    0  0.96498843243E+03  0.55229032443E+02 -0.82666496957E+02  0.13987783353E+04  0.10077173021E+04 0.  0.
   -9000010    2    1    2    0  501 -0.96498843243E+03 -0.55229032443E+02  0.13211840036E+04  0.19054544270E+04  0.97518023017E+03 0.  0.
        -13    1    3    3    0    0  0.14163780866E+03  0.45672944047E+03 -0.64951327279E+02  0.48257821823E+03  0.10566000000E+00 0.  1.
          4    1    3    3  502    0  0.82335062377E+03 -0.40150040802E+03 -0.17715169678E+02  0.91620011709E+03  0.00000000000E+00 0.  1.
         13    1    4    4    0    0 -0.72946270826E+03 -0.18172577036E+03  0.14309889402E+04  0.16164372726E+04  0.10566000000E+00 0. -1.
         -4    1    4    4    0  501 -0.23552572417E+03  0.12649673792E+03 -0.10980493653E+03  0.28901715440E+03  0.00000000000E+00 0. -1.
<mgrwt>
<rscale>  2 0.13846360E+04</rscale>
<asrwt>0</asrwt>
<pdfrwt beam="1">  1        2 0.34944233E+00 0.13846360E+04</pdfrwt>
<pdfrwt beam="2">  1       -2 0.15890117E+00 0.13846360E+04</pdfrwt>
<totfact> 0.16312235E+00</totfact>
</mgrwt>
</event>
<event>
 8    1  0.1449514E-005  0.1147578E+04  0.7818608E-02  0.8647119E-01
         -1   -1    0    0    0  501 -0.00000000000E+00  0.00000000000E+00  0.88969720884E+03  0.88969720884E+03  0.00000000000E+00 0.  1.
          1   -1    0    0  502    0  0.00000000000E+00 -0.00000000000E+00 -0.14918114698E+04  0.14918114698E+04  0.00000000000E+00 0. -1.
    9000010    2    1    2  502    0  0.22625916703E+03  0.52910189282E+03 -0.19277636238E+03  0.11384751572E+04  0.96323462049E+03 0.  0.
   -9000010    2    1    2    0  501 -0.22625916703E+03 -0.52910189282E+03 -0.40933789857E+03  0.12430335214E+04  0.10229529786E+04 0.  0.
        -13    1    3    3    0    0  0.60106845457E+03  0.23613961982E+03 -0.12820900007E+03  0.65839408107E+03  0.10566000000E+00 0.  1.
          4    1    3    3  502    0 -0.37480928754E+03  0.29296227300E+03 -0.64567362308E+02  0.48008107617E+03  0.00000000000E+00 0.  1.
         13    1    4    4    0    0 -0.10085505993E+03  0.11923017864E+03  0.25967297221E+03  0.30301426084E+03  0.10566000000E+00 0. -1.
         -4    1    4    4    0  501 -0.12540410710E+03 -0.64833207146E+03 -0.66901087078E+03  0.94001926054E+03  0.00000000000E+00 0. -1.
<mgrwt>
<rscale>  2 0.11475775E+04</rscale>
<asrwt>0</asrwt>
<pdfrwt beam="2">  1        1 0.22950946E+00 0.11475775E+04</pdfrwt>
<pdfrwt beam="1">  1       -1 0.13687649E+00 0.11475775E+04</pdfrwt>
<totfact> 0.42642019E+00</totfact>
</mgrwt>
</event>
<event>
 8    1  0.1449514E-005  0.1313472E+04  0.7818608E-02  0.8525687E-01
          2   -1    0    0  502    0  0.00000000000E+00  0.00000000000E+00  0.21772991575E+04  0.21772991575E+04  0.00000000000E+00 0.  1.
         -2   -1    0    0    0  501 -0.00000000000E+00 -0.00000000000E+00 -0.81976285530E+03  0.81976285530E+03  0.00000000000E+00 0. -1.
    9000010    2    1    2  502    0  0.60825002229E+03  0.61218302381E+03  0.96289836847E+03  0.16472225678E+04  0.10205061370E+04 0.  0.
   -9000010    2    1    2    0  501 -0.60825002229E+03 -0.61218302381E+03  0.39463793377E+03  0.13498394450E+04  0.95999546054E+03 0.  0.
        -13    1    3    3    0    0  0.25433344202E+03  0.69262212189E+02  0.96373394548E+03  0.99913256508E+03  0.10566000000E+00 0.  1.
          4    1    3    3  502    0  0.35391658027E+03  0.54292081162E+03 -0.83557701047E+00  0.64809000275E+03  0.00000000000E+00 0.  1.
         13    1    4    4    0    0 -0.41774790620E+03 -0.86808857247E+03  0.22831971533E+03  0.99006110233E+03  0.10566000000E+00 0. -1.
         -4    1    4    4    0  501 -0.19050211609E+03  0.25590554866E+03  0.16631821843E+03  0.35977834267E+03  0.00000000000E+00 0. -1.
<mgrwt>
<rscale>  2 0.13134717E+04</rscale>
<asrwt>0</asrwt>
<pdfrwt beam="1">  1        2 0.33496910E+00 0.13134717E+04</pdfrwt>
<pdfrwt beam="2">  1       -2 0.12611736E+00 0.13134717E+04</pdfrwt>
<totfact> 0.36586365E+00</totfact>
</mgrwt>
</event>
<event>
 8    1  0.1449514E-005  0.1190025E+04  0.7818608E-02  0.8614112E-01
          1   -1    0    0  502    0  0.00000000000E+00  0.00000000000E+00  0.51105372246E+03  0.51105372246E+03  0.00000000000E+00 0.  1.
         -1   -1    0    0    0  501 -0.00000000000E+00 -0.00000000000E+00 -0.30512982475E+04  0.30512982475E+04  0.00000000000E+00 0. -1.
    9000010    2    1    2  502    0  0.22673537812E+03 -0.58889050588E+03 -0.73325546183E+03  0.14003523920E+04  0.10124832294E+04 0.  0.
   -9000010    2    1    2    0  501 -0.22673537812E+03  0.58889050588E+03 -0.18069890632E+04  0.21619995779E+04  0.10054012835E+04 0.  0.
        -13    1    3    3    0    0 -0.70302687026E+01 -0.50538209451E+03  0.11345142682E+03  0.51800745510E+03  0.10566000000E+00 0.  1.
          4    1    3    3  502    0  0.23376564682E+03 -0.83508411367E+02 -0.84670688865E+03  0.88234493691E+03  0.00000000000E+00 0.  1.
         13    1    4    4    0    0  0.43241350598E+02 -0.50540108270E+02 -0.13018707091E+04  0.13035687444E+04  0.10566000000E+00 0. -1.
         -4    1    4    4    0  501 -0.26997672872E+03  0.63943061415E+03 -0.50511835409E+03  0.85843083355E+03  0.00000000000E+00 0. -1.
<mgrwt>
<rscale>  2 0.11900252E+04</rscale>
<asrwt>0</asrwt>
<pdfrwt beam="1">  1        1 0.78623650E-01 0.11900252E+04</pdfrwt>
<pdfrwt beam="2">  1       -1 0.46943050E+00 0.11900252E+04</pdfrwt>
<totfact> 0.62421709E-01</totfact>
</mgrwt>
</event>
<event>
 8    1  0.1449514E-005  0.1250733E+04  0.7818608E-02  0.8569308E-01
         -2   -1    0    0    0  501 -0.00000000000E+00  0.00000000000E+00  0.78489182306E+03  0.78489182306E+03  0.00000000000E+00 0.  1.
          2   -1    0    0  502    0  0.00000000000E+00 -0.00000000000E+00 -0.20680765072E+04  0.20680765072E+04  0.00000000000E+00 0. -1.
    9000010    2    1    2  502    0  0.79345756065E+03  0.65429870460E+02 -0.90104962126E+03  0.15236014000E+04  0.93574293343E+03 0.  0.
   -9000010    2    1    2    0  501 -0.79345756065E+03 -0.65429870460E+02 -0.38213506285E+03  0.13293669303E+04  0.99364644645E+03 0.  0.
        -13    1    3    3    0    0  0.84519084860E+03  0.24234844715E+02 -0.26783735404E+03  0.88694518300E+03  0.10566000000E+00 0.  1.
          4    1    3    3  502    0 -0.51733287954E+02  0.41195025744E+02 -0.63321226722E+03  0.63665621695E+03  0.00000000000E+00 0.  1.
         13    1    4    4    0    0 -0.65244754114E+03  0.35374846863E+03 -0.46997744023E+03  0.87846717553E+03  0.10566000000E+00 0. -1.
         -4    1    4    4    0  501 -0.14101001952E+03 -0.41917833909E+03  0.87842377374E+02  0.45089975475E+03  0.00000000000E+00 0. -1.
<mgrwt>
<rscale>  2 0.12507330E+04</rscale>
<asrwt>0</asrwt>
<pdfrwt beam="2">  1        2 0.31816562E+00 0.12507330E+04</pdfrwt>
<pdfrwt beam="1">  1       -2 0.12075259E+00 0.12507330E+04</pdfrwt>
<totfact> 0.47519603E+00</totfact>
</mgrwt>
</event>
<event>
 8    1  0.1449514E-005  0.1117722E+04  0.7818608E-02  0.8671236E-01
          2   -1    0    0  502    0  0.00000000000E+00  0.00000000000E+00  0.31099787606E+04  0.31099787606E+04  0.00000000000E+00 0.  1.
         -2   -1    0    0    0  501 -0.00000000000E+00 -0.00000000000E+00 -0.44011960586E+03  0.44011960586E+03  0.00000000000E+00 0. -1.
    9000010    2    1    2  502    0  0.46491038099E+03 -0.10379875031E+03  0.85105036611E+03  0.14329019850E+04  0.10497645117E+04 0.  0.
   -9000010    2    1    2    0  501 -0.46491038099E+03  0.10379875031E+03  0.18188087886E+04  0.21171963815E+04  0.97341628565E+03 0.  0.
        -13    1    3    3    0    0 -0.30798378910E+03 -0.42374479118E+02  0.44377266077E+02  0.31403656433E+03  0.10566000000E+00 0.  1.
          4    1    3    3  502    0  0.77289417009E+03 -0.61424271194E+02  0.80667310004E+03  0.11188654207E+04  0.00000000000E+00 0.  1.
         13    1    4    4    0    0 -0.29631062451E+03 -0.16853914778E+03  0.17585365391E+04  0.17912722297E+04  0.10566000000E+00 0. -1.
         -4    1    4    4    0  501 -0.16859975648E+03  0.27233789809E+03  0.60272249543E+02  0.32592415174E+03  0.00000000000E+00 0. -1.
<mgrwt>
<rscale>  2 0.11177223E+04</rscale>
<asrwt>0</asrwt>
<pdfrwt beam="1">  1        2 0.47845826E+00 0.11177223E+04</pdfrwt>
<pdfrwt beam="2">  1       -2 0.67710711E-01 0.11177223E+04</pdfrwt>
<totfact> 0.46358556E+00</totfact>
</mgrwt>
</event>
<event>
 8    1  0.1449514E-005  0.1084712E+04  0.7818608E-02  0.8698833E-01
          1   -1    0    0  502    0  0.00000000000E+00  0.00000000000E+00  0.13275659121E+04  0.13275659121E+04  0.00000000000E+00 0.  1.
         -1   -1    0    0    0  501 -0.00000000000E+00 -0.00000000000E+00 -0.92980684650E+03  0.92980684650E+03  0.00000000000E+00 0. -1.
    9000010    2    1    2  502    0 -0.31554707511E+02  0.54620537722E+03  0.43260641210E+03  0.11316453132E+04  0.89114353135E+03 0.  0.
   -9000010    2    1    2    0  501  0.31554707511E+02 -0.54620537722E+03 -0.34847346525E+02  0.11257274454E+04  0.98321509853E+03 0.  0.
        -13    1    3    3    0    0 -0.15620988853E+03  0.18184454951E+03  0.64763819180E+03  0.69058251361E+03  0.10566000000E+00 0.  1.
          4    1    3    3  502    0  0.12465518102E+03  0.36436082771E+03 -0.21503177970E+03  0.44106279961E+03  0.00000000000E+00 0.  1.
         13    1    4    4    0    0  0.38541423989E+03 -0.42317591613E+03  0.27922377102E+03  0.63685784737E+03  0.10566000000E+00 0. -1.
         -4    1    4    4    0  501 -0.35385953238E+03 -0.12302946110E+03 -0.31407111754E+03  0.48886959798E+03  0.00000000000E+00 0. -1.
<mgrwt>
<rscale>  2 0.10847122E+04</rscale>
<asrwt>0</asrwt>
<pdfrwt beam="1">  1        1 0.20424091E+00 0.10847122E+04</pdfrwt>
<pdfrwt beam="2">  1       -1 0.14304721E+00 0.10847122E+04</pdfrwt>
<totfact> 0.50375129E+00</totfact>
</mgrwt>
</event>
<event>
 8    1  0.1449514E-005  0.1365826E+04  0.7818608E-02  0.8491166E-01
         -2   -1    0    0    0  501 -0.00000000000E+00  0.00000000000E+00  0.15123772425E+04  0.15123772425E+04  0.00000000000E+00 0.  1.
          2   -1    0    0  502    0  0.00000000000E+00 -0.00000000000E+00 -0.12372519048E+04  0.12372519048E+04  0.00000000000E+00 0. -1.
    9000010    2    1    2  502    0  0.74782099852E+03  0.56198072157E+03  0.64446257903E+02  0.13389460279E+04  0.95580571681E+03 0.  0.
   -9000010    2    1    2    0  501 -0.74782099852E+03 -0.56198072157E+03  0.21067907976E+03  0.14106831194E+04  0.10346896209E+04 0.  0.
        -13    1    3    3    0    0  0.90984215894E+02  0.65305958433E+03 -0.67539829862E+02  0.66281716032E+03  0.10566000000E+00 0.  1.
          4    1    3    3  502    0  0.65683678262E+03 -0.91078862761E+02  0.13198608776E+03  0.67612886761E+03  0.00000000000E+00 0.  1.
         13    1    4    4    0    0 -0.91828386772E+03 -0.47239458497E+03 -0.10804184626E+03  0.10383038849E+04  0.10566000000E+00 0. -1.
         -4    1    4    4    0  501  0.17046286921E+03 -0.89586136594E+02  0.31872092602E+03  0.37237923456E+03  0.00000000000E+00 0. -1.
<mgrwt>
<rscale>  2 0.13658261E+04</rscale>
<asrwt>0</asrwt>
<pdfrwt beam="2">  1        2 0.19034645E+00 0.13658261E+04</pdfrwt>
<pdfrwt beam="1">  1       -2 0.23267342E+00 0.13658261E+04</pdfrwt>
<totfact> 0.14832870E+00</totfact>
</mgrwt>
</event>
<event>
 8    1  0.1449514E-005  0.1200927E+04  0.7818608E-02  0.8605865E-01
          2   -1    0    0  502    0  0.00000000000E+00  0.00000000000E+00  0.17391382149E+04  0.17391382149E+04  0.00000000000E+00 0.  1.
         -2   -1    0    0    0  501 -0.00000000000E+00 -0.00000000000E+00 -0.91354003059E+03  0.91354003059E+03  0.00000000000E+00 0. -1.
    9000010    2    1    2  502    0 -0.16946294749E+03 -0.66663182529E+03  0.81476239031E+03  0.14489828497E+04  0.98112071883E+03 0.  0.
   -9000010    2    1    2    0  501  0.16946294749E+03  0.66663182529E+03  0.10835794010E+02  0.12036953958E+04  0.98774972056E+03 0.  0.
        -13    1    3    3    0    0  0.99169057602E+02 -0.78402030178E+03  0.84174759544E+03  0.11545827650E+04  0.10566000000E+00 0.  1.
          4    1    3    3  502    0 -0.26863200509E+03  0.11738847649E+03 -0.26985205128E+02  0.29440008469E+03  0.00000000000E+00 0.  1.
         13    1    4    4    0    0 -0.27349843442E+03 -0.96848731173E+02 -0.11499042061E+03  0.31209594415E+03  0.10566000000E+00 0. -1.
         -4    1    4    4    0  501  0.44296138191E+03  0.76348055646E+03  0.12582621462E+03  0.89159945168E+03  0.00000000000E+00 0. -1.
<mgrwt>
<rscale>  2 0.12009266E+04</rscale>
<asrwt>0</asrwt>
<pdfrwt beam="1">  1        2 0.26755973E+00 0.12009266E+04</pdfrwt>
<pdfrwt beam="2">  1       -2 0.14054462E+00 0.12009266E+04</pdfrwt>
<totfact> 0.47285996E+00</totfact>
</mgrwt>
</event>
<event>
 8    1  0.1449514E-005  0.1207124E+04  0.7818608E-02  0.8601217E-01
         -1   -1    0    0    0  501 -0.00000000000E+00  0.00000000000E+00  0.10495441423E+04  0.10495441423E+04  0.00000000000E+00 0. -1.
          1   -1    0    0  502    0  0.00000000000E+00 -0.00000000000E+00 -0.13967164087E+04  0.13967164087E+04  0.00000000000E+00 0.  1.
    9000010    2    1    2  502    0  0.67338362501E+03 -0.95677249716E+02 -0.26899246741E+03  0.12449988741E+04  0.10075046433E+04 0.  0.
   -9000010    2    1    2    0  501 -0.67338362501E+03  0.95677249716E+02 -0.78179798970E+02  0.12012616769E+04  0.98707542408E+03 0.  0.
        -13    1    3    3    0    0  0.16122066638E+03 -0.48363932202E+03  0.76458537503E+02  0.51550462286E+03  0.10566000000E+00 0.  1.
          4    1    3    3  502    0  0.51216295863E+03  0.38796207230E+03 -0.34545100491E+03  0.72949425120E+03  0.00000000000E+00 0.  1.
         13    1    4    4    0    0  0.67972823151E+02 -0.24154851842E+03  0.22022672793E+03  0.33386496417E+03  0.10566000000E+00 0. -1.
         -4    1    4    4    0  501 -0.74135644816E+03  0.33722576814E+03 -0.29840652690E+03  0.86739671271E+03  0.00000000000E+00 0. -1.
<mgrwt>
<rscale>  2 0.12071243E+04</rscale>
<asrwt>0</asrwt>
<pdfrwt beam="2">  1        1 0.21487945E+00 0.12071243E+04</pdfrwt>
<pdfrwt beam="1">  1       -1 0.16146833E+00 0.12071243E+04</pdfrwt>
<totfact> 0.30533453E+00</totfact>
</mgrwt>
</event>
<event>
 8    1  0.1449514E-005  0.1279019E+04  0.7818608E-02  0.8549322E-01
         -2   -1    0    0    0  501 -0.00000000000E+00  0.00000000000E+00  0.66001974190E+03  0.66001974190E+03  0.00000000000E+00 0. -1.
          2   -1    0    0  502    0  0.00000000000E+00 -0.00000000000E+00 -0.25367652911E+04  0.25367652911E+04  0.00000000000E+00 0.  1.
    9000010    2    1    2  502    0 -0.64033231263E+03  0.48841581234E+03 -0.11836052430E+04  0.17458800052E+04  0.99929982737E+03 0.  0.
   -9000010    2    1    2    0  501  0.64033231263E+03 -0.48841581234E+03 -0.69314030622E+03  0.14509050278E+04  0.98798099135E+03 0.  0.
        -13    1    3    3    0    0  0.10653988861E+03  0.35348828278E+03 -0.83036379997E+03  0.90874020787E+03  0.10566000000E+00 0.  1.
          4    1    3    3  502    0 -0.74687220124E+03  0.13492752956E+03 -0.35324144303E+03  0.83713979734E+03  0.00000000000E+00 0.  1.
         13    1    4    4    0    0  0.10299140327E+03  0.24451672069E+03 -0.42913296635E+03  0.50453024668E+03  0.10566000000E+00 0. -1.
         -4    1    4    4    0  501  0.53734090935E+03 -0.73293253303E+03 -0.26400733987E+03  0.94637478112E+03  0.00000000000E+00 0. -1.
<mgrwt>
<rscale>  2 0.12790192E+04</rscale>
<asrwt>0</asrwt>
<pdfrwt beam="2">  1        2 0.39027158E+00 0.12790192E+04</pdfrwt>
<pdfrwt beam="1">  1       -2 0.10154150E+00 0.12790192E+04</pdfrwt>
<totfact> 0.40468158E+00</totfact>
</mgrwt>
</event>
<event>
 8    1  0.1449514E-005  0.1647281E+04  0.7818608E-02  0.8329440E-01
          2   -1    0    0  502    0  0.00000000000E+00  0.00000000000E+00  0.20963742591E+04  0.20963742591E+04  0.00000000000E+00 0.  1.
         -2   -1    0    0    0  501 -0.00000000000E+00 -0.00000000000E+00 -0.19544762973E+04  0.19544762973E+04  0.00000000000E+00 0. -1.
    9000010    2    1    2  502    0 -0.12866249668E+04 -0.23359355636E+03 -0.11063496510E+04  0.19757430520E+04  0.98467319570E+03 0.  0.
   -9000010    2    1    2    0  501  0.12866249668E+04  0.23359355636E+03  0.12482476128E+04  0.20751075044E+04  0.10188126900E+04 0.  0.
        -13    1    3    3    0    0 -0.13040769417E+04 -0.30062373285E+03 -0.60335467269E+03  0.14680014206E+04  0.10566000000E+00 0.  1.
          4    1    3    3  502    0  0.17451974914E+02  0.67030176490E+02 -0.50299497834E+03  0.50774163137E+03  0.00000000000E+00 0.  1.
         13    1    4    4    0    0  0.11599668918E+04  0.12793369309E+03  0.43521601183E+03  0.12455132308E+04  0.10566000000E+00 0. -1.
         -4    1    4    4    0  501  0.12665807498E+03  0.10565986327E+03  0.81303160096E+03  0.82959427361E+03  0.00000000000E+00 0. -1.
<mgrwt>
<rscale>  2 0.16472810E+04</rscale>
<asrwt>0</asrwt>
<pdfrwt beam="1">  1        2 0.32251912E+00 0.16472810E+04</pdfrwt>
<pdfrwt beam="2">  1       -2 0.30068866E+00 0.16472810E+04</pdfrwt>
<totfact> 0.14963586E-01</totfact>
</mgrwt>
</event>
<event>
 8    1  0.1449514E-005  0.1006039E+04  0.7818608E-02  0.8768938E-01
         -1   -1    0    0    0  501 -0.00000000000E+00  0.00000000000E+00  0.77821765622E+03  0.77821765622E+03  0.00000000000E+00 0. -1.
          1   -1    0    0  502    0  0.00000000000E+00 -0.00000000000E+00 -0.14880327715E+04  0.14880327715E+04  0.00000000000E+00 0.  1.
    9000010    2    1    2  502    0 -0.49528913288E+00  0.21722973889E+03 -0.75726017400E+03  0.12595715264E+04  0.98279624248E+03 0.  0.
   -9000010    2    1    2    0  501  0.49528913288E+00 -0.21722973889E+03  0.47445058752E+02  0.10066789013E+04  0.98181585438E+03 0.  0.
        -13    1    3    3    0    0  0.43795373927E+03 -0.11753060195E+03 -0.37516591894E+03  0.58852901206E+03  0.10566000000E+00 0.  1.
          4    1    3    3  502    0 -0.43844902841E+03  0.33476034084E+03 -0.38209425505E+03  0.67104251434E+03  0.00000000000E+00 0.  1.
         13    1    4    4    0    0 -0.29479561626E+03 -0.21332050500E+03  0.40399433232E+03  0.54371088359E+03  0.10566000000E+00 0. -1.
         -4    1    4    4    0  501  0.29529090540E+03 -0.39092338879E+01 -0.35654927357E+03  0.46296801769E+03  0.00000000000E+00 0. -1.
<mgrwt>
<rscale>  2 0.10060387E+04</rscale>
<asrwt>0</asrwt>
<pdfrwt beam="2">  1        1 0.22892812E+00 0.10060387E+04</pdfrwt>
<pdfrwt beam="1">  1       -1 0.11972579E+00 0.10060387E+04</pdfrwt>
<totfact> 0.61859036E+00</totfact>
</mgrwt>
</event>
<event>
 8    1  0.1449514E-005  0.1297246E+04  0.7818608E-02  0.8536724E-01
         -1   -1    0    0    0  501 -0.00000000000E+00  0.00000000000E+00  0.85376234154E+03  0.85376234154E+03  0.00000000000E+00 0.  1.
          1   -1    0    0  502    0  0.00000000000E+00 -0.00000000000E+00 -0.19758095512E+04  0.19758095512E+04  0.00000000000E+00 0. -1.
    9000010    2    1    2  502    0 -0.28810869864E+02 -0.80899594226E+03 -0.63532386649E+03  0.14641611205E+04  0.10415502248E+04 0.  0.
   -9000010    2    1    2    0  501  0.28810869864E+02  0.80899594226E+03 -0.48672334322E+03  0.13654107722E+04  0.98597285120E+03 0.  0.
        -13    1    3    3    0    0 -0.47074064002E+03 -0.50832052758E+03 -0.61953163898E+03  0.92941162667E+03  0.10566000000E+00 0.  1.
          4    1    3    3  502    0  0.44192977016E+03 -0.30067541469E+03 -0.15792227503E+02  0.53474949387E+03  0.00000000000E+00 0.  1.
         13    1    4    4    0    0  0.23597308497E+02  0.92674542610E+03 -0.67258207598E+03  0.11453298991E+04  0.10566000000E+00 0. -1.
         -4    1    4    4    0  501  0.52135613670E+01 -0.11774948384E+03  0.18585873276E+03  0.22008087311E+03  0.00000000000E+00 0. -1.
<mgrwt>
<rscale>  2 0.12972456E+04</rscale>
<asrwt>0</asrwt>
<pdfrwt beam="2">  1        1 0.30397069E+00 0.12972456E+04</pdfrwt>
<pdfrwt beam="1">  1       -1 0.13134805E+00 0.12972456E+04</pdfrwt>
<totfact> 0.20338780E+00</totfact>
</mgrwt>
</event>
<event>
 8    1  0.1449514E-005  0.1294776E+04  0.7818608E-02  0.8538418E-01
         -2   -1    0    0    0  501 -0.00000000000E+00  0.00000000000E+00  0.12616897388E+04  0.12616897388E+04  0.00000000000E+00 0.  1.
          2   -1    0    0  502    0  0.00000000000E+00 -0.00000000000E+00 -0.27209673027E+04  0.27209673027E+04  0.00000000000E+00 0. -1.
    9000010    2    1    2  502    0 -0.72924852702E+03 -0.53079720794E+03  0.70641467204E+03  0.14344307370E+04  0.86314585101E+03 0.  0.
   -9000010    2    1    2    0  501  0.72924852702E+03  0.53079720794E+03 -0.21656922360E+04  0.25482263045E+04  0.99482930587E+03 0.  0.
        -13    1    3    3    0    0 -0.76023309359E+03 -0.44291072393E+03  0.17775385369E+03  0.89761946816E+03  0.10566000000E+00 0.  1.
          4    1    3    3  502    0  0.30984566571E+02 -0.87886484015E+02  0.52866081835E+03  0.53681126879E+03  0.00000000000E+00 0.  1.
         13    1    4    4    0    0  0.72832670184E+03 -0.28569233224E+02 -0.15707045020E+04  0.17315855825E+04  0.10566000000E+00 0. -1.
         -4    1    4    4    0  501  0.92182518101E+00  0.55936644116E+03 -0.59498773399E+03  0.81664072202E+03  0.00000000000E+00 0. -1.
<mgrwt>
<rscale>  2 0.12947759E+04</rscale>
<asrwt>0</asrwt>
<pdfrwt beam="2">  1        2 0.41861035E+00 0.12947759E+04</pdfrwt>
<pdfrwt beam="1">  1       -2 0.19410612E+00 0.12947759E+04</pdfrwt>
<totfact> 0.46535656E-01</totfact>
</mgrwt>
</event>
<event>
 8    1  0.1449514E-005  0.1223982E+04  0.7818608E-02  0.8588719E-01
          2   -1    0    0  502    0  0.00000000000E+00  0.00000000000E+00  0.15713861222E+04  0.15713861222E+04  0.00000000000E+00 0. -1.
         -2   -1    0    0    0  501 -0.00000000000E+00 -0.00000000000E+00 -0.99378485825E+03  0.99378485825E+03  0.00000000000E+00 0.  1.
    9000010    2    1    2  502    0 -0.65253350293E+03 -0.26309372693E+03  0.54886036274E+03  0.13476664408E+04  0.10099202227E+04 0.  0.
   -9000010    2    1    2    0  501  0.65253350293E+03  0.26309372693E+03  0.28740901200E+02  0.12175045397E+04  0.99321346301E+03 0.  0.
        -13    1    3    3    0    0 -0.25849275112E+03 -0.45681131674E+03 -0.12856009934E+03  0.54039133208E+03  0.10566000000E+00 0.  1.
          4    1    3    3  502    0 -0.39404075181E+03  0.19371758981E+03  0.67742046208E+03  0.80727510870E+03  0.00000000000E+00 0.  1.
         13    1    4    4    0    0 -0.17857905232E+03  0.11229147037E+03  0.26660610156E+03  0.33996864090E+03  0.10566000000E+00 0. -1.
         -4    1    4    4    0  501  0.83111255525E+03  0.15080225656E+03 -0.23786520036E+03  0.87753589876E+03  0.00000000000E+00 0. -1.
<mgrwt>
<rscale>  2 0.12239815E+04</rscale>
<asrwt>0</asrwt>
<pdfrwt beam="1">  1        2 0.24175171E+00 0.12239815E+04</pdfrwt>
<pdfrwt beam="2">  1       -2 0.15288998E+00 0.12239815E+04</pdfrwt>
<totfact> 0.45231521E+00</totfact>
</mgrwt>
</event>
<event>
 8    1  0.1449514E-005  0.1031681E+04  0.7818608E-02  0.8745381E-01
          1   -1    0    0  502    0  0.00000000000E+00  0.00000000000E+00  0.51052721690E+03  0.51052721690E+03  0.00000000000E+00 0.  1.
         -1   -1    0    0    0  501 -0.00000000000E+00 -0.00000000000E+00 -0.21892782198E+04  0.21892782198E+04  0.00000000000E+00 0. -1.
    9000010    2    1    2  502    0  0.10063448061E+03 -0.21432974412E+03 -0.53689437056E+03  0.11539838866E+04  0.99365925121E+03 0.  0.
   -9000010    2    1    2    0  501 -0.10063448061E+03  0.21432974412E+03 -0.11418566323E+04  0.15458215501E+04  0.10147231928E+04 0.  0.
        -13    1    3    3    0    0  0.23088284803E+03 -0.21183022805E+02 -0.78210970750E+03  0.81575193270E+03  0.10566000000E+00 0.  1.
          4    1    3    3  502    0 -0.13024836742E+03 -0.19314672132E+03  0.24521533694E+03  0.33823195391E+03  0.00000000000E+00 0.  1.
         13    1    4    4    0    0 -0.47792993790E+03 -0.15926536280E+03 -0.46515505472E+03  0.68567610241E+03  0.10566000000E+00 0. -1.
         -4    1    4    4    0  501  0.37729545729E+03  0.37359510693E+03 -0.67670157761E+03  0.86014544767E+03  0.00000000000E+00 0. -1.
<mgrwt>
<rscale>  2 0.10316808E+04</rscale>
<asrwt>0</asrwt>
<pdfrwt beam="1">  1        1 0.78542648E-01 0.10316808E+04</pdfrwt>
<pdfrwt beam="2">  1       -1 0.33681204E+00 0.10316808E+04</pdfrwt>
<totfact> 0.57505375E-01</totfact>
</mgrwt>
</event>
<event>
 8    1  0.1449514E-005  0.1305863E+04  0.7818608E-02  0.8530842E-01
         -2   -1    0    0    0  501 -0.00000000000E+00  0.00000000000E+00  0.14769057837E+04  0.14769057837E+04  0.00000000000E+00 0. -1.
          2   -1    0    0  502    0  0.00000000000E+00 -0.00000000000E+00 -0.11550686369E+04  0.11550686369E+04  0.00000000000E+00 0.  1.
    9000010    2    1    2  502    0 -0.84180218389E+03 -0.73187824076E+02  0.13693793898E+03  0.13196794607E+04  0.10043975833E+04 0.  0.
   -9000010    2    1    2    0  501  0.84180218389E+03  0.73187824076E+02  0.18489920781E+03  0.13122949599E+04  0.98688549003E+03 0.  0.
        -13    1    3    3    0    0 -0.10506914682E+04 -0.11199474376E+03  0.23997231989E+03  0.10835506954E+04  0.10566000000E+00 0.  1.
          4    1    3    3  502    0  0.20888928435E+03  0.38806919681E+02 -0.10303438091E+03  0.23612876526E+03  0.00000000000E+00 0.  1.
         13    1    4    4    0    0  0.50087672454E+03  0.34590644272E+03 -0.28392302122E+03  0.67167034581E+03  0.10566000000E+00 0. -1.
         -4    1    4    4    0  501  0.34092545935E+03 -0.27271861864E+03  0.46882222903E+03  0.64062461412E+03  0.00000000000E+00 0. -1.
<mgrwt>
<rscale>  2 0.13058625E+04</rscale>
<asrwt>0</asrwt>
<pdfrwt beam="2">  1        2 0.17770287E+00 0.13058625E+04</pdfrwt>
<pdfrwt beam="1">  1       -2 0.22721628E+00 0.13058625E+04</pdfrwt>
<totfact> 0.18384704E+00</totfact>
</mgrwt>
</event>
<event>
 8    1  0.1449514E-005  0.1347188E+04  0.7818608E-02  0.8503271E-01
          4   -1    0    0  502    0  0.00000000000E+00  0.00000000000E+00  0.14065262282E+04  0.14065262282E+04  0.00000000000E+00 0.  1.
         -4   -1    0    0    0  501 -0.00000000000E+00 -0.00000000000E+00 -0.13027314937E+04  0.13027314937E+04  0.00000000000E+00 0. -1.
    9000010    2    1    2  502    0 -0.69658245558E+03 -0.92019509917E+02 -0.13078553595E+02  0.12351646429E+04  0.10157587996E+04 0.  0.
   -9000010    2    1    2    0  501  0.69658245558E+03  0.92019509917E+02  0.11687328807E+03  0.14740930789E+04  0.12905798434E+04 0.  0.
        -13    1    3    3    0    0 -0.37647331662E+01 -0.40638072079E+03  0.18868429631E+03  0.44806387746E+03  0.10566000000E+00 0.  1.
          4    1    3    3  502    0 -0.69281772241E+03  0.31436121087E+03 -0.20176284990E+03  0.78710076546E+03  0.00000000000E+00 0.  1.
         13    1    4    4    0    0  0.30490036960E+03  0.68172342168E+03 -0.44065121614E+02  0.74809946207E+03  0.10566000000E+00 0. -1.
         -4    1    4    4    0  501  0.39168208598E+03 -0.58970391176E+03  0.16093840968E+03  0.72599361687E+03  0.00000000000E+00 0. -1.
<mgrwt>
<rscale>  2 0.13471875E+04</rscale>
<asrwt>0</asrwt>
<pdfrwt beam="1">  1        4 0.21638865E+00 0.13471875E+04</pdfrwt>
<pdfrwt beam="2">  1       -4 0.20042023E+00 0.13471875E+04</pdfrwt>
<totfact> 0.16237978E-01</totfact>
</mgrwt>
</event>
<event>
 8    1  0.1449514E-005  0.1032529E+04  0.7818608E-02  0.8744615E-01
          1   -1    0    0  502    0  0.00000000000E+00  0.00000000000E+00  0.97757597560E+03  0.97757597560E+03  0.00000000000E+00 0. -1.
         -1   -1    0    0    0  501 -0.00000000000E+00 -0.00000000000E+00 -0.11732048763E+04  0.11732048763E+04  0.00000000000E+00 0.  1.
    9000010    2    1    2  502    0  0.28283013161E+03  0.54198829966E+02 -0.38282248276E+03  0.10973448712E+04  0.98726000447E+03 0.  0.
   -9000010    2    1    2    0  501 -0.28283013161E+03 -0.54198829966E+02  0.18719358205E+03  0.10534359808E+04  0.99586923432E+03 0.  0.
        -13    1    3    3    0    0  0.55630621871E+03 -0.12334839921E+03  0.30814672311E+02  0.57064962259E+03  0.10566000000E+00 0.  1.
          4    1    3    3  502    0 -0.27347608711E+03  0.17754722918E+03 -0.41363715508E+03  0.52669524857E+03  0.00000000000E+00 0.  1.
         13    1    4    4    0    0 -0.34089377113E+03  0.19174374428E+02 -0.36124927282E+03  0.49706867544E+03  0.10566000000E+00 0. -1.
         -4    1    4    4    0  501  0.58063639518E+02 -0.73373204395E+02  0.54844285488E+03  0.55636730531E+03  0.00000000000E+00 0. -1.
<mgrwt>
<rscale>  2 0.10325285E+04</rscale>
<asrwt>0</asrwt>
<pdfrwt beam="1">  1        1 0.15039630E+00 0.10325285E+04</pdfrwt>
<pdfrwt beam="2">  1       -1 0.18049306E+00 0.10325285E+04</pdfrwt>
<totfact> 0.45043701E+00</totfact>
</mgrwt>
</event>
<event>
 8    1  0.1449514E-005  0.1129195E+04  0.7818608E-02  0.8661876E-01
         -1   -1    0    0    0  501 -0.00000000000E+00  0.00000000000E+00  0.98816443862E+03  0.98816443862E+03  0.00000000000E+00 0.  1.
          1   -1    0    0  502    0  0.00000000000E+00 -0.00000000000E+00 -0.15955880372E+04  0.15955880372E+04  0.00000000000E+00 0. -1.
    9000010    2    1    2  502    0  0.42334749555E+03 -0.26456221589E+03  0.25590374723E+03  0.11798579940E+04  0.10379604472E+04 0.  0.
   -9000010    2    1    2    0  501 -0.42334749555E+03  0.26456221589E+03 -0.86332734583E+03  0.14038944819E+04  0.98811403297E+03 0.  0.
        -13    1    3    3    0    0  0.18308186917E+03 -0.52706499421E+02 -0.40380465746E+03  0.44649205866E+03  0.10566000000E+00 0.  1.
          4    1    3    3  502    0  0.24026562638E+03 -0.21185571647E+03  0.65970840469E+03  0.73336593529E+03  0.00000000000E+00 0.  1.
         13    1    4    4    0    0 -0.52416637652E+03 -0.23192565992E+03 -0.61150263834E+03  0.83813804941E+03  0.10566000000E+00 0. -1.
         -4    1    4    4    0  501  0.10081888097E+03  0.49648787581E+03 -0.25182470748E+03  0.56575643248E+03  0.00000000000E+00 0. -1.
<mgrwt>
<rscale>  2 0.11291955E+04</rscale>
<asrwt>0</asrwt>
<pdfrwt beam="2">  1        1 0.24547508E+00 0.11291955E+04</pdfrwt>
<pdfrwt beam="1">  1       -1 0.15202530E+00 0.11291955E+04</pdfrwt>
<totfact> 0.26455010E+00</totfact>
</mgrwt>
</event>
<event>
 8    1  0.1449514E-005  0.1507163E+04  0.7818608E-02  0.8405388E-01
         -2   -1    0    0    0  501 -0.00000000000E+00  0.00000000000E+00  0.10207185057E+04  0.10207185057E+04  0.00000000000E+00 0.  1.
          2   -1    0    0  502    0  0.00000000000E+00 -0.00000000000E+00 -0.30701938610E+04  0.30701938610E+04  0.00000000000E+00 0. -1.
    9000010    2    1    2  502    0 -0.11323831503E+04  0.47612998572E+02 -0.20929265476E+04  0.25736088619E+04  0.97906202233E+03 0.  0.
   -9000010    2    1    2    0  501  0.11323831503E+04 -0.47612998572E+02  0.43451192328E+02  0.15173035048E+04  0.10078508435E+04 0.  0.
        -13    1    3    3    0    0 -0.38396255234E+03 -0.28188667871E+03 -0.14711082273E+04  0.15463009955E+04  0.10566000000E+00 0.  1.
          4    1    3    3  502    0 -0.74842059800E+03  0.32949967729E+03 -0.62181832036E+03  0.10273078664E+04  0.00000000000E+00 0.  1.
         13    1    4    4    0    0  0.86108709831E+03  0.35582917401E+03 -0.22975603771E+03  0.95962140450E+03  0.10566000000E+00 0. -1.
         -4    1    4    4    0  501  0.27129605204E+03 -0.40344217258E+03  0.27320723004E+03  0.55768210032E+03  0.00000000000E+00 0. -1.
<mgrwt>
<rscale>  2 0.15071634E+04</rscale>
<asrwt>0</asrwt>
<pdfrwt beam="2">  1        2 0.47233751E+00 0.15071634E+04</pdfrwt>
<pdfrwt beam="1">  1       -2 0.15703362E+00 0.15071634E+04</pdfrwt>
<totfact> 0.56999706E-01</totfact>
</mgrwt>
</event>
<event>
 8    1  0.1449514E-005  0.1302043E+04  0.7818608E-02  0.8533443E-01
          2   -1    0    0  502    0  0.00000000000E+00  0.00000000000E+00  0.13582329951E+04  0.13582329951E+04  0.00000000000E+00 0.  1.
         -2   -1    0    0    0  501 -0.00000000000E+00 -0.00000000000E+00 -0.13347937357E+04  0.13347937357E+04  0.00000000000E+00 0. -1.
    9000010    2    1    2  502    0  0.47722547086E+03  0.61018613504E+03 -0.33060558484E+03  0.13205080855E+04  0.10170399607E+04 0.  0.
   -9000010    2    1    2    0  501 -0.47722547086E+03 -0.61018613504E+03  0.35404484431E+03  0.13725186453E+04  0.10762845397E+04 0.  0.
        -13    1    3    3    0    0 -0.55016891735E+02  0.38715697737E+03  0.27953902519E+03  0.48068644797E+03  0.10566000000E+00 0.  1.
          4    1    3    3  502    0  0.53224236259E+03  0.22302915767E+03 -0.61014461003E+03  0.83982163753E+03  0.00000000000E+00 0.  1.
         13    1    4    4    0    0 -0.16928131008E+03  0.29852158077E+03 -0.17498808397E+02  0.34362409052E+03  0.10566000000E+00 0. -1.
         -4    1    4    4    0  501 -0.30794416078E+03 -0.90870771581E+03  0.37154365271E+03  0.10288945548E+04  0.00000000000E+00 0. -1.
<mgrwt>
<rscale>  2 0.13020434E+04</rscale>
<asrwt>0</asrwt>
<pdfrwt beam="1">  1        2 0.20895892E+00 0.13020434E+04</pdfrwt>
<pdfrwt beam="2">  1       -2 0.20535288E+00 0.13020434E+04</pdfrwt>
<totfact> 0.21275715E+00</totfact>
</mgrwt>
</event>
<event>
 8    1  0.1449514E-005  0.1191182E+04  0.7818608E-02  0.8613232E-01
          2   -1    0    0  502    0  0.00000000000E+00  0.00000000000E+00  0.25053451631E+04  0.25053451631E+04  0.00000000000E+00 0.  1.
         -2   -1    0    0    0  501 -0.00000000000E+00 -0.00000000000E+00 -0.58320083591E+03  0.58320083591E+03  0.00000000000E+00 0. -1.
    9000010    2    1    2  502    0  0.55791505950E+03 -0.21355894552E+03  0.67174900133E+03  0.13323442556E+04  0.98337066146E+03 0.  0.
   -9000010    2    1    2    0  501 -0.55791505950E+03  0.21355894552E+03  0.12503953258E+04  0.17562017434E+04  0.10788324503E+04 0.  0.
        -13    1    3    3    0    0  0.37513262781E+03  0.36496275112E+03  0.43690592623E+03  0.68176909412E+03  0.10566000000E+00 0.  1.
          4    1    3    3  502    0  0.18278243168E+03 -0.57852169664E+03  0.23484307510E+03  0.65057516149E+03  0.00000000000E+00 0.  1.
         13    1    4    4    0    0  0.16566715415E+03 -0.19970081263E+02  0.90647025506E+03  0.92170100607E+03  0.10566000000E+00 0. -1.
         -4    1    4    4    0  501 -0.72358221365E+03  0.23352902679E+03  0.34392507078E+03  0.83450073731E+03  0.00000000000E+00 0. -1.
<mgrwt>
<rscale>  2 0.11911823E+04</rscale>
<asrwt>0</asrwt>
<pdfrwt beam="1">  1        2 0.38543771E+00 0.11911823E+04</pdfrwt>
<pdfrwt beam="2">  1       -2 0.89723207E-01 0.11911823E+04</pdfrwt>
<totfact> 0.57030099E+00</totfact>
</mgrwt>
</event>
<event>
 8    1  0.1449514E-005  0.1684501E+04  0.7818608E-02  0.8310571E-01
         -2   -1    0    0    0  501 -0.00000000000E+00  0.00000000000E+00  0.35894165911E+04  0.35894165911E+04  0.00000000000E+00 0. -1.
          2   -1    0    0  502    0  0.00000000000E+00 -0.00000000000E+00 -0.80348287052E+03  0.80348287052E+03  0.00000000000E+00 0.  1.
    9000010    2    1    2  502    0  0.42268513278E+03 -0.12898675912E+04  0.16705118462E+04  0.23712233290E+04  0.99482115126E+03 0.  0.
   -9000010    2    1    2    0  501 -0.42268513278E+03  0.12898675912E+04  0.11154218743E+04  0.20216761326E+04  0.10002936085E+04 0.  0.
        -13    1    3    3    0    0 -0.22641903936E+03 -0.89399093624E+03  0.94017654855E+03  0.13169727898E+04  0.10566000000E+00 0.  1.
          4    1    3    3  502    0  0.64910417214E+03 -0.39587665497E+03  0.73033529769E+03  0.10542505392E+04  0.00000000000E+00 0.  1.
         13    1    4    4    0    0 -0.43813240652E+03  0.11160620763E+04  0.36804108998E+03  0.12541964834E+04  0.10566000000E+00 0. -1.
         -4    1    4    4    0  501  0.15447273745E+02  0.17380551492E+03  0.74738078432E+03  0.76747964928E+03  0.00000000000E+00 0. -1.
<mgrwt>
<rscale>  2 0.16845011E+04</rscale>
<asrwt>0</asrwt>
<pdfrwt beam="2">  1        2 0.12361275E+00 0.16845011E+04</pdfrwt>
<pdfrwt beam="1">  1       -2 0.55221793E+00 0.16845011E+04</pdfrwt>
<totfact> 0.18226178E-01</totfact>
</mgrwt>
</event>
<event>
 8    1  0.1449514E-005  0.1288340E+04  0.7818608E-02  0.8542853E-01
          2   -1    0    0  502    0  0.00000000000E+00  0.00000000000E+00  0.16508691112E+04  0.16508691112E+04  0.00000000000E+00 0.  1.
         -2   -1    0    0    0  501 -0.00000000000E+00 -0.00000000000E+00 -0.11242119299E+04  0.11242119299E+04  0.00000000000E+00 0. -1.
    9000010    2    1    2  502    0  0.57777275357E+03  0.56871367944E+03  0.71345522848E+03  0.14684939736E+04  0.99508772648E+03 0.  0.
   -9000010    2    1    2    0  501 -0.57777275357E+03 -0.56871367944E+03 -0.18679804719E+03  0.13065870676E+04  0.10074818364E+04 0.  0.
        -13    1    3    3    0    0 -0.62391367538E+02  0.41903994347E+03 -0.87169853188E+02  0.43253410436E+03  0.10566000000E+00 0.  1.
          4    1    3    3  502    0  0.64016412111E+03  0.14967373597E+03  0.80062508166E+03  0.10359598692E+04  0.00000000000E+00 0.  1.
         13    1    4    4    0    0 -0.86789379463E+03 -0.46800890146E+03 -0.14586569668E+03  0.99676917250E+03  0.10566000000E+00 0. -1.
         -4    1    4    4    0  501  0.29012104106E+03 -0.10070477798E+03 -0.40932350509E+02  0.30981789505E+03  0.00000000000E+00 0. -1.
<mgrwt>
<rscale>  2 0.12883400E+04</rscale>
<asrwt>0</asrwt>
<pdfrwt beam="1">  1        2 0.25397987E+00 0.12883400E+04</pdfrwt>
<pdfrwt beam="2">  1       -2 0.17295568E+00 0.12883400E+04</pdfrwt>
<totfact> 0.27353475E+00</totfact>
</mgrwt>
</event>
<event>
 8    1  0.1449514E-005  0.1311022E+04  0.7818608E-02  0.8527343E-01
          1   -1    0    0  502    0  0.00000000000E+00  0.00000000000E+00  0.25752416614E+04  0.25752416614E+04  0.00000000000E+00 0. -1.
         -1   -1    0    0    0  501 -0.00000000000E+00 -0.00000000000E+00 -0.69301445596E+03  0.69301445596E+03  0.00000000000E+00 0.  1.
    9000010    2    1    2  502    0 -0.82385477570E+03  0.90932031769E+02  0.12616252701E+04  0.18265243377E+04  0.10283421164E+04 0.  0.
   -9000010    2    1    2    0  501  0.82385477570E+03 -0.90932031769E+02  0.62060193536E+03  0.14417317796E+04  0.10032140531E+04 0.  0.
        -13    1    3    3    0    0  0.17963637139E+02  0.41743329653E+03  0.40686403683E+03  0.58319088208E+03  0.10566000000E+00 0.  1.
          4    1    3    3  502    0 -0.84181841283E+03 -0.32650126476E+03  0.85476123327E+03  0.12433334557E+04  0.00000000000E+00 0.  1.
         13    1    4    4    0    0  0.41059340655E+03 -0.51233739576E+03  0.53168229735E+03  0.84484473667E+03  0.10566000000E+00 0. -1.
         -4    1    4    4    0  501  0.41326136915E+03  0.42140536399E+03  0.88919638009E+02  0.59688704296E+03  0.00000000000E+00 0. -1.
<mgrwt>
<rscale>  2 0.13110220E+04</rscale>
<asrwt>0</asrwt>
<pdfrwt beam="1">  1        1 0.39619102E+00 0.13110220E+04</pdfrwt>
<pdfrwt beam="2">  1       -1 0.10661761E+00 0.13110220E+04</pdfrwt>
<totfact> 0.10668313E+00</totfact>
</mgrwt>
</event>
<event>
 8    1  0.1449514E-005  0.1409819E+04  0.7818608E-02  0.8463366E-01
          2   -1    0    0  502    0  0.00000000000E+00  0.00000000000E+00  0.13466957602E+04  0.13466957602E+04  0.00000000000E+00 0. -1.
         -2   -1    0    0    0  501 -0.00000000000E+00 -0.00000000000E+00 -0.14941304840E+04  0.14941304840E+04  0.00000000000E+00 0.  1.
    9000010    2    1    2  502    0 -0.41811533074E+03  0.90477992922E+03  0.83273402151E+02  0.14101049299E+04  0.99398908632E+03 0.  0.
   -9000010    2    1    2    0  501  0.41811533074E+03 -0.90477992922E+03 -0.23070812593E+03  0.14307213143E+04  0.10001450343E+04 0.  0.
        -13    1    3    3    0    0 -0.25689540469E+02  0.96026908662E+03 -0.11407021438E+03  0.96736171941E+03  0.10566000000E+00 0.  1.
          4    1    3    3  502    0 -0.39242579027E+03 -0.55489157395E+02  0.19734361653E+03  0.44274321050E+03  0.00000000000E+00 0.  1.
         13    1    4    4    0    0  0.63503059815E+03 -0.60769830056E+03  0.16077236225E+03  0.89353726767E+03  0.10566000000E+00 0. -1.
         -4    1    4    4    0  501 -0.21691526741E+03 -0.29708162866E+03 -0.39148048818E+03  0.53718404662E+03  0.00000000000E+00 0. -1.
<mgrwt>
<rscale>  2 0.14098191E+04</rscale>
<asrwt>0</asrwt>
<pdfrwt beam="1">  1        2 0.20718396E+00 0.14098191E+04</pdfrwt>
<pdfrwt beam="2">  1       -2 0.22986623E+00 0.14098191E+04</pdfrwt>
<totfact> 0.13489611E+00</totfact>
</mgrwt>
</event>
<event>
 8    1  0.1449514E-005  0.1197514E+04  0.7818608E-02  0.8608437E-01
         -4   -1    0    0    0  501 -0.00000000000E+00  0.00000000000E+00  0.19332641665E+04  0.19332641665E+04  0.00000000000E+00 0. -1.
          4   -1    0    0  502    0  0.00000000000E+00 -0.00000000000E+00 -0.76397522489E+03  0.76397522489E+03  0.00000000000E+00 0.  1.
    9000010    2    1    2  502    0 -0.64209320777E+03  0.15298845774E+03  0.35470415855E+03  0.12488895922E+04  0.99911011295E+03 0.  0.
   -9000010    2    1    2    0  501  0.64209320777E+03 -0.15298845774E+03  0.81458478308E+03  0.14483497992E+04  0.99923951900E+03 0.  0.
        -13    1    3    3    0    0  0.15082282302E+02  0.33421644025E+02  0.55136033462E+03  0.55257823997E+03  0.10566000000E+00 0.  1.
          4    1    3    3  502    0 -0.65717549007E+03  0.11956681372E+03 -0.19665617607E+03  0.69631135225E+03  0.00000000000E+00 0.  1.
         13    1    4    4    0    0  0.54340152322E+03  0.32496100779E+03  0.20089079744E+03  0.66426048782E+03  0.10566000000E+00 0. -1.
         -4    1    4    4    0  501  0.98691684550E+02 -0.47794946553E+03  0.61369398564E+03  0.78408931137E+03  0.00000000000E+00 0. -1.
<mgrwt>
<rscale>  2 0.11975139E+04</rscale>
<asrwt>0</asrwt>
<pdfrwt beam="2">  1        4 0.11753465E+00 0.11975139E+04</pdfrwt>
<pdfrwt beam="1">  1       -4 0.29742525E+00 0.11975139E+04</pdfrwt>
<totfact> 0.22622259E-01</totfact>
</mgrwt>
</event>
<event>
 8    1  0.1449514E-005  0.1102726E+04  0.7818608E-02  0.8683648E-01
         -1   -1    0    0    0  501 -0.00000000000E+00  0.00000000000E+00  0.18324715594E+04  0.18324715594E+04  0.00000000000E+00 0. -1.
          1   -1    0    0  502    0  0.00000000000E+00 -0.00000000000E+00 -0.68413234023E+03  0.68413234023E+03  0.00000000000E+00 0.  1.
    9000010    2    1    2  502    0  0.25241855442E+03  0.39027619421E+03  0.79251807775E+03  0.13584476550E+04  0.10006320470E+04 0.  0.
   -9000010    2    1    2    0  501 -0.25241855442E+03 -0.39027619421E+03  0.35582114145E+03  0.11581562446E+04  0.99934306818E+03 0.  0.
        -13    1    3    3    0    0  0.19445593756E+03 -0.32623789087E+03  0.33434971008E+03  0.50599803645E+03  0.10566000000E+00 0.  1.
          4    1    3    3  502    0  0.57962616866E+02  0.71651408508E+03  0.45816836766E+03  0.85244961857E+03  0.00000000000E+00 0.  1.
         13    1    4    4    0    0 -0.81910579041E+02  0.32974349857E+03  0.22296344725E+03  0.40638999469E+03  0.10566000000E+00 0. -1.
         -4    1    4    4    0  501 -0.17050797538E+03 -0.72001969278E+03  0.13285769420E+03  0.75176624996E+03  0.00000000000E+00 0. -1.
<mgrwt>
<rscale>  2 0.11027264E+04</rscale>
<asrwt>0</asrwt>
<pdfrwt beam="2">  1        1 0.10525113E+00 0.11027264E+04</pdfrwt>
<pdfrwt beam="1">  1       -1 0.28191870E+00 0.11027264E+04</pdfrwt>
<totfact> 0.90769638E-01</totfact>
</mgrwt>
</event>
<event>
 8    1  0.1449514E-005  0.1047542E+04  0.7818608E-02  0.8731160E-01
         -4   -1    0    0    0  501 -0.00000000000E+00  0.00000000000E+00  0.19397763209E+04  0.19397763209E+04  0.00000000000E+00 0. -1.
          4   -1    0    0  502    0  0.00000000000E+00 -0.00000000000E+00 -0.65028631723E+03  0.65028631723E+03  0.00000000000E+00 0.  1.
    9000010    2    1    2  502    0  0.15011282396E+03  0.17087645110E+03  0.16587629861E+03  0.10373875302E+04  0.99846147648E+03 0.  0.
   -9000010    2    1    2    0  501 -0.15011282396E+03 -0.17087645110E+03  0.11236137050E+04  0.15526751079E+04  0.10471674226E+04 0.  0.
        -13    1    3    3    0    0  0.64763043264E+02 -0.33765399036E+03  0.34927615551E+03  0.49010030907E+03  0.10566000000E+00 0.  1.
          4    1    3    3  502    0  0.85349780696E+02  0.50853044145E+03 -0.18339985691E+03  0.54728722118E+03  0.00000000000E+00 0.  1.
         13    1    4    4    0    0 -0.33789973404E+03 -0.45286747268E+03  0.10694995827E+04  0.12095844521E+04  0.10566000000E+00 0. -1.
         -4    1    4    4    0  501  0.18778691008E+03  0.28199102158E+03  0.54114122293E+02  0.34309065578E+03  0.00000000000E+00 0. -1.
<mgrwt>
<rscale>  2 0.10475423E+04</rscale>
<asrwt>0</asrwt>
<pdfrwt beam="2">  1        4 0.10004405E+00 0.10475423E+04</pdfrwt>
<pdfrwt beam="1">  1       -4 0.29842712E+00 0.10475423E+04</pdfrwt>
<totfact> 0.30302341E-01</totfact>
</mgrwt>
</event>
<event>
 8    1  0.1449514E-005  0.1112002E+04  0.7818608E-02  0.8675947E-01
         -1   -1    0    0    0  501 -0.00000000000E+00  0.00000000000E+00  0.28066916206E+04  0.28066916206E+04  0.00000000000E+00 0. -1.
          1   -1    0    0  502    0  0.00000000000E+00 -0.00000000000E+00 -0.44270582066E+03  0.44270582066E+03  0.00000000000E+00 0.  1.
    9000010    2    1    2  502    0 -0.45121595369E+03  0.16923803285E+03  0.13014560384E+04  0.17161912500E+04  0.10095975625E+04 0.  0.
   -9000010    2    1    2    0  501  0.45121595369E+03 -0.16923803285E+03  0.10625297615E+04  0.15332061912E+04  0.99474337497E+03 0.  0.
        -13    1    3    3    0    0 -0.56137891935E+03  0.12970703148E+03  0.14303813922E+04  0.15420639233E+04  0.10566000000E+00 0.  1.
          4    1    3    3  502    0  0.11016296567E+03  0.39531001371E+02 -0.12892535379E+03  0.17412732676E+03  0.00000000000E+00 0.  1.
         13    1    4    4    0    0 -0.26147711962E+03 -0.27159565990E+03  0.45687037093E+03  0.59233861394E+03  0.10566000000E+00 0. -1.
         -4    1    4    4    0  501  0.71269307331E+03  0.10235762705E+03  0.60565939053E+03  0.94086757723E+03  0.00000000000E+00 0. -1.
<mgrwt>
<rscale>  2 0.11120020E+04</rscale>
<asrwt>0</asrwt>
<pdfrwt beam="2">  1        1 0.68108589E-01 0.11120020E+04</pdfrwt>
<pdfrwt beam="1">  1       -1 0.43179870E+00 0.11120020E+04</pdfrwt>
<totfact> 0.84244849E-01</totfact>
</mgrwt>
</event>
<event>
 8    1  0.1449514E-005  0.1280603E+04  0.7818608E-02  0.8548218E-01
          1   -1    0    0  502    0  0.00000000000E+00  0.00000000000E+00  0.25731533506E+04  0.25731533506E+04  0.00000000000E+00 0. -1.
         -1   -1    0    0    0  501 -0.00000000000E+00 -0.00000000000E+00 -0.66085884854E+03  0.66085884854E+03  0.00000000000E+00 0.  1.
    9000010    2    1    2  502    0 -0.76024839822E+03  0.27789148378E+03  0.12639293092E+04  0.18019685059E+04  0.99718197629E+03 0.  0.
   -9000010    2    1    2    0  501  0.76024839822E+03 -0.27789148378E+03  0.64836519283E+03  0.14320436932E+04  0.98750717073E+03 0.  0.
        -13    1    3    3    0    0 -0.82877732487E+02  0.50241450949E+03  0.80824735306E+03  0.95527632273E+03  0.10566000000E+00 0.  1.
          4    1    3    3  502    0 -0.67737066574E+03 -0.22452302571E+03  0.45568195612E+03  0.84669218315E+03  0.00000000000E+00 0.  1.
         13    1    4    4    0    0  0.59887651791E+02 -0.52695241549E+03  0.32009668670E+03  0.61945724552E+03  0.10566000000E+00 0. -1.
         -4    1    4    4    0  501  0.70036074643E+03  0.24906093171E+03  0.32826850613E+03  0.81258644769E+03  0.00000000000E+00 0. -1.
<mgrwt>
<rscale>  2 0.12806031E+04</rscale>
<asrwt>0</asrwt>
<pdfrwt beam="1">  1        1 0.39586974E+00 0.12806031E+04</pdfrwt>
<pdfrwt beam="2">  1       -1 0.10167059E+00 0.12806031E+04</pdfrwt>
<totfact> 0.11959825E+00</totfact>
</mgrwt>
</event>
<event>
 8    1  0.1449514E-005  0.1185570E+04  0.7818608E-02  0.8617508E-01
         -2   -1    0    0    0  501 -0.00000000000E+00  0.00000000000E+00  0.46716659103E+03  0.46716659103E+03  0.00000000000E+00 0.  1.
          2   -1    0    0  502    0  0.00000000000E+00 -0.00000000000E+00 -0.30155835867E+04  0.30155835867E+04  0.00000000000E+00 0. -1.
    9000010    2    1    2  502    0 -0.41372470192E+03 -0.57732530267E+03 -0.11762701378E+04  0.16575490897E+04  0.92703015785E+03 0.  0.
   -9000010    2    1    2    0  501  0.41372470192E+03  0.57732530267E+03 -0.13721468579E+04  0.18252010880E+04  0.97164776442E+03 0.  0.
        -13    1    3    3    0    0 -0.26118352678E+03 -0.46296376959E+03 -0.13172356882E+04  0.14204443517E+04  0.10566000000E+00 0.  1.
          4    1    3    3  502    0 -0.15254117514E+03 -0.11436153308E+03  0.14096555048E+03  0.23710473800E+03  0.00000000000E+00 0.  1.
         13    1    4    4    0    0  0.51102622553E+03  0.50725759373E+03 -0.14913819097E+04  0.16561032822E+04  0.10566000000E+00 0. -1.
         -4    1    4    4    0  501 -0.97301523609E+02  0.70067708936E+02  0.11923505187E+03  0.16909780580E+03  0.00000000000E+00 0. -1.
<mgrwt>
<rscale>  2 0.11855702E+04</rscale>
<asrwt>0</asrwt>
<pdfrwt beam="2">  1        2 0.46393595E+00 0.11855702E+04</pdfrwt>
<pdfrwt beam="1">  1       -2 0.71871781E-01 0.11855702E+04</pdfrwt>
<totfact> 0.46447735E+00</totfact>
</mgrwt>
</event>
<event>
 8    1  0.1449514E-005  0.1168490E+04  0.7818608E-02  0.8630675E-01
         -2   -1    0    0    0  501 -0.00000000000E+00  0.00000000000E+00  0.11761355729E+04  0.11761355729E+04  0.00000000000E+00 0. -1.
          2   -1    0    0  502    0  0.00000000000E+00 -0.00000000000E+00 -0.26722315280E+04  0.26722315280E+04  0.00000000000E+00 0.  1.
    9000010    2    1    2  502    0  0.19322308892E+03  0.57910276448E+03  0.69745540169E+03  0.13656098433E+04  0.10028713940E+04 0.  0.
   -9000010    2    1    2    0  501 -0.19322308892E+03 -0.57910276448E+03 -0.21935513567E+04  0.24827572575E+04  0.98980850229E+03 0.  0.
        -13    1    3    3    0    0  0.12504020541E+03  0.24800817882E+03  0.91991898578E+03  0.96093395262E+03  0.10566000000E+00 0.  1.
          4    1    3    3  502    0  0.68182883515E+02  0.33109458566E+03 -0.22246358410E+03  0.40467589069E+03  0.00000000000E+00 0.  1.
         13    1    4    4    0    0 -0.67698159475E+02 -0.24332220931E+03  0.75290369627E+01  0.25267654403E+03  0.10566000000E+00 0. -1.
         -4    1    4    4    0  501 -0.12552492945E+03 -0.33578055517E+03 -0.22010803937E+04  0.22300807135E+04  0.00000000000E+00 0. -1.
<mgrwt>
<rscale>  2 0.11684901E+04</rscale>
<asrwt>0</asrwt>
<pdfrwt beam="2">  1        2 0.41111254E+00 0.11684901E+04</pdfrwt>
<pdfrwt beam="1">  1       -2 0.18094394E+00 0.11684901E+04</pdfrwt>
<totfact> 0.65099114E-01</totfact>
</mgrwt>
</event>
<event>
 8    1  0.1449514E-005  0.1442339E+04  0.7818608E-02  0.8443476E-01
         -4   -1    0    0    0  501 -0.00000000000E+00  0.00000000000E+00  0.13182901211E+04  0.13182901211E+04  0.00000000000E+00 0. -1.
          4   -1    0    0  502    0  0.00000000000E+00 -0.00000000000E+00 -0.16030134387E+04  0.16030134387E+04  0.00000000000E+00 0.  1.
    9000010    2    1    2  502    0  0.10067687050E+04  0.21786928573E+03 -0.32491669157E+03  0.14821031014E+04  0.10148933420E+04 0.  0.
   -9000010    2    1    2    0  501 -0.10067687050E+04 -0.21786928573E+03  0.40193373933E+02  0.14392004584E+04  0.10043068262E+04 0.  0.
        -13    1    3    3    0    0  0.56398296556E+03  0.57001507562E+03 -0.42506293193E+03  0.90756403583E+03  0.10566000000E+00 0.  1.
          4    1    3    3  502    0  0.44278573944E+03 -0.35214578989E+03  0.10014624036E+03  0.57453906555E+03  0.00000000000E+00 0.  1.
         13    1    4    4    0    0 -0.75939199314E+03  0.38120169354E+02 -0.41112791192E+03  0.86438158106E+03  0.10566000000E+00 0. -1.
         -4    1    4    4    0  501 -0.24737671186E+03 -0.25598945508E+03  0.45132128585E+03  0.57481887734E+03  0.00000000000E+00 0. -1.
<mgrwt>
<rscale>  2 0.14423395E+04</rscale>
<asrwt>0</asrwt>
<pdfrwt beam="2">  1        4 0.24661745E+00 0.14423395E+04</pdfrwt>
<pdfrwt beam="1">  1       -4 0.20281386E+00 0.14423395E+04</pdfrwt>
<totfact> 0.13390693E-01</totfact>
</mgrwt>
</event>
<event>
 8    1  0.1449514E-005  0.1066775E+04  0.7818608E-02  0.8714261E-01
         -2   -1    0    0    0  501 -0.00000000000E+00  0.00000000000E+00  0.37109358540E+03  0.37109358540E+03  0.00000000000E+00 0.  1.
          2   -1    0    0  502    0  0.00000000000E+00 -0.00000000000E+00 -0.31083638486E+04  0.31083638486E+04  0.00000000000E+00 0. -1.
    9000010    2    1    2  502    0 -0.28690424480E+03 -0.19679891561E+03 -0.12422090144E+04  0.16692728470E+04  0.10594077324E+04 0.  0.
   -9000010    2    1    2    0  501  0.28690424480E+03  0.19679891561E+03 -0.14950612488E+04  0.18101845869E+04  0.95943537682E+03 0.  0.
        -13    1    3    3    0    0  0.22679994527E+03 -0.25519385680E+03 -0.19753915828E+02  0.34198296460E+03  0.10566000000E+00 0.  1.
          4    1    3    3  502    0 -0.51370419006E+03  0.58394941188E+02 -0.12224550986E+04  0.13272898824E+04  0.00000000000E+00 0.  1.
         13    1    4    4    0    0  0.33306598482E+03  0.51358412970E+03 -0.59001225209E+03  0.85018590749E+03  0.10566000000E+00 0. -1.
         -4    1    4    4    0  501 -0.46161740022E+02 -0.31678521409E+03 -0.90504899670E+03  0.95999867945E+03  0.00000000000E+00 0. -1.
<mgrwt>
<rscale>  2 0.10667749E+04</rscale>
<asrwt>0</asrwt>
<pdfrwt beam="2">  1        2 0.47820983E+00 0.10667749E+04</pdfrwt>
<pdfrwt beam="1">  1       -2 0.57091319E-01 0.10667749E+04</pdfrwt>
<totfact> 0.66177844E+00</totfact>
</mgrwt>
</event>
<event>
 8    1  0.1449514E-005  0.1487797E+04  0.7818608E-02  0.8416557E-01
         -2   -1    0    0    0  501 -0.00000000000E+00  0.00000000000E+00  0.12998683781E+04  0.12998683781E+04  0.00000000000E+00 0. -1.
          2   -1    0    0  502    0  0.00000000000E+00 -0.00000000000E+00 -0.17668285059E+04  0.17668285059E+04  0.00000000000E+00 0.  1.
    9000010    2    1    2  502    0  0.34860618714E+03  0.10491922865E+04  0.57786926719E+02  0.14915699532E+04  0.99955533546E+03 0.  0.
   -9000010    2    1    2    0  501 -0.34860618714E+03 -0.10491922865E+04 -0.52474705455E+03  0.15751269308E+04  0.99163231553E+03 0.  0.
        -13    1    3    3    0    0  0.40495454208E+03  0.14353506816E+02  0.18864604564E+03  0.44696928978E+03  0.10566000000E+00 0.  1.
          4    1    3    3  502    0 -0.56348354937E+02  0.10348387797E+04 -0.13085911892E+03  0.10446006634E+04  0.00000000000E+00 0.  1.
         13    1    4    4    0    0 -0.41943344486E+03 -0.11798490345E+04 -0.62134933299E+03  0.13978709396E+04  0.10566000000E+00 0. -1.
         -4    1    4    4    0  501  0.70827257719E+02  0.13065674802E+03  0.96602278442E+02  0.17725599126E+03  0.00000000000E+00 0. -1.
<mgrwt>
<rscale>  2 0.14877968E+04</rscale>
<asrwt>0</asrwt>
<pdfrwt beam="2">  1        2 0.27181977E+00 0.14877968E+04</pdfrwt>
<pdfrwt beam="1">  1       -2 0.19997975E+00 0.14877968E+04</pdfrwt>
<totfact> 0.13782275E+00</totfact>
</mgrwt>
</event>
<event>
 8    1  0.1449514E-005  0.2828441E+04  0.7818608E-02  0.7895652E-01
         -4   -1    0    0    0  501 -0.00000000000E+00  0.00000000000E+00  0.23254211003E+04  0.23254211003E+04  0.00000000000E+00 0. -1.
          4   -1    0    0  502    0  0.00000000000E+00 -0.00000000000E+00 -0.39001769101E+04  0.39001769101E+04  0.00000000000E+00 0.  1.
    9000010    2    1    2  502    0  0.21768595131E+04  0.15216667056E+04 -0.18515610985E+04  0.33651817289E+04  0.91759613344E+03 0.  0.
   -9000010    2    1    2    0  501 -0.21768595131E+04 -0.15216667056E+04  0.27680528868E+03  0.28604162816E+04  0.10252673960E+04 0.  0.
        -13    1    3    3    0    0  0.35155614066E+03  0.19499385914E+03  0.61728370684E+02  0.40672438831E+03  0.10566000000E+00 0.  1.
          4    1    3    3  502    0  0.18253033724E+04  0.13266728465E+04 -0.19132894692E+04  0.29584573406E+04  0.00000000000E+00 0.  1.
         13    1    4    4    0    0 -0.13783073117E+03 -0.49984011314E+03 -0.15071239919E+03  0.53995526444E+03  0.10566000000E+00 0. -1.
         -4    1    4    4    0  501 -0.20390287819E+04 -0.10218265925E+04  0.42751768787E+03  0.23204610171E+04  0.00000000000E+00 0. -1.
<mgrwt>
<rscale>  2 0.28284415E+04</rscale>
<asrwt>0</asrwt>
<pdfrwt beam="2">  1        4 0.60002722E+00 0.28284415E+04</pdfrwt>
<pdfrwt beam="1">  1       -4 0.35775709E+00 0.28284415E+04</pdfrwt>
<totfact> 0.16165912E-03</totfact>
</mgrwt>
</event>
<event>
 8    1  0.1449514E-005  0.1417403E+04  0.7818608E-02  0.8458679E-01
          2   -1    0    0  502    0  0.00000000000E+00  0.00000000000E+00  0.20019990390E+04  0.20019990390E+04  0.00000000000E+00 0. -1.
         -2   -1    0    0    0  501 -0.00000000000E+00 -0.00000000000E+00 -0.11155029133E+04  0.11155029133E+04  0.00000000000E+00 0.  1.
    9000010    2    1    2  502    0  0.96218969835E+03 -0.25680910624E+03 -0.49662380042E+02  0.14217103539E+04  0.10134268823E+04 0.  0.
   -9000010    2    1    2    0  501 -0.96218969835E+03  0.25680910624E+03  0.93615850573E+03  0.16957915983E+04  0.10037711215E+04 0.  0.
        -13    1    3    3    0    0  0.27767416846E+00 -0.18019109851E+03  0.33701334279E+03  0.38216084764E+03  0.10566000000E+00 0.  1.
          4    1    3    3  502    0  0.96191202418E+03 -0.76618007729E+02 -0.38667572283E+03  0.10395495063E+04  0.00000000000E+00 0.  1.
         13    1    4    4    0    0 -0.29577027604E+03  0.55735176316E+03  0.66331206850E+03  0.91548017754E+03  0.10566000000E+00 0. -1.
         -4    1    4    4    0  501 -0.66641942231E+03 -0.30054265692E+03  0.27284643722E+03  0.78031142076E+03  0.00000000000E+00 0. -1.
<mgrwt>
<rscale>  2 0.14174031E+04</rscale>
<asrwt>0</asrwt>
<pdfrwt beam="1">  1        2 0.30799985E+00 0.14174031E+04</pdfrwt>
<pdfrwt beam="2">  1       -2 0.17161583E+00 0.14174031E+04</pdfrwt>
<totfact> 0.17807884E+00</totfact>
</mgrwt>
</event>
<event>
 8    1  0.1449514E-005  0.1502607E+04  0.7818608E-02  0.8408000E-01
          1   -1    0    0  502    0  0.00000000000E+00  0.00000000000E+00  0.16476108586E+04  0.16476108586E+04  0.00000000000E+00 0.  1.
         -1   -1    0    0    0  501 -0.00000000000E+00 -0.00000000000E+00 -0.14306792166E+04  0.14306792166E+04  0.00000000000E+00 0. -1.
    9000010    2    1    2  502    0  0.10938773705E+04 -0.86784096710E+02 -0.20781314158E+03  0.15128920526E+04  0.10205669405E+04 0.  0.
   -9000010    2    1    2    0  501 -0.10938773705E+04  0.86784096710E+02  0.42474478355E+03  0.15653980226E+04  0.10324551597E+04 0.  0.
        -13    1    3    3    0    0  0.10292783452E+03 -0.36975396979E+03  0.16390228553E+03  0.41734411181E+03  0.10566000000E+00 0.  1.
          4    1    3    3  502    0  0.99094953595E+03  0.28296987308E+03 -0.37171542711E+03  0.10955479408E+04  0.00000000000E+00 0.  1.
         13    1    4    4    0    0  0.64655950067E+02 -0.27326429326E+03  0.16162658900E+03  0.32400143717E+03  0.10566000000E+00 0. -1.
         -4    1    4    4    0  501 -0.11585333205E+04  0.36004838997E+03  0.26311819455E+03  0.12413965854E+04  0.00000000000E+00 0. -1.
<mgrwt>
<rscale>  2 0.15026066E+04</rscale>
<asrwt>0</asrwt>
<pdfrwt beam="1">  1        1 0.25347860E+00 0.15026066E+04</pdfrwt>
<pdfrwt beam="2">  1       -1 0.22010449E+00 0.15026066E+04</pdfrwt>
<totfact> 0.57541393E-01</totfact>
</mgrwt>
</event>
<event>
 8    1  0.1449514E-005  0.1119686E+04  0.7818608E-02  0.8669626E-01
          2   -1    0    0  502    0  0.00000000000E+00  0.00000000000E+00  0.23063080531E+04  0.23063080531E+04  0.00000000000E+00 0.  1.
         -2   -1    0    0    0  501 -0.00000000000E+00 -0.00000000000E+00 -0.54611681269E+03  0.54611681269E+03  0.00000000000E+00 0. -1.
    9000010    2    1    2  502    0  0.26672208072E+03 -0.40576759853E+03  0.77775153215E+03  0.13571441209E+04  0.10005771868E+04 0.  0.
   -9000010    2    1    2    0  501 -0.26672208072E+03  0.40576759853E+03  0.98243970821E+03  0.14952807448E+04  0.10172948015E+04 0.  0.
        -13    1    3    3    0    0  0.19984294294E+03 -0.36887542748E+03 -0.13537262926E+03  0.44083108189E+03  0.10566000000E+00 0.  1.
          4    1    3    3  502    0  0.66879137784E+02 -0.36892171042E+02  0.91312416141E+03  0.91631303903E+03  0.00000000000E+00 0.  1.
         13    1    4    4    0    0 -0.15865330354E+03  0.71707995897E+03  0.42724980534E+03  0.84965695761E+03  0.10566000000E+00 0. -1.
         -4    1    4    4    0  501 -0.10806877719E+03 -0.31131236045E+03  0.55518990287E+03  0.64562378722E+03  0.00000000000E+00 0. -1.
<mgrwt>
<rscale>  2 0.11196858E+04</rscale>
<asrwt>0</asrwt>
<pdfrwt beam="1">  1        2 0.35481662E+00 0.11196858E+04</pdfrwt>
<pdfrwt beam="2">  1       -2 0.84017973E-01 0.11196858E+04</pdfrwt>
<totfact> 0.85979599E+00</totfact>
</mgrwt>
</event>
<event>
 8    1  0.1449514E-005  0.1369533E+04  0.7818608E-02  0.8488782E-01
          2   -1    0    0  502    0  0.00000000000E+00  0.00000000000E+00  0.20838171748E+04  0.20838171748E+04  0.00000000000E+00 0. -1.
         -2   -1    0    0    0  501 -0.00000000000E+00 -0.00000000000E+00 -0.92363843665E+03  0.92363843665E+03  0.00000000000E+00 0.  1.
    9000010    2    1    2  502    0  0.14750884794E+03 -0.93189644699E+03  0.82025321408E+03  0.15964972512E+04  0.99287375323E+03 0.  0.
   -9000010    2    1    2    0  501 -0.14750884794E+03  0.93189644699E+03  0.33992552411E+03  0.14109583603E+04  0.99250404749E+03 0.  0.
        -13    1    3    3    0    0  0.38486823887E+03 -0.77832541830E+02  0.53831586589E+03  0.66630732286E+03  0.10566000000E+00 0.  1.
          4    1    3    3  502    0 -0.23735939092E+03 -0.85406390516E+03  0.28193734818E+03  0.93018992837E+03  0.00000000000E+00 0.  1.
         13    1    4    4    0    0 -0.42018634227E+03  0.68502747937E+03 -0.13012525631E+03  0.81409569660E+03  0.10566000000E+00 0. -1.
         -4    1    4    4    0  501  0.27267749433E+03  0.24686896762E+03  0.47005078043E+03  0.59686266366E+03  0.00000000000E+00 0. -1.
<mgrwt>
<rscale>  2 0.13695332E+04</rscale>
<asrwt>0</asrwt>
<pdfrwt beam="1">  1        2 0.32058726E+00 0.13695332E+04</pdfrwt>
<pdfrwt beam="2">  1       -2 0.14209822E+00 0.13695332E+04</pdfrwt>
<totfact> 0.29189034E+00</totfact>
</mgrwt>
</event>
<event>
 8    1  0.1449514E-005  0.1311547E+04  0.7818608E-02  0.8526988E-01
          2   -1    0    0  502    0  0.00000000000E+00  0.00000000000E+00  0.23851938183E+04  0.23851938183E+04  0.00000000000E+00 0. -1.
         -2   -1    0    0    0  501 -0.00000000000E+00 -0.00000000000E+00 -0.91358673839E+03  0.91358673839E+03  0.00000000000E+00 0.  1.
    9000010    2    1    2  502    0 -0.51155385519E+03 -0.64575184398E+03  0.14997683351E+04  0.20033096631E+04  0.10417589722E+04 0.  0.
   -9000010    2    1    2    0  501  0.51155385519E+03  0.64575184398E+03 -0.28161255206E+02  0.12954708936E+04  0.99938430507E+03 0.  0.
        -13    1    3    3    0    0 -0.16797676932E+03 -0.74006472513E+03  0.42232762964E+03  0.86848870478E+03  0.10566000000E+00 0.  1.
          4    1    3    3  502    0 -0.34357708587E+03  0.94312881144E+02  0.10774407055E+04  0.11348209583E+04  0.00000000000E+00 0.  1.
         13    1    4    4    0    0  0.53114236507E+03  0.89271185177E+03 -0.81825625237E+02  0.10419894944E+04  0.10566000000E+00 0. -1.
         -4    1    4    4    0  501 -0.19588509877E+02 -0.24696000779E+03  0.53664370031E+02  0.25348139928E+03  0.00000000000E+00 0. -1.
<mgrwt>
<rscale>  2 0.13115467E+04</rscale>
<asrwt>0</asrwt>
<pdfrwt beam="1">  1        2 0.36695289E+00 0.13115467E+04</pdfrwt>
<pdfrwt beam="2">  1       -2 0.14055181E+00 0.13115467E+04</pdfrwt>
<totfact> 0.20709938E+00</totfact>
</mgrwt>
</event>
<event>
 8    1  0.1449514E-005  0.1153742E+04  0.7818608E-02  0.8642234E-01
         -1   -1    0    0    0  501 -0.00000000000E+00  0.00000000000E+00  0.28095051877E+04  0.28095051877E+04  0.00000000000E+00 0. -1.
          1   -1    0    0  502    0  0.00000000000E+00 -0.00000000000E+00 -0.61438044693E+03  0.61438044693E+03  0.00000000000E+00 0.  1.
    9000010    2    1    2  502    0  0.43140364625E+02  0.53682522581E+03  0.27168419623E+03  0.11759616578E+04  0.10094707049E+04 0.  0.
   -9000010    2    1    2    0  501 -0.43140364625E+02 -0.53682522581E+03  0.19234405445E+04  0.22479239768E+04  0.10312595517E+04 0.  0.
        -13    1    3    3    0    0 -0.29428560314E+03  0.62012747776E+03 -0.68256535902E+02  0.68979784774E+03  0.10566000000E+00 0.  1.
          4    1    3    3  502    0  0.33742596776E+03 -0.83302251945E+02  0.33994073213E+03  0.48616381011E+03  0.00000000000E+00 0.  1.
         13    1    4    4    0    0 -0.26390395439E+03 -0.71725468084E+03  0.87674715113E+03  0.11630929251E+04  0.10566000000E+00 0. -1.
         -4    1    4    4    0  501  0.22076358977E+03  0.18042945503E+03  0.10466933934E+04  0.10848310516E+04  0.00000000000E+00 0. -1.
<mgrwt>
<rscale>  2 0.11537419E+04</rscale>
<asrwt>0</asrwt>
<pdfrwt beam="2">  1        1 0.94520071E-01 0.11537419E+04</pdfrwt>
<pdfrwt beam="1">  1       -1 0.43223156E+00 0.11537419E+04</pdfrwt>
<totfact> 0.52606254E-01</totfact>
</mgrwt>
</event>
<event>
 8    1  0.1449514E-005  0.1106196E+04  0.7818608E-02  0.8680758E-01
         -1   -1    0    0    0  501 -0.00000000000E+00  0.00000000000E+00  0.55929173020E+03  0.55929173020E+03  0.00000000000E+00 0.  1.
          1   -1    0    0  502    0  0.00000000000E+00 -0.00000000000E+00 -0.21906461791E+04  0.21906461791E+04  0.00000000000E+00 0. -1.
    9000010    2    1    2  502    0  0.73489377000E+02 -0.48980199325E+03 -0.85543920519E+03  0.13904918593E+04  0.97794922971E+03 0.  0.
   -9000010    2    1    2    0  501 -0.73489377000E+02  0.48980199325E+03 -0.77591524367E+03  0.13594460500E+04  0.10003711393E+04 0.  0.
        -13    1    3    3    0    0  0.33414836867E+03  0.16713864806E+03 -0.18743387874E+03  0.41799752394E+03  0.10566000000E+00 0.  1.
          4    1    3    3  502    0 -0.26065899167E+03 -0.65694064131E+03 -0.66800532645E+03  0.97249433536E+03  0.00000000000E+00 0.  1.
         13    1    4    4    0    0 -0.21805745872E+03 -0.25324481573E+03 -0.11167369852E+03  0.35235354135E+03  0.10566000000E+00 0. -1.
         -4    1    4    4    0  501  0.14456808172E+03  0.74304680898E+03 -0.66424154515E+03  0.10070925086E+04  0.00000000000E+00 0. -1.
<mgrwt>
<rscale>  2 0.11061959E+04</rscale>
<asrwt>0</asrwt>
<pdfrwt beam="2">  1        1 0.33702249E+00 0.11061959E+04</pdfrwt>
<pdfrwt beam="1">  1       -1 0.86044882E-01 0.11061959E+04</pdfrwt>
<totfact> 0.37182564E+00</totfact>
</mgrwt>
</event>
<event>
 8    1  0.1449514E-005  0.1293566E+04  0.7818608E-02  0.8539250E-01
         -2   -1    0    0    0  501 -0.00000000000E+00  0.00000000000E+00  0.10527460615E+04  0.10527460615E+04  0.00000000000E+00 0.  1.
          2   -1    0    0  502    0  0.00000000000E+00 -0.00000000000E+00 -0.16518339565E+04  0.16518339565E+04  0.00000000000E+00 0. -1.
    9000010    2    1    2  502    0 -0.64535897638E+03  0.50490886333E+03 -0.56130667014E+03  0.14061986003E+04  0.99544369844E+03 0.  0.
   -9000010    2    1    2    0  501  0.64535897638E+03 -0.50490886333E+03 -0.37781224892E+02  0.12983814178E+04  0.10064520437E+04 0.  0.
        -13    1    3    3    0    0 -0.32285649911E+03 -0.91212485535E+02  0.19707079552E+03  0.38909246477E+03  0.10566000000E+00 0.  1.
          4    1    3    3  502    0 -0.32250247728E+03  0.59612134887E+03 -0.75837746566E+03  0.10171061355E+04  0.00000000000E+00 0.  1.
         13    1    4    4    0    0 -0.26995372868E+03 -0.16927623442E+03 -0.54850740246E+02  0.32332348204E+03  0.10566000000E+00 0. -1.
         -4    1    4    4    0  501  0.91531270507E+03 -0.33563262891E+03  0.17069515354E+02  0.97505793572E+03  0.00000000000E+00 0. -1.
<mgrwt>
<rscale>  2 0.12935655E+04</rscale>
<asrwt>0</asrwt>
<pdfrwt beam="2">  1        2 0.25412830E+00 0.12935655E+04</pdfrwt>
<pdfrwt beam="1">  1       -2 0.16196093E+00 0.12935655E+04</pdfrwt>
<totfact> 0.33827390E+00</totfact>
</mgrwt>
</event>
<event>
 8    1  0.1449514E-005  0.1148213E+04  0.7818608E-02  0.8646614E-01
         -1   -1    0    0    0  501 -0.00000000000E+00  0.00000000000E+00  0.45151502363E+03  0.45151502363E+03  0.00000000000E+00 0.  1.
          1   -1    0    0  502    0  0.00000000000E+00 -0.00000000000E+00 -0.29273867351E+04  0.29273867351E+04  0.00000000000E+00 0. -1.
    9000010    2    1    2  502    0  0.40433732646E+03 -0.40799697329E+03 -0.13268345493E+04  0.17570024516E+04  0.99830731235E+03 0.  0.
   -9000010    2    1    2    0  501 -0.40433732646E+03  0.40799697329E+03 -0.11490371622E+04  0.16218993072E+04  0.99011148802E+03 0.  0.
        -13    1    3    3    0    0 -0.27435878206E+03 -0.17835136660E+01 -0.89762148931E+02  0.28867486340E+03  0.10566000000E+00 0.  1.
          4    1    3    3  502    0  0.67869610852E+03 -0.40621345963E+03 -0.12370724003E+04  0.14683275882E+04  0.00000000000E+00 0.  1.
         13    1    4    4    0    0 -0.16233800752E+03  0.49874455212E+03 -0.90479396176E+02  0.53224645537E+03  0.10566000000E+00 0. -1.
         -4    1    4    4    0  501 -0.24199931895E+03 -0.90747578826E+02 -0.10585577660E+04  0.10896528518E+04  0.00000000000E+00 0. -1.
<mgrwt>
<rscale>  2 0.11482135E+04</rscale>
<asrwt>0</asrwt>
<pdfrwt beam="2">  1        1 0.45036717E+00 0.11482135E+04</pdfrwt>
<pdfrwt beam="1">  1       -1 0.69463852E-01 0.11482135E+04</pdfrwt>
<totfact> 0.11751055E+00</totfact>
</mgrwt>
</event>
<event>
 8    1  0.1449514E-005  0.1023761E+04  0.7818608E-02  0.8752581E-01
          2   -1    0    0  502    0  0.00000000000E+00  0.00000000000E+00  0.13071406570E+04  0.13071406570E+04  0.00000000000E+00 0.  1.
         -2   -1    0    0    0  501 -0.00000000000E+00 -0.00000000000E+00 -0.87826048632E+03  0.87826048632E+03  0.00000000000E+00 0. -1.
    9000010    2    1    2  502    0  0.91118588707E+01 -0.13519886938E+03 -0.10950636267E+03  0.10207337067E+04  0.10057553859E+04 0.  0.
   -9000010    2    1    2    0  501 -0.91118588707E+01  0.13519886938E+03  0.53838653331E+03  0.11646674366E+04  0.10238302683E+04 0.  0.
        -13    1    3    3    0    0  0.11439178096E+03  0.13885132573E+03  0.39668285355E+03  0.43557142660E+03  0.10566000000E+00 0.  1.
          4    1    3    3  502    0 -0.10527992209E+03 -0.27405019510E+03 -0.50618921621E+03  0.58516228009E+03  0.00000000000E+00 0.  1.
         13    1    4    4    0    0 -0.19774418029E+02  0.51755421139E+03  0.58269365415E+03  0.77960585881E+03  0.10566000000E+00 0. -1.
         -4    1    4    4    0  501  0.10662559159E+02 -0.38235534202E+03 -0.44307120833E+02  0.38506157780E+03  0.00000000000E+00 0. -1.
<mgrwt>
<rscale>  2 0.10237614E+04</rscale>
<asrwt>0</asrwt>
<pdfrwt beam="1">  1        2 0.20109856E+00 0.10237614E+04</pdfrwt>
<pdfrwt beam="2">  1       -2 0.13511700E+00 0.10237614E+04</pdfrwt>
<totfact> 0.93083069E+00</totfact>
</mgrwt>
</event>
<event>
 8    1  0.1449514E-005  0.1267878E+04  0.7818608E-02  0.8557129E-01
          1   -1    0    0  502    0  0.00000000000E+00  0.00000000000E+00  0.25580627270E+04  0.25580627270E+04  0.00000000000E+00 0. -1.
         -1   -1    0    0    0  501 -0.00000000000E+00 -0.00000000000E+00 -0.63559307172E+03  0.63559307172E+03  0.00000000000E+00 0.  1.
    9000010    2    1    2  502    0  0.32976596124E+03 -0.70167289100E+03  0.78205599325E+03  0.14780323852E+04  0.98583858719E+03 0.  0.
   -9000010    2    1    2    0  501 -0.32976596124E+03  0.70167289100E+03  0.11404136620E+04  0.17156234135E+04  0.10206517238E+04 0.  0.
        -13    1    3    3    0    0  0.63412203586E+03 -0.69997659984E+03  0.53128756389E+03  0.10836717600E+04  0.10566000000E+00 0.  1.
          4    1    3    3  502    0 -0.30435607462E+03 -0.16962911547E+01  0.25076842936E+03  0.39436062522E+03  0.00000000000E+00 0.  1.
         13    1    4    4    0    0 -0.67587720241E+02  0.88335869735E+03  0.54500547963E+03  0.10401546386E+04  0.10566000000E+00 0. -1.
         -4    1    4    4    0  501 -0.26217824100E+03 -0.18168580635E+03  0.59540818234E+03  0.67546877491E+03  0.00000000000E+00 0. -1.
<mgrwt>
<rscale>  2 0.12678781E+04</rscale>
<asrwt>0</asrwt>
<pdfrwt beam="1">  1        1 0.39354811E+00 0.12678781E+04</pdfrwt>
<pdfrwt beam="2">  1       -1 0.97783551E-01 0.12678781E+04</pdfrwt>
<totfact> 0.13456517E+00</totfact>
</mgrwt>
</event>
<event>
 8    1  0.1449514E-005  0.1002086E+04  0.7818608E-02  0.8772634E-01
         -2   -1    0    0    0  501 -0.00000000000E+00  0.00000000000E+00  0.68966512385E+03  0.68966512385E+03  0.00000000000E+00 0. -1.
          2   -1    0    0  502    0  0.00000000000E+00 -0.00000000000E+00 -0.14734284520E+04  0.14734284520E+04  0.00000000000E+00 0.  1.
    9000010    2    1    2  502    0  0.36649149141E+03  0.15503952122E+02 -0.51083637323E+03  0.11863312645E+04  0.10059183283E+04 0.  0.
   -9000010    2    1    2    0  501 -0.36649149141E+03 -0.15503952122E+02 -0.27292695495E+03  0.97676231133E+03  0.86314489182E+03 0.  0.
        -13    1    3    3    0    0 -0.30781580771E+02 -0.40792272237E+03 -0.44101112699E+03  0.60153077929E+03  0.10566000000E+00 0.  1.
          4    1    3    3  502    0  0.39727307218E+03  0.42342667449E+03 -0.69825246240E+02  0.58480048526E+03  0.00000000000E+00 0.  1.
         13    1    4    4    0    0  0.10956529708E+03  0.25331083639E+03 -0.32640040748E+03  0.42744376393E+03  0.10566000000E+00 0. -1.
         -4    1    4    4    0  501 -0.47605678848E+03 -0.26881478851E+03  0.53473452533E+02  0.54931854739E+03  0.00000000000E+00 0. -1.
<mgrwt>
<rscale>  2 0.10020860E+04</rscale>
<asrwt>0</asrwt>
<pdfrwt beam="2">  1        2 0.22668130E+00 0.10020860E+04</pdfrwt>
<pdfrwt beam="1">  1       -2 0.10610233E+00 0.10020860E+04</pdfrwt>
<totfact> 0.14291942E+01</totfact>
</mgrwt>
</event>
<event>
 8    1  0.1449514E-005  0.1454190E+04  0.7818608E-02  0.8436361E-01
         -2   -1    0    0    0  501 -0.00000000000E+00  0.00000000000E+00  0.10090133112E+04  0.10090133112E+04  0.00000000000E+00 0.  1.
          2   -1    0    0  502    0  0.00000000000E+00 -0.00000000000E+00 -0.21074648418E+04  0.21074648418E+04  0.00000000000E+00 0. -1.
    9000010    2    1    2  502    0  0.82914275103E+03  0.66177754278E+03 -0.66652763903E+03  0.16028881772E+04  0.99978207484E+03 0.  0.
   -9000010    2    1    2    0  501 -0.82914275103E+03 -0.66177754278E+03 -0.43192389154E+03  0.15135899758E+04  0.98942869839E+03 0.  0.
        -13    1    3    3    0    0 -0.20532826956E+03  0.22667346379E+03 -0.28362641215E+03  0.41711450502E+03  0.10566000000E+00 0.  1.
          4    1    3    3  502    0  0.10344710206E+04  0.43510407899E+03 -0.38290122689E+03  0.11857736721E+04  0.00000000000E+00 0.  1.
         13    1    4    4    0    0 -0.96191429956E+02 -0.47037328965E+03  0.20676975756E+03  0.52274043905E+03  0.10566000000E+00 0. -1.
         -4    1    4    4    0  501 -0.73295132107E+03 -0.19140425313E+03 -0.63869364910E+03  0.99084953680E+03  0.00000000000E+00 0. -1.
<mgrwt>
<rscale>  2 0.14541901E+04</rscale>
<asrwt>0</asrwt>
<pdfrwt beam="2">  1        2 0.32422536E+00 0.14541901E+04</pdfrwt>
<pdfrwt beam="1">  1       -2 0.15523282E+00 0.14541901E+04</pdfrwt>
<totfact> 0.21465805E+00</totfact>
</mgrwt>
</event>
<event>
 8    1  0.1449514E-005  0.1482820E+04  0.7818608E-02  0.8419455E-01
          2   -1    0    0  502    0  0.00000000000E+00  0.00000000000E+00  0.22787154906E+04  0.22787154906E+04  0.00000000000E+00 0.  1.
         -2   -1    0    0    0  501 -0.00000000000E+00 -0.00000000000E+00 -0.11962359700E+04  0.11962359700E+04  0.00000000000E+00 0. -1.
    9000010    2    1    2  502    0 -0.29583035262E+02  0.11001677281E+04  0.13071228798E+04  0.19814656269E+04  0.10031907205E+04 0.  0.
   -9000010    2    1    2    0  501  0.29583035262E+02 -0.11001677281E+04 -0.22464335923E+03  0.14934858337E+04  0.98427186834E+03 0.  0.
        -13    1    3    3    0    0  0.87066929320E+02  0.12253372743E+02 -0.14118079575E+03  0.16632144654E+03  0.10566000000E+00 0.  1.
          4    1    3    3  502    0 -0.11664996458E+03  0.10879143554E+04  0.14483036755E+04  0.18151441803E+04  0.00000000000E+00 0.  1.
         13    1    4    4    0    0 -0.41549373624E+03 -0.88480685406E+03 -0.93629777502E+02  0.98198002029E+03  0.10566000000E+00 0. -1.
         -4    1    4    4    0  501  0.44507677150E+03 -0.21536087404E+03 -0.13101358172E+03  0.51150581345E+03  0.00000000000E+00 0. -1.
<mgrwt>
<rscale>  2 0.14828200E+04</rscale>
<asrwt>0</asrwt>
<pdfrwt beam="1">  1        2 0.35057161E+00 0.14828200E+04</pdfrwt>
<pdfrwt beam="2">  1       -2 0.18403630E+00 0.14828200E+04</pdfrwt>
<totfact> 0.98078951E-01</totfact>
</mgrwt>
</event>
<event>
 8    1  0.1449514E-005  0.1096756E+04  0.7818608E-02  0.8688647E-01
          2   -1    0    0  502    0  0.00000000000E+00  0.00000000000E+00  0.17932333413E+04  0.17932333413E+04  0.00000000000E+00 0.  1.
         -2   -1    0    0    0  501 -0.00000000000E+00 -0.00000000000E+00 -0.67533835716E+03  0.67533835716E+03  0.00000000000E+00 0. -1.
    9000010    2    1    2  502    0  0.28995955109E+03 -0.30786574317E+03  0.66837391098E+03  0.13034358023E+04  0.10360325038E+04 0.  0.
   -9000010    2    1    2    0  501 -0.28995955109E+03  0.30786574317E+03  0.44952107314E+03  0.11651358961E+04  0.98823813128E+03 0.  0.
        -13    1    3    3    0    0  0.68098471528E+03 -0.16657401499E+03  0.45868279660E+03  0.83778100001E+03  0.10566000000E+00 0.  1.
          4    1    3    3  502    0 -0.39102516419E+03 -0.14129172818E+03  0.20969111438E+03  0.46565480233E+03  0.00000000000E+00 0.  1.
         13    1    4    4    0    0 -0.14698086856E+03  0.60525755665E+03  0.19570284238E+02  0.62315575324E+03  0.10566000000E+00 0. -1.
         -4    1    4    4    0  501 -0.14297868253E+03 -0.29739181348E+03  0.42995078890E+03  0.54198014287E+03  0.00000000000E+00 0. -1.
<mgrwt>
<rscale>  2 0.10967564E+04</rscale>
<asrwt>0</asrwt>
<pdfrwt beam="1">  1        2 0.27588205E+00 0.10967564E+04</pdfrwt>
<pdfrwt beam="2">  1       -2 0.10389821E+00 0.10967564E+04</pdfrwt>
<totfact> 0.99831517E+00</totfact>
</mgrwt>
</event>
<event>
 8    1  0.1449514E-005  0.1458090E+04  0.7818608E-02  0.8434035E-01
         -2   -1    0    0    0  501 -0.00000000000E+00  0.00000000000E+00  0.53945360423E+03  0.53945360423E+03  0.00000000000E+00 0.  1.
          2   -1    0    0  502    0  0.00000000000E+00 -0.00000000000E+00 -0.39411006177E+04  0.39411006177E+04  0.00000000000E+00 0. -1.
    9000010    2    1    2  502    0  0.51740757723E+03 -0.93421137076E+03 -0.17062914320E+04  0.22467656018E+04  0.99802992574E+03 0.  0.
   -9000010    2    1    2    0  501 -0.51740757723E+03  0.93421137076E+03 -0.16953555815E+04  0.22337886201E+04  0.98748142522E+03 0.  0.
        -13    1    3    3    0    0  0.39456271267E+03 -0.70034290631E+03 -0.17960787009E+04  0.19677547184E+04  0.10566000000E+00 0.  1.
          4    1    3    3  502    0  0.12284486455E+03 -0.23386846445E+03  0.89787268985E+02  0.27901088345E+03  0.00000000000E+00 0.  1.
         13    1    4    4    0    0 -0.19243752430E+03  0.53593751787E+03 -0.12711676742E+03  0.58345514612E+03  0.10566000000E+00 0. -1.
         -4    1    4    4    0  501 -0.32497005293E+03  0.39827385289E+03 -0.15682388141E+04  0.16503334739E+04  0.00000000000E+00 0. -1.
<mgrwt>
<rscale>  2 0.14580903E+04</rscale>
<asrwt>0</asrwt>
<pdfrwt beam="2">  1        2 0.60632315E+00 0.14580903E+04</pdfrwt>
<pdfrwt beam="1">  1       -2 0.82992866E-01 0.14580903E+04</pdfrwt>
<totfact> 0.68645083E-01</totfact>
</mgrwt>
</event>
<event>
 8    1  0.1449514E-005  0.1200875E+04  0.7818608E-02  0.8605903E-01
          2   -1    0    0  502    0  0.00000000000E+00  0.00000000000E+00  0.53015270857E+03  0.53015270857E+03  0.00000000000E+00 0.  1.
         -2   -1    0    0    0  501 -0.00000000000E+00 -0.00000000000E+00 -0.28620489482E+04  0.28620489482E+04  0.00000000000E+00 0. -1.
    9000010    2    1    2  502    0  0.33578632765E+02 -0.67463407721E+03 -0.79042550506E+03  0.14395732664E+04  0.99566060862E+03 0.  0.
   -9000010    2    1    2    0  501 -0.33578632765E+02  0.67463407721E+03 -0.15414707346E+04  0.19526283904E+04  0.99013481032E+03 0.  0.
        -13    1    3    3    0    0 -0.12317265232E+03 -0.80796250742E+03 -0.23980040779E+03  0.85175064568E+03  0.10566000000E+00 0.  1.
          4    1    3    3  502    0  0.15675128508E+03  0.13332843021E+03 -0.55062509727E+03  0.58782262072E+03  0.00000000000E+00 0.  1.
         13    1    4    4    0    0 -0.22207372724E+03  0.30446191289E+03 -0.14865979573E+04  0.15336190187E+04  0.10566000000E+00 0. -1.
         -4    1    4    4    0  501  0.18849509447E+03  0.37017216432E+03 -0.54872777302E+02  0.41900937169E+03  0.00000000000E+00 0. -1.
<mgrwt>
<rscale>  2 0.12008754E+04</rscale>
<asrwt>0</asrwt>
<pdfrwt beam="1">  1        2 0.81561953E-01 0.12008754E+04</pdfrwt>
<pdfrwt beam="2">  1       -2 0.44031523E+00 0.12008754E+04</pdfrwt>
<totfact> 0.24540612E-01</totfact>
</mgrwt>
</event>
<event>
 8    1  0.1449514E-005  0.1378809E+04  0.7818608E-02  0.8482852E-01
          2   -1    0    0  502    0  0.00000000000E+00  0.00000000000E+00  0.38804309323E+04  0.38804309323E+04  0.00000000000E+00 0.  1.
         -2   -1    0    0    0  501 -0.00000000000E+00 -0.00000000000E+00 -0.52134124884E+03  0.52134124884E+03  0.00000000000E+00 0. -1.
    9000010    2    1    2  502    0 -0.72303492718E+03 -0.63462630133E+03  0.11493345632E+04  0.18016899997E+04  0.99979341293E+03 0.  0.
   -9000010    2    1    2    0  501  0.72303492718E+03  0.63462630133E+03  0.22097551202E+04  0.26000821814E+04  0.97564317785E+03 0.  0.
        -13    1    3    3    0    0 -0.73313033781E+03 -0.41860782105E+03  0.25545874971E+03  0.88202708803E+03  0.10566000000E+00 0.  1.
          4    1    3    3  502    0  0.10095410624E+02 -0.21601848029E+03  0.89387581348E+03  0.91966291165E+03  0.00000000000E+00 0.  1.
         13    1    4    4    0    0  0.81531232795E+03  0.39621121090E+03  0.21560381765E+04  0.23388497484E+04  0.10566000000E+00 0. -1.
         -4    1    4    4    0  501 -0.92277400765E+02  0.23841509044E+03  0.53716943744E+02  0.26123243307E+03  0.00000000000E+00 0. -1.
<mgrwt>
<rscale>  2 0.13788088E+04</rscale>
<asrwt>0</asrwt>
<pdfrwt beam="1">  1        2 0.59698935E+00 0.13788088E+04</pdfrwt>
<pdfrwt beam="2">  1       -2 0.80206349E-01 0.13788088E+04</pdfrwt>
<totfact> 0.84139920E-01</totfact>
</mgrwt>
</event>
<event>
 8    1  0.1449514E-005  0.1327656E+04  0.7818608E-02  0.8516173E-01
         -1   -1    0    0    0  501 -0.00000000000E+00  0.00000000000E+00  0.83401335544E+03  0.83401335544E+03  0.00000000000E+00 0.  1.
          1   -1    0    0  502    0  0.00000000000E+00 -0.00000000000E+00 -0.27994706881E+04  0.27994706881E+04  0.00000000000E+00 0. -1.
    9000010    2    1    2  502    0  0.66068772339E+03  0.55468829656E+03 -0.18862313448E+04  0.23110158578E+04  0.10191850836E+04 0.  0.
   -9000010    2    1    2    0  501 -0.66068772339E+03 -0.55468829656E+03 -0.79225987871E+02  0.13224681858E+04  0.99922868804E+03 0.  0.
        -13    1    3    3    0    0 -0.18170955435E+03  0.11378529220E+03 -0.95995868145E+03  0.98360873122E+03  0.10566000000E+00 0.  1.
          4    1    3    3  502    0  0.84239727774E+03  0.44090300436E+03 -0.92627266332E+03  0.13274071265E+04  0.00000000000E+00 0.  1.
         13    1    4    4    0    0 -0.30566056396E+03 -0.53082420383E+03 -0.48607645203E+03  0.78196741884E+03  0.10566000000E+00 0. -1.
         -4    1    4    4    0  501 -0.35502715942E+03 -0.23864092733E+02  0.40685046416E+03  0.54050076692E+03  0.00000000000E+00 0. -1.
<mgrwt>
<rscale>  2 0.13276560E+04</rscale>
<asrwt>0</asrwt>
<pdfrwt beam="2">  1        1 0.43068780E+00 0.13276560E+04</pdfrwt>
<pdfrwt beam="1">  1       -1 0.12830975E+00 0.13276560E+04</pdfrwt>
<totfact> 0.41338148E-01</totfact>
</mgrwt>
</event>
<event>
 8    1  0.1449514E-005  0.1051569E+04  0.7818608E-02  0.8727590E-01
          2   -1    0    0  502    0  0.00000000000E+00  0.00000000000E+00  0.21183939312E+04  0.21183939312E+04  0.00000000000E+00 0. -1.
         -2   -1    0    0    0  501 -0.00000000000E+00 -0.00000000000E+00 -0.57919979772E+03  0.57919979772E+03  0.00000000000E+00 0.  1.
    9000010    2    1    2  502    0  0.37851843965E+03 -0.10943681346E+03  0.11865582455E+04  0.15787711974E+04  0.96402562120E+03 0.  0.
   -9000010    2    1    2    0  501 -0.37851843965E+03  0.10943681346E+03  0.35263588793E+03  0.11188225315E+04  0.98598131944E+03 0.  0.
        -13    1    3    3    0    0  0.59928651067E+03 -0.27217717210E+03  0.46232349727E+03  0.80434306249E+03  0.10566000000E+00 0.  1.
          4    1    3    3  502    0 -0.22076807103E+03  0.16274035863E+03  0.72423474826E+03  0.77442813488E+03  0.00000000000E+00 0.  1.
         13    1    4    4    0    0  0.29181930345E+03  0.99024234286E+02  0.32494531948E+03  0.44783230864E+03  0.10566000000E+00 0. -1.
         -4    1    4    4    0  501 -0.67033774310E+03  0.10412579178E+02  0.27690568451E+02  0.67099022289E+03  0.00000000000E+00 0. -1.
<mgrwt>
<rscale>  2 0.10515692E+04</rscale>
<asrwt>0</asrwt>
<pdfrwt beam="1">  1        2 0.32590676E+00 0.10515692E+04</pdfrwt>
<pdfrwt beam="2">  1       -2 0.89107662E-01 0.10515692E+04</pdfrwt>
<totfact> 0.96073517E+00</totfact>
</mgrwt>
</event>
<event>
 8    1  0.1449514E-005  0.1227288E+04  0.7818608E-02  0.8586292E-01
          2   -1    0    0  502    0  0.00000000000E+00  0.00000000000E+00  0.12824757250E+04  0.12824757250E+04  0.00000000000E+00 0.  1.
         -2   -1    0    0    0  501 -0.00000000000E+00 -0.00000000000E+00 -0.14315063138E+04  0.14315063138E+04  0.00000000000E+00 0. -1.
    9000010    2    1    2  502    0  0.55913931816E+03 -0.48138264652E+03 -0.64803864921E+03  0.13696420982E+04  0.95477712420E+03 0.  0.
   -9000010    2    1    2    0  501 -0.55913931816E+03  0.48138264652E+03  0.49900806037E+03  0.13443399406E+04  0.10069135028E+04 0.  0.
        -13    1    3    3    0    0  0.19875208353E+03 -0.60017620180E+03 -0.74587150658E+03  0.97777204880E+03  0.10566000000E+00 0.  1.
          4    1    3    3  502    0  0.36038723462E+03  0.11879355529E+03  0.97832857370E+02  0.39187004943E+03  0.00000000000E+00 0.  1.
         13    1    4    4    0    0 -0.27183542738E+03 -0.37390816076E+02  0.67261591293E+03  0.72643289449E+03  0.10566000000E+00 0. -1.
         -4    1    4    4    0  501 -0.28730389078E+03  0.51877346259E+03 -0.17360785256E+03  0.61790704610E+03  0.00000000000E+00 0. -1.
<mgrwt>
<rscale>  2 0.12272878E+04</rscale>
<asrwt>0</asrwt>
<pdfrwt beam="1">  1        2 0.19730396E+00 0.12272878E+04</pdfrwt>
<pdfrwt beam="2">  1       -2 0.22023174E+00 0.12272878E+04</pdfrwt>
<totfact> 0.17851211E+00</totfact>
</mgrwt>
</event>
<event>
 8    1  0.1449514E-005  0.1130131E+04  0.7818608E-02  0.8661118E-01
         -1   -1    0    0    0  501 -0.00000000000E+00  0.00000000000E+00  0.76460665141E+03  0.76460665141E+03  0.00000000000E+00 0. -1.
          1   -1    0    0  502    0  0.00000000000E+00 -0.00000000000E+00 -0.16821022808E+04  0.16821022808E+04  0.00000000000E+00 0.  1.
    9000010    2    1    2  502    0 -0.41845823479E+03 -0.21670387904E+03 -0.54545051464E+03  0.12306705516E+04  0.99747976277E+03 0.  0.
   -9000010    2    1    2    0  501  0.41845823479E+03  0.21670387904E+03 -0.37204511477E+03  0.12160383807E+04  0.10574799811E+04 0.  0.
        -13    1    3    3    0    0  0.25810138084E+03 -0.27379371328E+03 -0.37371775912E+03  0.53032470701E+03  0.10566000000E+00 0.  1.
          4    1    3    3  502    0 -0.67655961563E+03  0.57089834231E+02 -0.17173275552E+03  0.70034584456E+03  0.00000000000E+00 0.  1.
         13    1    4    4    0    0  0.31554918780E+03 -0.18086763863E+03 -0.63258490626E+03  0.72969039148E+03  0.10566000000E+00 0. -1.
         -4    1    4    4    0  501  0.10290904698E+03  0.39757151768E+03  0.26053979149E+03  0.48634798917E+03  0.00000000000E+00 0. -1.
<mgrwt>
<rscale>  2 0.11301309E+04</rscale>
<asrwt>0</asrwt>
<pdfrwt beam="2">  1        1 0.25878496E+00 0.11301309E+04</pdfrwt>
<pdfrwt beam="1">  1       -1 0.11763179E+00 0.11301309E+04</pdfrwt>
<totfact> 0.45630908E+00</totfact>
</mgrwt>
</event>
<event>
 8    1  0.1449514E-005  0.1193053E+04  0.7818608E-02  0.8611812E-01
         -1   -1    0    0    0  501 -0.00000000000E+00  0.00000000000E+00  0.45460559833E+04  0.45460559833E+04  0.00000000000E+00 0. -1.
          1   -1    0    0  502    0  0.00000000000E+00 -0.00000000000E+00 -0.31607370402E+03  0.31607370402E+03  0.00000000000E+00 0.  1.
    9000010    2    1    2  502    0  0.33975291440E+02  0.67458832837E+03  0.18993530251E+04  0.22487930582E+04  0.99664666343E+03 0.  0.
   -9000010    2    1    2    0  501 -0.33975291440E+02 -0.67458832837E+03  0.23306292543E+04  0.26133366291E+04  0.97029474037E+03 0.  0.
        -13    1    3    3    0    0 -0.17279184211E+03  0.66127632397E+03  0.19224327015E+04  0.20403163726E+04  0.10566000000E+00 0.  1.
          4    1    3    3  502    0  0.20676713355E+03  0.13312004401E+02 -0.23079676456E+02  0.20847668561E+03  0.00000000000E+00 0.  1.
         13    1    4    4    0    0 -0.45669552063E+03 -0.59451486439E+03  0.14006959816E+04  0.15887000871E+04  0.10566000000E+00 0. -1.
         -4    1    4    4    0  501  0.42272022919E+03 -0.80073463981E+02  0.92993327263E+03  0.10246365421E+04  0.00000000000E+00 0. -1.
<mgrwt>
<rscale>  2 0.11930532E+04</rscale>
<asrwt>0</asrwt>
<pdfrwt beam="2">  1        1 0.48626727E-01 0.11930532E+04</pdfrwt>
<pdfrwt beam="1">  1       -1 0.69939318E+00 0.11930532E+04</pdfrwt>
<totfact> 0.12278622E-01</totfact>
</mgrwt>
</event>
<event>
 8    1  0.1449514E-005  0.1364160E+04  0.7818608E-02  0.8492240E-01
          2   -1    0    0  502    0  0.00000000000E+00  0.00000000000E+00  0.12331103359E+04  0.12331103359E+04  0.00000000000E+00 0. -1.
         -2   -1    0    0    0  501 -0.00000000000E+00 -0.00000000000E+00 -0.15096198680E+04  0.15096198680E+04  0.00000000000E+00 0.  1.
    9000010    2    1    2  502    0 -0.88563466453E+03  0.20623425664E+03 -0.15000921977E+03  0.13525145425E+04  0.98990479032E+03 0.  0.
   -9000010    2    1    2    0  501  0.88563466453E+03 -0.20623425664E+03 -0.12650031229E+03  0.13902156615E+04  0.10439424930E+04 0.  0.
        -13    1    3    3    0    0 -0.46222775707E+03 -0.34568454989E+03 -0.28530880434E+03  0.64385823939E+03  0.10566000000E+00 0.  1.
          4    1    3    3  502    0 -0.42340690746E+03  0.55191880653E+03  0.13529958457E+03  0.70865630306E+03  0.00000000000E+00 0.  1.
         13    1    4    4    0    0  0.10931852739E+03  0.36690052906E+03 -0.18150718017E+03  0.42368786420E+03  0.10566000000E+00 0. -1.
         -4    1    4    4    0  501  0.77631613714E+03 -0.57313478570E+03  0.55006867874E+02  0.96652779726E+03  0.00000000000E+00 0. -1.
<mgrwt>
<rscale>  2 0.13641605E+04</rscale>
<asrwt>0</asrwt>
<pdfrwt beam="1">  1        2 0.18970928E+00 0.13641605E+04</pdfrwt>
<pdfrwt beam="2">  1       -2 0.23224921E+00 0.13641605E+04</pdfrwt>
<totfact> 0.15032689E+00</totfact>
</mgrwt>
</event>
<event>
 8    1  0.1449514E-005  0.1425551E+04  0.7818608E-02  0.8453677E-01
         -1   -1    0    0    0  501 -0.00000000000E+00  0.00000000000E+00  0.15818942058E+04  0.15818942058E+04  0.00000000000E+00 0. -1.
          1   -1    0    0  502    0  0.00000000000E+00 -0.00000000000E+00 -0.13249588354E+04  0.13249588354E+04  0.00000000000E+00 0.  1.
    9000010    2    1    2  502    0  0.13855732800E+03 -0.99766059196E+03 -0.12528909055E+03  0.14276169438E+04  0.10039262881E+04 0.  0.
   -9000010    2    1    2    0  501 -0.13855732800E+03  0.99766059196E+03  0.38222446092E+03  0.14792360975E+04  0.10136661697E+04 0.  0.
        -13    1    3    3    0    0  0.57155264096E+03 -0.48529159768E+03 -0.98802808303E+02  0.75626871036E+03  0.10566000000E+00 0.  1.
          4    1    3    3  502    0 -0.43299531297E+03 -0.51236899428E+03 -0.26486282242E+02  0.67134823340E+03  0.00000000000E+00 0.  1.
         13    1    4    4    0    0 -0.52512336739E+03  0.27094339841E+03  0.55041710696E+02  0.59345975197E+03  0.10566000000E+00 0. -1.
         -4    1    4    4    0  501  0.38656603940E+03  0.72671719355E+03  0.32718275023E+03  0.88577634551E+03  0.00000000000E+00 0. -1.
<mgrwt>
<rscale>  2 0.14255506E+04</rscale>
<asrwt>0</asrwt>
<pdfrwt beam="2">  1        1 0.20383982E+00 0.14255506E+04</pdfrwt>
<pdfrwt beam="1">  1       -1 0.24336834E+00 0.14255506E+04</pdfrwt>
<totfact> 0.61072827E-01</totfact>
</mgrwt>
</event>
<event>
 8    1  0.1449514E-005  0.1273469E+04  0.7818608E-02  0.8553201E-01
         -2   -1    0    0    0  501 -0.00000000000E+00  0.00000000000E+00  0.10484702848E+04  0.10484702848E+04  0.00000000000E+00 0.  1.
          2   -1    0    0  502    0  0.00000000000E+00 -0.00000000000E+00 -0.17331028879E+04  0.17331028879E+04  0.00000000000E+00 0. -1.
    9000010    2    1    2  502    0 -0.70352645501E+03 -0.35770409027E+03 -0.79746846645E+03  0.14994427382E+04  0.99472150926E+03 0.  0.
   -9000010    2    1    2    0  501  0.70352645501E+03  0.35770409027E+03  0.11283586333E+03  0.12821304345E+04  0.10041039936E+04 0.  0.
        -13    1    3    3    0    0 -0.72050910434E+03 -0.65216381349E+03 -0.65446332913E+03  0.11716540741E+04  0.10566000000E+00 0.  1.
          4    1    3    3  502    0  0.16982649330E+02  0.29445972322E+03 -0.14300513732E+03  0.32778866405E+03  0.00000000000E+00 0.  1.
         13    1    4    4    0    0  0.30916602392E+03  0.61224487934E+03  0.33444334747E+03  0.76307259579E+03  0.10566000000E+00 0. -1.
         -4    1    4    4    0  501  0.39436043109E+03 -0.25454078907E+03 -0.22160748413E+03  0.51905783872E+03  0.00000000000E+00 0. -1.
<mgrwt>
<rscale>  2 0.12734687E+04</rscale>
<asrwt>0</asrwt>
<pdfrwt beam="2">  1        2 0.26663121E+00 0.12734687E+04</pdfrwt>
<pdfrwt beam="1">  1       -2 0.16130312E+00 0.12734687E+04</pdfrwt>
<totfact> 0.30997934E+00</totfact>
</mgrwt>
</event>
<event>
 8    1  0.1449514E-005  0.1507269E+04  0.7818608E-02  0.8405328E-01
          2   -1    0    0  502    0  0.00000000000E+00  0.00000000000E+00  0.40383033512E+04  0.40383033512E+04  0.00000000000E+00 0. -1.
         -2   -1    0    0    0  501 -0.00000000000E+00 -0.00000000000E+00 -0.57629848095E+03  0.57629848095E+03  0.00000000000E+00 0.  1.
    9000010    2    1    2  502    0 -0.85133421867E+03 -0.72449006158E+03  0.13600715501E+04  0.20199605996E+04  0.99034862617E+03 0.  0.
   -9000010    2    1    2    0  501  0.85133421867E+03  0.72449006158E+03  0.21019333201E+04  0.25946412325E+04  0.10316897024E+04 0.  0.
        -13    1    3    3    0    0 -0.68956180471E+03 -0.25116581182E+03  0.13297697550E+04  0.15188375028E+04  0.10566000000E+00 0.  1.
          4    1    3    3  502    0 -0.16177241395E+03 -0.47332424975E+03  0.30301795095E+02  0.50112309676E+03  0.00000000000E+00 0.  1.
         13    1    4    4    0    0  0.62107661275E+03 -0.11798288400E+03  0.70283647060E+03  0.94532282073E+03  0.10566000000E+00 0. -1.
         -4    1    4    4    0  501  0.23025760592E+03  0.84247294558E+03  0.13990968495E+04  0.16493184118E+04  0.00000000000E+00 0. -1.
<mgrwt>
<rscale>  2 0.15072685E+04</rscale>
<asrwt>0</asrwt>
<pdfrwt beam="1">  1        2 0.62127742E+00 0.15072685E+04</pdfrwt>
<pdfrwt beam="2">  1       -2 0.88661307E-01 0.15072685E+04</pdfrwt>
<totfact> 0.48347757E-01</totfact>
</mgrwt>
</event>
<event>
 8    1  0.1449514E-005  0.1499753E+04  0.7818608E-02  0.8409641E-01
         -1   -1    0    0    0  501 -0.00000000000E+00  0.00000000000E+00  0.82752835181E+03  0.82752835181E+03  0.00000000000E+00 0.  1.
          1   -1    0    0  502    0  0.00000000000E+00 -0.00000000000E+00 -0.30425054371E+04  0.30425054371E+04  0.00000000000E+00 0. -1.
    9000010    2    1    2  502    0  0.10929570029E+04 -0.19811629262E+03 -0.47503694232E+03  0.15723942553E+04  0.10064584055E+04 0.  0.
   -9000010    2    1    2    0  501 -0.10929570029E+04  0.19811629262E+03 -0.17399401430E+04  0.22976395336E+04  0.10089354040E+04 0.  0.
        -13    1    3    3    0    0  0.82289335253E+03 -0.44800466648E+03 -0.67392784354E+03  0.11541405462E+04  0.10566000000E+00 0.  1.
          4    1    3    3  502    0  0.27006365040E+03  0.24988837386E+03  0.19889090121E+03  0.41825370919E+03  0.00000000000E+00 0.  1.
         13    1    4    4    0    0 -0.22641340207E+03 -0.36441782931E+03 -0.76520401591E+03  0.87726881860E+03  0.10566000000E+00 0. -1.
         -4    1    4    4    0  501 -0.86654360087E+03  0.56253412192E+03 -0.97473612705E+03  0.14203707150E+04  0.00000000000E+00 0. -1.
<mgrwt>
<rscale>  2 0.14997527E+04</rscale>
<asrwt>0</asrwt>
<pdfrwt beam="2">  1        1 0.46807776E+00 0.14997527E+04</pdfrwt>
<pdfrwt beam="1">  1       -1 0.12731205E+00 0.14997527E+04</pdfrwt>
<totfact> 0.22919153E-01</totfact>
</mgrwt>
</event>
<event>
 8    1  0.1449514E-005  0.1134023E+04  0.7818608E-02  0.8657973E-01
          2   -1    0    0  502    0  0.00000000000E+00  0.00000000000E+00  0.23732788428E+04  0.23732788428E+04  0.00000000000E+00 0.  1.
         -2   -1    0    0    0  501 -0.00000000000E+00 -0.00000000000E+00 -0.72416737030E+03  0.72416737030E+03  0.00000000000E+00 0. -1.
    9000010    2    1    2  502    0 -0.49741862921E+03  0.23922197208E+03  0.15934205030E+04  0.19473894283E+04  0.97400423086E+03 0.  0.
   -9000010    2    1    2    0  501  0.49741862921E+03 -0.23922197208E+03  0.55690969508E+02  0.11500567847E+04  0.10074108792E+04 0.  0.
        -13    1    3    3    0    0 -0.70883082942E+03  0.30252904584E+03  0.74931898236E+03  0.10749157720E+04  0.10566000000E+00 0.  1.
          4    1    3    3  502    0  0.21141220022E+03 -0.63307073764E+02  0.84410152059E+03  0.87247365637E+03  0.00000000000E+00 0.  1.
         13    1    4    4    0    0  0.22094529393E+03 -0.37462656036E+03 -0.40610877935E+03  0.59505145531E+03  0.10566000000E+00 0. -1.
         -4    1    4    4    0  501  0.27647333528E+03  0.13540458828E+03  0.46179974886E+03  0.55500532943E+03  0.00000000000E+00 0. -1.
<mgrwt>
<rscale>  2 0.11340225E+04</rscale>
<asrwt>0</asrwt>
<pdfrwt beam="1">  1        2 0.36511982E+00 0.11340225E+04</pdfrwt>
<pdfrwt beam="2">  1       -2 0.11141037E+00 0.11340225E+04</pdfrwt>
<totfact> 0.40358347E+00</totfact>
</mgrwt>
</event>
<event>
 8    1  0.1449514E-005  0.1317161E+04  0.7818608E-02  0.8523201E-01
         -2   -1    0    0    0  501 -0.00000000000E+00  0.00000000000E+00  0.38090243214E+03  0.38090243214E+03  0.00000000000E+00 0.  1.
          2   -1    0    0  502    0  0.00000000000E+00 -0.00000000000E+00 -0.47175865939E+04  0.47175865939E+04  0.00000000000E+00 0. -1.
    9000010    2    1    2  502    0 -0.87506111521E+03 -0.12151393537E+02 -0.26342845328E+04  0.29430970303E+04  0.97800077603E+03 0.  0.
   -9000010    2    1    2    0  501  0.87506111521E+03  0.12151393537E+02 -0.17023996289E+04  0.21553919958E+04  0.99079288812E+03 0.  0.
        -13    1    3    3    0    0 -0.34153613159E+02  0.35650837818E+03 -0.10804430496E+04  0.11382538766E+04  0.10566000000E+00 0.  1.
          4    1    3    3  502    0 -0.84090750205E+03 -0.36865977172E+03 -0.15538414832E+04  0.18048431536E+04  0.00000000000E+00 0.  1.
         13    1    4    4    0    0  0.50114197712E+03  0.49683990244E+03 -0.82659195481E+03  0.10868520786E+04  0.10566000000E+00 0. -1.
         -4    1    4    4    0  501  0.37391913809E+03 -0.48468850891E+03 -0.87580767413E+03  0.10685399172E+04  0.00000000000E+00 0. -1.
<mgrwt>
<rscale>  2 0.13171606E+04</rscale>
<asrwt>0</asrwt>
<pdfrwt beam="2">  1        2 0.72578259E+00 0.13171606E+04</pdfrwt>
<pdfrwt beam="1">  1       -2 0.58600371E-01 0.13171606E+04</pdfrwt>
<totfact> 0.29297720E-01</totfact>
</mgrwt>
</event>
<event>
 8    1  0.1449514E-005  0.1141613E+04  0.7818608E-02  0.8651876E-01
         -2   -1    0    0    0  501 -0.00000000000E+00  0.00000000000E+00  0.52335212529E+03  0.52335212529E+03  0.00000000000E+00 0.  1.
          2   -1    0    0  502    0  0.00000000000E+00 -0.00000000000E+00 -0.30623962099E+04  0.30623962099E+04  0.00000000000E+00 0. -1.
    9000010    2    1    2  502    0  0.18764853159E+03  0.54215890216E+03 -0.20352583583E+04  0.23287112484E+04  0.97543387615E+03 0.  0.
   -9000010    2    1    2    0  501 -0.18764853159E+03 -0.54215890216E+03 -0.50378572626E+03  0.12570370868E+04  0.99859598082E+03 0.  0.
        -13    1    3    3    0    0  0.11190257050E+03  0.81963075535E+03 -0.16712963798E+04  0.18648185866E+04  0.10566000000E+00 0.  1.
          4    1    3    3  502    0  0.75745961085E+02 -0.27747185318E+03 -0.36396197852E+03  0.46389266187E+03  0.00000000000E+00 0.  1.
         13    1    4    4    0    0  0.11604169236E+03 -0.35060932703E+03  0.23352264466E+03  0.43695012450E+03  0.10566000000E+00 0. -1.
         -4    1    4    4    0  501 -0.30369022395E+03 -0.19154957514E+03 -0.73730837092E+03  0.82008696227E+03  0.00000000000E+00 0. -1.
<mgrwt>
<rscale>  2 0.11416130E+04</rscale>
<asrwt>0</asrwt>
<pdfrwt beam="2">  1        2 0.47113788E+00 0.11416130E+04</pdfrwt>
<pdfrwt beam="1">  1       -2 0.80515712E-01 0.11416130E+04</pdfrwt>
<totfact> 0.34229693E+00</totfact>
</mgrwt>
</event>
<event>
 8    1  0.1449514E-005  0.1255415E+04  0.7818608E-02  0.8565962E-01
          2   -1    0    0  502    0  0.00000000000E+00  0.00000000000E+00  0.23055189797E+04  0.23055189797E+04  0.00000000000E+00 0. -1.
         -2   -1    0    0    0  501 -0.00000000000E+00 -0.00000000000E+00 -0.72306399951E+03  0.72306399951E+03  0.00000000000E+00 0.  1.
    9000010    2    1    2  502    0  0.39968932508E+03  0.64354526774E+03  0.11450276568E+04  0.16992332341E+04  0.10012008694E+04 0.  0.
   -9000010    2    1    2    0  501 -0.39968932508E+03 -0.64354526774E+03  0.43742732339E+03  0.13293497451E+04  0.10009625434E+04 0.  0.
        -13    1    3    3    0    0  0.69167628716E+03  0.65809503092E+03  0.78901754297E+03  0.12385692755E+04  0.10566000000E+00 0.  1.
          4    1    3    3  502    0 -0.29198696208E+03 -0.14549763181E+02  0.35601011381E+03  0.46066395862E+03  0.00000000000E+00 0.  1.
         13    1    4    4    0    0 -0.52392663573E+03 -0.37740321998E+03 -0.15858947629E+03  0.66489318182E+03  0.10566000000E+00 0. -1.
         -4    1    4    4    0  501  0.12423731065E+03 -0.26614204776E+03  0.59601679968E+03  0.66445656325E+03  0.00000000000E+00 0. -1.
<mgrwt>
<rscale>  2 0.12554149E+04</rscale>
<asrwt>0</asrwt>
<pdfrwt beam="1">  1        2 0.35469522E+00 0.12554149E+04</pdfrwt>
<pdfrwt beam="2">  1       -2 0.11124062E+00 0.12554149E+04</pdfrwt>
<totfact> 0.43504274E+00</totfact>
</mgrwt>
</event>
<event>
 8    1  0.1449514E-005  0.1752936E+04  0.7818608E-02  0.8277155E-01
         -2   -1    0    0    0  501 -0.00000000000E+00  0.00000000000E+00  0.14983193550E+04  0.14983193550E+04  0.00000000000E+00 0.  1.
          2   -1    0    0  502    0  0.00000000000E+00 -0.00000000000E+00 -0.20921888897E+04  0.20921888897E+04  0.00000000000E+00 0. -1.
    9000010    2    1    2  502    0  0.14389084459E+04 -0.11984455524E+03 -0.44625190146E+02  0.17542753614E+04  0.99532427018E+03 0.  0.
   -9000010    2    1    2    0  501 -0.14389084459E+04  0.11984455524E+03 -0.54924434457E+03  0.18362328834E+04  0.99260345494E+03 0.  0.
        -13    1    3    3    0    0  0.51063017732E+03 -0.42310013511E+03  0.28750529225E+03  0.72278365128E+03  0.10566000000E+00 0.  1.
          4    1    3    3  502    0  0.92827826861E+03  0.30325557987E+03 -0.33213048240E+03  0.10314917101E+04  0.00000000000E+00 0.  1.
         13    1    4    4    0    0 -0.17220838634E+02 -0.69576469179E+02  0.20399364546E+03  0.21621947391E+03  0.10566000000E+00 0. -1.
         -4    1    4    4    0  501 -0.14216876073E+04  0.18942102441E+03 -0.75323799003E+03  0.16200134095E+04  0.00000000000E+00 0. -1.
<mgrwt>
<rscale>  2 0.17529361E+04</rscale>
<asrwt>0</asrwt>
<pdfrwt beam="2">  1        2 0.32187521E+00 0.17529361E+04</pdfrwt>
<pdfrwt beam="1">  1       -2 0.23051067E+00 0.17529361E+04</pdfrwt>
<totfact> 0.50164277E-01</totfact>
</mgrwt>
</event>
<event>
 8    1  0.1449514E-005  0.1120853E+04  0.7818608E-02  0.8668670E-01
         -2   -1    0    0    0  501 -0.00000000000E+00  0.00000000000E+00  0.38768742609E+03  0.38768742609E+03  0.00000000000E+00 0.  1.
          2   -1    0    0  502    0  0.00000000000E+00 -0.00000000000E+00 -0.32653174374E+04  0.32653174374E+04  0.00000000000E+00 0. -1.
    9000010    2    1    2  502    0  0.35333255954E+03  0.33806004789E+03 -0.15726966678E+04  0.19210746783E+04  0.98895127134E+03 0.  0.
   -9000010    2    1    2    0  501 -0.35333255954E+03 -0.33806004789E+03 -0.13049333436E+04  0.17319301853E+04  0.10283980950E+04 0.  0.
        -13    1    3    3    0    0 -0.20714982957E+03  0.14585805107E+03 -0.11877909948E+04  0.12145093995E+04  0.10566000000E+00 0.  1.
          4    1    3    3  502    0  0.56048238911E+03  0.19220199682E+03 -0.38490567293E+03  0.70656527875E+03  0.00000000000E+00 0.  1.
         13    1    4    4    0    0 -0.61828581210E+03 -0.20352165174E+03 -0.36527911378E+03  0.74640957276E+03  0.10566000000E+00 0. -1.
         -4    1    4    4    0  501  0.26495325256E+03 -0.13453839616E+03 -0.93965422980E+03  0.98552061250E+03  0.00000000000E+00 0. -1.
<mgrwt>
<rscale>  2 0.11208533E+04</rscale>
<asrwt>0</asrwt>
<pdfrwt beam="2">  1        2 0.50235652E+00 0.11208533E+04</pdfrwt>
<pdfrwt beam="1">  1       -2 0.59644220E-01 0.11208533E+04</pdfrwt>
<totfact> 0.47728772E+00</totfact>
</mgrwt>
</event>
<event>
 8    1  0.1449514E-005  0.1249318E+04  0.7818608E-02  0.8570322E-01
         -2   -1    0    0    0  501 -0.00000000000E+00  0.00000000000E+00  0.72662205858E+03  0.72662205858E+03  0.00000000000E+00 0. -1.
          2   -1    0    0  502    0  0.00000000000E+00 -0.00000000000E+00 -0.27251711202E+04  0.27251711202E+04  0.00000000000E+00 0.  1.
    9000010    2    1    2  502    0 -0.73981490027E+03 -0.21686988289E+03 -0.19603427825E+03  0.12502394365E+04  0.96452608962E+03 0.  0.
   -9000010    2    1    2    0  501  0.73981490027E+03  0.21686988289E+03 -0.18025147834E+04  0.22015537423E+04  0.10017088914E+04 0.  0.
        -13    1    3    3    0    0 -0.53179817146E+03  0.15254645798E+03 -0.48617316074E+03  0.73650802467E+03  0.10566000000E+00 0.  1.
          4    1    3    3  502    0 -0.20801672881E+03 -0.36941634087E+03  0.29013888249E+03  0.51373141183E+03  0.00000000000E+00 0.  1.
         13    1    4    4    0    0  0.88086134206E+03  0.33641224215E+03 -0.98569152361E+03  0.13640666008E+04  0.10566000000E+00 0. -1.
         -4    1    4    4    0  501 -0.14104644180E+03 -0.11954235926E+03 -0.81682325974E+03  0.83748714142E+03  0.00000000000E+00 0. -1.
<mgrwt>
<rscale>  2 0.12493183E+04</rscale>
<asrwt>0</asrwt>
<pdfrwt beam="2">  1        2 0.41925709E+00 0.12493183E+04</pdfrwt>
<pdfrwt beam="1">  1       -2 0.11178801E+00 0.12493183E+04</pdfrwt>
<totfact> 0.24927303E+00</totfact>
</mgrwt>
</event>
<event>
 8    1  0.1449514E-005  0.9378415E+03  0.7818608E-02  0.8835293E-01
          2   -1    0    0  502    0  0.00000000000E+00  0.00000000000E+00  0.16522596892E+04  0.16522596892E+04  0.00000000000E+00 0. -1.
         -2   -1    0    0    0  501 -0.00000000000E+00 -0.00000000000E+00 -0.55840841670E+03  0.55840841670E+03  0.00000000000E+00 0.  1.
    9000010    2    1    2  502    0 -0.24980339797E+02 -0.27141197048E+03  0.80455665131E+03  0.12700299027E+04  0.94412714898E+03 0.  0.
   -9000010    2    1    2    0  501  0.24980339797E+02  0.27141197048E+03  0.28929462114E+03  0.94063820318E+03  0.85253760994E+03 0.  0.
        -13    1    3    3    0    0  0.38651834562E+02  0.11982484496E+02  0.94607299513E+03  0.94693804841E+03  0.10566000000E+00 0.  1.
          4    1    3    3  502    0 -0.63632174359E+02 -0.28339445498E+03 -0.14151634382E+03  0.32309185427E+03  0.00000000000E+00 0.  1.
         13    1    4    4    0    0  0.98890314823E+02  0.96982691393E+02  0.57853283814E+03  0.59488250332E+03  0.10566000000E+00 0. -1.
         -4    1    4    4    0  501 -0.73909975026E+02  0.17442927909E+03 -0.28923821699E+03  0.34575569985E+03  0.00000000000E+00 0. -1.
<mgrwt>
<rscale>  2 0.93784152E+03</rscale>
<asrwt>0</asrwt>
<pdfrwt beam="1">  1        2 0.25419380E+00 0.93784152E+03</pdfrwt>
<pdfrwt beam="2">  1       -2 0.85908988E-01 0.93784152E+03</pdfrwt>
<totfact> 0.18926207E+01</totfact>
</mgrwt>
</event>
<event>
 8    1  0.1449514E-005  0.1186928E+04  0.7818608E-02  0.8616471E-01
         -2   -1    0    0    0  501 -0.00000000000E+00  0.00000000000E+00  0.10600008674E+04  0.10600008674E+04  0.00000000000E+00 0. -1.
          2   -1    0    0  502    0  0.00000000000E+00 -0.00000000000E+00 -0.15552588286E+04  0.15552588286E+04  0.00000000000E+00 0.  1.
    9000010    2    1    2  502    0 -0.13289325107E+03  0.70074399262E+03 -0.75064613218E+03  0.14305100590E+04  0.98700894304E+03 0.  0.
   -9000010    2    1    2    0  501  0.13289325107E+03 -0.70074399262E+03  0.25538817097E+03  0.11847496370E+04  0.91088189419E+03 0.  0.
        -13    1    3    3    0    0 -0.35967321233E+03 -0.83374255511E+01 -0.55390553475E+03  0.66048897411E+03  0.10566000000E+00 0.  1.
          4    1    3    3  502    0  0.22677996126E+03  0.70908141817E+03 -0.19674059743E+03  0.77002108485E+03  0.00000000000E+00 0.  1.
         13    1    4    4    0    0 -0.29284506937E+03 -0.46543848042E+03 -0.12892875206E+03  0.56481310890E+03  0.10566000000E+00 0. -1.
         -4    1    4    4    0  501  0.42573832044E+03 -0.23530551220E+03  0.38431692303E+03  0.61993652811E+03  0.00000000000E+00 0. -1.
<mgrwt>
<rscale>  2 0.11869280E+04</rscale>
<asrwt>0</asrwt>
<pdfrwt beam="2">  1        2 0.23927059E+00 0.11869280E+04</pdfrwt>
<pdfrwt beam="1">  1       -2 0.16307706E+00 0.11869280E+04</pdfrwt>
<totfact> 0.37776486E+00</totfact>
</mgrwt>
</event>
<event>
 8    1  0.1449514E-005  0.1106959E+04  0.7818608E-02  0.8680124E-01
         -2   -1    0    0    0  501 -0.00000000000E+00  0.00000000000E+00  0.62423353084E+03  0.62423353084E+03  0.00000000000E+00 0. -1.
          2   -1    0    0  502    0  0.00000000000E+00 -0.00000000000E+00 -0.20667095059E+04  0.20667095059E+04  0.00000000000E+00 0.  1.
    9000010    2    1    2  502    0 -0.49177350930E+03 -0.12100901422E+03 -0.41102672454E+03  0.11667684389E+04  0.96743023298E+03 0.  0.
   -9000010    2    1    2    0  501  0.49177350930E+03  0.12100901422E+03 -0.10314492505E+04  0.15241745979E+04  0.10013672066E+04 0.  0.
        -13    1    3    3    0    0  0.49013985605E+02 -0.13326313107E+03  0.26519422770E+03  0.30081459814E+03  0.10566000000E+00 0.  1.
          4    1    3    3  502    0 -0.54078749490E+03  0.12254116855E+02 -0.67622095224E+03  0.86595384072E+03  0.00000000000E+00 0.  1.
         13    1    4    4    0    0  0.77858343968E+03 -0.48367308907E+02 -0.63127441052E+03  0.10035133092E+04  0.10566000000E+00 0. -1.
         -4    1    4    4    0  501 -0.28680993038E+03  0.16937632312E+03 -0.40017484001E+03  0.52066128872E+03  0.00000000000E+00 0. -1.
<mgrwt>
<rscale>  2 0.11069588E+04</rscale>
<asrwt>0</asrwt>
<pdfrwt beam="2">  1        2 0.31795531E+00 0.11069588E+04</pdfrwt>
<pdfrwt beam="1">  1       -2 0.96035928E-01 0.11069588E+04</pdfrwt>
<totfact> 0.85586148E+00</totfact>
</mgrwt>
</event>
<event>
 8    1  0.1449514E-005  0.1277211E+04  0.7818608E-02  0.8550583E-01
          1   -1    0    0  502    0  0.00000000000E+00  0.00000000000E+00  0.11719940994E+04  0.11719940994E+04  0.00000000000E+00 0. -1.
         -1   -1    0    0    0  501 -0.00000000000E+00 -0.00000000000E+00 -0.13978750832E+04  0.13978750832E+04  0.00000000000E+00 0.  1.
    9000010    2    1    2  502    0  0.52240333998E+03  0.63208470120E+03 -0.28467145910E+02  0.12726280912E+04  0.97279780064E+03 0.  0.
   -9000010    2    1    2    0  501 -0.52240333998E+03 -0.63208470120E+03 -0.19741383789E+03  0.12972410914E+04  0.98560940883E+03 0.  0.
        -13    1    3    3    0    0 -0.13465046001E+03  0.47639040729E+03  0.23474831795E+03  0.54789173245E+03  0.10566000000E+00 0.  1.
          4    1    3    3  502    0  0.65705379999E+03  0.15569429391E+03 -0.26321546386E+03  0.72473635873E+03  0.00000000000E+00 0.  1.
         13    1    4    4    0    0 -0.17016224143E+03 -0.77643785218E+03  0.11710559095E+03  0.80344549118E+03  0.10566000000E+00 0. -1.
         -4    1    4    4    0  501 -0.35224109856E+03  0.14435315097E+03 -0.31451942884E+03  0.49379560025E+03  0.00000000000E+00 0. -1.
<mgrwt>
<rscale>  2 0.12772113E+04</rscale>
<asrwt>0</asrwt>
<pdfrwt beam="1">  1        1 0.18030678E+00 0.12772113E+04</pdfrwt>
<pdfrwt beam="2">  1       -1 0.21505770E+00 0.12772113E+04</pdfrwt>
<totfact> 0.15027006E+00</totfact>
</mgrwt>
</event>
<event>
 8    1  0.1449514E-005  0.1174221E+04  0.7818608E-02  0.8626232E-01
         -1   -1    0    0    0  501 -0.00000000000E+00  0.00000000000E+00  0.17638164681E+04  0.17638164681E+04  0.00000000000E+00 0.  1.
          1   -1    0    0  502    0  0.00000000000E+00 -0.00000000000E+00 -0.85657405141E+03  0.85657405141E+03  0.00000000000E+00 0. -1.
    9000010    2    1    2  502    0  0.55545648724E+03 -0.29085460112E+03  0.66261707826E+02  0.11760231105E+04  0.99272928552E+03 0.  0.
   -9000010    2    1    2    0  501 -0.55545648724E+03  0.29085460112E+03  0.84098070881E+03  0.14443674090E+04  0.99288486304E+03 0.  0.
        -13    1    3    3    0    0 -0.24563762476E+03 -0.22557013398E+03 -0.11374998500E+03  0.35236174351E+03  0.10566000000E+00 0.  1.
          4    1    3    3  502    0  0.80109411200E+03 -0.65284467140E+02  0.18001169282E+03  0.82366136699E+03  0.00000000000E+00 0.  1.
         13    1    4    4    0    0 -0.73672413946E+03 -0.49329323102E+02  0.34170927811E+03  0.81360990756E+03  0.10566000000E+00 0. -1.
         -4    1    4    4    0  501  0.18126765222E+03  0.34018392422E+03  0.49927143071E+03  0.63075750139E+03  0.00000000000E+00 0. -1.
<mgrwt>
<rscale>  2 0.11742207E+04</rscale>
<asrwt>0</asrwt>
<pdfrwt beam="2">  1        1 0.13178062E+00 0.11742207E+04</pdfrwt>
<pdfrwt beam="1">  1       -1 0.27135638E+00 0.11742207E+04</pdfrwt>
<totfact> 0.78984656E-01</totfact>
</mgrwt>
</event>
<event>
 8    1  0.1449514E-005  0.1403745E+04  0.7818608E-02  0.8467142E-01
         -2   -1    0    0    0  501 -0.00000000000E+00  0.00000000000E+00  0.11186426453E+04  0.11186426453E+04  0.00000000000E+00 0. -1.
          2   -1    0    0  502    0  0.00000000000E+00 -0.00000000000E+00 -0.21507769238E+04  0.21507769238E+04  0.00000000000E+00 0.  1.
    9000010    2    1    2  502    0  0.94762636179E+03  0.17224174668E+03 -0.12154415255E+04  0.18671870171E+04  0.10399164938E+04 0.  0.
   -9000010    2    1    2    0  501 -0.94762636179E+03 -0.17224174668E+03  0.18330724699E+03  0.14022325520E+04  0.10024927142E+04 0.  0.
        -13    1    3    3    0    0  0.47106740209E+03  0.37715985893E+03 -0.67173077825E+02  0.60717896048E+03  0.10566000000E+00 0.  1.
          4    1    3    3  502    0  0.47655895970E+03 -0.20491811225E+03 -0.11482684477E+04  0.12600080566E+04  0.00000000000E+00 0.  1.
         13    1    4    4    0    0  0.21301504165E+03 -0.68223705688E+02  0.79131370510E+01  0.22381356279E+03  0.10566000000E+00 0. -1.
         -4    1    4    4    0  501 -0.11606414034E+04 -0.10401804099E+03  0.17539410994E+03  0.11784189892E+04  0.00000000000E+00 0. -1.
<mgrwt>
<rscale>  2 0.14037455E+04</rscale>
<asrwt>0</asrwt>
<pdfrwt beam="2">  1        2 0.33088875E+00 0.14037455E+04</pdfrwt>
<pdfrwt beam="1">  1       -2 0.17209887E+00 0.14037455E+04</pdfrwt>
<totfact> 0.14639316E+00</totfact>
</mgrwt>
</event>
<event>
 8    1  0.1449514E-005  0.1067247E+04  0.7818608E-02  0.8713851E-01
          2   -1    0    0  502    0  0.00000000000E+00  0.00000000000E+00  0.21964716228E+04  0.21964716228E+04  0.00000000000E+00 0. -1.
         -2   -1    0    0    0  501 -0.00000000000E+00 -0.00000000000E+00 -0.54673801775E+03  0.54673801775E+03  0.00000000000E+00 0.  1.
    9000010    2    1    2  502    0  0.18582634963E+03 -0.36229182317E+03  0.11422992151E+04  0.15691699092E+04  0.99582122381E+03 0.  0.
   -9000010    2    1    2    0  501 -0.18582634963E+03  0.36229182317E+03  0.50743438995E+03  0.11740397313E+04  0.97728851078E+03 0.  0.
        -13    1    3    3    0    0  0.27201020762E+03 -0.44220974839E+03  0.12840462415E+04  0.13850320488E+04  0.10566000000E+00 0.  1.
          4    1    3    3  502    0 -0.86183857990E+02  0.79917925217E+02 -0.14174702641E+03  0.18413786043E+03  0.00000000000E+00 0.  1.
         13    1    4    4    0    0 -0.57126164261E+03  0.28842851046E+03  0.43803104483E+03  0.77550117819E+03  0.10566000000E+00 0. -1.
         -4    1    4    4    0  501  0.38543529298E+03  0.73863312709E+02  0.69403345119E+02  0.39853855316E+03  0.00000000000E+00 0. -1.
<mgrwt>
<rscale>  2 0.10672471E+04</rscale>
<asrwt>0</asrwt>
<pdfrwt beam="1">  1        2 0.33791871E+00 0.10672471E+04</pdfrwt>
<pdfrwt beam="2">  1       -2 0.84113542E-01 0.10672471E+04</pdfrwt>
<totfact> 0.99101496E+00</totfact>
</mgrwt>
</event>
<event>
 8    1  0.1449514E-005  0.1512382E+04  0.7818608E-02  0.8402408E-01
         -2   -1    0    0    0  501 -0.00000000000E+00  0.00000000000E+00  0.12355557319E+04  0.12355557319E+04  0.00000000000E+00 0. -1.
          2   -1    0    0  502    0  0.00000000000E+00 -0.00000000000E+00 -0.20768107952E+04  0.20768107952E+04  0.00000000000E+00 0.  1.
    9000010    2    1    2  502    0 -0.54635165315E+03 -0.99068874604E+03 -0.96617180668E+03  0.17936838059E+04  0.10019228089E+04 0.  0.
   -9000010    2    1    2    0  501  0.54635165315E+03  0.99068874604E+03  0.12491674335E+03  0.15186827213E+04  0.10053997686E+04 0.  0.
        -13    1    3    3    0    0 -0.33179308814E+03 -0.11664205967E+03  0.13037852693E+03  0.37508744963E+03  0.10566000000E+00 0.  1.
          4    1    3    3  502    0 -0.21455856501E+03 -0.87404668637E+03 -0.10965503336E+04  0.14185963562E+04  0.00000000000E+00 0.  1.
         13    1    4    4    0    0  0.29873882857E+03 -0.15705052370E+03 -0.36030681177E+01  0.33752444053E+03  0.10566000000E+00 0. -1.
         -4    1    4    4    0  501  0.24761282458E+03  0.11477392697E+04  0.12851981146E+03  0.11811582807E+04  0.00000000000E+00 0. -1.
<mgrwt>
<rscale>  2 0.15123824E+04</rscale>
<asrwt>0</asrwt>
<pdfrwt beam="2">  1        2 0.31950935E+00 0.15123824E+04</pdfrwt>
<pdfrwt beam="1">  1       -2 0.19008550E+00 0.15123824E+04</pdfrwt>
<totfact> 0.11246399E+00</totfact>
</mgrwt>
</event>
<event>
 8    1  0.1449514E-005  0.1215056E+04  0.7818608E-02  0.8595310E-01
          2   -1    0    0  502    0  0.00000000000E+00  0.00000000000E+00  0.14822146456E+04  0.14822146456E+04  0.00000000000E+00 0.  1.
         -2   -1    0    0    0  501 -0.00000000000E+00 -0.00000000000E+00 -0.11486129706E+04  0.11486129706E+04  0.00000000000E+00 0. -1.
    9000010    2    1    2  502    0 -0.60403264968E+03 -0.38575013261E+03  0.64440550512E+03  0.13636827759E+04  0.96473501624E+03 0.  0.
   -9000010    2    1    2    0  501  0.60403264968E+03  0.38575013261E+03 -0.31080383007E+03  0.12671448403E+04  0.99769655643E+03 0.  0.
        -13    1    3    3    0    0 -0.12241705660E+03 -0.53589478040E+03  0.56369333680E+01  0.54972805785E+03  0.10566000000E+00 0.  1.
          4    1    3    3  502    0 -0.48161559308E+03  0.15014464780E+03  0.63876857175E+03  0.81395471804E+03  0.00000000000E+00 0.  1.
         13    1    4    4    0    0  0.77738920409E+03  0.24434181229E+03  0.77961829001E+02  0.81860549339E+03  0.10566000000E+00 0. -1.
         -4    1    4    4    0  501 -0.17335655441E+03  0.14140832032E+03 -0.38876565908E+03  0.44853934687E+03  0.00000000000E+00 0. -1.
<mgrwt>
<rscale>  2 0.12150557E+04</rscale>
<asrwt>0</asrwt>
<pdfrwt beam="1">  1        2 0.22803302E+00 0.12150557E+04</pdfrwt>
<pdfrwt beam="2">  1       -2 0.17670969E+00 0.12150557E+04</pdfrwt>
<totfact> 0.31706794E+00</totfact>
</mgrwt>
</event>
<event>
 8    1  0.1449514E-005  0.1415004E+04  0.7818608E-02  0.8460158E-01
          2   -1    0    0  502    0  0.00000000000E+00  0.00000000000E+00  0.48326809935E+03  0.48326809935E+03  0.00000000000E+00 0.  1.
         -2   -1    0    0    0  501 -0.00000000000E+00 -0.00000000000E+00 -0.41457483776E+04  0.41457483776E+04  0.00000000000E+00 0. -1.
    9000010    2    1    2  502    0  0.78390540516E+03  0.61748620142E+03 -0.17739200070E+04  0.22696053918E+04  0.10042507406E+04 0.  0.
   -9000010    2    1    2    0  501 -0.78390540516E+03 -0.61748620142E+03 -0.18885602713E+04  0.23594110852E+04  0.10021795635E+04 0.  0.
        -13    1    3    3    0    0  0.45486010887E+03  0.42787041769E+03 -0.20786831904E+03  0.65816416053E+03  0.10566000000E+00 0.  1.
          4    1    3    3  502    0  0.32904529629E+03  0.18961578374E+03 -0.15660516879E+04  0.16114412312E+04  0.00000000000E+00 0.  1.
         13    1    4    4    0    0  0.13383876354E+03 -0.46191321381E+03 -0.71116178892E+03  0.85850319329E+03  0.10566000000E+00 0. -1.
         -4    1    4    4    0  501 -0.91774416870E+03 -0.15557298761E+03 -0.11773984823E+04  0.15009078919E+04  0.00000000000E+00 0. -1.
<mgrwt>
<rscale>  2 0.14150044E+04</rscale>
<asrwt>0</asrwt>
<pdfrwt beam="1">  1        2 0.74348938E-01 0.14150044E+04</pdfrwt>
<pdfrwt beam="2">  1       -2 0.63780744E+00 0.14150044E+04</pdfrwt>
<totfact> 0.35680403E-01</totfact>
</mgrwt>
</event>
<event>
 8    1  0.1449514E-005  0.1325698E+04  0.7818608E-02  0.8517479E-01
          1   -1    0    0  502    0  0.00000000000E+00  0.00000000000E+00  0.14723310443E+04  0.14723310443E+04  0.00000000000E+00 0.  1.
         -1   -1    0    0    0  501 -0.00000000000E+00 -0.00000000000E+00 -0.12042906504E+04  0.12042906504E+04  0.00000000000E+00 0. -1.
    9000010    2    1    2  502    0 -0.16014567868E+03 -0.83695447113E+03  0.25642398769E+03  0.13320900395E+04  0.99124728837E+03 0.  0.
   -9000010    2    1    2    0  501  0.16014567868E+03  0.83695447113E+03  0.11616406189E+02  0.13445316552E+04  0.10399475976E+04 0.  0.
        -13    1    3    3    0    0  0.26783149776E+03 -0.52044192891E+03 -0.21250432708E+03  0.62269704733E+03  0.10566000000E+00 0.  1.
          4    1    3    3  502    0 -0.42797717644E+03 -0.31651254222E+03  0.46892831477E+03  0.70939299216E+03  0.00000000000E+00 0.  1.
         13    1    4    4    0    0  0.36565412631E+03  0.74846454301E+03  0.37836973835E+03  0.91491299165E+03  0.10566000000E+00 0. -1.
         -4    1    4    4    0  501 -0.20550844763E+03  0.88489928123E+02 -0.36675333216E+03  0.42961866356E+03  0.00000000000E+00 0. -1.
<mgrwt>
<rscale>  2 0.13256978E+04</rscale>
<asrwt>0</asrwt>
<pdfrwt beam="1">  1        1 0.22651247E+00 0.13256978E+04</pdfrwt>
<pdfrwt beam="2">  1       -1 0.18527549E+00 0.13256978E+04</pdfrwt>
<totfact> 0.16379394E+00</totfact>
</mgrwt>
</event>
<event>
 8    1  0.1449514E-005  0.1216353E+04  0.7818608E-02  0.8594349E-01
         -1   -1    0    0    0  501 -0.00000000000E+00  0.00000000000E+00  0.10142600776E+04  0.10142600776E+04  0.00000000000E+00 0. -1.
          1   -1    0    0  502    0  0.00000000000E+00 -0.00000000000E+00 -0.19202993912E+04  0.19202993912E+04  0.00000000000E+00 0.  1.
    9000010    2    1    2  502    0  0.66533342624E+03 -0.20387843000E+02  0.26260008497E+03  0.12568843165E+04  0.10333030283E+04 0.  0.
   -9000010    2    1    2    0  501 -0.66533342624E+03  0.20387843000E+02 -0.11686393985E+04  0.16776751523E+04  0.10028916396E+04 0.  0.
        -13    1    3    3    0    0  0.16125051479E+03  0.14853887182E+03  0.59212317757E+03  0.63140747029E+03  0.10566000000E+00 0.  1.
          4    1    3    3  502    0  0.50408291145E+03 -0.16892671482E+03 -0.32952309260E+03  0.62547684622E+03  0.00000000000E+00 0.  1.
         13    1    4    4    0    0  0.96275289891E+02  0.15624929888E+03 -0.79985533784E+03  0.82064081515E+03  0.10566000000E+00 0. -1.
         -4    1    4    4    0  501 -0.76160871613E+03 -0.13586145588E+03 -0.36878406068E+03  0.85703433717E+03  0.00000000000E+00 0. -1.
<mgrwt>
<rscale>  2 0.12163526E+04</rscale>
<asrwt>0</asrwt>
<pdfrwt beam="2">  1        1 0.29543067E+00 0.12163526E+04</pdfrwt>
<pdfrwt beam="1">  1       -1 0.15604001E+00 0.12163526E+04</pdfrwt>
<totfact> 0.13806524E+00</totfact>
</mgrwt>
</event>
<event>
 8    1  0.1449514E-005  0.1130847E+04  0.7818608E-02  0.8660538E-01
          4   -1    0    0  502    0  0.00000000000E+00  0.00000000000E+00  0.30861622936E+04  0.30861622936E+04  0.00000000000E+00 0.  1.
         -4   -1    0    0    0  501 -0.00000000000E+00 -0.00000000000E+00 -0.43736318399E+03  0.43736318399E+03  0.00000000000E+00 0. -1.
    9000010    2    1    2  502    0  0.49896404916E+03 -0.14399453197E+03  0.17323445478E+04  0.20707731334E+04  0.10086546437E+04 0.  0.
   -9000010    2    1    2    0  501 -0.49896404916E+03  0.14399453197E+03  0.91645456189E+03  0.14527523442E+04  0.10004503296E+04 0.  0.
        -13    1    3    3    0    0  0.11928986882E+03 -0.55120706936E+03  0.71075331227E+03  0.90732000319E+03  0.10566000000E+00 0.  1.
          4    1    3    3  502    0  0.37967418034E+03  0.40721253739E+03  0.10215912355E+04  0.11634531302E+04  0.00000000000E+00 0.  1.
         13    1    4    4    0    0 -0.31257649026E+01 -0.37915997219E+03  0.17144937815E+03  0.41613333843E+03  0.10566000000E+00 0. -1.
         -4    1    4    4    0  501 -0.49583828426E+03  0.52315450416E+03  0.74500518373E+03  0.10366190058E+04  0.00000000000E+00 0. -1.
<mgrwt>
<rscale>  2 0.11308473E+04</rscale>
<asrwt>0</asrwt>
<pdfrwt beam="1">  1        4 0.47479419E+00 0.11308473E+04</pdfrwt>
<pdfrwt beam="2">  1       -4 0.67286646E-01 0.11308473E+04</pdfrwt>
<totfact> 0.14536551E-01</totfact>
</mgrwt>
</event>
<event>
 8    1  0.1449514E-005  0.2821489E+04  0.7818608E-02  0.7897524E-01
         -2   -1    0    0    0  501 -0.00000000000E+00  0.00000000000E+00  0.32825434314E+04  0.32825434314E+04  0.00000000000E+00 0.  1.
          2   -1    0    0  502    0  0.00000000000E+00 -0.00000000000E+00 -0.24375538674E+04  0.24375538674E+04  0.00000000000E+00 0. -1.
    9000010    2    1    2  502    0 -0.84754068033E+03 -0.24903056724E+04  0.21846843735E+03  0.28274821773E+04  0.10133999496E+04 0.  0.
   -9000010    2    1    2    0  501  0.84754068033E+03  0.24903056724E+04  0.62652112664E+03  0.28926151216E+04  0.10270082632E+04 0.  0.
        -13    1    3    3    0    0 -0.73954888118E+03 -0.14937644028E+04 -0.30835553853E+03  0.16950952150E+04  0.10566000000E+00 0.  1.
          4    1    3    3  502    0 -0.10799179915E+03 -0.99654126961E+03  0.52682397588E+03  0.11323869623E+04  0.00000000000E+00 0.  1.
         13    1    4    4    0    0  0.50157704431E+03  0.16807294035E+04 -0.91766943591E+02  0.17563746873E+04  0.10566000000E+00 0. -1.
         -4    1    4    4    0  501  0.34596363601E+03  0.80957626894E+03  0.71828807023E+03  0.11362404343E+04  0.00000000000E+00 0. -1.
<mgrwt>
<rscale>  2 0.28214886E+04</rscale>
<asrwt>0</asrwt>
<pdfrwt beam="2">  1        2 0.37500829E+00 0.28214886E+04</pdfrwt>
<pdfrwt beam="1">  1       -2 0.50500668E+00 0.28214886E+04</pdfrwt>
<totfact> 0.14758665E-02</totfact>
</mgrwt>
</event>
<event>
 8    1  0.1449514E-005  0.1224880E+04  0.7818608E-02  0.8588059E-01
         -1   -1    0    0    0  501 -0.00000000000E+00  0.00000000000E+00  0.11528355501E+04  0.11528355501E+04  0.00000000000E+00 0.  1.
          1   -1    0    0  502    0  0.00000000000E+00 -0.00000000000E+00 -0.13028876942E+04  0.13028876942E+04  0.00000000000E+00 0. -1.
    9000010    2    1    2  502    0  0.14440848778E+02 -0.64994689042E+03 -0.48228942479E+02  0.11935793520E+04  0.99983305612E+03 0.  0.
   -9000010    2    1    2    0  501 -0.14440848778E+02  0.64994689042E+03 -0.10182320165E+03  0.12621438924E+04  0.10770328417E+04 0.  0.
        -13    1    3    3    0    0  0.20833790632E+03  0.11880509082E+03 -0.27893764378E+03  0.36786621631E+03  0.10566000000E+00 0.  1.
          4    1    3    3  502    0 -0.19389705754E+03 -0.76875198124E+03  0.23070870131E+03  0.82571313568E+03  0.00000000000E+00 0.  1.
         13    1    4    4    0    0  0.14982270373E+03  0.91427153519E+03  0.23214603925E+02  0.92675682442E+03  0.10566000000E+00 0. -1.
         -4    1    4    4    0  501 -0.16426355250E+03 -0.26432464477E+03 -0.12503780558E+03  0.33538706794E+03  0.00000000000E+00 0. -1.
<mgrwt>
<rscale>  2 0.12248805E+04</rscale>
<asrwt>0</asrwt>
<pdfrwt beam="2">  1        1 0.20044426E+00 0.12248805E+04</pdfrwt>
<pdfrwt beam="1">  1       -1 0.17735932E+00 0.12248805E+04</pdfrwt>
<totfact> 0.26053218E+00</totfact>
</mgrwt>
</event>
<event>
 8    1  0.1449514E-005  0.1597655E+04  0.7818608E-02  0.8355414E-01
          2   -1    0    0  502    0  0.00000000000E+00  0.00000000000E+00  0.19904917397E+04  0.19904917397E+04  0.00000000000E+00 0. -1.
         -2   -1    0    0    0  501 -0.00000000000E+00 -0.00000000000E+00 -0.12823915236E+04  0.12823915236E+04  0.00000000000E+00 0.  1.
    9000010    2    1    2  502    0  0.10403233611E+04  0.68569373231E+03  0.36305706833E+03  0.16363581030E+04  0.99669895967E+03 0.  0.
   -9000010    2    1    2    0  501 -0.10403233611E+04 -0.68569373231E+03  0.34504314780E+03  0.16365251603E+04  0.10033500068E+04 0.  0.
        -13    1    3    3    0    0  0.10792313855E+04  0.18699263475E+03  0.25502862610E+03  0.11246093723E+04  0.10566000000E+00 0.  1.
          4    1    3    3  502    0 -0.38908024390E+02  0.49870109756E+03  0.10802844224E+03  0.51174873073E+03  0.00000000000E+00 0.  1.
         13    1    4    4    0    0 -0.47228082941E+03 -0.58536491040E+03 -0.26452531263E+03  0.79729223773E+03  0.10566000000E+00 0. -1.
         -4    1    4    4    0  501 -0.56804253173E+03 -0.10032882191E+03  0.60956846042E+03  0.83923292256E+03  0.00000000000E+00 0. -1.
<mgrwt>
<rscale>  2 0.15976545E+04</rscale>
<asrwt>0</asrwt>
<pdfrwt beam="1">  1        2 0.30622950E+00 0.15976545E+04</pdfrwt>
<pdfrwt beam="2">  1       -2 0.19729100E+00 0.15976545E+04</pdfrwt>
<totfact> 0.10829383E+00</totfact>
</mgrwt>
</event>
<event>
 8    1  0.1449514E-005  0.1591845E+04  0.7818608E-02  0.8358519E-01
         -1   -1    0    0    0  501 -0.00000000000E+00  0.00000000000E+00  0.17302620989E+04  0.17302620989E+04  0.00000000000E+00 0. -1.
          1   -1    0    0  502    0  0.00000000000E+00 -0.00000000000E+00 -0.15871356192E+04  0.15871356192E+04  0.00000000000E+00 0.  1.
    9000010    2    1    2  502    0  0.10733873158E+04 -0.67079268411E+03  0.53289119453E+03  0.16862907130E+04  0.97850916641E+03 0.  0.
   -9000010    2    1    2    0  501 -0.10733873158E+04  0.67079268411E+03 -0.38976471482E+03  0.16311070051E+04  0.95208737755E+03 0.  0.
        -13    1    3    3    0    0 -0.12602603453E+03 -0.32669875268E+03  0.15128816566E+03  0.38144823583E+03  0.10566000000E+00 0.  1.
          4    1    3    3  502    0  0.11994133503E+04 -0.34409393142E+03  0.38160302887E+03  0.13048424771E+04  0.00000000000E+00 0.  1.
         13    1    4    4    0    0 -0.92499797948E+03  0.19651067864E+03 -0.56805042480E+03  0.11031405192E+04  0.10566000000E+00 0. -1.
         -4    1    4    4    0  501 -0.14838933629E+03  0.47428200547E+03  0.17828570999E+03  0.52796648589E+03  0.00000000000E+00 0. -1.
<mgrwt>
<rscale>  2 0.15918449E+04</rscale>
<asrwt>0</asrwt>
<pdfrwt beam="2">  1        1 0.24417471E+00 0.15918449E+04</pdfrwt>
<pdfrwt beam="1">  1       -1 0.26619417E+00 0.15918449E+04</pdfrwt>
<totfact> 0.22738736E-01</totfact>
</mgrwt>
</event>
<event>
 8    1  0.1449514E-005  0.1162919E+04  0.7818608E-02  0.8635020E-01
          2   -1    0    0  502    0  0.00000000000E+00  0.00000000000E+00  0.10095573759E+04  0.10095573759E+04  0.00000000000E+00 0.  1.
         -2   -1    0    0    0  501 -0.00000000000E+00 -0.00000000000E+00 -0.13422889396E+04  0.13422889396E+04  0.00000000000E+00 0. -1.
    9000010    2    1    2  502    0 -0.91903826842E+02  0.54317889967E+03 -0.11572320314E+03  0.11780299139E+04  0.10348299318E+04 0.  0.
   -9000010    2    1    2    0  501  0.91903826842E+02 -0.54317889967E+03 -0.21700836061E+03  0.11738164016E+04  0.10135396814E+04 0.  0.
        -13    1    3    3    0    0 -0.10764139247E+03  0.32970381708E+03 -0.57489644293E+03  0.67141433380E+03  0.10566000000E+00 0.  1.
          4    1    3    3  502    0  0.15737565630E+02  0.21347508258E+03  0.45917323979E+03  0.50661558010E+03  0.00000000000E+00 0.  1.
         13    1    4    4    0    0  0.19400347722E+03 -0.80587033839E+03 -0.29757736947E+03  0.88069100907E+03  0.10566000000E+00 0. -1.
         -4    1    4    4    0  501 -0.10209965038E+03  0.26269143872E+03  0.80569008863E+02  0.29312539258E+03  0.00000000000E+00 0. -1.
<mgrwt>
<rscale>  2 0.11629195E+04</rscale>
<asrwt>0</asrwt>
<pdfrwt beam="1">  1        2 0.15531652E+00 0.11629195E+04</pdfrwt>
<pdfrwt beam="2">  1       -2 0.20650599E+00 0.11629195E+04</pdfrwt>
<totfact> 0.33534240E+00</totfact>
</mgrwt>
</event>
<event>
 8    1  0.1449514E-005  0.1064840E+04  0.7818608E-02  0.8715945E-01
         -2   -1    0    0    0  501 -0.00000000000E+00  0.00000000000E+00  0.97867235659E+03  0.97867235659E+03  0.00000000000E+00 0. -1.
          2   -1    0    0  502    0  0.00000000000E+00 -0.00000000000E+00 -0.28777931553E+04  0.28777931553E+04  0.00000000000E+00 0.  1.
    9000010    2    1    2  502    0 -0.32693263816E+03 -0.33998182903E+01  0.53787783782E+03  0.12001750420E+04  0.10218664563E+04 0.  0.
   -9000010    2    1    2    0  501  0.32693263816E+03  0.33998182903E+01 -0.24369986366E+04  0.26562904699E+04  0.10049976105E+04 0.  0.
        -13    1    3    3    0    0  0.29313609641E+03 -0.25466844160E+03  0.29781217648E+03  0.48936376019E+03  0.10566000000E+00 0.  1.
          4    1    3    3  502    0 -0.62006873457E+03  0.25126862331E+03  0.24006566134E+03  0.71081128185E+03  0.00000000000E+00 0.  1.
         13    1    4    4    0    0 -0.26075585940E+03 -0.27013931671E+03 -0.59499045899E+03  0.70354994570E+03  0.10566000000E+00 0. -1.
         -4    1    4    4    0  501  0.58768849756E+03  0.27353913500E+03 -0.18420081776E+04  0.19527405242E+04  0.00000000000E+00 0. -1.
<mgrwt>
<rscale>  2 0.10648396E+04</rscale>
<asrwt>0</asrwt>
<pdfrwt beam="2">  1        2 0.44273740E+00 0.10648396E+04</pdfrwt>
<pdfrwt beam="1">  1       -2 0.15056498E+00 0.10648396E+04</pdfrwt>
<totfact> 0.90882847E-01</totfact>
</mgrwt>
</event>
<event>
 8    1  0.1449514E-005  0.1149347E+04  0.7818608E-02  0.8645714E-01
         -2   -1    0    0    0  501 -0.00000000000E+00  0.00000000000E+00  0.12692512041E+04  0.12692512041E+04  0.00000000000E+00 0. -1.
          2   -1    0    0  502    0  0.00000000000E+00 -0.00000000000E+00 -0.10948888536E+04  0.10948888536E+04  0.00000000000E+00 0.  1.
    9000010    2    1    2  502    0 -0.53795605913E+03  0.24416876326E+02 -0.17374164332E+03  0.11798769746E+04  0.10353408189E+04 0.  0.
   -9000010    2    1    2    0  501  0.53795605913E+03 -0.24416876326E+02  0.34810399375E+03  0.11842630830E+04  0.99564539570E+03 0.  0.
        -13    1    3    3    0    0 -0.60026295924E+03 -0.13187238332E+03 -0.51341781589E+03  0.80081446700E+03  0.10566000000E+00 0.  1.
          4    1    3    3  502    0  0.62306900115E+02  0.15628925965E+03  0.33967617257E+03  0.37906250763E+03  0.00000000000E+00 0.  1.
         13    1    4    4    0    0  0.32508271432E+03  0.40837164997E+03  0.45248584353E+03  0.69078913238E+03  0.10566000000E+00 0. -1.
         -4    1    4    4    0  501  0.21287334481E+03 -0.43278852630E+03 -0.10438184978E+03  0.49347395066E+03  0.00000000000E+00 0. -1.
<mgrwt>
<rscale>  2 0.11493469E+04</rscale>
<asrwt>0</asrwt>
<pdfrwt beam="2">  1        2 0.16844444E+00 0.11493469E+04</pdfrwt>
<pdfrwt beam="1">  1       -2 0.19526942E+00 0.11493469E+04</pdfrwt>
<totfact> 0.36988540E+00</totfact>
</mgrwt>
</event>
<event>
 8    1  0.1449514E-005  0.1272758E+04  0.7818608E-02  0.8553700E-01
          1   -1    0    0  502    0  0.00000000000E+00  0.00000000000E+00  0.14498669863E+04  0.14498669863E+04  0.00000000000E+00 0.  1.
         -1   -1    0    0    0  501 -0.00000000000E+00 -0.00000000000E+00 -0.11505962720E+04  0.11505962720E+04  0.00000000000E+00 0. -1.
    9000010    2    1    2  502    0  0.40147521035E+03 -0.67502718612E+03 -0.71300281445E+02  0.12773017230E+04  0.10047745593E+04 0.  0.
   -9000010    2    1    2    0  501 -0.40147521035E+03  0.67502718612E+03  0.37057099574E+03  0.13231615353E+04  0.99829331316E+03 0.  0.
        -13    1    3    3    0    0 -0.23504530848E+03 -0.41899452765E+03  0.22435616427E+03  0.53022486820E+03  0.10566000000E+00 0.  1.
          4    1    3    3  502    0  0.63652051883E+03 -0.25603265847E+03 -0.29565644572E+03  0.74707685481E+03  0.00000000000E+00 0.  1.
         13    1    4    4    0    0  0.11549895686E+03  0.69339805160E+03  0.29556928378E+02  0.70357266162E+03  0.10566000000E+00 0. -1.
         -4    1    4    4    0  501 -0.51697416721E+03 -0.18370865478E+02  0.34101406736E+03  0.61958887369E+03  0.00000000000E+00 0. -1.
<mgrwt>
<rscale>  2 0.12727575E+04</rscale>
<asrwt>0</asrwt>
<pdfrwt beam="1">  1        1 0.22305646E+00 0.12727575E+04</pdfrwt>
<pdfrwt beam="2">  1       -1 0.17701481E+00 0.12727575E+04</pdfrwt>
<totfact> 0.20229972E+00</totfact>
</mgrwt>
</event>
<event>
 8    1  0.1449514E-005  0.1085836E+04  0.7818608E-02  0.8697876E-01
         -1   -1    0    0    0  501 -0.00000000000E+00  0.00000000000E+00  0.49551049521E+03  0.49551049521E+03  0.00000000000E+00 0. -1.
          1   -1    0    0  502    0  0.00000000000E+00 -0.00000000000E+00 -0.23850104718E+04  0.23850104718E+04  0.00000000000E+00 0.  1.
    9000010    2    1    2  502    0 -0.38786480447E+03 -0.96026485041E+02 -0.10104232550E+04  0.14801437555E+04  0.10050921303E+04 0.  0.
   -9000010    2    1    2    0  501  0.38786480447E+03  0.96026485041E+02 -0.87907672158E+03  0.14003772115E+04  0.10142091795E+04 0.  0.
        -13    1    3    3    0    0 -0.63995471454E+03  0.19083829035E+03 -0.80691475375E+03  0.10474123929E+04  0.10566000000E+00 0.  1.
          4    1    3    3  502    0  0.25208991007E+03 -0.28686477540E+03 -0.20350850122E+03  0.43273136262E+03  0.00000000000E+00 0.  1.
         13    1    4    4    0    0 -0.26602094758E+03 -0.19359767520E+03 -0.47843552074E+03  0.58064426551E+03  0.10566000000E+00 0. -1.
         -4    1    4    4    0  501  0.65388575205E+03  0.28962416024E+03 -0.40064120083E+03  0.81973294599E+03  0.00000000000E+00 0. -1.
<mgrwt>
<rscale>  2 0.10858358E+04</rscale>
<asrwt>0</asrwt>
<pdfrwt beam="2">  1        1 0.36692469E+00 0.10858358E+04</pdfrwt>
<pdfrwt beam="1">  1       -1 0.76232383E-01 0.10858358E+04</pdfrwt>
<totfact> 0.32531163E+00</totfact>
</mgrwt>
</event>
<event>
 8    1  0.1449514E-005  0.1549017E+04  0.7818608E-02  0.8381835E-01
          2   -1    0    0  502    0  0.00000000000E+00  0.00000000000E+00  0.32121978552E+04  0.32121978552E+04  0.00000000000E+00 0.  1.
         -2   -1    0    0    0  501 -0.00000000000E+00 -0.00000000000E+00 -0.79939328101E+03  0.79939328101E+03  0.00000000000E+00 0. -1.
    9000010    2    1    2  502    0  0.38553378672E+03  0.11176307120E+04  0.69469199570E+03  0.17000083862E+04  0.10048367207E+04 0.  0.
   -9000010    2    1    2    0  501 -0.38553378672E+03 -0.11176307120E+04  0.17181125785E+04  0.23115827500E+04  0.99687976638E+03 0.  0.
        -13    1    3    3    0    0  0.93860124102E+01  0.82599110533E+03 -0.37293096663E+02  0.82688583827E+03  0.10566000000E+00 0.  1.
          4    1    3    3  502    0  0.37614777431E+03  0.29163960668E+03  0.73198509236E+03  0.87312254795E+03  0.00000000000E+00 0.  1.
         13    1    4    4    0    0  0.11464263926E+03 -0.40568438465E+03  0.12591948506E+04  0.13278909735E+04  0.10566000000E+00 0. -1.
         -4    1    4    4    0  501 -0.50017642598E+03 -0.71194632735E+03  0.45891772795E+03  0.98369177650E+03  0.00000000000E+00 0. -1.
<mgrwt>
<rscale>  2 0.15490173E+04</rscale>
<asrwt>0</asrwt>
<pdfrwt beam="1">  1        2 0.49418428E+00 0.15490173E+04</pdfrwt>
<pdfrwt beam="2">  1       -2 0.12298358E+00 0.15490173E+04</pdfrwt>
<totfact> 0.93886623E-01</totfact>
</mgrwt>
</event>
<event>
 8    1  0.1449514E-005  0.2066954E+04  0.7818608E-02  0.8141663E-01
          1   -1    0    0  502    0  0.00000000000E+00  0.00000000000E+00  0.12494040172E+04  0.12494040172E+04  0.00000000000E+00 0.  1.
         -1   -1    0    0    0  501 -0.00000000000E+00 -0.00000000000E+00 -0.35585194953E+04  0.35585194953E+04  0.00000000000E+00 0. -1.
    9000010    2    1    2  502    0  0.18118509457E+04  0.12194842231E+02 -0.67833951106E+03  0.21736147915E+04  0.99070894103E+03 0.  0.
   -9000010    2    1    2    0  501 -0.18118509457E+04 -0.12194842231E+02 -0.16307759670E+04  0.26343087210E+04  0.99859882815E+03 0.  0.
        -13    1    3    3    0    0  0.99046670875E+03  0.12821568011E+03 -0.86738603501E+03  0.13228084165E+04  0.10566000000E+00 0.  1.
          4    1    3    3  502    0  0.82138423695E+03 -0.11602083788E+03  0.18904652396E+03  0.85080637500E+03  0.00000000000E+00 0.  1.
         13    1    4    4    0    0 -0.81919620058E+02  0.14452797955E+03 -0.58196594909E+03  0.60521363012E+03  0.10566000000E+00 0. -1.
         -4    1    4    4    0  501 -0.17299313256E+04 -0.15672282178E+03 -0.10488100179E+04  0.20290950909E+04  0.00000000000E+00 0. -1.
<mgrwt>
<rscale>  2 0.20669536E+04</rscale>
<asrwt>0</asrwt>
<pdfrwt beam="1">  1        1 0.19221600E+00 0.20669536E+04</pdfrwt>
<pdfrwt beam="2">  1       -1 0.54746453E+00 0.20669536E+04</pdfrwt>
<totfact> 0.69592793E-02</totfact>
</mgrwt>
</event>
<event>
 8    1  0.1449514E-005  0.1230695E+04  0.7818608E-02  0.8583800E-01
         -2   -1    0    0    0  501 -0.00000000000E+00  0.00000000000E+00  0.70175021006E+03  0.70175021006E+03  0.00000000000E+00 0. -1.
          2   -1    0    0  502    0  0.00000000000E+00 -0.00000000000E+00 -0.21894547807E+04  0.21894547807E+04  0.00000000000E+00 0.  1.
    9000010    2    1    2  502    0  0.64926170801E+03  0.25194788632E+03 -0.57624541251E+03  0.13658074217E+04  0.10238909292E+04 0.  0.
   -9000010    2    1    2    0  501 -0.64926170801E+03 -0.25194788632E+03 -0.91145915816E+03  0.15253975691E+04  0.10055155115E+04 0.  0.
        -13    1    3    3    0    0 -0.16727603111E+03 -0.23063956026E+03 -0.83122106564E+02  0.29679146400E+03  0.10566000000E+00 0.  1.
          4    1    3    3  502    0  0.81653773912E+03  0.48258744659E+03 -0.49312330594E+03  0.10690159577E+04  0.00000000000E+00 0.  1.
         13    1    4    4    0    0 -0.68934398302E+02 -0.53926551074E+03 -0.59053755167E+03  0.80267917217E+03  0.10566000000E+00 0. -1.
         -4    1    4    4    0  501 -0.58032730971E+03  0.28731762442E+03 -0.32092160649E+03  0.72271839689E+03  0.00000000000E+00 0. -1.
<mgrwt>
<rscale>  2 0.12306952E+04</rscale>
<asrwt>0</asrwt>
<pdfrwt beam="2">  1        2 0.33683920E+00 0.12306952E+04</pdfrwt>
<pdfrwt beam="1">  1       -2 0.10796157E+00 0.12306952E+04</pdfrwt>
<totfact> 0.54468653E+00</totfact>
</mgrwt>
</event>
<event>
 8    1  0.1449514E-005  0.1251199E+04  0.7818608E-02  0.8568974E-01
         -2   -1    0    0    0  501 -0.00000000000E+00  0.00000000000E+00  0.78960014553E+03  0.78960014553E+03  0.00000000000E+00 0. -1.
          2   -1    0    0  502    0  0.00000000000E+00 -0.00000000000E+00 -0.23313109510E+04  0.23313109510E+04  0.00000000000E+00 0.  1.
    9000010    2    1    2  502    0 -0.97197386605E+02 -0.74606021597E+03 -0.16373282213E+03  0.12548507595E+04  0.99085256910E+03 0.  0.
   -9000010    2    1    2    0  501  0.97197386605E+02  0.74606021597E+03 -0.13779779833E+04  0.18660603370E+04  0.10086152295E+04 0.  0.
        -13    1    3    3    0    0 -0.57331448352E+02 -0.52760973378E+03 -0.57807968451E+03  0.78475159061E+03  0.10566000000E+00 0.  1.
          4    1    3    3  502    0 -0.39865938253E+02 -0.21845048219E+03  0.41434686238E+03  0.47009916886E+03  0.00000000000E+00 0.  1.
         13    1    4    4    0    0 -0.42745240653E+03  0.20415920011E+03 -0.73762082005E+03  0.87663049466E+03  0.10566000000E+00 0. -1.
         -4    1    4    4    0  501  0.52464979314E+03  0.54190101586E+03 -0.64035716327E+03  0.98942984237E+03  0.00000000000E+00 0. -1.
<mgrwt>
<rscale>  2 0.12511991E+04</rscale>
<asrwt>0</asrwt>
<pdfrwt beam="2">  1        2 0.35866322E+00 0.12511991E+04</pdfrwt>
<pdfrwt beam="1">  1       -2 0.12147695E+00 0.12511991E+04</pdfrwt>
<totfact> 0.33533862E+00</totfact>
</mgrwt>
</event>
<event>
 8    1  0.1449514E-005  0.1246488E+04  0.7818608E-02  0.8572355E-01
          2   -1    0    0  502    0  0.00000000000E+00  0.00000000000E+00  0.18321210573E+04  0.18321210573E+04  0.00000000000E+00 0. -1.
         -2   -1    0    0    0  501 -0.00000000000E+00 -0.00000000000E+00 -0.91144429555E+03  0.91144429555E+03  0.00000000000E+00 0.  1.
    9000010    2    1    2  502    0  0.71598134564E+03  0.15431212519E+02  0.81880970975E+03  0.14837060386E+04  0.10089929923E+04 0.  0.
   -9000010    2    1    2    0  501 -0.71598134564E+03 -0.15431212519E+02  0.10186705203E+03  0.12598593143E+04  0.10315043315E+04 0.  0.
        -13    1    3    3    0    0  0.30934451357E+03 -0.42933368968E+03  0.87943480431E+02  0.53642847807E+03  0.10566000000E+00 0.  1.
          4    1    3    3  502    0  0.40663683207E+03  0.44476490220E+03  0.73086622932E+03  0.94727756048E+03  0.00000000000E+00 0.  1.
         13    1    4    4    0    0 -0.64830006413E+03 -0.46552455775E+03  0.10268422871E+03  0.80470500745E+03  0.10566000000E+00 0. -1.
         -4    1    4    4    0  501 -0.67681281511E+02  0.45009334523E+03 -0.81717668533E+00  0.45515430688E+03  0.00000000000E+00 0. -1.
<mgrwt>
<rscale>  2 0.12464877E+04</rscale>
<asrwt>0</asrwt>
<pdfrwt beam="1">  1        2 0.28186478E+00 0.12464877E+04</pdfrwt>
<pdfrwt beam="2">  1       -2 0.14022220E+00 0.12464877E+04</pdfrwt>
<totfact> 0.42179533E+00</totfact>
</mgrwt>
</event>
<event>
 8    1  0.1449514E-005  0.1125296E+04  0.7818608E-02  0.8665045E-01
          2   -1    0    0  502    0  0.00000000000E+00  0.00000000000E+00  0.17284642788E+04  0.17284642788E+04  0.00000000000E+00 0. -1.
         -2   -1    0    0    0  501 -0.00000000000E+00 -0.00000000000E+00 -0.84042230181E+03  0.84042230181E+03  0.00000000000E+00 0.  1.
    9000010    2    1    2  502    0 -0.39698947231E+03 -0.32064728073E+03  0.90438601651E+03  0.14444078177E+04  0.10039843411E+04 0.  0.
   -9000010    2    1    2    0  501  0.39698947231E+03  0.32064728073E+03 -0.16344039547E+02  0.11244787629E+04  0.10018832471E+04 0.  0.
        -13    1    3    3    0    0  0.15540634034E+03 -0.51648807495E+03  0.46041120094E+03  0.70914705619E+03  0.10566000000E+00 0.  1.
          4    1    3    3  502    0 -0.55239581265E+03  0.19584079422E+03  0.44397481558E+03  0.73526076149E+03  0.00000000000E+00 0.  1.
         13    1    4    4    0    0 -0.96815302373E+01 -0.26753295802E+03  0.24523987446E+03  0.36305677634E+03  0.10566000000E+00 0. -1.
         -4    1    4    4    0  501  0.40667100255E+03  0.58818023875E+03 -0.26158391401E+03  0.76142198657E+03  0.00000000000E+00 0. -1.
<mgrwt>
<rscale>  2 0.11252959E+04</rscale>
<asrwt>0</asrwt>
<pdfrwt beam="1">  1        2 0.26591758E+00 0.11252959E+04</pdfrwt>
<pdfrwt beam="2">  1       -2 0.12929574E+00 0.11252959E+04</pdfrwt>
<totfact> 0.61249222E+00</totfact>
</mgrwt>
</event>
<event>
 8    1  0.1449514E-005  0.1169604E+04  0.7818608E-02  0.8629809E-01
         -1   -1    0    0    0  501 -0.00000000000E+00  0.00000000000E+00  0.11392306613E+04  0.11392306613E+04  0.00000000000E+00 0.  1.
          1   -1    0    0  502    0  0.00000000000E+00 -0.00000000000E+00 -0.12065099751E+04  0.12065099751E+04  0.00000000000E+00 0. -1.
    9000010    2    1    2  502    0  0.52818557554E+03  0.20997684992E+03 -0.10651286424E+03  0.12117668439E+04  0.10648772765E+04 0.  0.
   -9000010    2    1    2    0  501 -0.52818557554E+03 -0.20997684992E+03  0.39233550417E+02  0.11339737926E+04  0.98045245219E+03 0.  0.
        -13    1    3    3    0    0  0.57070706305E+03 -0.35917298233E+02 -0.49079086079E+03  0.75357301194E+03  0.10566000000E+00 0.  1.
          4    1    3    3  502    0 -0.42521487509E+02  0.24589414815E+03  0.38427799655E+03  0.45819383194E+03  0.00000000000E+00 0.  1.
         13    1    4    4    0    0 -0.45085754832E+03 -0.47897068446E+03  0.32523983424E+03  0.73380270264E+03  0.10566000000E+00 0. -1.
         -4    1    4    4    0  501 -0.77328027216E+02  0.26899383454E+03 -0.28600628383E+03  0.40017108992E+03  0.00000000000E+00 0. -1.
<mgrwt>
<rscale>  2 0.11696041E+04</rscale>
<asrwt>0</asrwt>
<pdfrwt beam="2">  1        1 0.18561692E+00 0.11696041E+04</pdfrwt>
<pdfrwt beam="1">  1       -1 0.17526626E+00 0.11696041E+04</pdfrwt>
<totfact> 0.32395585E+00</totfact>
</mgrwt>
</event>
<event>
 8    1  0.1449514E-005  0.1200180E+04  0.7818608E-02  0.8606427E-01
         -2   -1    0    0    0  501 -0.00000000000E+00  0.00000000000E+00  0.63845537795E+03  0.63845537795E+03  0.00000000000E+00 0.  1.
          2   -1    0    0  502    0  0.00000000000E+00 -0.00000000000E+00 -0.22639960291E+04  0.22639960291E+04  0.00000000000E+00 0. -1.
    9000010    2    1    2  502    0 -0.63203961832E+03 -0.21526079793E+03 -0.89303644542E+03  0.14901952086E+04  0.98861336047E+03 0.  0.
   -9000010    2    1    2    0  501  0.63203961832E+03  0.21526079793E+03 -0.73250420574E+03  0.14122561985E+04  0.10060287613E+04 0.  0.
        -13    1    3    3    0    0 -0.90085917622E+03 -0.20436593165E+03 -0.68082359903E+03  0.11475336481E+04  0.10566000000E+00 0.  1.
          4    1    3    3  502    0  0.26881955791E+03 -0.10894866286E+02 -0.21221284639E+03  0.34266156043E+03  0.00000000000E+00 0.  1.
         13    1    4    4    0    0  0.18686758807E+03  0.28403935061E+03 -0.87586387174E+03  0.93953998380E+03  0.10566000000E+00 0. -1.
         -4    1    4    4    0  501  0.44517203024E+03 -0.68778552672E+02  0.14335966600E+03  0.47271621471E+03  0.00000000000E+00 0. -1.
<mgrwt>
<rscale>  2 0.12001799E+04</rscale>
<asrwt>0</asrwt>
<pdfrwt beam="2">  1        2 0.34830708E+00 0.12001799E+04</pdfrwt>
<pdfrwt beam="1">  1       -2 0.98223904E-01 0.12001799E+04</pdfrwt>
<totfact> 0.62629931E+00</totfact>
</mgrwt>
</event>
<event>
 8    1  0.1449514E-005  0.1324071E+04  0.7818608E-02  0.8518566E-01
          2   -1    0    0  502    0  0.00000000000E+00  0.00000000000E+00  0.78737627028E+03  0.78737627028E+03  0.00000000000E+00 0.  1.
         -2   -1    0    0    0  501 -0.00000000000E+00 -0.00000000000E+00 -0.22767427759E+04  0.22767427759E+04  0.00000000000E+00 0. -1.
    9000010    2    1    2  502    0 -0.76413602891E+03  0.46255190544E+03 -0.50595936803E+03  0.13956338567E+04  0.94548444939E+03 0.  0.
   -9000010    2    1    2    0  501  0.76413602891E+03 -0.46255190544E+03 -0.98340713757E+03  0.16684851894E+04  0.10094033353E+04 0.  0.
        -13    1    3    3    0    0 -0.47350779728E+03  0.60804103633E+03  0.27286945293E+02  0.77114727809E+03  0.10566000000E+00 0.  1.
          4    1    3    3  502    0 -0.29062823163E+03 -0.14548913089E+03 -0.53324631333E+03  0.62448657864E+03  0.00000000000E+00 0.  1.
         13    1    4    4    0    0 -0.22437302316E+03  0.37505767135E+02 -0.25970926666E+03  0.34525186522E+03  0.10566000000E+00 0. -1.
         -4    1    4    4    0  501  0.98850905207E+03 -0.50005767257E+03 -0.72369787091E+03  0.13232333242E+04  0.00000000000E+00 0. -1.
<mgrwt>
<rscale>  2 0.13240707E+04</rscale>
<asrwt>0</asrwt>
<pdfrwt beam="1">  1        2 0.12113481E+00 0.13240707E+04</pdfrwt>
<pdfrwt beam="2">  1       -2 0.35026812E+00 0.13240707E+04</pdfrwt>
<totfact> 0.40894902E-01</totfact>
</mgrwt>
</event>
<event>
 8    1  0.1449514E-005  0.1785431E+04  0.7818608E-02  0.8261833E-01
         -1   -1    0    0    0  501 -0.00000000000E+00  0.00000000000E+00  0.17379687656E+04  0.17379687656E+04  0.00000000000E+00 0.  1.
          1   -1    0    0  502    0  0.00000000000E+00 -0.00000000000E+00 -0.21788720283E+04  0.21788720283E+04  0.00000000000E+00 0. -1.
    9000010    2    1    2  502    0  0.28122192031E+03 -0.14544401360E+04 -0.99958988338E+03  0.20479664258E+04  0.10002523024E+04 0.  0.
   -9000010    2    1    2    0  501 -0.28122192031E+03  0.14544401360E+04  0.55868662068E+03  0.18688743680E+04  0.99301499769E+03 0.  0.
        -13    1    3    3    0    0  0.18338952454E+03 -0.56808674147E+03 -0.99015072294E+03  0.11561802320E+04  0.10566000000E+00 0.  1.
          4    1    3    3  502    0  0.97832395770E+02 -0.88635339455E+03 -0.94391604405E+01  0.89178619380E+03  0.00000000000E+00 0.  1.
         13    1    4    4    0    0 -0.16576466509E+03 -0.10038670537E+03  0.17987792490E+03  0.26440781728E+03  0.10566000000E+00 0. -1.
         -4    1    4    4    0  501 -0.11545725521E+03  0.15548268414E+04  0.37880869577E+03  0.16044665508E+04  0.00000000000E+00 0. -1.
<mgrwt>
<rscale>  2 0.17854314E+04</rscale>
<asrwt>0</asrwt>
<pdfrwt beam="2">  1        1 0.33521108E+00 0.17854314E+04</pdfrwt>
<pdfrwt beam="1">  1       -1 0.26737981E+00 0.17854314E+04</pdfrwt>
<totfact> 0.76493795E-02</totfact>
</mgrwt>
</event>
<event>
 8    1  0.1449514E-005  0.1300249E+04  0.7818608E-02  0.8534669E-01
         -2   -1    0    0    0  501 -0.00000000000E+00  0.00000000000E+00  0.41500684383E+04  0.41500684383E+04  0.00000000000E+00 0.  1.
          2   -1    0    0  502    0  0.00000000000E+00 -0.00000000000E+00 -0.40739926901E+03  0.40739926901E+03  0.00000000000E+00 0. -1.
    9000010    2    1    2  502    0  0.81760980123E+03  0.74028014158E+02  0.18503618888E+04  0.22575551426E+04  0.99937488869E+03 0.  0.
   -9000010    2    1    2    0  501 -0.81760980123E+03 -0.74028014158E+02  0.18923072804E+04  0.22999125647E+04  0.10172536694E+04 0.  0.
        -13    1    3    3    0    0 -0.91327436064E+01 -0.64937011587E+02  0.11861983413E+04  0.11880095701E+04  0.10566000000E+00 0.  1.
          4    1    3    3  502    0  0.82674254483E+03  0.13896502574E+03  0.66416354755E+03  0.10695455725E+04  0.00000000000E+00 0.  1.
         13    1    4    4    0    0 -0.10210925535E+04 -0.22584605986E+03  0.16142157327E+04  0.19233639511E+04  0.10566000000E+00 0. -1.
         -4    1    4    4    0  501  0.20348275229E+03  0.15181804571E+03  0.27809154772E+03  0.37654861359E+03  0.00000000000E+00 0. -1.
<mgrwt>
<rscale>  2 0.13002490E+04</rscale>
<asrwt>0</asrwt>
<pdfrwt beam="2">  1        2 0.62676814E-01 0.13002490E+04</pdfrwt>
<pdfrwt beam="1">  1       -2 0.63847204E+00 0.13002490E+04</pdfrwt>
<totfact> 0.44036679E-01</totfact>
</mgrwt>
</event>
<event>
 8    1  0.1449514E-005  0.1555938E+04  0.7818608E-02  0.8378015E-01
          1   -1    0    0  502    0  0.00000000000E+00  0.00000000000E+00  0.14446306687E+04  0.14446306687E+04  0.00000000000E+00 0. -1.
         -1   -1    0    0    0  501 -0.00000000000E+00 -0.00000000000E+00 -0.19552343951E+04  0.19552343951E+04  0.00000000000E+00 0.  1.
    9000010    2    1    2  502    0 -0.11744808247E+04 -0.11835292284E+03 -0.89859580868E+03  0.18010654369E+04  0.10212490678E+04 0.  0.
   -9000010    2    1    2    0  501  0.11744808247E+04  0.11835292284E+03  0.38799208223E+03  0.15987996269E+04  0.10060863628E+04 0.  0.
        -13    1    3    3    0    0 -0.39453603839E+03 -0.26558018847E+03 -0.88792508451E+03  0.10072747832E+04  0.10566000000E+00 0.  1.
          4    1    3    3  502    0 -0.77994478630E+03  0.14722726562E+03 -0.10670724173E+02  0.79379065362E+03  0.00000000000E+00 0.  1.
         13    1    4    4    0    0 -0.15831228302E+03 -0.22394913447E+02 -0.80576945598E+02  0.17904459341E+03  0.10566000000E+00 0. -1.
         -4    1    4    4    0  501  0.13327931077E+04  0.14074783629E+03  0.46856902783E+03  0.14197550335E+04  0.00000000000E+00 0. -1.
<mgrwt>
<rscale>  2 0.15559382E+04</rscale>
<asrwt>0</asrwt>
<pdfrwt beam="1">  1        1 0.22225087E+00 0.15559382E+04</pdfrwt>
<pdfrwt beam="2">  1       -1 0.30080529E+00 0.15559382E+04</pdfrwt>
<totfact> 0.13967196E-01</totfact>
</mgrwt>
</event>
<event>
 8    1  0.1449514E-005  0.1074085E+04  0.7818608E-02  0.8707936E-01
          1   -1    0    0  502    0  0.00000000000E+00  0.00000000000E+00  0.41998878959E+04  0.41998878959E+04  0.00000000000E+00 0. -1.
         -1   -1    0    0    0  501 -0.00000000000E+00 -0.00000000000E+00 -0.30734312536E+03  0.30734312536E+03  0.00000000000E+00 0.  1.
    9000010    2    1    2  502    0  0.25470094408E+03  0.32064202719E+03  0.12212674213E+04  0.16302758787E+04  0.99931048512E+03 0.  0.
   -9000010    2    1    2    0  501 -0.25470094408E+03 -0.32064202719E+03  0.26712773493E+04  0.28769551427E+04  0.98664296256E+03 0.  0.
        -13    1    3    3    0    0 -0.15745379873E+03  0.21321404757E+03  0.11718994019E+04  0.12014991254E+04  0.10566000000E+00 0.  1.
          4    1    3    3  502    0  0.41215474282E+03  0.10742797962E+03  0.49368019373E+02  0.42877675330E+03  0.00000000000E+00 0.  1.
         13    1    4    4    0    0  0.89705229030E+02  0.83964068240E+02 -0.27882909296E+02  0.12599389138E+03  0.10566000000E+00 0. -1.
         -4    1    4    4    0  501 -0.34440617311E+03 -0.40460609543E+03  0.26991602586E+04  0.27509612513E+04  0.00000000000E+00 0. -1.
<mgrwt>
<rscale>  2 0.10740848E+04</rscale>
<asrwt>0</asrwt>
<pdfrwt beam="1">  1        1 0.64613656E+00 0.10740848E+04</pdfrwt>
<pdfrwt beam="2">  1       -1 0.47283561E-01 0.10740848E+04</pdfrwt>
<totfact> 0.20154630E-01</totfact>
</mgrwt>
</event>
<event>
 8    1  0.1449514E-005  0.1093235E+04  0.7818608E-02  0.8691610E-01
          2   -1    0    0  502    0  0.00000000000E+00  0.00000000000E+00  0.15398465852E+04  0.15398465852E+04  0.00000000000E+00 0. -1.
         -2   -1    0    0    0  501 -0.00000000000E+00 -0.00000000000E+00 -0.89322629372E+03  0.89322629372E+03  0.00000000000E+00 0.  1.
    9000010    2    1    2  502    0 -0.12325038608E+03  0.42653894195E+03 -0.11832462887E+03  0.10947961985E+04  0.99370612951E+03 0.  0.
   -9000010    2    1    2    0  501  0.12325038608E+03 -0.42653894195E+03  0.76494492036E+03  0.13382766804E+04  0.10043493493E+04 0.  0.
        -13    1    3    3    0    0  0.37829170073E+03 -0.65286597525E+02 -0.73977862076E+02  0.39094716510E+03  0.10566000000E+00 0.  1.
          4    1    3    3  502    0 -0.50154208681E+03  0.49182553948E+03 -0.44346766797E+02  0.70384903342E+03  0.00000000000E+00 0.  1.
         13    1    4    4    0    0 -0.41692655208E+03 -0.12274013629E+02  0.30486663529E+03  0.51664502099E+03  0.10566000000E+00 0. -1.
         -4    1    4    4    0  501  0.54017693816E+03 -0.41426492832E+03  0.46007828507E+03  0.82163165941E+03  0.00000000000E+00 0. -1.
<mgrwt>
<rscale>  2 0.10932354E+04</rscale>
<asrwt>0</asrwt>
<pdfrwt beam="1">  1        2 0.23689947E+00 0.10932354E+04</pdfrwt>
<pdfrwt beam="2">  1       -2 0.13741943E+00 0.10932354E+04</pdfrwt>
<totfact> 0.65556489E+00</totfact>
</mgrwt>
</event>
<event>
 8    1  0.1449514E-005  0.1075317E+04  0.7818608E-02  0.8706875E-01
         -1   -1    0    0    0  501 -0.00000000000E+00  0.00000000000E+00  0.10694881162E+04  0.10694881162E+04  0.00000000000E+00 0.  1.
          1   -1    0    0  502    0  0.00000000000E+00 -0.00000000000E+00 -0.10832492899E+04  0.10832492899E+04  0.00000000000E+00 0. -1.
    9000010    2    1    2  502    0 -0.33152966817E+03  0.13120757178E+03 -0.52638955727E+02  0.10658991503E+04  0.10031165392E+04 0.  0.
   -9000010    2    1    2    0  501  0.33152966817E+03 -0.13120757178E+03  0.38877782050E+02  0.10868382559E+04  0.10259525158E+04 0.  0.
        -13    1    3    3    0    0  0.47728883229E+02 -0.69143505987E+02  0.41960863425E+03  0.42793724752E+03  0.10566000000E+00 0.  1.
          4    1    3    3  502    0 -0.37925855140E+03  0.20035107777E+03 -0.47224758998E+03  0.63796190279E+03  0.00000000000E+00 0.  1.
         13    1    4    4    0    0  0.61373957904E+03  0.16102908505E+03 -0.12860070893E+03  0.64741392525E+03  0.10566000000E+00 0. -1.
         -4    1    4    4    0  501 -0.28220991087E+03 -0.29223665683E+03  0.16747849098E+03  0.43942433060E+03  0.00000000000E+00 0. -1.
<mgrwt>
<rscale>  2 0.10753167E+04</rscale>
<asrwt>0</asrwt>
<pdfrwt beam="2">  1        1 0.16665374E+00 0.10753167E+04</pdfrwt>
<pdfrwt beam="1">  1       -1 0.16453664E+00 0.10753167E+04</pdfrwt>
<totfact> 0.50692915E+00</totfact>
</mgrwt>
</event>
<event>
 8    1  0.1449514E-005  0.1021468E+04  0.7818608E-02  0.8754678E-01
         -2   -1    0    0    0  501 -0.00000000000E+00  0.00000000000E+00  0.58156445854E+03  0.58156445854E+03  0.00000000000E+00 0. -1.
          2   -1    0    0  502    0  0.00000000000E+00 -0.00000000000E+00 -0.19050837314E+04  0.19050837314E+04  0.00000000000E+00 0.  1.
    9000010    2    1    2  502    0 -0.16905710948E+03  0.33105043288E+03 -0.97238089813E+03  0.14240293196E+04  0.97167906051E+03 0.  0.
   -9000010    2    1    2    0  501  0.16905710948E+03 -0.33105043288E+03 -0.35113837475E+03  0.10626188704E+04  0.93149665059E+03 0.  0.
        -13    1    3    3    0    0  0.32252505370E+03  0.28665208632E+03 -0.13521268211E+03  0.45218835614E+03  0.10566000000E+00 0.  1.
          4    1    3    3  502    0 -0.49158216318E+03  0.44398346550E+02 -0.83716821602E+03  0.97184096345E+03  0.00000000000E+00 0.  1.
         13    1    4    4    0    0 -0.23922379157E+03  0.17547725345E+03  0.46251524624E+02  0.30026572169E+03  0.10566000000E+00 0. -1.
         -4    1    4    4    0  501  0.40828090104E+03 -0.50652768632E+03 -0.39738989937E+03  0.76235314867E+03  0.00000000000E+00 0. -1.
<mgrwt>
<rscale>  2 0.10214683E+04</rscale>
<asrwt>0</asrwt>
<pdfrwt beam="2">  1        2 0.29308981E+00 0.10214683E+04</pdfrwt>
<pdfrwt beam="1">  1       -2 0.89471454E-01 0.10214683E+04</pdfrwt>
<totfact> 0.12472208E+01</totfact>
</mgrwt>
</event>
<event>
 8    1  0.1449514E-005  0.1036938E+04  0.7818608E-02  0.8740638E-01
         -1   -1    0    0    0  501 -0.00000000000E+00  0.00000000000E+00  0.62642583828E+03  0.62642583828E+03  0.00000000000E+00 0.  1.
          1   -1    0    0  502    0  0.00000000000E+00 -0.00000000000E+00 -0.20714419737E+04  0.20714419737E+04  0.00000000000E+00 0. -1.
    9000010    2    1    2  502    0 -0.16542547560E+03  0.10896031611E+03 -0.12690311182E+04  0.16265890166E+04  0.99805506436E+03 0.  0.
   -9000010    2    1    2    0  501  0.16542547560E+03 -0.10896031611E+03 -0.17598501717E+03  0.10712787953E+04  0.10379930600E+04 0.  0.
        -13    1    3    3    0    0  0.20302344320E+03  0.25570402266E+03 -0.11742878105E+04  0.12188334336E+04  0.10566000000E+00 0.  1.
          4    1    3    3  502    0 -0.36844891879E+03 -0.14674370654E+03 -0.94743307733E+02  0.40775558307E+03  0.00000000000E+00 0.  1.
         13    1    4    4    0    0  0.26521245570E+03  0.31163782480E+03  0.23745739465E+03  0.47311923015E+03  0.10566000000E+00 0. -1.
         -4    1    4    4    0  501 -0.99786980104E+02 -0.42059814091E+03 -0.41344241182E+03  0.59815956519E+03  0.00000000000E+00 0. -1.
<mgrwt>
<rscale>  2 0.10369384E+04</rscale>
<asrwt>0</asrwt>
<pdfrwt beam="2">  1        1 0.31868338E+00 0.10369384E+04</pdfrwt>
<pdfrwt beam="1">  1       -1 0.96373206E-01 0.10369384E+04</pdfrwt>
<totfact> 0.36858026E+00</totfact>
</mgrwt>
</event>
<event>
 8    1  0.1449514E-005  0.1518666E+04  0.7818608E-02  0.8398837E-01
         -1   -1    0    0    0  501 -0.00000000000E+00  0.00000000000E+00  0.12881182071E+04  0.12881182071E+04  0.00000000000E+00 0.  1.
          1   -1    0    0  502    0  0.00000000000E+00 -0.00000000000E+00 -0.20107620904E+04  0.20107620904E+04  0.00000000000E+00 0. -1.
    9000010    2    1    2  502    0 -0.96532977756E+03 -0.50228701601E+03  0.18545134318E+03  0.15259840269E+04  0.10536039217E+04 0.  0.
   -9000010    2    1    2    0  501  0.96532977756E+03  0.50228701601E+03 -0.90809522652E+03  0.17728962706E+04  0.10650682701E+04 0.  0.
        -13    1    3    3    0    0 -0.96547132781E+03 -0.28814925502E+03  0.51610494106E+03  0.11320464652E+04  0.10566000000E+00 0.  1.
          4    1    3    3  502    0  0.14155025250E+00 -0.21413776099E+03 -0.33065359789E+03  0.39393756169E+03  0.00000000000E+00 0.  1.
         13    1    4    4    0    0  0.29878779644E+03  0.75088905411E+03 -0.53948893851E+03  0.97167733576E+03  0.10566000000E+00 0. -1.
         -4    1    4    4    0  501  0.66654198112E+03 -0.24860203810E+03 -0.36860628801E+03  0.80121893482E+03  0.00000000000E+00 0. -1.
<mgrwt>
<rscale>  2 0.15186664E+04</rscale>
<asrwt>0</asrwt>
<pdfrwt beam="2">  1        1 0.30934802E+00 0.15186664E+04</pdfrwt>
<pdfrwt beam="1">  1       -1 0.19817203E+00 0.15186664E+04</pdfrwt>
<totfact> 0.48439136E-01</totfact>
</mgrwt>
</event>
<event>
 8    1  0.1449514E-005  0.1344116E+04  0.7818608E-02  0.8505285E-01
          1   -1    0    0  502    0  0.00000000000E+00  0.00000000000E+00  0.52833382344E+03  0.52833382344E+03  0.00000000000E+00 0.  1.
         -1   -1    0    0    0  501 -0.00000000000E+00 -0.00000000000E+00 -0.35249950744E+04  0.35249950744E+04  0.00000000000E+00 0. -1.
    9000010    2    1    2  502    0  0.91471584282E+03 -0.87334474925E+02 -0.11587839646E+04  0.17822043927E+04  0.99455509507E+03 0.  0.
   -9000010    2    1    2    0  501 -0.91471584282E+03  0.87334474925E+02 -0.18378772864E+04  0.22711245052E+04  0.96740953817E+03 0.  0.
        -13    1    3    3    0    0 -0.10256263865E+03  0.64830323724E+02 -0.59897000844E+03  0.61113594878E+03  0.10566000000E+00 0.  1.
          4    1    3    3  502    0  0.10172784815E+04 -0.15216479865E+03 -0.55981395615E+03  0.11710684439E+04  0.00000000000E+00 0.  1.
         13    1    4    4    0    0 -0.50434958650E+03 -0.37218719174E+02 -0.17651283483E+04  0.18361459189E+04  0.10566000000E+00 0. -1.
         -4    1    4    4    0  501 -0.41036625632E+03  0.12455319410E+03 -0.72748938077E+02  0.43497858623E+03  0.00000000000E+00 0. -1.
<mgrwt>
<rscale>  2 0.13441156E+04</rscale>
<asrwt>0</asrwt>
<pdfrwt beam="1">  1        1 0.81282127E-01 0.13441156E+04</pdfrwt>
<pdfrwt beam="2">  1       -1 0.54230693E+00 0.13441156E+04</pdfrwt>
<totfact> 0.35978693E-01</totfact>
</mgrwt>
</event>
<event>
 8    1  0.1449514E-005  0.1312333E+04  0.7818608E-02  0.8526456E-01
         -2   -1    0    0    0  501 -0.00000000000E+00  0.00000000000E+00  0.14703322627E+04  0.14703322627E+04  0.00000000000E+00 0. -1.
          2   -1    0    0  502    0  0.00000000000E+00 -0.00000000000E+00 -0.11729070836E+04  0.11729070836E+04  0.00000000000E+00 0.  1.
    9000010    2    1    2  502    0 -0.82825265972E+03  0.21120258003E+03  0.10005299771E+03  0.13167210122E+04  0.99656139970E+03 0.  0.
   -9000010    2    1    2    0  501  0.82825265972E+03 -0.21120258003E+03  0.19737218139E+03  0.13265183342E+04  0.99503071046E+03 0.  0.
        -13    1    3    3    0    0 -0.14764173549E+03 -0.12627419992E+03 -0.37386752270E+03  0.42133145066E+03  0.10566000000E+00 0.  1.
          4    1    3    3  502    0 -0.68061092423E+03  0.33747677995E+03  0.47392052041E+03  0.89538956150E+03  0.00000000000E+00 0.  1.
         13    1    4    4    0    0  0.28346422938E+02 -0.41497981593E+03 -0.13405187089E+03  0.43701451071E+03  0.10566000000E+00 0. -1.
         -4    1    4    4    0  501  0.79990623679E+03  0.20377723590E+03  0.33142405228E+03  0.88950382346E+03  0.00000000000E+00 0. -1.
<mgrwt>
<rscale>  2 0.13123333E+04</rscale>
<asrwt>0</asrwt>
<pdfrwt beam="2">  1        2 0.18044724E+00 0.13123333E+04</pdfrwt>
<pdfrwt beam="1">  1       -2 0.22620496E+00 0.13123333E+04</pdfrwt>
<totfact> 0.18279899E+00</totfact>
</mgrwt>
</event>
<event>
 8    1  0.1449514E-005  0.1281670E+04  0.7818608E-02  0.8547476E-01
          2   -1    0    0  502    0  0.00000000000E+00  0.00000000000E+00  0.46039229476E+04  0.46039229476E+04  0.00000000000E+00 0.  1.
         -2   -1    0    0    0  501 -0.00000000000E+00 -0.00000000000E+00 -0.38741522459E+03  0.38741522459E+03  0.00000000000E+00 0. -1.
    9000010    2    1    2  502    0 -0.64538285521E+03 -0.45430089664E+03  0.27798693163E+04  0.30532061047E+04  0.98563977568E+03 0.  0.
   -9000010    2    1    2    0  501  0.64538285521E+03  0.45430089664E+03  0.14366384067E+04  0.19381320675E+04  0.10341748716E+04 0.  0.
        -13    1    3    3    0    0  0.22627032593E+03 -0.30103706794E+03  0.88842592612E+03  0.96494674155E+03  0.10566000000E+00 0.  1.
          4    1    3    3  502    0 -0.87165318114E+03 -0.15326382870E+03  0.18914433902E+04  0.20882593631E+04  0.00000000000E+00 0.  1.
         13    1    4    4    0    0  0.73377089328E+03  0.56559652094E+03  0.63307663770E+03  0.11220985646E+04  0.10566000000E+00 0. -1.
         -4    1    4    4    0  501 -0.88388038073E+02 -0.11129562430E+03  0.80356176896E+03  0.81603350287E+03  0.00000000000E+00 0. -1.
<mgrwt>
<rscale>  2 0.12816704E+04</rscale>
<asrwt>0</asrwt>
<pdfrwt beam="1">  1        2 0.70829580E+00 0.12816704E+04</pdfrwt>
<pdfrwt beam="2">  1       -2 0.59602345E-01 0.12816704E+04</pdfrwt>
<totfact> 0.35611293E-01</totfact>
</mgrwt>
</event>
<event>
 8    1  0.1449514E-005  0.1122503E+04  0.7818608E-02  0.8667322E-01
          2   -1    0    0  502    0  0.00000000000E+00  0.00000000000E+00  0.14371647429E+04  0.14371647429E+04  0.00000000000E+00 0. -1.
         -2   -1    0    0    0  501 -0.00000000000E+00 -0.00000000000E+00 -0.94828387983E+03  0.94828387983E+03  0.00000000000E+00 0.  1.
    9000010    2    1    2  502    0 -0.50731079782E+03 -0.14063918706E+03 -0.84048140936E+02  0.11211840660E+04  0.98632955618E+03 0.  0.
   -9000010    2    1    2    0  501  0.50731079782E+03  0.14063918706E+03  0.57292900403E+03  0.12642645567E+04  0.99648060657E+03 0.  0.
        -13    1    3    3    0    0 -0.39694225342E+03 -0.42314119525E+03 -0.38309657649E+03  0.69525148094E+03  0.10566000000E+00 0.  1.
          4    1    3    3  502    0 -0.11036854439E+03  0.28250200819E+03  0.29904843556E+03  0.42593258508E+03  0.00000000000E+00 0.  1.
         13    1    4    4    0    0  0.17431179085E+03  0.52663306638E+03  0.50464265816E+03  0.74992747025E+03  0.10566000000E+00 0. -1.
         -4    1    4    4    0  501  0.33299900696E+03 -0.38599387932E+03  0.68286345873E+02  0.51433708650E+03  0.00000000000E+00 0. -1.
<mgrwt>
<rscale>  2 0.11225031E+04</rscale>
<asrwt>0</asrwt>
<pdfrwt beam="1">  1        2 0.22110227E+00 0.11225031E+04</pdfrwt>
<pdfrwt beam="2">  1       -2 0.14588983E+00 0.11225031E+04</pdfrwt>
<totfact> 0.62460497E+00</totfact>
</mgrwt>
</event>
<event>
 8    1  0.1449514E-005  0.1315033E+04  0.7818608E-02  0.8524634E-01
         -1   -1    0    0    0  501 -0.00000000000E+00  0.00000000000E+00  0.23796409075E+04  0.23796409075E+04  0.00000000000E+00 0. -1.
          1   -1    0    0  502    0  0.00000000000E+00 -0.00000000000E+00 -0.79524299928E+03  0.79524299928E+03  0.00000000000E+00 0.  1.
    9000010    2    1    2  502    0 -0.83875804556E+03  0.25525037741E+03  0.33652334576E+03  0.13748416741E+04  0.10041284043E+04 0.  0.
   -9000010    2    1    2    0  501  0.83875804556E+03 -0.25525037741E+03  0.12478745624E+04  0.18000422327E+04  0.95618685500E+03 0.  0.
        -13    1    3    3    0    0 -0.84811671067E+03  0.48295886379E+03  0.49783948204E+03  0.10956255656E+04  0.10566000000E+00 0.  1.
          4    1    3    3  502    0  0.93586651118E+01 -0.22770848638E+03 -0.16131613628E+03  0.27921610843E+03  0.00000000000E+00 0.  1.
         13    1    4    4    0    0  0.66001149716E+03 -0.61026351793E+03  0.83387763539E+03  0.12261275055E+04  0.10566000000E+00 0. -1.
         -4    1    4    4    0  501  0.17874654840E+03  0.35501314052E+03  0.41399692702E+03  0.57391472719E+03  0.00000000000E+00 0. -1.
<mgrwt>
<rscale>  2 0.13150335E+04</rscale>
<asrwt>0</asrwt>
<pdfrwt beam="2">  1        1 0.12234508E+00 0.13150335E+04</pdfrwt>
<pdfrwt beam="1">  1       -1 0.36609860E+00 0.13150335E+04</pdfrwt>
<totfact> 0.30461957E-01</totfact>
</mgrwt>
</event>
<event>
 8    1  0.1449514E-005  0.1300260E+04  0.7818608E-02  0.8534661E-01
         -2   -1    0    0    0  501 -0.00000000000E+00  0.00000000000E+00  0.92784333452E+03  0.92784333452E+03  0.00000000000E+00 0.  1.
          2   -1    0    0  502    0  0.00000000000E+00 -0.00000000000E+00 -0.24641574100E+04  0.24641574100E+04  0.00000000000E+00 0. -1.
    9000010    2    1    2  502    0  0.53464667372E+03  0.53075087501E+03 -0.16503427283E+04  0.21272681021E+04  0.11108982404E+04 0.  0.
   -9000010    2    1    2    0  501 -0.53464667372E+03 -0.53075087501E+03  0.11402865286E+03  0.12647326423E+04  0.10094565696E+04 0.  0.
        -13    1    3    3    0    0  0.66938404172E+03  0.78371095858E+03 -0.11041025657E+04  0.15104040349E+04  0.10566000000E+00 0.  1.
          4    1    3    3  502    0 -0.13473736800E+03 -0.25296008357E+03 -0.54624016255E+03  0.61686406720E+03  0.00000000000E+00 0.  1.
         13    1    4    4    0    0 -0.49783216197E+03 -0.35187429215E+01 -0.31058004516E+03  0.58677867945E+03  0.10566000000E+00 0. -1.
         -4    1    4    4    0  501 -0.36814511754E+02 -0.52723213209E+03  0.42460869801E+03  0.67795396290E+03  0.00000000000E+00 0. -1.
<mgrwt>
<rscale>  2 0.13002597E+04</rscale>
<asrwt>0</asrwt>
<pdfrwt beam="2">  1        2 0.37910113E+00 0.13002597E+04</pdfrwt>
<pdfrwt beam="1">  1       -2 0.14274513E+00 0.13002597E+04</pdfrwt>
<totfact> 0.17916902E+00</totfact>
</mgrwt>
</event>
<event>
 8    1  0.1449514E-005  0.1177364E+04  0.7818608E-02  0.8623806E-01
          2   -1    0    0  502    0  0.00000000000E+00  0.00000000000E+00  0.19497199645E+04  0.19497199645E+04  0.00000000000E+00 0.  1.
         -2   -1    0    0    0  501 -0.00000000000E+00 -0.00000000000E+00 -0.77345094449E+03  0.77345094449E+03  0.00000000000E+00 0. -1.
    9000010    2    1    2  502    0 -0.13673543162E+03 -0.60226776216E+03  0.97316407137E+03  0.15242383038E+04  0.99741218230E+03 0.  0.
   -9000010    2    1    2    0  501  0.13673543162E+03  0.60226776216E+03  0.20310494861E+03  0.11989326051E+04  0.10073553176E+04 0.  0.
        -13    1    3    3    0    0 -0.76631263875E+02 -0.88259011327E+03  0.75478143737E+03  0.11638439277E+04  0.10566000000E+00 0.  1.
          4    1    3    3  502    0 -0.60104167745E+02  0.28032235111E+03  0.21838263401E+03  0.36039437613E+03  0.00000000000E+00 0.  1.
         13    1    4    4    0    0  0.15837387817E+03  0.50201685006E+03  0.59465272892E+03  0.79417572502E+03  0.10566000000E+00 0. -1.
         -4    1    4    4    0  501 -0.21638446551E+02  0.10025091211E+03 -0.39154778031E+03  0.40475688013E+03  0.00000000000E+00 0. -1.
<mgrwt>
<rscale>  2 0.11773636E+04</rscale>
<asrwt>0</asrwt>
<pdfrwt beam="1">  1        2 0.29995692E+00 0.11773636E+04</pdfrwt>
<pdfrwt beam="2">  1       -2 0.11899245E+00 0.11773636E+04</pdfrwt>
<totfact> 0.57760804E+00</totfact>
</mgrwt>
</event>
<event>
 8    1  0.1449514E-005  0.1768960E+04  0.7818608E-02  0.8269557E-01
          1   -1    0    0  502    0  0.00000000000E+00  0.00000000000E+00  0.49499742438E+04  0.49499742438E+04  0.00000000000E+00 0.  1.
         -1   -1    0    0    0  501 -0.00000000000E+00 -0.00000000000E+00 -0.65451011671E+03  0.65451011671E+03  0.00000000000E+00 0. -1.
    9000010    2    1    2  502    0 -0.73604744542E+02  0.14645266628E+04  0.16370597009E+04  0.24145986031E+04  0.10000329721E+04 0.  0.
   -9000010    2    1    2    0  501  0.73604744542E+02 -0.14645266628E+04  0.26584044262E+04  0.31898857574E+04  0.97877527941E+03 0.  0.
        -13    1    3    3    0    0 -0.38450132809E+02  0.23373236372E+03  0.10011441019E+04  0.10287850866E+04  0.10566000000E+00 0.  1.
          4    1    3    3  502    0 -0.35154611732E+02  0.12307942991E+04  0.63591559900E+03  0.13858135165E+04  0.00000000000E+00 0.  1.
         13    1    4    4    0    0  0.79539674129E+02 -0.16493272116E+03 -0.46542723905E+02  0.18893278854E+03  0.10566000000E+00 0. -1.
         -4    1    4    4    0  501 -0.59349295870E+01 -0.12995939416E+04  0.27049471501E+04  0.30009529688E+04  0.00000000000E+00 0. -1.
<mgrwt>
<rscale>  2 0.17689598E+04</rscale>
<asrwt>0</asrwt>
<pdfrwt beam="1">  1        1 0.76153447E+00 0.17689598E+04</pdfrwt>
<pdfrwt beam="2">  1       -1 0.10069387E+00 0.17689598E+04</pdfrwt>
<totfact> 0.11517909E-02</totfact>
</mgrwt>
</event>
<event>
 8    1  0.1449514E-005  0.1504549E+04  0.7818608E-02  0.8406886E-01
         -2   -1    0    0    0  501 -0.00000000000E+00  0.00000000000E+00  0.12876502648E+04  0.12876502648E+04  0.00000000000E+00 0. -1.
          2   -1    0    0  502    0  0.00000000000E+00 -0.00000000000E+00 -0.17947573226E+04  0.17947573226E+04  0.00000000000E+00 0.  1.
    9000010    2    1    2  502    0 -0.86955921226E+03  0.80194476921E+03 -0.46519661785E+03  0.15410907396E+04  0.87138059296E+03 0.  0.
   -9000010    2    1    2    0  501  0.86955921226E+03 -0.80194476921E+03 -0.41910439993E+02  0.15413168478E+04  0.98724490573E+03 0.  0.
        -13    1    3    3    0    0 -0.30965675172E+03  0.43114345528E+03 -0.65513551923E+03  0.84319306368E+03  0.10566000000E+00 0.  1.
          4    1    3    3  502    0 -0.55990246054E+03  0.37080131394E+03  0.18993890138E+03  0.69789767588E+03  0.00000000000E+00 0.  1.
         13    1    4    4    0    0  0.23254904097E+03 -0.72004748333E+03  0.29970586782E+03  0.81386181449E+03  0.10566000000E+00 0. -1.
         -4    1    4    4    0  501  0.63701017129E+03 -0.81897285881E+02 -0.34161630781E+03  0.72745503333E+03  0.00000000000E+00 0. -1.
<mgrwt>
<rscale>  2 0.15045490E+04</rscale>
<asrwt>0</asrwt>
<pdfrwt beam="2">  1        2 0.27611651E+00 0.15045490E+04</pdfrwt>
<pdfrwt beam="1">  1       -2 0.19810004E+00 0.15045490E+04</pdfrwt>
<totfact> 0.13771671E+00</totfact>
</mgrwt>
</event>
<event>
 8    1  0.1449514E-005  0.1519542E+04  0.7818608E-02  0.8398340E-01
         -4   -1    0    0    0  501 -0.00000000000E+00  0.00000000000E+00  0.27514567431E+04  0.27514567431E+04  0.00000000000E+00 0. -1.
          4   -1    0    0  502    0  0.00000000000E+00 -0.00000000000E+00 -0.94434749732E+03  0.94434749732E+03  0.00000000000E+00 0.  1.
    9000010    2    1    2  502    0  0.69383796288E+03 -0.83935371678E+03  0.30867513805E+03  0.15882205843E+04  0.11141088380E+04 0.  0.
   -9000010    2    1    2    0  501 -0.69383796288E+03  0.83935371678E+03  0.14984341077E+04  0.21075836561E+04  0.10053249781E+04 0.  0.
        -13    1    3    3    0    0  0.24341219014E+03 -0.75905644330E+03  0.64087732968E+03  0.10228098266E+04  0.10566000000E+00 0.  1.
          4    1    3    3  502    0  0.45042577274E+03 -0.80297273473E+02 -0.33220219163E+03  0.56541075776E+03  0.00000000000E+00 0.  1.
         13    1    4    4    0    0 -0.34595740588E+03 -0.19053787646E+03  0.38980234198E+03  0.55492079257E+03  0.10566000000E+00 0. -1.
         -4    1    4    4    0  501 -0.34788055700E+03  0.10298915932E+04  0.11086317657E+04  0.15526628635E+04  0.00000000000E+00 0. -1.
<mgrwt>
<rscale>  2 0.15195421E+04</rscale>
<asrwt>0</asrwt>
<pdfrwt beam="2">  1        4 0.14528423E+00 0.15195421E+04</pdfrwt>
<pdfrwt beam="1">  1       -4 0.42330103E+00 0.15195421E+04</pdfrwt>
<totfact> 0.57717334E-02</totfact>
</mgrwt>
</event>
<event>
 8    1  0.1449514E-005  0.1191118E+04  0.7818608E-02  0.8613281E-01
          2   -1    0    0  502    0  0.00000000000E+00  0.00000000000E+00  0.38971512442E+04  0.38971512442E+04  0.00000000000E+00 0. -1.
         -2   -1    0    0    0  501 -0.00000000000E+00 -0.00000000000E+00 -0.38543077362E+03  0.38543077362E+03  0.00000000000E+00 0.  1.
    9000010    2    1    2  502    0 -0.20075429037E+03  0.57711717514E+03  0.22817352629E+04  0.25814527562E+04  0.10412569345E+04 0.  0.
   -9000010    2    1    2    0  501  0.20075429037E+03 -0.57711717514E+03  0.12299852077E+04  0.17011292616E+04  0.10037981045E+04 0.  0.
        -13    1    3    3    0    0 -0.54276779267E+03  0.46294106998E+03  0.20013690451E+04  0.21247092452E+04  0.10566000000E+00 0.  1.
          4    1    3    3  502    0  0.34201350230E+03  0.11417610515E+03  0.28036621786E+03  0.45674351103E+03  0.00000000000E+00 0.  1.
         13    1    4    4    0    0  0.39415030585E+03  0.66520277498E+02  0.82431678538E+03  0.91612094439E+03  0.10566000000E+00 0. -1.
         -4    1    4    4    0  501 -0.19339601549E+03 -0.64363745263E+03  0.40566842229E+03  0.78500831720E+03  0.00000000000E+00 0. -1.
<mgrwt>
<rscale>  2 0.11911183E+04</rscale>
<asrwt>0</asrwt>
<pdfrwt beam="1">  1        2 0.59956170E+00 0.11911183E+04</pdfrwt>
<pdfrwt beam="2">  1       -2 0.59297045E-01 0.11911183E+04</pdfrwt>
<totfact> 0.15746383E+00</totfact>
</mgrwt>
</event>
<event>
 8    1  0.1449514E-005  0.1181029E+04  0.7818608E-02  0.8620987E-01
         -2   -1    0    0    0  501 -0.00000000000E+00  0.00000000000E+00  0.50171103019E+03  0.50171103019E+03  0.00000000000E+00 0.  1.
          2   -1    0    0  502    0  0.00000000000E+00 -0.00000000000E+00 -0.31124377943E+04  0.31124377943E+04  0.00000000000E+00 0. -1.
    9000010    2    1    2  502    0 -0.26189123349E+03 -0.58245398332E+03 -0.71261199754E+03  0.13773654481E+04  0.99069675372E+03 0.  0.
   -9000010    2    1    2    0  501  0.26189123349E+03  0.58245398332E+03 -0.18981147666E+04  0.22367833764E+04  0.99625325336E+03 0.  0.
        -13    1    3    3    0    0  0.28728966491E+03 -0.48773406358E+03 -0.15027976021E+03  0.58566533604E+03  0.10566000000E+00 0.  1.
          4    1    3    3  502    0 -0.54918089840E+03 -0.94719919738E+02 -0.56233223733E+03  0.79170011210E+03  0.00000000000E+00 0.  1.
         13    1    4    4    0    0 -0.21200508299E+03 -0.78353987292E+02 -0.71041194212E+02  0.23692269831E+03  0.10566000000E+00 0. -1.
         -4    1    4    4    0  501  0.47389631647E+03  0.66080797061E+03 -0.18270735724E+04  0.19998606781E+04  0.00000000000E+00 0. -1.
<mgrwt>
<rscale>  2 0.11810288E+04</rscale>
<asrwt>0</asrwt>
<pdfrwt beam="2">  1        2 0.47883658E+00 0.11810288E+04</pdfrwt>
<pdfrwt beam="1">  1       -2 0.77186313E-01 0.11810288E+04</pdfrwt>
<totfact> 0.34726351E+00</totfact>
</mgrwt>
</event>
<event>
 8    1  0.1449514E-005  0.1084522E+04  0.7818608E-02  0.8698995E-01
          1   -1    0    0  502    0  0.00000000000E+00  0.00000000000E+00  0.16589393284E+04  0.16589393284E+04  0.00000000000E+00 0.  1.
         -1   -1    0    0    0  501 -0.00000000000E+00 -0.00000000000E+00 -0.91913931055E+03  0.91913931055E+03  0.00000000000E+00 0. -1.
    9000010    2    1    2  502    0 -0.22772183591E+03 -0.32300883744E+03 -0.24832783818E+03  0.11054509825E+04  0.10020794459E+04 0.  0.
   -9000010    2    1    2    0  501  0.22772183591E+03  0.32300883744E+03  0.98812785607E+03  0.14726276565E+04  0.10178622751E+04 0.  0.
        -13    1    3    3    0    0 -0.75561579294E+02 -0.67400243915E+03 -0.25016322356E+03  0.72289037193E+03  0.10566000000E+00 0.  1.
          4    1    3    3  502    0 -0.15216025662E+03  0.35099360171E+03  0.18353853734E+01  0.38256061059E+03  0.00000000000E+00 0.  1.
         13    1    4    4    0    0  0.32928547542E+03  0.12396219711E+03  0.11461495168E+04  0.11989388128E+04  0.10566000000E+00 0. -1.
         -4    1    4    4    0  501 -0.10156363950E+03  0.19904664033E+03 -0.15802166077E+03  0.27368884370E+03  0.00000000000E+00 0. -1.
<mgrwt>
<rscale>  2 0.10845217E+04</rscale>
<asrwt>0</asrwt>
<pdfrwt beam="1">  1        1 0.25522144E+00 0.10845217E+04</pdfrwt>
<pdfrwt beam="2">  1       -1 0.14140605E+00 0.10845217E+04</pdfrwt>
<totfact> 0.29521996E+00</totfact>
</mgrwt>
</event>
<event>
 8    1  0.1449514E-005  0.1871815E+04  0.7818608E-02  0.8222677E-01
          2   -1    0    0  502    0  0.00000000000E+00  0.00000000000E+00  0.20069371597E+04  0.20069371597E+04  0.00000000000E+00 0. -1.
         -2   -1    0    0    0  501 -0.00000000000E+00 -0.00000000000E+00 -0.18431473929E+04  0.18431473929E+04  0.00000000000E+00 0.  1.
    9000010    2    1    2  502    0 -0.11670800080E+04 -0.10526093582E+04  0.52390532408E+03  0.19358905009E+04  0.10015652932E+04 0.  0.
   -9000010    2    1    2    0  501  0.11670800080E+04  0.10526093582E+04 -0.36011555724E+03  0.19141940518E+04  0.10316944544E+04 0.  0.
        -13    1    3    3    0    0 -0.86058570037E+03 -0.11995694868E+04  0.58955791875E+03  0.15897022526E+04  0.10566000000E+00 0.  1.
          4    1    3    3  502    0 -0.30649430765E+03  0.14696012860E+03 -0.65652594667E+02  0.34618824822E+03  0.00000000000E+00 0.  1.
         13    1    4    4    0    0  0.55395932002E+03 -0.56893844804E+02  0.99711872207E+02  0.56572988823E+03  0.10566000000E+00 0. -1.
         -4    1    4    4    0  501  0.61312068800E+03  0.11095032030E+04 -0.45982742945E+03  0.13484641635E+04  0.00000000000E+00 0. -1.
<mgrwt>
<rscale>  2 0.18718150E+04</rscale>
<asrwt>0</asrwt>
<pdfrwt beam="1">  1        2 0.30875956E+00 0.18718150E+04</pdfrwt>
<pdfrwt beam="2">  1       -2 0.28356114E+00 0.18718150E+04</pdfrwt>
<totfact> 0.21571389E-01</totfact>
</mgrwt>
</event>
<event>
 8    1  0.1449514E-005  0.1261063E+04  0.7818608E-02  0.8561947E-01
         -2   -1    0    0    0  501 -0.00000000000E+00  0.00000000000E+00  0.61958787536E+03  0.61958787536E+03  0.00000000000E+00 0.  1.
          2   -1    0    0  502    0  0.00000000000E+00 -0.00000000000E+00 -0.39695815572E+04  0.39695815572E+04  0.00000000000E+00 0. -1.
    9000010    2    1    2  502    0  0.15909486808E+03  0.70640962583E+03 -0.30617715978E+04  0.33219165968E+04  0.10660013237E+04 0.  0.
   -9000010    2    1    2    0  501 -0.15909486808E+03 -0.70640962583E+03 -0.28822208400E+03  0.12672528358E+04  0.99926575222E+03 0.  0.
        -13    1    3    3    0    0  0.28057964798E+03  0.89741466893E+03 -0.17112079797E+04  0.19525139661E+04  0.10566000000E+00 0.  1.
          4    1    3    3  502    0 -0.12148477990E+03 -0.19100504310E+03 -0.13505636181E+04  0.13694026307E+04  0.00000000000E+00 0.  1.
         13    1    4    4    0    0 -0.22603925384E+03  0.20778226613E+03 -0.22423394809E+01  0.30703787006E+03  0.10566000000E+00 0. -1.
         -4    1    4    4    0  501  0.66944385766E+02 -0.91419189197E+03 -0.28597974452E+03  0.96021496572E+03  0.00000000000E+00 0. -1.
<mgrwt>
<rscale>  2 0.12610625E+04</rscale>
<asrwt>0</asrwt>
<pdfrwt beam="2">  1        2 0.61070486E+00 0.12610625E+04</pdfrwt>
<pdfrwt beam="1">  1       -2 0.95321211E-01 0.12610625E+04</pdfrwt>
<totfact> 0.48476859E-01</totfact>
</mgrwt>
</event>
<event>
 8    1  0.1449514E-005  0.1156917E+04  0.7818608E-02  0.8639730E-01
          4   -1    0    0  502    0  0.00000000000E+00  0.00000000000E+00  0.32855754209E+04  0.32855754209E+04  0.00000000000E+00 0.  1.
         -4   -1    0    0    0  501 -0.00000000000E+00 -0.00000000000E+00 -0.43340513756E+03  0.43340513756E+03  0.00000000000E+00 0. -1.
    9000010    2    1    2  502    0 -0.52670249008E+03  0.30607836850E+03  0.18652095734E+04  0.21876464672E+04  0.96731113490E+03 0.  0.
   -9000010    2    1    2    0  501  0.52670249008E+03 -0.30607836850E+03  0.98696070989E+03  0.15313340913E+04  0.99989658244E+03 0.  0.
        -13    1    3    3    0    0 -0.47845966389E+02  0.58634960658E+03  0.95718935402E+03  0.11235241734E+04  0.10566000000E+00 0.  1.
          4    1    3    3  502    0 -0.47885652369E+03 -0.28027123807E+03  0.90802021943E+03  0.10641222938E+04  0.00000000000E+00 0.  1.
         13    1    4    4    0    0 -0.15308663476E+03 -0.20119701199E+02  0.73645062264E+03  0.75246252456E+03  0.10566000000E+00 0. -1.
         -4    1    4    4    0  501  0.67978912484E+03 -0.28595866730E+03  0.25051008725E+03  0.77887156674E+03  0.00000000000E+00 0. -1.
<mgrwt>
<rscale>  2 0.11569174E+04</rscale>
<asrwt>0</asrwt>
<pdfrwt beam="1">  1        4 0.50547312E+00 0.11569174E+04</pdfrwt>
<pdfrwt beam="2">  1       -4 0.66677716E-01 0.11569174E+04</pdfrwt>
<totfact> 0.10641132E-01</totfact>
</mgrwt>
</event>
<event>
 8    1  0.1449514E-005  0.1148187E+04  0.7818608E-02  0.8646634E-01
         -2   -1    0    0    0  501 -0.00000000000E+00  0.00000000000E+00  0.51605155219E+03  0.51605155219E+03  0.00000000000E+00 0.  1.
          2   -1    0    0  502    0  0.00000000000E+00 -0.00000000000E+00 -0.28802354806E+04  0.28802354806E+04  0.00000000000E+00 0. -1.
    9000010    2    1    2  502    0 -0.52546894962E+01 -0.56001978716E+03 -0.17618460989E+04  0.21083783904E+04  0.10136606863E+04 0.  0.
   -9000010    2    1    2    0  501  0.52546894962E+01  0.56001978716E+03 -0.60233782949E+03  0.12879086424E+04  0.99108427322E+03 0.  0.
        -13    1    3    3    0    0  0.28681360758E+03 -0.53203204509E+03 -0.17057347084E+04  0.18096549530E+04  0.10566000000E+00 0.  1.
          4    1    3    3  502    0 -0.29206829708E+03 -0.27987742074E+02 -0.56111390558E+02  0.29872343734E+03  0.00000000000E+00 0.  1.
         13    1    4    4    0    0  0.12865489520E+03 -0.70105864193E+02  0.20774616483E+03  0.25421525214E+03  0.10566000000E+00 0. -1.
         -4    1    4    4    0  501 -0.12340020571E+03  0.63012565136E+03 -0.81008399432E+03  0.10336933903E+04  0.00000000000E+00 0. -1.
<mgrwt>
<rscale>  2 0.11481871E+04</rscale>
<asrwt>0</asrwt>
<pdfrwt beam="2">  1        2 0.44311315E+00 0.11481871E+04</pdfrwt>
<pdfrwt beam="1">  1       -2 0.79392547E-01 0.11481871E+04</pdfrwt>
<totfact> 0.45658367E+00</totfact>
</mgrwt>
</event>
<event>
 8    1  0.1449514E-005  0.1106602E+04  0.7818608E-02  0.8680421E-01
         -2   -1    0    0    0  501 -0.00000000000E+00  0.00000000000E+00  0.44551928590E+03  0.44551928590E+03  0.00000000000E+00 0. -1.
          2   -1    0    0  502    0  0.00000000000E+00 -0.00000000000E+00 -0.28279897362E+04  0.28279897362E+04  0.00000000000E+00 0.  1.
    9000010    2    1    2  502    0  0.25819129892E+03 -0.39663086504E+03 -0.14636756297E+04  0.18339169028E+04  0.99846185086E+03 0.  0.
   -9000010    2    1    2    0  501 -0.25819129892E+03  0.39663086504E+03 -0.91879482061E+03  0.14395921193E+04  0.10021291122E+04 0.  0.
        -13    1    3    3    0    0  0.17757096116E+03 -0.29622712624E+03 -0.16055759386E+04  0.16423020618E+04  0.10566000000E+00 0.  1.
          4    1    3    3  502    0  0.80620337762E+02 -0.10040373879E+03  0.14190030890E+03  0.19161484100E+03  0.00000000000E+00 0.  1.
         13    1    4    4    0    0 -0.64332812886E+03  0.19146254292E+03 -0.58113275968E+03  0.88783122397E+03  0.10566000000E+00 0. -1.
         -4    1    4    4    0  501  0.38513682994E+03  0.20516832212E+03 -0.33766206093E+03  0.55176089528E+03  0.00000000000E+00 0. -1.
<mgrwt>
<rscale>  2 0.11066019E+04</rscale>
<asrwt>0</asrwt>
<pdfrwt beam="2">  1        2 0.43507533E+00 0.11066019E+04</pdfrwt>
<pdfrwt beam="1">  1       -2 0.68541430E-01 0.11066019E+04</pdfrwt>
<totfact> 0.67443949E+00</totfact>
</mgrwt>
</event>
<event>
 8    1  0.1449514E-005  0.1523006E+04  0.7818608E-02  0.8396381E-01
         -2   -1    0    0    0  501 -0.00000000000E+00  0.00000000000E+00  0.20416221177E+04  0.20416221177E+04  0.00000000000E+00 0. -1.
          2   -1    0    0  502    0  0.00000000000E+00 -0.00000000000E+00 -0.19492587110E+04  0.19492587110E+04  0.00000000000E+00 0.  1.
    9000010    2    1    2  502    0 -0.55343703581E+03 -0.97911816733E+03  0.13350991722E+04  0.20330539150E+04  0.10420429374E+04 0.  0.
   -9000010    2    1    2    0  501  0.55343703581E+03  0.97911816733E+03 -0.12427357655E+04  0.19578269138E+04  0.10117949907E+04 0.  0.
        -13    1    3    3    0    0 -0.42097631655E+03 -0.62843093184E+03  0.12555856194E+03  0.76675384501E+03  0.10566000000E+00 0.  1.
          4    1    3    3  502    0 -0.13246071926E+03 -0.35068723548E+03  0.12095406103E+04  0.12663000700E+04  0.00000000000E+00 0.  1.
         13    1    4    4    0    0  0.49745156902E+03  0.32341600167E+03 -0.11489184738E+04  0.12930853198E+04  0.10566000000E+00 0. -1.
         -4    1    4    4    0  501  0.55985466791E+02  0.65570216565E+03 -0.93817291726E+02  0.66474159398E+03  0.00000000000E+00 0. -1.
<mgrwt>
<rscale>  2 0.15230063E+04</rscale>
<asrwt>0</asrwt>
<pdfrwt beam="2">  1        2 0.29988595E+00 0.15230063E+04</pdfrwt>
<pdfrwt beam="1">  1       -2 0.31409571E+00 0.15230063E+04</pdfrwt>
<totfact> 0.14856260E-01</totfact>
</mgrwt>
</event>
<event>
 8    1  0.1449514E-005  0.1185649E+04  0.7818608E-02  0.8617448E-01
          2   -1    0    0  502    0  0.00000000000E+00  0.00000000000E+00  0.23481698353E+04  0.23481698353E+04  0.00000000000E+00 0.  1.
         -2   -1    0    0    0  501 -0.00000000000E+00 -0.00000000000E+00 -0.61359301781E+03  0.61359301781E+03  0.00000000000E+00 0. -1.
    9000010    2    1    2  502    0 -0.34896296734E+03 -0.51184860238E+03  0.11052131962E+04  0.16283945022E+04  0.10229410057E+04 0.  0.
   -9000010    2    1    2    0  501  0.34896296734E+03  0.51184860238E+03  0.62936362123E+03  0.13333683509E+04  0.99900372734E+03 0.  0.
        -13    1    3    3    0    0 -0.25947473806E+02 -0.36095928987E+03 -0.96808178841E+02  0.37461542279E+03  0.10566000000E+00 0.  1.
          4    1    3    3  502    0 -0.32301549353E+03 -0.15088931251E+03  0.12020213751E+04  0.12537790794E+04  0.00000000000E+00 0.  1.
         13    1    4    4    0    0 -0.29922256329E+03 -0.40184319634E+02  0.28429874376E+03  0.41469833469E+03  0.10566000000E+00 0. -1.
         -4    1    4    4    0  501  0.64818553063E+03  0.55203292201E+03  0.34506487748E+03  0.91867001626E+03  0.00000000000E+00 0. -1.
<mgrwt>
<rscale>  2 0.11856493E+04</rscale>
<asrwt>0</asrwt>
<pdfrwt beam="1">  1        2 0.36125689E+00 0.11856493E+04</pdfrwt>
<pdfrwt beam="2">  1       -2 0.94398927E-01 0.11856493E+04</pdfrwt>
<totfact> 0.61956093E+00</totfact>
</mgrwt>
</event>
<event>
 8    1  0.1449514E-005  0.1181072E+04  0.7818608E-02  0.8620953E-01
         -2   -1    0    0    0  501 -0.00000000000E+00  0.00000000000E+00  0.31202415117E+03  0.31202415117E+03  0.00000000000E+00 0.  1.
          2   -1    0    0  502    0  0.00000000000E+00 -0.00000000000E+00 -0.45172234547E+04  0.45172234547E+04  0.00000000000E+00 0. -1.
    9000010    2    1    2  502    0  0.39456199503E+03  0.13085009101E+03 -0.24193055853E+04  0.27380739452E+04  0.12129338400E+04 0.  0.
   -9000010    2    1    2    0  501 -0.39456199503E+03 -0.13085009101E+03 -0.17858937183E+04  0.20911736607E+04  0.10053805210E+04 0.  0.
        -13    1    3    3    0    0 -0.30303932726E+03  0.68783459418E+02 -0.11773328915E+03  0.33230277864E+03  0.10566000000E+00 0.  1.
          4    1    3    3  502    0  0.69760132229E+03  0.62066631591E+02 -0.23015722961E+04  0.24057711665E+04  0.00000000000E+00 0.  1.
         13    1    4    4    0    0 -0.48465063204E+03 -0.67583979885E+02 -0.18822851755E+04  0.19448525195E+04  0.10566000000E+00 0. -1.
         -4    1    4    4    0  501  0.90088637009E+02 -0.63266111124E+02  0.96391457232E+02  0.14632114120E+03  0.00000000000E+00 0. -1.
<mgrwt>
<rscale>  2 0.11810723E+04</rscale>
<asrwt>0</asrwt>
<pdfrwt beam="2">  1        2 0.69495741E+00 0.11810723E+04</pdfrwt>
<pdfrwt beam="1">  1       -2 0.48003718E-01 0.11810723E+04</pdfrwt>
<totfact> 0.65428836E-01</totfact>
</mgrwt>
</event>
<event>
 8    1  0.1449514E-005  0.1255931E+04  0.7818608E-02  0.8565594E-01
          2   -1    0    0  502    0  0.00000000000E+00  0.00000000000E+00  0.16801404997E+04  0.16801404997E+04  0.00000000000E+00 0. -1.
         -2   -1    0    0    0  501 -0.00000000000E+00 -0.00000000000E+00 -0.12702706915E+04  0.12702706915E+04  0.00000000000E+00 0.  1.
    9000010    2    1    2  502    0 -0.12211538714E+03 -0.82917451279E+03  0.96240027395E+03  0.16235301276E+04  0.10035901791E+04 0.  0.
   -9000010    2    1    2    0  501  0.12211538714E+03  0.82917451279E+03 -0.55253046572E+03  0.13268810636E+04  0.86768709853E+03 0.  0.
        -13    1    3    3    0    0  0.98919132006E+02 -0.84834055624E+03  0.26892040607E+03  0.89542441893E+03  0.10566000000E+00 0.  1.
          4    1    3    3  502    0 -0.22103451914E+03  0.19166043456E+02  0.69347986787E+03  0.72810570869E+03  0.00000000000E+00 0.  1.
         13    1    4    4    0    0  0.28873499444E+02  0.97617132439E+03 -0.30279209383E+03  0.10224613424E+04  0.10566000000E+00 0. -1.
         -4    1    4    4    0  501  0.93241887695E+02 -0.14699681160E+03 -0.24973837188E+03  0.30441972116E+03  0.00000000000E+00 0. -1.
<mgrwt>
<rscale>  2 0.12559310E+04</rscale>
<asrwt>0</asrwt>
<pdfrwt beam="1">  1        2 0.25848315E+00 0.12559310E+04</pdfrwt>
<pdfrwt beam="2">  1       -2 0.19542626E+00 0.12559310E+04</pdfrwt>
<totfact> 0.17194085E+00</totfact>
</mgrwt>
</event>
<event>
 8    1  0.1449514E-005  0.1338827E+04  0.7818608E-02  0.8508766E-01
          2   -1    0    0  502    0  0.00000000000E+00  0.00000000000E+00  0.20577410267E+04  0.20577410267E+04  0.00000000000E+00 0.  1.
         -2   -1    0    0    0  501 -0.00000000000E+00 -0.00000000000E+00 -0.87313023323E+03  0.87313023323E+03  0.00000000000E+00 0. -1.
    9000010    2    1    2  502    0  0.85415642014E+03 -0.24751864540E+03  0.66386436767E+03  0.14955116261E+04  0.10024921223E+04 0.  0.
   -9000010    2    1    2    0  501 -0.85415642014E+03  0.24751864540E+03  0.52074642581E+03  0.14353596338E+04  0.99911549311E+03 0.  0.
        -13    1    3    3    0    0 -0.12087802041E+03  0.14468341792E+03  0.35191069802E+03  0.39923168434E+03  0.10566000000E+00 0.  1.
          4    1    3    3  502    0  0.97503444055E+03 -0.39220206331E+03  0.31195366965E+03  0.10962799418E+04  0.00000000000E+00 0.  1.
         13    1    4    4    0    0 -0.45641200858E+03 -0.40057047885E+01  0.77578418573E+03  0.90009392912E+03  0.10566000000E+00 0. -1.
         -4    1    4    4    0  501 -0.39774441156E+03  0.25152435019E+03 -0.25503775992E+03  0.53526570472E+03  0.00000000000E+00 0. -1.
<mgrwt>
<rscale>  2 0.13388266E+04</rscale>
<asrwt>0</asrwt>
<pdfrwt beam="1">  1        2 0.31657554E+00 0.13388266E+04</pdfrwt>
<pdfrwt beam="2">  1       -2 0.13432773E+00 0.13388266E+04</pdfrwt>
<totfact> 0.35595590E+00</totfact>
</mgrwt>
</event>
<event>
 8    1  0.1449514E-005  0.1562383E+04  0.7818608E-02  0.8374475E-01
         -1   -1    0    0    0  501 -0.00000000000E+00  0.00000000000E+00  0.12835467731E+04  0.12835467731E+04  0.00000000000E+00 0. -1.
          1   -1    0    0  502    0  0.00000000000E+00 -0.00000000000E+00 -0.20046286312E+04  0.20046286312E+04  0.00000000000E+00 0.  1.
    9000010    2    1    2  502    0  0.93102057815E+03 -0.73445286259E+03  0.14729171612E+02  0.15478242728E+04  0.99464702625E+03 0.  0.
   -9000010    2    1    2    0  501 -0.93102057815E+03  0.73445286259E+03 -0.73581102973E+03  0.17403511314E+04  0.10397999158E+04 0.  0.
        -13    1    3    3    0    0  0.12207362472E+03 -0.68656673838E+03  0.18130306670E+03  0.72051833374E+03  0.10566000000E+00 0.  1.
          4    1    3    3  502    0  0.80894695343E+03 -0.47886124211E+02 -0.16657389509E+03  0.82730593911E+03  0.00000000000E+00 0.  1.
         13    1    4    4    0    0  0.52520004725E+02  0.57896067063E+03 -0.27835947642E+03  0.64454465967E+03  0.10566000000E+00 0. -1.
         -4    1    4    4    0  501 -0.98354058287E+03  0.15549219196E+03 -0.45745155331E+03  0.10958064718E+04  0.00000000000E+00 0. -1.
<mgrwt>
<rscale>  2 0.15623833E+04</rscale>
<asrwt>0</asrwt>
<pdfrwt beam="2">  1        1 0.30840440E+00 0.15623833E+04</pdfrwt>
<pdfrwt beam="1">  1       -1 0.19746873E+00 0.15623833E+04</pdfrwt>
<totfact> 0.49424002E-01</totfact>
</mgrwt>
</event>
<event>
 8    1  0.1449514E-005  0.1192334E+04  0.7818608E-02  0.8612357E-01
          1   -1    0    0  502    0  0.00000000000E+00  0.00000000000E+00  0.17707823760E+04  0.17707823760E+04  0.00000000000E+00 0. -1.
         -1   -1    0    0    0  501 -0.00000000000E+00 -0.00000000000E+00 -0.80796307859E+03  0.80796307859E+03  0.00000000000E+00 0.  1.
    9000010    2    1    2  502    0  0.30154946740E+03 -0.59076342744E+03  0.38290899916E+03  0.12610320875E+04  0.10018228964E+04 0.  0.
   -9000010    2    1    2    0  501 -0.30154946740E+03  0.59076342744E+03  0.57991029821E+03  0.13177133670E+04  0.97986685582E+03 0.  0.
        -13    1    3    3    0    0 -0.25758468289E+03 -0.50559740511E+03 -0.18086889452E+02  0.56771978268E+03  0.10566000000E+00 0.  1.
          4    1    3    3  502    0  0.55913415030E+03 -0.85166022332E+02  0.40099588861E+03  0.69331230486E+03  0.00000000000E+00 0.  1.
         13    1    4    4    0    0 -0.14895173485E+03  0.63158855568E+03 -0.66470503835E+02  0.65231055643E+03  0.10566000000E+00 0. -1.
         -4    1    4    4    0  501 -0.15259773255E+03 -0.40825128248E+02  0.64638080204E+03  0.66540281058E+03  0.00000000000E+00 0. -1.
<mgrwt>
<rscale>  2 0.11923343E+04</rscale>
<asrwt>0</asrwt>
<pdfrwt beam="1">  1        1 0.27242806E+00 0.11923343E+04</pdfrwt>
<pdfrwt beam="2">  1       -1 0.12430201E+00 0.11923343E+04</pdfrwt>
<totfact> 0.33916472E+00</totfact>
</mgrwt>
</event>
<event>
 8    1  0.1449514E-005  0.1359596E+04  0.7818608E-02  0.8495190E-01
         -2   -1    0    0    0  501 -0.00000000000E+00  0.00000000000E+00  0.56705455820E+03  0.56705455820E+03  0.00000000000E+00 0. -1.
          2   -1    0    0  502    0  0.00000000000E+00 -0.00000000000E+00 -0.33089293951E+04  0.33089293951E+04  0.00000000000E+00 0.  1.
    9000010    2    1    2  502    0  0.31382673692E+03  0.83016253982E+03 -0.16131671861E+04  0.21138150519E+04  0.10383875191E+04 0.  0.
   -9000010    2    1    2    0  501 -0.31382673692E+03 -0.83016253982E+03 -0.11287076507E+04  0.17621689014E+04  0.10215680168E+04 0.  0.
        -13    1    3    3    0    0 -0.47672567047E+02  0.44541396302E+03 -0.15111086319E+04  0.15761077313E+04  0.10566000000E+00 0.  1.
          4    1    3    3  502    0  0.36149930396E+03  0.38474857680E+03 -0.10205855424E+03  0.53770732059E+03  0.00000000000E+00 0.  1.
         13    1    4    4    0    0 -0.35268272067E+03  0.13229913885E+03 -0.43324513306E+03  0.57409887657E+03  0.10566000000E+00 0. -1.
         -4    1    4    4    0  501  0.38855983752E+02 -0.96246167867E+03 -0.69546251768E+03  0.11880700248E+04  0.00000000000E+00 0. -1.
<mgrwt>
<rscale>  2 0.13595958E+04</rscale>
<asrwt>0</asrwt>
<pdfrwt beam="2">  1        2 0.50906606E+00 0.13595958E+04</pdfrwt>
<pdfrwt beam="1">  1       -2 0.87239162E-01 0.13595958E+04</pdfrwt>
<totfact> 0.19273653E+00</totfact>
</mgrwt>
</event>
<event>
 8    1  0.1449514E-005  0.1300137E+04  0.7818608E-02  0.8534746E-01
          2   -1    0    0  502    0  0.00000000000E+00  0.00000000000E+00  0.27919867038E+04  0.27919867038E+04  0.00000000000E+00 0.  1.
         -2   -1    0    0    0  501 -0.00000000000E+00 -0.00000000000E+00 -0.69955277288E+03  0.69955277288E+03  0.00000000000E+00 0. -1.
    9000010    2    1    2  502    0  0.39829885588E+03  0.48682221419E+03  0.15859506687E+04  0.19819421012E+04  0.10085718230E+04 0.  0.
   -9000010    2    1    2    0  501 -0.39829885588E+03 -0.48682221419E+03  0.50648326226E+03  0.15095973755E+04  0.12754297685E+04 0.  0.
        -13    1    3    3    0    0 -0.83052812124E+02 -0.27436659833E+03  0.42442137365E+03  0.51216043722E+03  0.10566000000E+00 0.  1.
          4    1    3    3  502    0  0.48135166800E+03  0.76118881252E+03  0.11615292950E+04  0.14697816640E+04  0.00000000000E+00 0.  1.
         13    1    4    4    0    0 -0.15728861304E+03 -0.72514311633E+03  0.77815126179E+03  0.10752170220E+04  0.10566000000E+00 0. -1.
         -4    1    4    4    0  501 -0.24101024283E+03  0.23832090214E+03 -0.27166799953E+03  0.43438035351E+03  0.00000000000E+00 0. -1.
<mgrwt>
<rscale>  2 0.13001365E+04</rscale>
<asrwt>0</asrwt>
<pdfrwt beam="1">  1        2 0.42953641E+00 0.13001365E+04</pdfrwt>
<pdfrwt beam="2">  1       -2 0.10762351E+00 0.13001365E+04</pdfrwt>
<totfact> 0.24901171E+00</totfact>
</mgrwt>
</event>
<event>
 8    1  0.1449514E-005  0.1632651E+04  0.7818608E-02  0.8336998E-01
         -4   -1    0    0    0  501 -0.00000000000E+00  0.00000000000E+00  0.99205168289E+03  0.99205168289E+03  0.00000000000E+00 0.  1.
          4   -1    0    0  502    0  0.00000000000E+00 -0.00000000000E+00 -0.26940382179E+04  0.26940382179E+04  0.00000000000E+00 0. -1.
    9000010    2    1    2  502    0  0.52191408221E+03 -0.11689635279E+04 -0.94947265387E+03  0.18954337923E+04  0.10258171874E+04 0.  0.
   -9000010    2    1    2    0  501 -0.52191408221E+03  0.11689635279E+04 -0.75251388119E+03  0.17906561085E+04  0.10006508476E+04 0.  0.
        -13    1    3    3    0    0  0.79363270864E+03 -0.58280975323E+03 -0.67316643597E+03  0.11927586287E+04  0.10566000000E+00 0.  1.
          4    1    3    3  502    0 -0.27171862643E+03 -0.58615377469E+03 -0.27630621790E+03  0.70267516363E+03  0.00000000000E+00 0.  1.
         13    1    4    4    0    0 -0.27733359335E+03  0.10569203650E+04 -0.95716540632E+03  0.14526390489E+04  0.10566000000E+00 0. -1.
         -4    1    4    4    0  501 -0.24458048886E+03  0.11204316288E+03  0.20465152513E+03  0.33801705965E+03  0.00000000000E+00 0. -1.
<mgrwt>
<rscale>  2 0.16326511E+04</rscale>
<asrwt>0</asrwt>
<pdfrwt beam="2">  1        4 0.41446742E+00 0.16326511E+04</pdfrwt>
<pdfrwt beam="1">  1       -4 0.15262334E+00 0.16326511E+04</pdfrwt>
<totfact> 0.57967414E-02</totfact>
</mgrwt>
</event>
<event>
 8    1  0.1449514E-005  0.1373152E+04  0.7818608E-02  0.8486463E-01
         -2   -1    0    0    0  501 -0.00000000000E+00  0.00000000000E+00  0.77934112518E+03  0.77934112518E+03  0.00000000000E+00 0.  1.
          2   -1    0    0  502    0  0.00000000000E+00 -0.00000000000E+00 -0.24563894056E+04  0.24563894056E+04  0.00000000000E+00 0. -1.
    9000010    2    1    2  502    0 -0.96061971853E+02  0.89899583656E+03 -0.69106350698E+03  0.15939673783E+04  0.11161280463E+04 0.  0.
   -9000010    2    1    2    0  501  0.96061971853E+02 -0.89899583656E+03 -0.98598477340E+03  0.16417631525E+04  0.95173465777E+03 0.  0.
        -13    1    3    3    0    0 -0.39560793128E+03  0.72447103840E+03 -0.51986348394E+01  0.82546408628E+03  0.10566000000E+00 0.  1.
          4    1    3    3  502    0  0.29954595943E+03  0.17452479816E+03 -0.68586487214E+03  0.76850329200E+03  0.00000000000E+00 0.  1.
         13    1    4    4    0    0  0.30003898379E+03 -0.35577100355E+03  0.35734940915E+02  0.46676910344E+03  0.10566000000E+00 0. -1.
         -4    1    4    4    0  501 -0.20397701194E+03 -0.54322483301E+03 -0.10217197143E+04  0.11749940490E+04  0.00000000000E+00 0. -1.
<mgrwt>
<rscale>  2 0.13731519E+04</rscale>
<asrwt>0</asrwt>
<pdfrwt beam="2">  1        2 0.37790606E+00 0.13731519E+04</pdfrwt>
<pdfrwt beam="1">  1       -2 0.11989864E+00 0.13731519E+04</pdfrwt>
<totfact> 0.29222419E+00</totfact>
</mgrwt>
</event>
<event>
 8    1  0.1449514E-005  0.1762296E+04  0.7818608E-02  0.8272707E-01
          2   -1    0    0  502    0  0.00000000000E+00  0.00000000000E+00  0.32880028467E+04  0.32880028467E+04  0.00000000000E+00 0.  1.
         -2   -1    0    0    0  501 -0.00000000000E+00 -0.00000000000E+00 -0.97017322225E+03  0.97017322225E+03  0.00000000000E+00 0. -1.
    9000010    2    1    2  502    0 -0.12270313053E+04 -0.79195240412E+03  0.15082968174E+04  0.23237157648E+04  0.99594238369E+03 0.  0.
   -9000010    2    1    2    0  501  0.12270313053E+04  0.79195240412E+03  0.80953280702E+03  0.19344603042E+04  0.97672865642E+03 0.  0.
        -13    1    3    3    0    0 -0.13936204357E+04 -0.78786353514E+03  0.13576625484E+04  0.20990841992E+04  0.10566000000E+00 0.  1.
          4    1    3    3  502    0  0.16658913049E+03 -0.40888689814E+01  0.15063426908E+03  0.22463156561E+03  0.00000000000E+00 0.  1.
         13    1    4    4    0    0  0.12221028665E+04  0.33845386310E+03  0.75958353823E+03  0.14781926791E+04  0.10566000000E+00 0. -1.
         -4    1    4    4    0  501  0.49284387080E+01  0.45349854102E+03  0.49949268790E+02  0.45626762505E+03  0.00000000000E+00 0. -1.
<mgrwt>
<rscale>  2 0.17622959E+04</rscale>
<asrwt>0</asrwt>
<pdfrwt beam="1">  1        2 0.50584659E+00 0.17622959E+04</pdfrwt>
<pdfrwt beam="2">  1       -2 0.14925742E+00 0.17622959E+04</pdfrwt>
<totfact> 0.46873193E-01</totfact>
</mgrwt>
</event>
